unknown system                          
           1
    24.471118    0.000000    0.000000
     0.000000   24.471118    0.000000
     0.000000    0.000000   24.471118
   Ag
  43
Direct configuration=     1
   0.52177469  0.54325751  0.74375066
   0.43214312  0.59810034  0.70317354
   0.53532343  0.58534365  0.64321306
   0.43883901  0.61868175  0.59351948
   0.45922283  0.49730154  0.66499264
   0.35305083  0.55860400  0.63419856
   0.56410629  0.46828786  0.63205092
   0.53718673  0.61940983  0.53788777
   0.62362159  0.55745073  0.58344623
   0.26711588  0.48957586  0.63721978
   0.34779966  0.59644210  0.52800365
   0.64923053  0.44966300  0.55354735
   0.44125635  0.65205122  0.48737728
   0.36721452  0.44143596  0.63730404
   0.47110863  0.40203788  0.61223982
   0.53427770  0.63470593  0.42667393
   0.34915110  0.63408375  0.42243436
   0.54434198  0.49189835  0.52270723
   0.62289810  0.58474833  0.47198545
   0.32017294  0.48445670  0.54013335
   0.71208189  0.53607067  0.51868810
   0.43554545  0.50218276  0.54719836
   0.56486879  0.37842532  0.55594783
   0.38410836  0.38425712  0.54176694
   0.47235329  0.31669185  0.54071116
   0.44065527  0.67333893  0.37592620
   0.73461991  0.43589269  0.47687582
   0.47648124  0.52305471  0.44506037
   0.35061137  0.52402166  0.44010609
   0.68274641  0.51032210  0.40984627
   0.64253500  0.37101078  0.47365732
   0.54009844  0.33022927  0.45431810
   0.59620483  0.56259676  0.36516196
   0.41361903  0.56375717  0.35579937
   0.51015997  0.61239273  0.31546450
   0.43222261  0.35911753  0.44105062
   0.33487018  0.41483236  0.44870184
   0.60950163  0.34323597  0.36741051
   0.70215878  0.40192713  0.37646386
   0.50605122  0.50094003  0.33332173
   0.41273879  0.45082167  0.37678089
   0.60643743  0.45315638  0.34627090
   0.50929427  0.39422667  0.36712763
Direct configuration=     2
   0.52185181  0.54319127  0.74385788
   0.43212513  0.59818209  0.70328819
   0.53525136  0.58532656  0.64328205
   0.43884818  0.61867352  0.59356786
   0.45921551  0.49741843  0.66498889
   0.35304522  0.55856159  0.63420867
   0.56411057  0.46832246  0.63214823
   0.53718659  0.61937418  0.53786889
   0.62364315  0.55745472  0.58346590
   0.26699040  0.48957813  0.63726545
   0.34776936  0.59643096  0.52804770
   0.64928363  0.44969611  0.55356904
   0.44120132  0.65209006  0.48734023
   0.36716062  0.44139724  0.63731028
   0.47111237  0.40202925  0.61226002
   0.53424098  0.63474101  0.42659725
   0.34905382  0.63414485  0.42237614
   0.54450573  0.49189049  0.52276428
   0.62292161  0.58470940  0.47199494
   0.32014430  0.48441776  0.54020865
   0.71218229  0.53613704  0.51870125
   0.43543213  0.50218674  0.54730540
   0.56489240  0.37838234  0.55594193
   0.38408260  0.38428025  0.54180383
   0.47228683  0.31654826  0.54074778
   0.44062416  0.67345668  0.37588007
   0.73472415  0.43585587  0.47693777
   0.47647157  0.52313431  0.44491622
   0.35068676  0.52402150  0.44009527
   0.68285150  0.51028993  0.40984062
   0.64258897  0.37101622  0.47358276
   0.54010536  0.33019578  0.45433991
   0.59621627  0.56262180  0.36513040
   0.41358440  0.56384117  0.35573284
   0.51016616  0.61244947  0.31536881
   0.43219282  0.35904933  0.44105346
   0.33475573  0.41479133  0.44864872
   0.60953643  0.34313913  0.36733204
   0.70222763  0.40191462  0.37639558
   0.50603682  0.50096600  0.33327691
   0.41269566  0.45081473  0.37672938
   0.60648128  0.45310654  0.34624721
   0.50931645  0.39420944  0.36709676
Direct configuration=     3
   0.52208315  0.54299255  0.74417957
   0.43207116  0.59842733  0.70363211
   0.53503515  0.58527528  0.64348901
   0.43887567  0.61864882  0.59371299
   0.45919358  0.49776908  0.66497766
   0.35302840  0.55843435  0.63423900
   0.56412340  0.46842626  0.63244017
   0.53718618  0.61926722  0.53781223
   0.62370780  0.55746667  0.58352494
   0.26661396  0.48958494  0.63740248
   0.34767846  0.59639753  0.52817984
   0.64944295  0.44979545  0.55363410
   0.44103623  0.65220660  0.48722909
   0.36699892  0.44128111  0.63732900
   0.47112358  0.40200336  0.61232062
   0.53413083  0.63484625  0.42636723
   0.34876198  0.63432816  0.42220148
   0.54499699  0.49186691  0.52293544
   0.62299217  0.58459261  0.47202341
   0.32005840  0.48430095  0.54043457
   0.71248349  0.53633617  0.51874071
   0.43509215  0.50219870  0.54762651
   0.56496325  0.37825342  0.55592424
   0.38400531  0.38434965  0.54191448
   0.47208744  0.31611748  0.54085763
   0.44053083  0.67380993  0.37574169
   0.73503686  0.43574538  0.47712361
   0.47644255  0.52337310  0.44448377
   0.35091291  0.52402101  0.44006279
   0.68316679  0.51019342  0.40982368
   0.64275091  0.37103254  0.47335907
   0.54012611  0.33009529  0.45440533
   0.59625060  0.56269691  0.36503571
   0.41348053  0.56409316  0.35553323
   0.51018473  0.61261971  0.31508174
   0.43210345  0.35884473  0.44106199
   0.33441240  0.41466825  0.44848936
   0.60964084  0.34284858  0.36709664
   0.70243419  0.40187709  0.37619075
   0.50599365  0.50104393  0.33314244
   0.41256625  0.45079391  0.37657486
   0.60661285  0.45295703  0.34617613
   0.50938302  0.39415777  0.36700416
Direct configuration=     4
   0.52254585  0.54259510  0.74482293
   0.43196321  0.59891781  0.70431997
   0.53460273  0.58517271  0.64390294
   0.43893067  0.61859941  0.59400327
   0.45914970  0.49847039  0.66495520
   0.35299476  0.55817988  0.63429966
   0.56414905  0.46863385  0.63302405
   0.53718534  0.61905330  0.53769892
   0.62383712  0.55749057  0.58364301
   0.26586109  0.48959855  0.63767654
   0.34749667  0.59633068  0.52844413
   0.64976157  0.44999412  0.55376423
   0.44070605  0.65243968  0.48700681
   0.36667552  0.44104883  0.63736643
   0.47114602  0.40195157  0.61244182
   0.53391052  0.63505673  0.42590719
   0.34817829  0.63469477  0.42185216
   0.54597950  0.49181976  0.52327774
   0.62313328  0.58435902  0.47208034
   0.31988659  0.48406732  0.54088641
   0.71308589  0.53673443  0.51881963
   0.43441220  0.50222260  0.54826874
   0.56510494  0.37799558  0.55588886
   0.38385074  0.38448844  0.54213579
   0.47168865  0.31525593  0.54107734
   0.44034418  0.67451644  0.37546493
   0.73566228  0.43552440  0.47749531
   0.47638451  0.52385068  0.44361886
   0.35136523  0.52402004  0.43999783
   0.68379736  0.51000040  0.40978978
   0.64307478  0.37106518  0.47291170
   0.54016761  0.32989432  0.45453619
   0.59631924  0.56284715  0.36484634
   0.41327277  0.56459713  0.35513401
   0.51022187  0.61296018  0.31450759
   0.43192471  0.35843552  0.44107904
   0.33372573  0.41442208  0.44817064
   0.60984965  0.34226749  0.36662583
   0.70284731  0.40180204  0.37578107
   0.50590729  0.50119978  0.33287351
   0.41230744  0.45075227  0.37626581
   0.60687600  0.45265799  0.34603397
   0.50951614  0.39405442  0.36681896
Direct configuration=     5
   0.52347125  0.54180021  0.74610965
   0.43174730  0.59989878  0.70569568
   0.53373788  0.58496757  0.64473079
   0.43904066  0.61850059  0.59458382
   0.45906194  0.49987300  0.66491028
   0.35292749  0.55767093  0.63442097
   0.56420037  0.46904904  0.63419181
   0.53718367  0.61862545  0.53747231
   0.62409575  0.55753839  0.58387914
   0.26435534  0.48962578  0.63822465
   0.34713309  0.59619698  0.52897271
   0.65039882  0.45039146  0.55402448
   0.44004569  0.65290583  0.48656225
   0.36602871  0.44058427  0.63744130
   0.47119088  0.40184799  0.61268423
   0.53346991  0.63547768  0.42498711
   0.34701092  0.63542800  0.42115352
   0.54794451  0.49172544  0.52396234
   0.62341551  0.58389186  0.47219421
   0.31954297  0.48360007  0.54179009
   0.71429070  0.53753093  0.51897747
   0.43305229  0.50227042  0.54955319
   0.56538832  0.37747989  0.55581808
   0.38354159  0.38476602  0.54257840
   0.47089108  0.31353282  0.54151676
   0.43997087  0.67592945  0.37491141
   0.73691313  0.43508246  0.47823870
   0.47626844  0.52480586  0.44188904
   0.35226986  0.52401809  0.43986792
   0.68505849  0.50961437  0.40972200
   0.64372253  0.37113046  0.47201697
   0.54025062  0.32949239  0.45479791
   0.59645653  0.56314762  0.36446759
   0.41285726  0.56560508  0.35433557
   0.51029616  0.61364113  0.31335930
   0.43156723  0.35761711  0.44111314
   0.33235239  0.41392974  0.44753321
   0.61026729  0.34110532  0.36568421
   0.70367354  0.40165194  0.37496171
   0.50573457  0.50151148  0.33233565
   0.41178981  0.45066899  0.37564770
   0.60740228  0.45205992  0.34574964
   0.50978239  0.39384773  0.36644855
Direct configuration=     6
   0.52367958  0.54162126  0.74639933
   0.43169870  0.60011962  0.70600539
   0.53354318  0.58492139  0.64491716
   0.43906542  0.61847835  0.59471452
   0.45904219  0.50018877  0.66490016
   0.35291234  0.55755635  0.63444828
   0.56421193  0.46914251  0.63445471
   0.53718330  0.61852913  0.53742129
   0.62415398  0.55754915  0.58393230
   0.26401635  0.48963191  0.63834805
   0.34705124  0.59616688  0.52909171
   0.65054228  0.45048091  0.55408307
   0.43989703  0.65301077  0.48646217
   0.36588310  0.44047969  0.63745815
   0.47120098  0.40182467  0.61273880
   0.53337072  0.63557245  0.42477998
   0.34674812  0.63559307  0.42099624
   0.54838689  0.49170421  0.52411646
   0.62347905  0.58378669  0.47221984
   0.31946561  0.48349488  0.54199354
   0.71456193  0.53771025  0.51901301
   0.43274613  0.50228118  0.54984236
   0.56545212  0.37736379  0.55580215
   0.38347199  0.38482851  0.54267805
   0.47071152  0.31314490  0.54161568
   0.43988683  0.67624756  0.37478679
   0.73719473  0.43498296  0.47840606
   0.47624231  0.52502089  0.44149962
   0.35247352  0.52401765  0.43983867
   0.68534241  0.50952746  0.40970674
   0.64386836  0.37114516  0.47181554
   0.54026930  0.32940190  0.45485683
   0.59648744  0.56321526  0.36438232
   0.41276372  0.56583200  0.35415582
   0.51031288  0.61379443  0.31310079
   0.43148675  0.35743286  0.44112082
   0.33204321  0.41381891  0.44738970
   0.61036131  0.34084368  0.36547223
   0.70385955  0.40161815  0.37477725
   0.50569569  0.50158165  0.33221456
   0.41167327  0.45065025  0.37550855
   0.60752076  0.45192528  0.34568563
   0.50984233  0.39380120  0.36636516
Direct configuration=     7
   0.52384573  0.54126288  0.74679306
   0.43163393  0.60053601  0.70670856
   0.53361172  0.58496323  0.64512187
   0.43898603  0.61847224  0.59477179
   0.45868425  0.50045886  0.66489181
   0.35288121  0.55720408  0.63483624
   0.56423239  0.46918281  0.63493214
   0.53685860  0.61813643  0.53728215
   0.62420277  0.55777947  0.58428079
   0.26348181  0.48969425  0.63858183
   0.34697229  0.59616322  0.52888359
   0.65103646  0.45032277  0.55406899
   0.43958943  0.65303711  0.48639892
   0.36565895  0.44045982  0.63790637
   0.47127360  0.40195347  0.61280744
   0.53323920  0.63559913  0.42458315
   0.34637167  0.63577361  0.42075074
   0.54794610  0.49202705  0.52370386
   0.62341015  0.58347003  0.47196922
   0.31913432  0.48326740  0.54195777
   0.71518031  0.53798880  0.51901463
   0.43294678  0.50240789  0.54971521
   0.56558376  0.37726454  0.55575260
   0.38347668  0.38477835  0.54230901
   0.47041427  0.31284868  0.54179624
   0.43960453  0.67667275  0.37447640
   0.73761378  0.43488944  0.47855214
   0.47673869  0.52515851  0.44204705
   0.35292476  0.52397959  0.44022129
   0.68571254  0.50941219  0.40966915
   0.64403125  0.37140269  0.47135867
   0.54031069  0.32932459  0.45491004
   0.59673106  0.56300958  0.36432552
   0.41254863  0.56642112  0.35372714
   0.51021188  0.61416040  0.31275401
   0.43121981  0.35725667  0.44111047
   0.33177409  0.41372037  0.44729686
   0.61063687  0.34045081  0.36526112
   0.70430263  0.40147321  0.37467074
   0.50577375  0.50164351  0.33188996
   0.41149456  0.45045090  0.37533434
   0.60763620  0.45183126  0.34566970
   0.50988193  0.39372883  0.36642289
Direct configuration=     8
   0.52415714  0.54059118  0.74753104
   0.43151253  0.60131644  0.70802652
   0.53374019  0.58504163  0.64550556
   0.43883724  0.61846079  0.59487913
   0.45801337  0.50096508  0.66487616
   0.35282285  0.55654382  0.63556339
   0.56427073  0.46925834  0.63582698
   0.53625004  0.61740039  0.53702138
   0.62429423  0.55821116  0.58493397
   0.26247992  0.48981111  0.63902000
   0.34682430  0.59615637  0.52849352
   0.65196267  0.45002637  0.55404258
   0.43901290  0.65308646  0.48628037
   0.36523883  0.44042259  0.63874646
   0.47140971  0.40219489  0.61293610
   0.53299269  0.63564914  0.42421423
   0.34566610  0.63611200  0.42029060
   0.54711993  0.49263214  0.52293052
   0.62328103  0.58287652  0.47149948
   0.31851338  0.48284104  0.54189075
   0.71633935  0.53851087  0.51901767
   0.43332285  0.50264538  0.54947690
   0.56583049  0.37707850  0.55565973
   0.38348547  0.38468434  0.54161732
   0.46985715  0.31229349  0.54213467
   0.43907540  0.67746966  0.37389464
   0.73839919  0.43471415  0.47882593
   0.47766906  0.52541643  0.44307309
   0.35377051  0.52390825  0.44093844
   0.68640629  0.50919614  0.40959870
   0.64433656  0.37188539  0.47050237
   0.54038825  0.32917969  0.45500977
   0.59718767  0.56262407  0.36421907
   0.41214548  0.56752529  0.35292367
   0.51002257  0.61484634  0.31210403
   0.43071948  0.35692645  0.44109108
   0.33126967  0.41353569  0.44712284
   0.61115335  0.33971447  0.36486543
   0.70513308  0.40120155  0.37447109
   0.50592005  0.50175944  0.33128156
   0.41115961  0.45007726  0.37500782
   0.60785257  0.45165504  0.34563984
   0.50995616  0.39359320  0.36653108
Direct configuration=     9
   0.52395050  0.54032002  0.74732073
   0.43160329  0.60137555  0.70831453
   0.53382671  0.58513464  0.64578414
   0.43855225  0.61830469  0.59514007
   0.45769860  0.50123998  0.66501755
   0.35288174  0.55629963  0.63584066
   0.56428285  0.46929437  0.63574087
   0.53576226  0.61678840  0.53680793
   0.62444721  0.55816241  0.58485137
   0.26237939  0.48988466  0.63903594
   0.34680756  0.59606417  0.52851682
   0.65203624  0.45015110  0.55395092
   0.43881960  0.65299832  0.48611289
   0.36506954  0.44034507  0.63881654
   0.47132990  0.40247407  0.61279777
   0.53280958  0.63549983  0.42409447
   0.34559834  0.63608038  0.42008652
   0.54704071  0.49262300  0.52323671
   0.62318195  0.58240442  0.47151626
   0.31825651  0.48262336  0.54200948
   0.71642222  0.53861558  0.51900714
   0.43358313  0.50274303  0.54913569
   0.56597126  0.37734436  0.55556354
   0.38359237  0.38485977  0.54156055
   0.46986392  0.31253425  0.54219381
   0.43880668  0.67764246  0.37372734
   0.73861652  0.43480233  0.47875871
   0.47781866  0.52560032  0.44318281
   0.35450539  0.52387067  0.44116385
   0.68661897  0.50906424  0.40963939
   0.64423109  0.37231070  0.47015517
   0.54035146  0.32920649  0.45503675
   0.59716688  0.56240070  0.36404536
   0.41215601  0.56764030  0.35299728
   0.50999976  0.61503323  0.31214349
   0.43064605  0.35684362  0.44092497
   0.33124860  0.41362958  0.44706227
   0.61139826  0.33965489  0.36487852
   0.70544588  0.40101465  0.37452586
   0.50581920  0.50188877  0.33129386
   0.41121328  0.45023025  0.37496766
   0.60797214  0.45143784  0.34579628
   0.51001758  0.39360245  0.36676301
Direct configuration=    10
   0.52333057  0.53950652  0.74668980
   0.43187556  0.60155287  0.70917858
   0.53408626  0.58541368  0.64661990
   0.43769726  0.61783639  0.59592289
   0.45675432  0.50206467  0.66544170
   0.35305840  0.55556707  0.63667246
   0.56431923  0.46940246  0.63548255
   0.53429893  0.61495242  0.53616761
   0.62490617  0.55801616  0.58460359
   0.26207779  0.49010531  0.63908376
   0.34675734  0.59578758  0.52858671
   0.65225692  0.45052531  0.55367593
   0.43823971  0.65273389  0.48561045
   0.36456166  0.44011254  0.63902677
   0.47109047  0.40331161  0.61238277
   0.53226024  0.63505190  0.42373519
   0.34539507  0.63598553  0.41947429
   0.54680305  0.49259559  0.52415527
   0.62288472  0.58098815  0.47156659
   0.31748593  0.48197029  0.54236570
   0.71667084  0.53892969  0.51897555
   0.43436396  0.50303598  0.54811204
   0.56639355  0.37814193  0.55527499
   0.38391308  0.38538605  0.54139023
   0.46988424  0.31325654  0.54237124
   0.43800052  0.67816085  0.37322543
   0.73926851  0.43506687  0.47855704
   0.47826744  0.52615199  0.44351194
   0.35671004  0.52375791  0.44184006
   0.68725702  0.50866855  0.40976148
   0.64391465  0.37358664  0.46911355
   0.54024109  0.32928691  0.45511770
   0.59710454  0.56173058  0.36352423
   0.41218759  0.56798532  0.35321813
   0.50993133  0.61559389  0.31226186
   0.43042575  0.35659512  0.44042665
   0.33118540  0.41391122  0.44688055
   0.61213296  0.33947615  0.36491781
   0.70638429  0.40045394  0.37469015
   0.50551664  0.50227679  0.33133078
   0.41137429  0.45068924  0.37484720
   0.60833086  0.45078624  0.34626559
   0.51020185  0.39363019  0.36745877
Direct configuration=    11
   0.52312115  0.53923171  0.74647667
   0.43196753  0.60161277  0.70947047
   0.53417395  0.58550794  0.64690224
   0.43740843  0.61767819  0.59618734
   0.45643533  0.50234326  0.66558499
   0.35311808  0.55531960  0.63695346
   0.56433151  0.46943897  0.63539528
   0.53380459  0.61433220  0.53595129
   0.62506121  0.55796676  0.58451989
   0.26197591  0.49017985  0.63909992
   0.34674037  0.59569415  0.52861032
   0.65233147  0.45065173  0.55358303
   0.43804381  0.65264456  0.48544071
   0.36439010  0.44003399  0.63909779
   0.47100959  0.40359454  0.61224258
   0.53207466  0.63490058  0.42361382
   0.34532640  0.63595349  0.41926747
   0.54672277  0.49258633  0.52446557
   0.62278431  0.58050971  0.47158360
   0.31722561  0.48174968  0.54248603
   0.71675483  0.53903581  0.51896488
   0.43462774  0.50313494  0.54776623
   0.56653621  0.37841137  0.55517751
   0.38402143  0.38556384  0.54133269
   0.46989111  0.31350054  0.54243118
   0.43772818  0.67833597  0.37305587
   0.73948876  0.43515624  0.47848892
   0.47841905  0.52633836  0.44362313
   0.35745480  0.52371981  0.44206850
   0.68747257  0.50853488  0.40980272
   0.64380776  0.37401767  0.46876168
   0.54020381  0.32931408  0.45514505
   0.59708348  0.56150420  0.36334818
   0.41219826  0.56810188  0.35329273
   0.50990821  0.61578329  0.31230184
   0.43035132  0.35651117  0.44025831
   0.33116405  0.41400637  0.44681916
   0.61238116  0.33941577  0.36493109
   0.70670130  0.40026452  0.37474565
   0.50541443  0.50240787  0.33134324
   0.41142868  0.45084429  0.37480650
   0.60845204  0.45056611  0.34642413
   0.51026409  0.39363956  0.36769381
Direct configuration=    12
   0.52303545  0.53885995  0.74654107
   0.43200907  0.60178701  0.70979383
   0.53431247  0.58573223  0.64669393
   0.43732681  0.61754232  0.59638383
   0.45613230  0.50223006  0.66527728
   0.35304236  0.55509042  0.63717557
   0.56418427  0.46959094  0.63543290
   0.53315534  0.61335645  0.53587140
   0.62500671  0.55803540  0.58454683
   0.26185118  0.49025778  0.63914185
   0.34666705  0.59549935  0.52882447
   0.65247469  0.45085886  0.55339266
   0.43782304  0.65245505  0.48538580
   0.36430052  0.43988154  0.63905141
   0.47099233  0.40416992  0.61214558
   0.53194749  0.63464241  0.42348918
   0.34517260  0.63576798  0.41917464
   0.54679322  0.49242751  0.52481182
   0.62242526  0.58000227  0.47145808
   0.31714916  0.48165017  0.54248237
   0.71684620  0.53908822  0.51892012
   0.43450225  0.50322897  0.54757543
   0.56657416  0.37864930  0.55502328
   0.38406865  0.38587964  0.54122055
   0.47005284  0.31389739  0.54240030
   0.43756042  0.67852375  0.37288234
   0.73971336  0.43526343  0.47849900
   0.47875045  0.52666793  0.44347302
   0.35810774  0.52367867  0.44265026
   0.68753689  0.50847545  0.40971876
   0.64360268  0.37464091  0.46853202
   0.54025122  0.32934697  0.45522612
   0.59709398  0.56130965  0.36330015
   0.41236031  0.56817110  0.35337408
   0.50989531  0.61594975  0.31239676
   0.43023919  0.35646855  0.44011581
   0.33125741  0.41417337  0.44675194
   0.61251499  0.33927848  0.36495595
   0.70709290  0.39998842  0.37472610
   0.50538380  0.50237959  0.33145849
   0.41163028  0.45090640  0.37473908
   0.60854619  0.45038919  0.34667039
   0.51041752  0.39384579  0.36783106
Direct configuration=    13
   0.52282428  0.53794392  0.74669975
   0.43211141  0.60221632  0.71059063
   0.53465378  0.58628490  0.64618064
   0.43712567  0.61720754  0.59686799
   0.45538564  0.50195112  0.66451908
   0.35285579  0.55452572  0.63772285
   0.56382145  0.46996540  0.63552560
   0.53155555  0.61095216  0.53567455
   0.62487243  0.55820454  0.58461320
   0.26154383  0.49044981  0.63924518
   0.34648639  0.59501937  0.52935215
   0.65282756  0.45136926  0.55292356
   0.43727904  0.65198808  0.48525049
   0.36407981  0.43950589  0.63893712
   0.47094982  0.40558768  0.61190656
   0.53163413  0.63400624  0.42318205
   0.34479363  0.63531090  0.41894591
   0.54696681  0.49203617  0.52566498
   0.62154055  0.57875192  0.47114880
   0.31696078  0.48140498  0.54247334
   0.71707134  0.53921736  0.51880985
   0.43419303  0.50346065  0.54710528
   0.56666766  0.37923557  0.55464323
   0.38418500  0.38665780  0.54094422
   0.47045135  0.31487526  0.54232421
   0.43714704  0.67898644  0.37245474
   0.74026678  0.43552757  0.47852386
   0.47956703  0.52748002  0.44310315
   0.35971660  0.52357729  0.44408373
   0.68769538  0.50832899  0.40951188
   0.64309735  0.37617662  0.46796611
   0.54036806  0.32942802  0.45542588
   0.59711985  0.56083027  0.36318179
   0.41275961  0.56834168  0.35357452
   0.50986353  0.61635990  0.31263064
   0.42996288  0.35636352  0.43976466
   0.33148748  0.41458487  0.44658629
   0.61284476  0.33894018  0.36501722
   0.70805781  0.39930810  0.37467793
   0.50530833  0.50230992  0.33174247
   0.41212703  0.45105943  0.37457294
   0.60877819  0.44995325  0.34727720
   0.51079558  0.39435394  0.36816925
Direct configuration=    14
   0.52273053  0.53758552  0.74642934
   0.43224828  0.60206057  0.71063379
   0.53443707  0.58630702  0.64620868
   0.43704184  0.61717616  0.59706521
   0.45551509  0.50250427  0.66435443
   0.35267231  0.55455222  0.63790947
   0.56368821  0.47028889  0.63604741
   0.53092376  0.60976854  0.53531374
   0.62481896  0.55845436  0.58465461
   0.26137528  0.49041844  0.63925706
   0.34626853  0.59497793  0.52989463
   0.65300088  0.45166330  0.55279131
   0.43701434  0.65165016  0.48528217
   0.36379225  0.43922522  0.63883183
   0.47115046  0.40580247  0.61151477
   0.53148090  0.63385526  0.42322771
   0.34464587  0.63489000  0.41906740
   0.54688042  0.49170693  0.52560313
   0.62097818  0.57816052  0.47111598
   0.31693474  0.48150976  0.54251876
   0.71701254  0.53938137  0.51865706
   0.43363200  0.50364161  0.54691409
   0.56660590  0.37941671  0.55459366
   0.38428473  0.38689959  0.54069287
   0.47060162  0.31542624  0.54226307
   0.43704834  0.67910470  0.37246112
   0.74045936  0.43559143  0.47854234
   0.48039656  0.52786247  0.44300692
   0.36037955  0.52352245  0.44483774
   0.68765330  0.50825831  0.40930910
   0.64287123  0.37700611  0.46774963
   0.54049838  0.32948698  0.45533636
   0.59715132  0.56077637  0.36314437
   0.41298653  0.56833621  0.35372953
   0.50991713  0.61638372  0.31263529
   0.42995400  0.35637198  0.43969347
   0.33165786  0.41477860  0.44633839
   0.61281269  0.33864538  0.36507509
   0.70836079  0.39900826  0.37459372
   0.50557403  0.50220566  0.33173569
   0.41229599  0.45101406  0.37459425
   0.60896839  0.44983794  0.34761273
   0.51107991  0.39452486  0.36827756
Direct configuration=    15
   0.52254830  0.53688882  0.74590369
   0.43251437  0.60175781  0.71071769
   0.53401580  0.58635002  0.64626320
   0.43687887  0.61711514  0.59744859
   0.45576672  0.50357957  0.66403436
   0.35231562  0.55460374  0.63827226
   0.56342922  0.47091773  0.63706178
   0.52969558  0.60746765  0.53461235
   0.62471501  0.55894001  0.58473512
   0.26104763  0.49035745  0.63928014
   0.34584503  0.59489737  0.53094918
   0.65333780  0.45223490  0.55253422
   0.43649976  0.65099325  0.48534375
   0.36323325  0.43867961  0.63862713
   0.47154050  0.40621999  0.61075316
   0.53118304  0.63356175  0.42331648
   0.34435863  0.63407180  0.41930356
   0.54671247  0.49106691  0.52548290
   0.61988497  0.57701087  0.47105217
   0.31688410  0.48171344  0.54260706
   0.71689825  0.53970019  0.51836004
   0.43254139  0.50399337  0.54654242
   0.56648585  0.37976884  0.55449731
   0.38447858  0.38736963  0.54020427
   0.47089372  0.31649732  0.54214422
   0.43685648  0.67933460  0.37247352
   0.74083373  0.43571559  0.47857827
   0.48200913  0.52860594  0.44281985
   0.36166829  0.52341584  0.44630349
   0.68757150  0.50812092  0.40891490
   0.64243165  0.37861858  0.46732879
   0.54075172  0.32960160  0.45516235
   0.59721249  0.56067158  0.36307162
   0.41342765  0.56832558  0.35403087
   0.51002131  0.61643003  0.31264433
   0.42993675  0.35638845  0.43955508
   0.33198907  0.41515521  0.44585648
   0.61275035  0.33807231  0.36518760
   0.70894974  0.39842539  0.37443004
   0.50609054  0.50200297  0.33172251
   0.41262443  0.45092588  0.37463567
   0.60933812  0.44961378  0.34826498
   0.51163262  0.39485713  0.36848811
Direct configuration=    16
   0.52273235  0.53648586  0.74573471
   0.43256141  0.60173971  0.71076052
   0.53385535  0.58649323  0.64629811
   0.43671450  0.61727921  0.59754436
   0.45556229  0.50366364  0.66345343
   0.35206710  0.55470203  0.63856025
   0.56347604  0.47126068  0.63760189
   0.52908770  0.60621574  0.53433210
   0.62460320  0.55920558  0.58477210
   0.26087026  0.49025378  0.63924908
   0.34544774  0.59520870  0.53150330
   0.65325638  0.45259182  0.55264420
   0.43618087  0.65056033  0.48540918
   0.36320760  0.43857153  0.63855244
   0.47155955  0.40666212  0.61056385
   0.53102962  0.63380814  0.42331299
   0.34431297  0.63359165  0.41953296
   0.54657143  0.49047848  0.52550241
   0.61939262  0.57614543  0.47113948
   0.31666547  0.48180912  0.54281985
   0.71669438  0.54001716  0.51806786
   0.43208803  0.50424689  0.54634020
   0.56671775  0.37996544  0.55453502
   0.38450869  0.38755870  0.53992933
   0.47094466  0.31674900  0.54195696
   0.43675274  0.67927491  0.37269501
   0.74092712  0.43580453  0.47849853
   0.48292361  0.52884752  0.44272196
   0.36261559  0.52342417  0.44667953
   0.68762801  0.50804398  0.40882719
   0.64220151  0.37941886  0.46698240
   0.54085794  0.32964077  0.45504074
   0.59729308  0.56082504  0.36296096
   0.41366233  0.56817601  0.35432729
   0.51006065  0.61638170  0.31259775
   0.43012217  0.35639950  0.43946906
   0.33205015  0.41528583  0.44552713
   0.61276437  0.33774687  0.36526805
   0.70905464  0.39817951  0.37437123
   0.50645848  0.50193825  0.33153051
   0.41281754  0.45104547  0.37471079
   0.60965154  0.44946398  0.34859162
   0.51185062  0.39487770  0.36859915
Direct configuration=    17
   0.52328450  0.53527697  0.74522780
   0.43270255  0.60168541  0.71088901
   0.53337400  0.58692285  0.64640284
   0.43622139  0.61777140  0.59783167
   0.45494901  0.50391586  0.66171065
   0.35132152  0.55499689  0.63942421
   0.56361653  0.47228954  0.63922224
   0.52726406  0.60246001  0.53349135
   0.62426777  0.56000229  0.58488306
   0.26033815  0.48994276  0.63915590
   0.34425587  0.59614267  0.53316564
   0.65301212  0.45366258  0.55297414
   0.43522420  0.64926155  0.48560545
   0.36313065  0.43824727  0.63832835
   0.47161670  0.40798851  0.60999591
   0.53056935  0.63454730  0.42330253
   0.34417597  0.63215119  0.42022116
   0.54614832  0.48871318  0.52556094
   0.61791559  0.57354910  0.47140140
   0.31600957  0.48209618  0.54345824
   0.71608277  0.54096807  0.51719134
   0.43072796  0.50500745  0.54573356
   0.56741344  0.38055522  0.55464815
   0.38459903  0.38812592  0.53910452
   0.47109749  0.31750405  0.54139518
   0.43644151  0.67909583  0.37335950
   0.74120729  0.43607137  0.47825933
   0.48566705  0.52957226  0.44242827
   0.36545747  0.52344915  0.44780765
   0.68779755  0.50781314  0.40856404
   0.64151107  0.38181969  0.46594321
   0.54117659  0.32975829  0.45467590
   0.59753486  0.56128543  0.36262898
   0.41436636  0.56772729  0.35521654
   0.51017864  0.61623674  0.31245801
   0.43067845  0.35643267  0.43921099
   0.33223338  0.41567769  0.44453910
   0.61280644  0.33677056  0.36550942
   0.70936931  0.39744186  0.37419480
   0.50756231  0.50174411  0.33095453
   0.41339685  0.45140424  0.37493616
   0.61059181  0.44901455  0.34957154
   0.51250461  0.39493943  0.36893228
Direct configuration=    18
   0.52354812  0.53430801  0.74466520
   0.43274683  0.60165134  0.71096806
   0.53323907  0.58739521  0.64642668
   0.43587979  0.61819408  0.59796043
   0.45446763  0.50426258  0.66123393
   0.35092627  0.55515582  0.64004936
   0.56390943  0.47263323  0.63964394
   0.52635909  0.60108314  0.53356944
   0.62397962  0.56025474  0.58503219
   0.26005207  0.48973089  0.63925553
   0.34341624  0.59660762  0.53340308
   0.65293558  0.45440635  0.55326768
   0.43494346  0.64851233  0.48578626
   0.36321440  0.43837060  0.63825495
   0.47165666  0.40820862  0.60948703
   0.53074814  0.63534070  0.42325824
   0.34399629  0.63178014  0.42043114
   0.54583736  0.48745580  0.52621180
   0.61695274  0.57211267  0.47126872
   0.31565968  0.48216596  0.54330464
   0.71587650  0.54138034  0.51678556
   0.43072606  0.50552261  0.54538803
   0.56792987  0.38033572  0.55487250
   0.38449084  0.38840564  0.53882620
   0.47112145  0.31760246  0.54120266
   0.43619952  0.67875952  0.37373104
   0.74105805  0.43632588  0.47821403
   0.48697534  0.52944324  0.44197893
   0.36661903  0.52348146  0.44849556
   0.68812175  0.50788416  0.40858523
   0.64108791  0.38319841  0.46545311
   0.54134970  0.32965171  0.45494771
   0.59788853  0.56162374  0.36252263
   0.41489608  0.56745962  0.35542719
   0.51001761  0.61625002  0.31242032
   0.43087616  0.35651746  0.43901932
   0.33218774  0.41589969  0.44420647
   0.61302652  0.33634531  0.36551862
   0.70944173  0.39718835  0.37416679
   0.50796546  0.50158315  0.33053644