   14   14 1000    2
  0.5943588E+03  0.2026402E-08  0.2026402E-08  0.2026402E-08  0.1000000E-15
  1.000000000000000E-004
  CAR 
 unknown system                          
    154      1    100
 
  0.0000000E+00  0.0000000E+00  0.0000000E+00  0.1000000E+01
    1       -9.325031     -9.325031
    2       -9.103974     -9.103974
    3       -9.025689     -9.025689
    4       -8.945933     -8.945933
    5       -8.852788     -8.852788
    6       -8.824671     -8.824671
    7       -8.784999     -8.784999
    8       -8.771177     -8.771177
    9       -8.765386     -8.765386
   10       -8.573831     -8.573831
   11       -8.532502     -8.532502
   12       -8.494213     -8.494213
   13       -8.454007     -8.454007
   14       -8.416276     -8.416276
   15       -8.378213     -8.378213
   16       -8.358673     -8.358673
   17       -8.281477     -8.281477
   18       -8.250450     -8.250450
   19       -8.216290     -8.216290
   20       -8.144969     -8.144969
   21       -8.088027     -8.088027
   22       -8.077120     -8.077120
   23       -7.979922     -7.979922
   24       -7.965583     -7.965583
   25       -7.938308     -7.938308
   26       -7.857274     -7.857274
   27       -7.843660     -7.843660
   28       -7.761475     -7.761475
   29       -7.749122     -7.749122
   30       -7.625250     -7.625250
   31       -7.574752     -7.574752
   32       -7.521880     -7.521880
   33       -7.503361     -7.503361
   34       -7.438646     -7.438646
   35       -7.428386     -7.428386
   36       -7.388484     -7.388484
   37       -7.363288     -7.363288
   38       -7.346531     -7.346531
   39       -7.331446     -7.331446
   40       -7.290863     -7.290863
   41       -7.241075     -7.241075
   42       -7.209184     -7.209184
   43       -7.192457     -7.192457
   44       -7.153671     -7.153671
   45       -7.137143     -7.137143
   46       -7.107044     -7.107044
   47       -7.093466     -7.093466
   48       -7.057844     -7.057844
   49       -7.036000     -7.036000
   50       -6.999336     -6.999336
   51       -6.971262     -6.971262
   52       -6.954071     -6.954071
   53       -6.939578     -6.939577
   54       -6.909909     -6.909909
   55       -6.885031     -6.885031
   56       -6.828021     -6.828021
   57       -6.819917     -6.819917
   58       -6.792067     -6.792067
   59       -6.763591     -6.763591
   60       -6.748371     -6.748371
   61       -6.708766     -6.708767
   62       -6.677390     -6.677390
   63       -6.662683     -6.662683
   64       -6.633626     -6.633626
   65       -6.627095     -6.627095
   66       -6.624219     -6.624219
   67       -6.569481     -6.569481
   68       -6.532966     -6.532966
   69       -6.453543     -6.453543
   70       -6.430444     -6.430444
   71       -6.394148     -6.394148
   72       -6.164121     -6.164121
   73       -6.114176     -6.114176
   74       -4.986580     -4.986580
   75       -4.705317     -4.705317
   76       -4.222103     -4.222103
   77       -3.974717     -3.974717
   78       -3.309868     -3.309868
   79       -3.103826     -3.103826
   80       -2.741306     -2.741306
   81       -2.223325     -2.223325
   82       -2.156302     -2.156302
   83       -2.044071     -2.044071
   84       -1.767498     -1.767499
   85       -1.661882     -1.661883
   86       -1.266227     -1.266227
   87       -1.093335     -1.093335
   88       -0.993313     -0.993315
   89       -0.619189     -0.619188
   90       -0.473159     -0.473158
   91       -0.305354     -0.305354
   92       -0.212276     -0.212276
   93       -0.172078     -0.172078
   94       -0.078970     -0.078969
   95        0.061465      0.061463
   96        0.289346      0.289347
   97        0.383741      0.383745
   98        0.458715      0.458720
   99        0.523109      0.523107
  100        0.566095      0.566091
