15
Energy = -123.07701485 eV
Nb 8.506603711178906 8.53970949708892 6.1898147370606
Nb 8.802740849348812 10.993756226375151 6.9236126431378935
Nb 11.139834646011456 8.736834704115733 7.657683065693584
Nb 6.448595104698946 9.824391732463138 7.541361078261932
Nb 8.912307463574038 8.943603628553454 8.95236872982027
Nb 10.86464314755941 11.187386824606993 8.571589177306054
Nb 6.846258475482079 7.23617985731788 7.78468925459358
Nb 9.357142385327718 6.369809109763813 7.88116326132723
Nb 8.007815154090098 11.320733947576807 9.497789703253183
Nb 7.724278773625871 6.490776603015415 10.130537071127476
Nb 10.392406938975048 6.795541350966523 10.208666597068122
Nb 11.638598853070574 9.108384249745276 10.22511822344475
Nb 6.527964369986763 8.983798727850205 10.131509404311055
Nb 10.131536619347544 11.023014784014396 11.0271341630766
Nb 8.964090999669553 8.710896248493132 11.54178038246406
