7
Energy = -49.82691821 eV
Nb 12.217115446100166 13.321915586716434 14.351064224991342
Nb 13.038253664526191 13.611988236696627 11.904137572645652
Nb 11.736173787195366 10.462099406445219 9.767254702539752
Nb 11.534683411914257 11.36872679614346 12.547831266799378
Nb 11.328141407393153 12.794818148883435 10.240573140637247
Nb 13.670743714921487 11.403890363888927 10.860923785302553
Nb 11.022315074294601 11.627058307793003 15.091241595688
