unknown system                          
           1
    23.143360    0.000000    0.000000
     0.000000   23.143360    0.000000
     0.000000    0.000000   23.143360
   Ag
  38
Direct configuration=     1
   0.56018734  0.34108282  0.69415031
   0.52731608  0.45479212  0.69228147
   0.49737964  0.56706901  0.66957117
   0.43239020  0.47601209  0.62004318
   0.47081596  0.68068922  0.63132932
   0.47778131  0.36485597  0.61369932
   0.40563268  0.59096748  0.59319927
   0.59023223  0.64761319  0.63302512
   0.34637914  0.49882634  0.54172353
   0.61689068  0.53731849  0.65831440
   0.64468246  0.42332582  0.68188022
   0.39872256  0.39205654  0.53543454
   0.59643530  0.36707850  0.58402926
   0.54956423  0.47858462  0.57794284
   0.52334546  0.59325620  0.55234677
   0.55579690  0.75342828  0.59346904
   0.25772081  0.52221847  0.46238998
   0.32987785  0.60679193  0.50181666
   0.48799543  0.69799559  0.51217191
   0.65473649  0.58390296  0.55154720
   0.66994025  0.46525618  0.57298951
   0.60999187  0.68828627  0.51117925
   0.45667146  0.51396991  0.49853976
   0.42872806  0.62237366  0.44643362
   0.51314082  0.38768514  0.49825006
   0.36272620  0.53116596  0.40378642
   0.57372452  0.51692052  0.47155985
   0.54362062  0.63010840  0.42599752
   0.32186386  0.42366183  0.45020710
   0.63104035  0.40203723  0.47747638
   0.66422993  0.62098602  0.43609020
   0.69326246  0.50764513  0.46667149
   0.43333527  0.43106547  0.41782364
   0.48044991  0.53851728  0.37803596
   0.54658990  0.43487166  0.39069503
   0.59773944  0.54628401  0.35756191
   0.66290385  0.44284620  0.36890862
   0.71567898  0.54797397  0.35694868
Direct configuration=     2
   0.56018166  0.34090969  0.69426990
   0.52726174  0.45470847  0.69238610
   0.49739954  0.56711936  0.66958310
   0.43236358  0.47600983  0.62010868
   0.47078064  0.68069382  0.63137115
   0.47788843  0.36482056  0.61382107
   0.40559396  0.59097284  0.59312594
   0.59029773  0.64775359  0.63307022
   0.34617427  0.49876868  0.54177282
   0.61695471  0.53729539  0.65841224
   0.64468700  0.42330623  0.68186086
   0.39866409  0.39203677  0.53530360
   0.59652107  0.36691056  0.58410402
   0.54942959  0.47853414  0.57798701
   0.52342376  0.59333047  0.55235342
   0.55578927  0.75363514  0.59345748
   0.25762754  0.52222229  0.46239388
   0.32973601  0.60698313  0.50183084
   0.48792312  0.69820772  0.51216454
   0.65471277  0.58387723  0.55158867
   0.67002920  0.46523159  0.57303306
   0.60993166  0.68838971  0.51131116
   0.45663785  0.51387373  0.49860104
   0.42872093  0.62245100  0.44638827
   0.51312639  0.38766139  0.49822421
   0.36273812  0.53115797  0.40387065
   0.57377704  0.51700859  0.47151585
   0.54370680  0.63021832  0.42596327
   0.32171577  0.42359211  0.45019062
   0.63107438  0.40198523  0.47738865
   0.66429844  0.62093415  0.43592661
   0.69343005  0.50764789  0.46659640
   0.43328308  0.43093675  0.41775527
   0.48044772  0.53846851  0.37798528
   0.54664536  0.43475426  0.39059085
   0.59777559  0.54631704  0.35748775
   0.66297778  0.44276299  0.36889056
   0.71579382  0.54803336  0.35683543
Direct configuration=     3
   0.56016463  0.34039029  0.69462865
   0.52709871  0.45445750  0.69269999
   0.49745924  0.56727040  0.66961889
   0.43228371  0.47600304  0.62030520
   0.47067469  0.68070762  0.63149664
   0.47820980  0.36471432  0.61418634
   0.40547778  0.59098891  0.59290597
   0.59049426  0.64817479  0.63320553
   0.34555966  0.49859571  0.54192071
   0.61714682  0.53722611  0.65870577
   0.64470062  0.42324748  0.68180278
   0.39848866  0.39197745  0.53491078
   0.59677838  0.36640673  0.58432829
   0.54902568  0.47838272  0.57811952
   0.52365869  0.59355326  0.55237339
   0.55576641  0.75425572  0.59342282
   0.25734776  0.52223373  0.46240559
   0.32931049  0.60755674  0.50187339
   0.48770618  0.69884412  0.51214241
   0.65464160  0.58380005  0.55171309
   0.67029605  0.46515782  0.57316372
   0.60975104  0.68870004  0.51170690
   0.45653701  0.51358516  0.49878491
   0.42869956  0.62268301  0.44625222
   0.51308311  0.38759012  0.49814665
   0.36277387  0.53113397  0.40412332
   0.57393461  0.51727281  0.47138384
   0.54396534  0.63054805  0.42586053
   0.32127150  0.42338297  0.45014120
   0.63117646  0.40182925  0.47712545
   0.66450397  0.62077854  0.43543584
   0.69393282  0.50765615  0.46637112
   0.43312651  0.43055059  0.41755017
   0.48044116  0.53832221  0.37783324
   0.54681173  0.43440208  0.39027831
   0.59788404  0.54641611  0.35726528
   0.66319958  0.44251337  0.36883638
   0.71613835  0.54821153  0.35649566
Direct configuration=     4
   0.56013057  0.33935148  0.69534615
   0.52677266  0.45395557  0.69332777
   0.49757864  0.56757249  0.66969048
   0.43212397  0.47598947  0.62069824
   0.47046280  0.68073522  0.63174763
   0.47885254  0.36450186  0.61491688
   0.40524543  0.59102106  0.59246604
   0.59088731  0.64901720  0.63347615
   0.34433045  0.49824977  0.54221648
   0.61753105  0.53708754  0.65929282
   0.64472786  0.42312998  0.68168663
   0.39813782  0.39185883  0.53412514
   0.59729300  0.36539908  0.58477682
   0.54821786  0.47807987  0.57838453
   0.52412855  0.59399885  0.55241333
   0.55572067  0.75549689  0.59335349
   0.25678818  0.52225662  0.46242900
   0.32845945  0.60870395  0.50195849
   0.48727230  0.70011690  0.51209815
   0.65449927  0.58364568  0.55196193
   0.67082976  0.46501028  0.57342504
   0.60938979  0.68932069  0.51249837
   0.45633534  0.51300803  0.49915263
   0.42865682  0.62314703  0.44598012
   0.51299655  0.38744759  0.49799152
   0.36284538  0.53108599  0.40462866
   0.57424974  0.51780126  0.47111983
   0.54448240  0.63120753  0.42565505
   0.32038296  0.42296469  0.45004235
   0.63138062  0.40151727  0.47659906
   0.66491503  0.62046732  0.43445431
   0.69493835  0.50767268  0.46592058
   0.43281336  0.42977827  0.41713997
   0.48042802  0.53802959  0.37752916
   0.54714448  0.43369771  0.38965323
   0.59810093  0.54661424  0.35682033
   0.66364317  0.44201414  0.36872802
   0.71682739  0.54856788  0.35581613
Direct configuration=     5
   0.56006245  0.33727388  0.69678116
   0.52612055  0.45295170  0.69458334
   0.49781744  0.56817667  0.66983365
   0.43180450  0.47596233  0.62148431
   0.47003902  0.68079042  0.63224959
   0.48013801  0.36407692  0.61637796
   0.40478074  0.59108537  0.59158617
   0.59167340  0.65070201  0.63401738
   0.34187203  0.49755787  0.54280802
   0.61829950  0.53681041  0.66046692
   0.64478233  0.42289498  0.68145432
   0.39743612  0.39162157  0.53255386
   0.59832225  0.36338377  0.58567389
   0.54660222  0.47747416  0.57891455
   0.52506827  0.59489003  0.55249320
   0.55562921  0.75797922  0.59321484
   0.25566904  0.52230239  0.46247581
   0.32675736  0.61099838  0.50212869
   0.48640453  0.70266247  0.51200963
   0.65421459  0.58333694  0.55245962
   0.67189717  0.46471520  0.57394768
   0.60866730  0.69056199  0.51408132
   0.45593199  0.51185378  0.49988807
   0.42857133  0.62407507  0.44543592
   0.51282343  0.38716253  0.49768128
   0.36298840  0.53099002  0.40563934
   0.57488001  0.51885814  0.47059181
   0.54551653  0.63252647  0.42524409
   0.31860587  0.42212812  0.44984466
   0.63178894  0.40089332  0.47554627
   0.66573716  0.61984489  0.43249124
   0.69694943  0.50770573  0.46501948
   0.43218707  0.42823363  0.41631957
   0.48040176  0.53744436  0.37692100
   0.54780997  0.43228897  0.38840307
   0.59853472  0.54701052  0.35593043
   0.66453037  0.44101567  0.36851129
   0.71820549  0.54928058  0.35445707
Direct configuration=     6
   0.56004914  0.33686797  0.69706152
   0.52599315  0.45275557  0.69482864
   0.49786409  0.56829471  0.66986162
   0.43174208  0.47595702  0.62163788
   0.46995622  0.68080120  0.63234766
   0.48038916  0.36399391  0.61666341
   0.40468995  0.59109793  0.59141427
   0.59182698  0.65103117  0.63412312
   0.34139172  0.49742270  0.54292359
   0.61844963  0.53675626  0.66069631
   0.64479297  0.42284907  0.68140894
   0.39729903  0.39157522  0.53224688
   0.59852333  0.36299004  0.58584915
   0.54628657  0.47735583  0.57901810
   0.52525186  0.59506414  0.55250880
   0.55561134  0.75846420  0.59318775
   0.25545039  0.52231133  0.46248496
   0.32642483  0.61144664  0.50216194
   0.48623500  0.70315980  0.51199233
   0.65415898  0.58327662  0.55255685
   0.67210571  0.46465755  0.57404978
   0.60852614  0.69080450  0.51439058
   0.45585319  0.51162827  0.50003175
   0.42855463  0.62425638  0.44532960
   0.51278960  0.38710684  0.49762066
   0.36301634  0.53097127  0.40583680
   0.57500314  0.51906463  0.47048865
   0.54571857  0.63278416  0.42516380
   0.31825869  0.42196468  0.44980604
   0.63186871  0.40077142  0.47534059
   0.66589777  0.61972329  0.43210771
   0.69734233  0.50771219  0.46484344
   0.43206472  0.42793185  0.41615929
   0.48039662  0.53733002  0.37680219
   0.54793999  0.43201374  0.38815883
   0.59861947  0.54708794  0.35575658
   0.66470370  0.44082060  0.36846894
   0.71847473  0.54941982  0.35419155
Direct configuration=     7
   0.56038673  0.33607466  0.69787834
   0.52580043  0.45242660  0.69537085
   0.49812873  0.56822524  0.66969610
   0.43117319  0.47587162  0.62166352
   0.47013489  0.68098441  0.63217774
   0.48020204  0.36429939  0.61647662
   0.40459537  0.59092263  0.59073847
   0.59206099  0.65160344  0.63434884
   0.34081200  0.49773341  0.54307906
   0.61839591  0.53694236  0.66091278
   0.64443754  0.42236015  0.68143634
   0.39779409  0.39149483  0.53240397
   0.59893420  0.36262151  0.58568254
   0.54626004  0.47708556  0.57906993
   0.52529364  0.59561476  0.55226836
   0.55513664  0.75943891  0.59339445
   0.25520949  0.52251250  0.46249443
   0.32583178  0.61170447  0.50207048
   0.48591386  0.70374292  0.51200752
   0.65399049  0.58309574  0.55226957
   0.67221527  0.46456796  0.57360148
   0.60876754  0.69040185  0.51421007
   0.45563181  0.51131518  0.50020995
   0.42868600  0.62433547  0.44545932
   0.51305944  0.38700213  0.49775630
   0.36305736  0.53082361  0.40685302
   0.57514610  0.51921289  0.47044602
   0.54581967  0.63322174  0.42515766
   0.31749615  0.42191081  0.44950675
   0.63188241  0.40069122  0.47569923
   0.66564636  0.62016686  0.43242371
   0.69791079  0.50759595  0.46488908
   0.43192118  0.42742092  0.41570368
   0.48058986  0.53707245  0.37710652
   0.54800213  0.43183718  0.38800004
   0.59887348  0.54695187  0.35540461
   0.66529425  0.44097775  0.36822309
   0.71902862  0.54925955  0.35343006
Direct configuration=     8
   0.56108552  0.33443253  0.69956912
   0.52540152  0.45174566  0.69649320
   0.49867652  0.56808142  0.66935349
   0.42999561  0.47569484  0.62171658
   0.47050472  0.68136363  0.63182600
   0.47981471  0.36493173  0.61608998
   0.40439960  0.59055976  0.58933959
   0.59254536  0.65278801  0.63481607
   0.33961199  0.49837656  0.54340087
   0.61828472  0.53732757  0.66136087
   0.64370181  0.42134813  0.68149307
   0.39881886  0.39132842  0.53272915
   0.59978469  0.36185868  0.58533766
   0.54620512  0.47652611  0.57917722
   0.52538011  0.59675451  0.55177065
   0.55415404  0.76145653  0.59382231
   0.25471084  0.52292892  0.46251403
   0.32460422  0.61223815  0.50188115
   0.48524913  0.70494993  0.51203896
   0.65364172  0.58272133  0.55167491
   0.67244205  0.46438252  0.57267352
   0.60926722  0.68956839  0.51383642
   0.45517356  0.51066708  0.50057880
   0.42895793  0.62449917  0.44572783
   0.51361800  0.38678540  0.49803706
   0.36314226  0.53051795  0.40895655
   0.57544201  0.51951978  0.47035777
   0.54602894  0.63412753  0.42514496
   0.31591774  0.42179930  0.44888724
   0.63191076  0.40052520  0.47644159
   0.66512594  0.62108504  0.43307781
   0.69908747  0.50735534  0.46498357
   0.43162407  0.42636331  0.41476060
   0.48098986  0.53653929  0.37773646
   0.54813075  0.43147169  0.38767134
   0.59939928  0.54667022  0.35467606
   0.66651667  0.44130304  0.36771419
   0.72017515  0.54892780  0.35185380
Direct configuration=     9
   0.56131292  0.33420057  0.69958485
   0.52516092  0.45144178  0.69665871
   0.49885119  0.56775504  0.66874395
   0.42956394  0.47572804  0.62176974
   0.47080110  0.68129397  0.63136780
   0.48026851  0.36519627  0.61625326
   0.40481248  0.59066377  0.58869791
   0.59260292  0.65322744  0.63469660
   0.33933198  0.49846353  0.54326474
   0.61808657  0.53732753  0.66121953
   0.64303006  0.42104284  0.68119847
   0.39886319  0.39182432  0.53261350
   0.59981753  0.36152132  0.58544867
   0.54649223  0.47652417  0.57943691
   0.52516691  0.59717321  0.55146344
   0.55377513  0.76189158  0.59371848
   0.25433438  0.52318093  0.46247552
   0.32428812  0.61227700  0.50157199
   0.48517633  0.70540472  0.51209577
   0.65340333  0.58236966  0.55147950
   0.67216140  0.46428607  0.57255441
   0.60909985  0.68963912  0.51414941
   0.45514584  0.51035269  0.50061511
   0.42909351  0.62426220  0.44629670
   0.51396356  0.38674016  0.49798686
   0.36336151  0.53024187  0.41045113
   0.57546134  0.51945521  0.47032478
   0.54573393  0.63419462  0.42499409
   0.31565939  0.42189523  0.44885649
   0.63207348  0.40078813  0.47643254
   0.66523357  0.62082919  0.43314166
   0.69935539  0.50751163  0.46464141
   0.43142091  0.42589385  0.41459841
   0.48129917  0.53635770  0.37858320
   0.54844115  0.43159490  0.38788415
   0.59980100  0.54648300  0.35469091
   0.66688459  0.44170763  0.36782968
   0.72019118  0.54877959  0.35173022
Direct configuration=    10
   0.56199512  0.33350468  0.69963203
   0.52443914  0.45053016  0.69715523
   0.49937517  0.56677590  0.66691530
   0.42826892  0.47582763  0.62192920
   0.47169026  0.68108499  0.62999320
   0.48162988  0.36598987  0.61674311
   0.40605112  0.59097580  0.58677287
   0.59277558  0.65454574  0.63433816
   0.33849193  0.49872445  0.54285632
   0.61749211  0.53732740  0.66079550
   0.64101482  0.42012699  0.68031467
   0.39899621  0.39331200  0.53226655
   0.59991604  0.36050924  0.58578169
   0.54735355  0.47651837  0.58021598
   0.52452729  0.59842930  0.55054179
   0.55263838  0.76319671  0.59340698
   0.25320498  0.52393695  0.46236000
   0.32333982  0.61239357  0.50064452
   0.48495794  0.70676910  0.51226621
   0.65268815  0.58131466  0.55089327
   0.67131945  0.46399670  0.57219708
   0.60859774  0.68985134  0.51508839
   0.45506270  0.50940953  0.50072403
   0.42950027  0.62355127  0.44800330
   0.51500025  0.38660442  0.49783627
   0.36401925  0.52941362  0.41493486
   0.57551931  0.51926152  0.47022581
   0.54484892  0.63439588  0.42454148
   0.31488433  0.42218301  0.44876425
   0.63256164  0.40157692  0.47640538
   0.66555647  0.62006164  0.43333321
   0.70015914  0.50798050  0.46361490
   0.43081145  0.42448545  0.41411186
   0.48222709  0.53581292  0.38112342
   0.54937236  0.43196454  0.38852260
   0.60100614  0.54592133  0.35473546
   0.66798832  0.44292141  0.36817614
   0.72023925  0.54833496  0.35135948
Direct configuration=    11
   0.56212899  0.33296055  0.69950005
   0.52360201  0.45038588  0.69726571
   0.49934266  0.56623880  0.66575972
   0.42798246  0.47589532  0.62201397
   0.47203787  0.68082097  0.62976404
   0.48189734  0.36648696  0.61668317
   0.40661798  0.59129021  0.58556710
   0.59286228  0.65455838  0.63385874
   0.33806732  0.49895058  0.54274630
   0.61747087  0.53742262  0.66047697
   0.64052570  0.42057435  0.67983940
   0.39937065  0.39408857  0.53230929
   0.59989131  0.35955927  0.58511608
   0.54724262  0.47686889  0.58039088
   0.52460074  0.59839751  0.54953435
   0.55245329  0.76390065  0.59311121
   0.25214550  0.52403025  0.46219528
   0.32304429  0.61273763  0.50047506
   0.48478434  0.70766297  0.51162826
   0.65210479  0.58107526  0.55078317
   0.67088670  0.46389455  0.57204236
   0.60827880  0.68991383  0.51521566
   0.45575747  0.50840984  0.50133700
   0.42965643  0.62340611  0.44962082
   0.51504815  0.38665040  0.49787430
   0.36439899  0.52884278  0.41678130
   0.57549666  0.51930220  0.47073230
   0.54517932  0.63437541  0.42442074
   0.31447025  0.42220343  0.44889834
   0.63312185  0.40181645  0.47623923
   0.66523485  0.61997310  0.43351376
   0.70037445  0.50813055  0.46398570
   0.43110254  0.42384295  0.41418888
   0.48265420  0.53548908  0.38233664
   0.54975883  0.43202375  0.38883525
   0.60104941  0.54598394  0.35512122
   0.66819619  0.44261113  0.36828916
   0.72068242  0.54874539  0.35106906
Direct configuration=    12
   0.56228748  0.33231631  0.69934378
   0.52261087  0.45021505  0.69739651
   0.49930417  0.56560288  0.66439153
   0.42764329  0.47597545  0.62211432
   0.47244943  0.68050837  0.62949273
   0.48221399  0.36707549  0.61661222
   0.40728913  0.59166245  0.58413948
   0.59296492  0.65457335  0.63329112
   0.33756459  0.49921832  0.54261604
   0.61744571  0.53753537  0.66009984
   0.63994659  0.42110401  0.67927669
   0.39981397  0.39500801  0.53235990
   0.59986202  0.35843452  0.58432802
   0.54711129  0.47728391  0.58059795
   0.52468770  0.59835986  0.54834156
   0.55223415  0.76473409  0.59276102
   0.25089110  0.52414071  0.46200025
   0.32269439  0.61314499  0.50027443
   0.48457881  0.70872130  0.51087295
   0.65141410  0.58079181  0.55065281
   0.67037432  0.46377360  0.57185918
   0.60790119  0.68998783  0.51536636
   0.45658006  0.50722622  0.50206275
   0.42984132  0.62323425  0.45153592
   0.51510487  0.38670484  0.49791933
   0.36484859  0.52816691  0.41896746
   0.57546985  0.51935037  0.47133198
   0.54557052  0.63435119  0.42427780
   0.31397999  0.42222761  0.44905710
   0.63378512  0.40210005  0.47604250
   0.66485406  0.61986827  0.43372753
   0.70062937  0.50830819  0.46442472
   0.43144718  0.42308223  0.41428008
   0.48315989  0.53510566  0.38377307
   0.55021640  0.43209384  0.38920544
   0.60110063  0.54605807  0.35557796
   0.66844229  0.44224377  0.36842297
   0.72120713  0.54923133  0.35072520
Direct configuration=    13
   0.56232951  0.33246358  0.69872903
   0.52215826  0.45011642  0.69755554
   0.49901611  0.56578864  0.66385670
   0.42703863  0.47621821  0.62216028
   0.47303710  0.68052086  0.62935946
   0.48205420  0.36705400  0.61625388
   0.40720714  0.59181586  0.58315245
   0.59274651  0.65420376  0.63281869
   0.33721147  0.49967525  0.54268354
   0.61783786  0.53791727  0.66009010
   0.63935752  0.42143020  0.67886995
   0.39971950  0.39542831  0.53258960
   0.59999173  0.35789535  0.58350499
   0.54685154  0.47704578  0.58105115
   0.52487537  0.59897054  0.54724183
   0.55242313  0.76462120  0.59238870
   0.25055117  0.52391791  0.46187440
   0.32187468  0.61334694  0.50048667
   0.48490082  0.70941153  0.51055127
   0.65135444  0.58129106  0.55078718
   0.67015145  0.46363453  0.57182584
   0.60773945  0.69025082  0.51494736
   0.45693634  0.50599241  0.50267348
   0.43039527  0.62265836  0.45339759
   0.51541306  0.38667611  0.49797190
   0.36503201  0.52781202  0.42002865
   0.57623647  0.51902576  0.47136968
   0.54567917  0.63453640  0.42428904
   0.31383017  0.42204154  0.44940544
   0.63402666  0.40148175  0.47599878
   0.66476524  0.62006697  0.43373624
   0.70070291  0.50834968  0.46447913
   0.43176231  0.42298318  0.41447873
   0.48286957  0.53515563  0.38456880
   0.55043900  0.43181627  0.38919220
   0.60119985  0.54604888  0.35601052
   0.66872338  0.44217294  0.36816101
   0.72108147  0.54968457  0.35098070
Direct configuration=    14
   0.56239728  0.33270104  0.69773779
   0.52142847  0.44995738  0.69781195
   0.49855163  0.56608816  0.66299432
   0.42606368  0.47660963  0.62223438
   0.47398465  0.68054101  0.62914457
   0.48179654  0.36701933  0.61567609
   0.40707494  0.59206321  0.58156095
   0.59239435  0.65360784  0.63205696
   0.33664211  0.50041201  0.54279237
   0.61847017  0.53853304  0.66007438
   0.63840771  0.42195614  0.67821413
   0.39956717  0.39610600  0.53295998
   0.60020087  0.35702600  0.58217793
   0.54643271  0.47666182  0.58178189
   0.52517797  0.59995519  0.54546863
   0.55272786  0.76443919  0.59178837
   0.25000308  0.52355867  0.46167149
   0.32055298  0.61367256  0.50082889
   0.48542002  0.71052446  0.51003260
   0.65125825  0.58209605  0.55100385
   0.66979209  0.46341030  0.57177208
   0.60747866  0.69067487  0.51427176
   0.45751080  0.50400300  0.50365822
   0.43128846  0.62172979  0.45639935
   0.51591000  0.38662978  0.49805665
   0.36532776  0.52723981  0.42173972
   0.57747257  0.51850236  0.47143045
   0.54585436  0.63483503  0.42430716
   0.31358862  0.42174153  0.44996708
   0.63441611  0.40048482  0.47592830
   0.66462203  0.62038736  0.43375030
   0.70082147  0.50841657  0.46456686
   0.43227043  0.42282346  0.41479904
   0.48240147  0.53523620  0.38585185
   0.55079792  0.43136872  0.38917087
   0.60135983  0.54603406  0.35670798
   0.66917661  0.44205874  0.36773864
   0.72087886  0.55041538  0.35139267
Direct configuration=    15
   0.56234638  0.33295488  0.69696437
   0.52079183  0.45011942  0.69788914
   0.49852301  0.56623665  0.66251732
   0.42543783  0.47681860  0.62279702
   0.47419426  0.68057860  0.62879919
   0.48155148  0.36692297  0.61529944
   0.40733384  0.59251158  0.58075534
   0.59222902  0.65355172  0.63195969
   0.33611372  0.50062302  0.54299197
   0.61872630  0.53882182  0.66016801
   0.63744151  0.42204836  0.67781041
   0.39907570  0.39613521  0.53311181
   0.60041121  0.35665179  0.58182181
   0.54662088  0.47660507  0.58247288
   0.52492181  0.59995179  0.54470809
   0.55336621  0.76448655  0.59180592
   0.24995248  0.52321355  0.46149863
   0.31946231  0.61389154  0.50077250
   0.48585493  0.71129579  0.50979594
   0.65185520  0.58229857  0.55090129
   0.66958610  0.46376681  0.57125315
   0.60788792  0.69130807  0.51359699
   0.45807923  0.50300893  0.50405541
   0.43130036  0.62065721  0.45831144
   0.51605508  0.38647627  0.49791051
   0.36535014  0.52714693  0.42240436
   0.57812061  0.51773705  0.47199770
   0.54561287  0.63490277  0.42390204
   0.31365837  0.42141986  0.45062106
   0.63497969  0.39990503  0.47527316
   0.66487473  0.62064473  0.43379639
   0.70087528  0.50833505  0.46454545
   0.43230012  0.42272941  0.41489902
   0.48240234  0.53534779  0.38664327
   0.55107721  0.43122231  0.38899894
   0.60112875  0.54588253  0.35690575
   0.66938665  0.44227607  0.36764170
   0.72063512  0.55103620  0.35192335
Direct configuration=    16
   0.56230333  0.33316953  0.69631035
   0.52025348  0.45025644  0.69795441
   0.49849880  0.56636223  0.66211397
   0.42490860  0.47699531  0.62327279
   0.47437152  0.68061040  0.62850714
   0.48134426  0.36684149  0.61498094
   0.40755277  0.59289072  0.58007411
   0.59208922  0.65350427  0.63187744
   0.33566690  0.50080146  0.54316076
   0.61894289  0.53906602  0.66024719
   0.63662449  0.42212634  0.67746903
   0.39866012  0.39615991  0.53324020
   0.60058908  0.35633536  0.58152066
   0.54678000  0.47655709  0.58305719
   0.52470521  0.59994892  0.54406498
   0.55390601  0.76452660  0.59182076
   0.24990969  0.52292172  0.46135245
   0.31854004  0.61407671  0.50072481
   0.48622270  0.71194804  0.50959582
   0.65235998  0.58246982  0.55081457
   0.66941192  0.46406828  0.57081434
   0.60823399  0.69184351  0.51302639
   0.45855990  0.50216832  0.50439128
   0.43131042  0.61975023  0.45992833
   0.51617775  0.38634645  0.49778693
   0.36536906  0.52706840  0.42296639
   0.57866860  0.51708989  0.47247737
   0.54540866  0.63496005  0.42355948
   0.31371735  0.42114785  0.45117406
   0.63545625  0.39941475  0.47471917
   0.66508841  0.62086236  0.43383537
   0.70092078  0.50826611  0.46452734
   0.43232522  0.42264988  0.41498357
   0.48240308  0.53544214  0.38731251
   0.55131337  0.43109850  0.38885355
   0.60093334  0.54575439  0.35707299
   0.66956426  0.44245985  0.36755972
   0.72042901  0.55156117  0.35237210
Direct configuration=    17
   0.56232403  0.33306632  0.69662482
   0.52051234  0.45019055  0.69792303
   0.49851044  0.56630185  0.66230791
   0.42516307  0.47691034  0.62304403
   0.47428629  0.68059511  0.62864757
   0.48144390  0.36688067  0.61513409
   0.40744750  0.59270841  0.58040167
   0.59215644  0.65352709  0.63191699
   0.33588175  0.50071566  0.54307960
   0.61883875  0.53894860  0.66020912
   0.63701734  0.42208885  0.67763318
   0.39885995  0.39614803  0.53317846
   0.60050356  0.35648751  0.58166546
   0.54670349  0.47658016  0.58277623
   0.52480936  0.59995030  0.54437421
   0.55364646  0.76450734  0.59181362
   0.24993026  0.52306204  0.46142274
   0.31898350  0.61398767  0.50074774
   0.48604587  0.71163442  0.50969204
   0.65211727  0.58238747  0.55085627
   0.66949567  0.46392332  0.57102533
   0.60806759  0.69158605  0.51330076
   0.45832878  0.50257251  0.50422978
   0.43130558  0.62018634  0.45915087
   0.51611877  0.38640887  0.49784635
   0.36535996  0.52710616  0.42269615
   0.57840511  0.51740107  0.47224673
   0.54550685  0.63493251  0.42372420
   0.31368899  0.42127864  0.45090816
   0.63522710  0.39965049  0.47498555
   0.66498566  0.62075771  0.43381663
   0.70089890  0.50829926  0.46453605
   0.43231315  0.42268812  0.41494292
   0.48240272  0.53539677  0.38699072
   0.55119982  0.43115803  0.38892346
   0.60102730  0.54581600  0.35699258
   0.66947886  0.44237148  0.36759914
   0.72052812  0.55130875  0.35215633
Direct configuration=    18
   0.56199043  0.33281293  0.69664829
   0.52010587  0.45046096  0.69798738
   0.49884365  0.56627251  0.66227332
   0.42508779  0.47689330  0.62329424
   0.47394777  0.68081084  0.62826337
   0.48133282  0.36701230  0.61497522
   0.40737289  0.59269057  0.58072085
   0.59228817  0.65377728  0.63190416
   0.33604380  0.50059985  0.54339249
   0.61875887  0.53897716  0.66025290
   0.63673279  0.42223850  0.67734553
   0.39872765  0.39579676  0.53332705
   0.60060712  0.35676118  0.58173006
   0.54706019  0.47665860  0.58313629
   0.52505149  0.59953865  0.54473120
   0.55411851  0.76465126  0.59222345
   0.25003649  0.52290007  0.46122016
   0.31876701  0.61391115  0.50056093
   0.48622709  0.71143446  0.50960965
   0.65248621  0.58251629  0.55069170
   0.66931917  0.46405578  0.57067727
   0.60845637  0.69161771  0.51326519
   0.45832649  0.50265349  0.50423914
   0.43093843  0.62027366  0.45902338
   0.51605283  0.38632804  0.49772166
   0.36518622  0.52716136  0.42236994
   0.57826960  0.51687258  0.47287937
   0.54527137  0.63480852  0.42352846
   0.31376767  0.42115878  0.45136943
   0.63551280  0.39949262  0.47466193
   0.66501811  0.62083231  0.43390373
   0.70115304  0.50828715  0.46429704
   0.43209416  0.42266188  0.41478618
   0.48277161  0.53523287  0.38698346
   0.55113241  0.43135601  0.38879861
   0.60064386  0.54573332  0.35691988
   0.66950447  0.44268485  0.36755742
   0.72051527  0.55159493  0.35225013
Direct configuration=    19
   0.56158487  0.33250489  0.69667681
   0.51961173  0.45078970  0.69806561
   0.49924874  0.56623685  0.66223127
   0.42499628  0.47687259  0.62359843
   0.47353623  0.68107310  0.62779630
   0.48119778  0.36717232  0.61478208
   0.40728217  0.59266888  0.58110889
   0.59244832  0.65408144  0.63188857
   0.33624080  0.50045906  0.54377287
   0.61866177  0.53901189  0.66030613
   0.63638686  0.42242044  0.67699582
   0.39856681  0.39536971  0.53350770
   0.60073301  0.35709388  0.58180860
   0.54749384  0.47675396  0.58357402
   0.52534584  0.59903821  0.54516520
   0.55469238  0.76482623  0.59272167
   0.25016564  0.52270315  0.46097387
   0.31850382  0.61381812  0.50033382
   0.48644741  0.71119137  0.50950947
   0.65293474  0.58267290  0.55049164
   0.66910459  0.46421680  0.57025412
   0.60892901  0.69165621  0.51322196
   0.45832371  0.50275194  0.50425053
   0.43049208  0.62037981  0.45886838
   0.51597267  0.38622977  0.49757006
   0.36497499  0.52722847  0.42197337
   0.57810486  0.51623010  0.47364846
   0.54498509  0.63465777  0.42329051
   0.31386332  0.42101306  0.45193019
   0.63586012  0.39930070  0.47426851
   0.66505756  0.62092299  0.43400962
   0.70146201  0.50827243  0.46400649
   0.43182794  0.42262998  0.41459564
   0.48322006  0.53503362  0.38697465
   0.55105047  0.43159670  0.38864684
   0.60017771  0.54563279  0.35683150
   0.66953560  0.44306582  0.36750670
   0.72049966  0.55194285  0.35236417
Direct configuration=    20
   0.56102349  0.33254410  0.69658761
   0.51933123  0.45080804  0.69839808
   0.49939982  0.56666298  0.66230294
   0.42500581  0.47688762  0.62367864
   0.47341047  0.68132616  0.62713173
   0.48137658  0.36731317  0.61478464
   0.40706328  0.59252853  0.58138191
   0.59254337  0.65432599  0.63183246
   0.33640532  0.50047011  0.54382009
   0.61884587  0.53946814  0.66030041
   0.63580153  0.42243443  0.67684716
   0.39866100  0.39496741  0.53362711
   0.60068118  0.35738473  0.58164581
   0.54737919  0.47652170  0.58411196
   0.52557372  0.59888292  0.54553890
   0.55502468  0.76464252  0.59292031
   0.25038137  0.52248093  0.46059160
   0.31847064  0.61349094  0.50029602
   0.48713127  0.71074974  0.50965215
   0.65331814  0.58286646  0.55045116
   0.66906988  0.46434441  0.56974030
   0.60895151  0.69167486  0.51338601
   0.45802806  0.50276226  0.50436806
   0.43034110  0.62048653  0.45849381
   0.51598824  0.38634276  0.49742388
   0.36503465  0.52719218  0.42155506
   0.57832254  0.51540571  0.47398618
   0.54484175  0.63453488  0.42352292
   0.31390721  0.42094083  0.45256654
   0.63599164  0.39899712  0.47400492
   0.66487919  0.62086409  0.43389881
   0.70171400  0.50840438  0.46386209
   0.43162617  0.42274548  0.41457178
   0.48303330  0.53489880  0.38710595
   0.55097292  0.43167155  0.38857041
   0.60013944  0.54565024  0.35700993
   0.66951429  0.44344320  0.36725535
   0.72033666  0.55240457  0.35229780
Direct configuration=    21
   0.56036376  0.33259019  0.69648279
   0.51900160  0.45082960  0.69878879
   0.49957737  0.56716377  0.66238718
   0.42501701  0.47690529  0.62377289
   0.47326267  0.68162355  0.62635073
   0.48158670  0.36747869  0.61478765
   0.40680604  0.59236360  0.58170276
   0.59265507  0.65461338  0.63176653
   0.33659866  0.50048309  0.54387558