   31   31 1000    2
  0.4443328E+03  0.2397121E-08  0.2397121E-08  0.2397121E-08  0.1000000E-15
  1.000000000000000E-004
  CAR 
 unknown system                          
    341      1    220
 
  0.0000000E+00  0.0000000E+00  0.0000000E+00  0.1000000E+01
    1       -9.740315     -9.723814
    2       -9.307207     -9.295852
    3       -9.254943     -9.245761
    4       -9.226510     -9.215165
    5       -9.190726     -9.180321
    6       -9.177182     -9.168042
    7       -9.115121     -9.101358
    8       -9.074687     -9.064498
    9       -9.072164     -9.062704
   10       -9.057711     -9.051392
   11       -9.036413     -9.028081
   12       -9.009000     -8.999374
   13       -8.955038     -8.945253
   14       -8.929185     -8.916098
   15       -8.920591     -8.910181
   16       -8.883971     -8.875362
   17       -8.869120     -8.858275
   18       -8.828913     -8.821013
   19       -8.816288     -8.806350
   20       -8.774256     -8.763704
   21       -8.752362     -8.740637
   22       -8.730272     -8.720794
   23       -8.715740     -8.703943
   24       -8.689456     -8.679036
   25       -8.643666     -8.633945
   26       -8.617061     -8.608626
   27       -8.598797     -8.590283
   28       -8.563321     -8.553894
   29       -8.554120     -8.545271
   30       -8.545910     -8.535033
   31       -8.504511     -8.494272
   32       -8.485359     -8.476903
   33       -8.469853     -8.460917
   34       -8.449806     -8.440053
   35       -8.414945     -8.405550
   36       -8.403594     -8.394683
   37       -8.373727     -8.358314
   38       -8.352620     -8.340681
   39       -8.343004     -8.332756
   40       -8.305605     -8.293728
   41       -8.295390     -8.284802
   42       -8.275650     -8.267614
   43       -8.268022     -8.254357
   44       -8.227174     -8.215833
   45       -8.213875     -8.204700
   46       -8.207368     -8.196687
   47       -8.172089     -8.163049
   48       -8.162234     -8.151149
   49       -8.140176     -8.129463
   50       -8.129219     -8.118769
   51       -8.112810     -8.100282
   52       -8.075149     -8.064966
   53       -8.048882     -8.039583
   54       -8.003370     -7.994612
   55       -7.998260     -7.989068
   56       -7.978687     -7.970794
   57       -7.935232     -7.927237
   58       -7.927974     -7.919489
   59       -7.904314     -7.896519
   60       -7.899575     -7.888346
   61       -7.871577     -7.862413
   62       -7.856071     -7.847237
   63       -7.846867     -7.840405
   64       -7.825459     -7.818576
   65       -7.784923     -7.777387
   66       -7.767489     -7.757301
   67       -7.752498     -7.743770
   68       -7.745850     -7.736172
   69       -7.723371     -7.711407
   70       -7.694305     -7.686502
   71       -7.680417     -7.669963
   72       -7.661788     -7.650078
   73       -7.627512     -7.617418
   74       -7.621425     -7.610645
   75       -7.617247     -7.607906
   76       -7.577933     -7.568853
   77       -7.529297     -7.521133
   78       -7.502592     -7.492146
   79       -7.473790     -7.466276
   80       -7.464784     -7.453384
   81       -7.452392     -7.442546
   82       -7.444064     -7.433903
   83       -7.410232     -7.400999
   84       -7.398417     -7.390604
   85       -7.390867     -7.379980
   86       -7.361446     -7.351140
   87       -7.355566     -7.345255
   88       -7.342550     -7.333486
   89       -7.328350     -7.320521
   90       -7.298530     -7.290331
   91       -7.293811     -7.285784
   92       -7.269479     -7.262319
   93       -7.260178     -7.251503
   94       -7.239669     -7.232113
   95       -7.237393     -7.230194
   96       -7.210917     -7.202604
   97       -7.204599     -7.196744
   98       -7.185481     -7.177221
   99       -7.163472     -7.155690
  100       -7.153742     -7.145015
  101       -7.134719     -7.127659
  102       -7.134161     -7.126521
  103       -7.122603     -7.115624
  104       -7.110829     -7.101653
  105       -7.098100     -7.089160
  106       -7.082951     -7.074246
  107       -7.076122     -7.067769
  108       -7.066200     -7.058530
  109       -7.055314     -7.047071
  110       -7.044063     -7.036506
  111       -7.035918     -7.027717
  112       -7.023901     -7.015774
  113       -7.013089     -7.005763
  114       -7.001506     -6.993289
  115       -6.978461     -6.969985
  116       -6.965671     -6.959961
  117       -6.955920     -6.948163
  118       -6.949977     -6.942383
  119       -6.935866     -6.926817
  120       -6.924175     -6.917783
  121       -6.911372     -6.902106
  122       -6.898012     -6.888446
  123       -6.867237     -6.857373
  124       -6.858426     -6.848602
  125       -6.843441     -6.835165
  126       -6.831943     -6.823348
  127       -6.822160     -6.814987
  128       -6.815078     -6.807134
  129       -6.794235     -6.786181
  130       -6.779416     -6.771826
  131       -6.768487     -6.761700
  132       -6.756077     -6.747854
  133       -6.748143     -6.741689
  134       -6.746083     -6.738927
  135       -6.737467     -6.729172
  136       -6.715136     -6.705765
  137       -6.695230     -6.687374
  138       -6.679203     -6.671809
  139       -6.671167     -6.664345
  140       -6.658337     -6.650705
  141       -6.634688     -6.626281
  142       -6.618140     -6.608541
  143       -6.611886     -6.603499
  144       -6.607024     -6.597672
  145       -6.586430     -6.577415
  146       -6.562133     -6.553223
  147       -6.557340     -6.548760
  148       -6.540120     -6.533332
  149       -6.530088     -6.522538
  150       -6.520483     -6.513107
  151       -6.513666     -6.503440
  152       -6.499455     -6.491845
  153       -6.477361     -6.466953
  154       -6.446053     -6.440151
  155       -6.425428     -6.418152
  156       -6.420731     -6.409272
  157       -6.387292     -6.376322
  158       -6.368113     -6.360270
  159       -6.297032     -6.286860
  160       -6.169740     -6.132675
  161       -5.856909     -5.839713
  162       -5.775413     -5.755239
  163       -5.373932     -5.347274
  164       -5.165475     -5.132745
  165       -4.696862     -4.672458
  166       -4.549638     -4.520657
  167       -4.353764     -4.328965
  168       -4.206300     -4.180957
  169       -4.122080     -4.103032
  170       -3.919891     -3.900706
  171       -3.655513     -3.546900
  172       -3.351433     -3.328219
  173       -2.990743     -2.955702
  174       -2.894989     -2.869090
  175       -2.864635     -2.837292
  176       -2.736832     -2.704290
  177       -2.625730     -2.599337
  178       -2.469361     -2.441391
  179       -2.291767     -2.245412
  180       -2.089351     -2.067878
  181       -2.064371     -2.040803
  182       -1.973335     -1.924907
  183       -1.765674     -1.716886
  184       -1.570589     -1.539642
  185       -1.526760     -1.473825
  186       -1.449811     -1.422960
  187       -1.296359     -1.264700
  188       -1.254400     -1.225068
  189       -1.123490     -1.097292
  190       -1.064196     -1.033779
  191       -0.910119     -0.885416
  192       -0.851965     -0.831749
  193       -0.761909     -0.722544
  194       -0.634827     -0.609533
  195       -0.587834     -0.551263
  196       -0.420680     -0.379347
  197       -0.261009     -0.227389
  198       -0.180470     -0.122382
  199       -0.107111     -0.079333
  200       -0.102751     -0.068555
  201        0.067333      0.104846
  202        0.109877      0.154043
  203        0.275183      0.309148
  204        0.346828      0.360157
  205        0.394046      0.412719
  206        0.490226      0.509019
  207        0.508566      0.530000
  208        0.552149      0.578929
  209        0.568705      0.584778
  210        0.599706      0.618786
  211        0.610249      0.641672
  212        0.683173      0.676141
  213        0.699403      0.707644
  214        0.746773      0.765130
  215        0.773563      0.783511
  216        0.791070      0.802447
  217        0.811663      0.823522
  218        0.819348      0.838926
  219        0.831316      0.846264
  220        0.850888      0.864166
