 vasp.5.3.5 31Mar14 (build Feb 01 2018 12:10:03) gamma-only                     
  
 executed on             LinuxIFC date 2019.03.24  04:31:26
 running on   64 total cores
 distrk:  each k-point on   64 cores,    1 groups
 distr:  one band on NCORES_PER_BAND=  16 cores,    4 groups


--------------------------------------------------------------------------------------------------------


 INCAR:
 POTCAR:    PAW_PBE Ag 02Apr2005                  
 POTCAR:    PAW_PBE Ag 02Apr2005                  
   VRHFIN =Ag : s1 d10                                                          
   LEXCH  = PE                                                                  
   EATOM  =  1037.2675 eV,   76.2370 Ry                                         
                                                                                
   TITEL  = PAW_PBE Ag 02Apr2005                                                
   LULTRA =        F    use ultrasoft PP ?                                      
   IUNSCR =        1    unscreen: 0-lin 1-nonlin 2-no                           
   RPACOR =    2.000    partial core radius                                     
   POMASS =  107.868; ZVAL   =   11.000    mass and valenz                      
   RCORE  =    2.500    outmost cutoff radius                                   
   RWIGS  =    2.840; RWIGS  =    1.503    wigner-seitz radius (au A)           
   ENMAX  =  249.844; ENMIN  =  187.383 eV                                      
   ICORE  =        3    local potential                                         
   LCOR   =        T    correct aug charges                                     
   LPAW   =        T    paw PP                                                  
   EAUG   =  412.496                                                            
   DEXC   =    0.000                                                            
   RMAX   =    2.560    core radius for proj-oper                               
   RAUG   =    1.300    factor for augmentation sphere                          
   RDEP   =    2.576    radius for radial grids                                 
   RDEPT  =    2.072    core radius for aug-charge                              
                                                                                
   Atomic configuration                                                         
   12 entries                                                                   
     n  l   j            E        occ.                                          
     1  0  0.50    -25324.9161   2.0000                                         
     2  0  0.50     -3728.5341   2.0000                                         
     2  1  1.50     -3344.0404   6.0000                                         
     3  0  0.50      -683.5581   2.0000                                         
     3  1  1.50      -557.3225   6.0000                                         
     3  2  2.50      -358.3853  10.0000                                         
     4  0  0.50       -95.0341   2.0000                                         
     4  1  1.50       -58.5511   6.0000                                         
     4  2  2.50        -7.4440  10.0000                                         
     5  0  0.50        -4.4045   1.0000                                         
     5  1  0.50        -1.3606   0.0000                                         
     4  3  2.50        -1.3606   0.0000                                         
   Description                                                                  
     l       E           TYP  RCUT    TYP  RCUT                                 
     2     -7.4439781     23  2.400                                             
     2     -8.8045607     23  2.400                                             
     0     -4.4044681     23  2.400                                             
     0      1.9520038     23  2.400                                             
     1     -1.3605826     23  2.500                                             
     1     27.2116520     23  2.500                                             
     3     -4.0817478     23  2.400                                             
  local pseudopotential read in
  partial core-charges read in
  partial kinetic energy density read in
  atomic valenz-charges read in
  non local Contribution for L=           2  read in
    real space projection operators read in
  non local Contribution for L=           2  read in
    real space projection operators read in
  non local Contribution for L=           0  read in
    real space projection operators read in
  non local Contribution for L=           0  read in
    real space projection operators read in
  non local Contribution for L=           1  read in
    real space projection operators read in
  non local Contribution for L=           1  read in
    real space projection operators read in
    PAW grid and wavefunctions read in
 
   number of l-projection  operators is LMAX  =           6
   number of lm-projection operators is LMMAX =          18
 

 ----------------------------------------------------------------------------- 
|                                                                             |
|  ADVICE TO THIS USER RUNNING 'VASP/VAMP'   (HEAR YOUR MASTER'S VOICE ...):  |
|                                                                             |
|      You have a (more or less) 'large supercell' and for larger cells       |
|      it might be more efficient to use real space projection opertators     |
|      So try LREAL= Auto  in the INCAR   file.                               |
|      Mind: At the moment your POTCAR file does not contain real space       |
|       projectors, and has to be modified,  BUT if you                       |
|      want to do an extremely  accurate calculation you might also keep the  |
|      reciprocal projection scheme          (i.e. LREAL=.FALSE.)             |
|                                                                             |
 ----------------------------------------------------------------------------- 

  PAW_PBE Ag 02Apr2005                  :
 energy of atom  1       EATOM=-1037.2675
 kinetic energy error for atom=    0.0689 (will be added to EATOM!!)
 
 
 POSCAR: Ti46, -307.6133774 <s> Ag </s>          
  positions in direct lattice
  No initial velocities read in
 exchange correlation table for  LEXCH =        8
   RHO(1)=    0.500       N(1)  =     2000
   RHO(2)=  100.500       N(2)  =     4000
 


--------------------------------------------------------------------------------------------------------


 ion  position               nearest neighbor table
   1  0.567  0.275  0.505-   6 2.55   3 2.66  17 2.70  46 2.73  30 2.78  36 2.83
   2  0.612  0.671  0.493-  37 2.58  22 2.58  43 2.62  33 2.92  18 3.11  14 3.19  34 3.41  40 3.44

   3  0.661  0.349  0.499-  35 2.52   1 2.66  44 2.73  17 2.87  23 2.94  46 2.95  45 3.01  36 3.05

   4  0.358  0.683  0.402-   8 2.60  19 2.62  10 2.66   9 2.72   5 2.82  18 2.89
   5  0.303  0.575  0.440-   9 2.71  19 2.75  16 2.76   4 2.82  32 2.88   8 2.91  12 2.93  21 3.30

   6  0.477  0.290  0.435-   1 2.55  27 2.65  17 2.71  36 2.72  31 2.75  30 2.79
   7  0.513  0.492  0.417-  39 2.52  43 2.56  17 2.64  13 2.73  21 2.75  40 2.83  31 2.83  19 2.87
                            34 2.88  45 3.44  12 3.47
   8  0.377  0.654  0.514-   4 2.60  24 2.73  32 2.76  19 2.79   5 2.91  18 2.92  25 3.34  37 3.60

   9  0.346  0.587  0.326-  10 2.65  19 2.68   5 2.71   4 2.72  12 2.73  13 2.79
  10  0.444  0.657  0.323-  40 2.60   9 2.65   4 2.66  19 2.67  13 2.83  18 2.91
  11  0.491  0.537  0.699-  20 2.56  38 2.73  41 2.74  24 2.91  25 2.94  29 2.94  42 3.02  14 3.11
                            28 3.13
  12  0.363  0.476  0.376-  16 2.70   9 2.73  13 2.80  21 2.91   5 2.93  27 2.94  19 2.97  31 3.13
                             7 3.47
  13  0.458  0.530  0.313-   7 2.73  19 2.76   9 2.79  12 2.80  40 2.80  10 2.83  39 3.28  31 3.32

  14  0.577  0.574  0.593-  33 2.46  43 2.58  41 2.64  45 2.73  24 2.73  38 2.74  26 2.80  22 2.91
                            37 2.93  11 3.11  29 3.12   2 3.19  28 3.19
  15  0.367  0.415  0.578-  20 2.59  16 2.71  21 2.76  27 2.81  30 2.91  28 2.92  32 3.10  42 3.21

  16  0.304  0.457  0.481-  21 2.62  12 2.70  15 2.71   5 2.76  27 2.79  32 2.81
  17  0.541  0.389  0.469-  36 2.56   7 2.64   1 2.70   6 2.71  45 2.80  30 2.85   3 2.87  31 2.91
                            35 2.99  27 3.09  46 3.10  28 3.11  39 3.22
  18  0.481  0.692  0.444-  19 2.70  40 2.80  43 2.81   4 2.89  37 2.91  10 2.91   8 2.92   2 3.11

  19  0.424  0.587  0.419-   4 2.62  21 2.66  10 2.67   9 2.68  18 2.70   5 2.75  13 2.76   8 2.79
                            43 2.81  40 2.82   7 2.87  12 2.97
  20  0.391  0.497  0.657-  11 2.56  15 2.59  32 2.69  25 2.72  42 2.82  24 2.93  28 2.93
  21  0.416  0.494  0.495-  16 2.62  27 2.65  19 2.66  28 2.66  32 2.72   7 2.75  15 2.76  12 2.91
                            24 2.95  43 3.25   5 3.30
  22  0.687  0.586  0.522-  26 2.54   2 2.58  34 2.67  23 2.77  33 2.85  14 2.91  45 3.08  43 3.51

  23  0.722  0.467  0.506-  45 2.53  44 2.75  35 2.76  22 2.77   3 2.94  26 2.97  34 3.00
  24  0.454  0.587  0.583-  25 2.28   8 2.73  14 2.73  43 2.75  37 2.86  32 2.89  11 2.91  20 2.93
                            21 2.95  28 2.97  38 2.97
  25  0.395  0.620  0.661-  24 2.28  20 2.72  11 2.94  32 3.00  38 3.01   8 3.34
  26  0.692  0.529  0.621-  22 2.54  44 2.77  14 2.80  41 2.81  29 2.89  45 2.90  23 2.97  33 3.05

  27  0.402  0.380  0.460-  21 2.65   6 2.65  31 2.74  30 2.75  16 2.79  15 2.81  12 2.94  17 3.09

  28  0.492  0.458  0.581-  42 2.42  21 2.66  45 2.83  15 2.92  20 2.93  30 2.95  24 2.97  46 2.98
                            29 3.01  17 3.11  11 3.13  14 3.19  43 3.59
  29  0.594  0.457  0.670-  41 2.70  44 2.71  46 2.79  42 2.89  26 2.89  11 2.94  45 3.01  28 3.01
                            14 3.12
  30  0.465  0.330  0.554-  46 2.68  27 2.75   1 2.78   6 2.79  17 2.85  15 2.91  28 2.95  42 3.11

  31  0.472  0.387  0.357-  39 2.59  27 2.74   6 2.75   7 2.83  17 2.91  36 3.00  12 3.13  13 3.32

  32  0.331  0.549  0.565-  20 2.69  21 2.72   8 2.76  16 2.81   5 2.88  24 2.89  25 3.00  15 3.10

  33  0.644  0.658  0.620-  14 2.46  41 2.84  22 2.85  38 2.88   2 2.92  37 2.97  26 3.05
  34  0.636  0.535  0.425-  35 2.62  22 2.67  43 2.87   7 2.88  45 2.89  40 2.93  23 3.00  39 3.18
                             2 3.41
  35  0.659  0.419  0.409-   3 2.52  39 2.52  34 2.62  23 2.76  36 2.77  17 2.99  45 3.19
  36  0.586  0.320  0.387-  17 2.56   6 2.72  35 2.77   1 2.83  39 2.89  31 3.00   3 3.05
  37  0.525  0.694  0.568-  38 2.54   2 2.58  24 2.86  18 2.91  14 2.93  33 2.97  43 3.04   8 3.60

  38  0.526  0.652  0.675-  37 2.54  41 2.66  11 2.73  14 2.74  33 2.88  24 2.97  25 3.01
  39  0.574  0.440  0.337-   7 2.52  35 2.52  31 2.59  36 2.89  34 3.18  17 3.22  13 3.28
  40  0.540  0.608  0.370-  10 2.60  43 2.63  18 2.80  13 2.80  19 2.82   7 2.83  34 2.93   2 3.44

  41  0.610  0.572  0.708-  14 2.64  38 2.66  29 2.70  11 2.74  26 2.81  33 2.84
  42  0.475  0.403  0.674-  28 2.42  20 2.82  29 2.89  46 2.95  11 3.02  30 3.11  15 3.21
  43  0.532  0.584  0.486-   7 2.56  14 2.58   2 2.62  40 2.63  24 2.75  19 2.81  18 2.81  34 2.87
                            37 3.04  45 3.25  21 3.25  22 3.51  28 3.59
  44  0.685  0.405  0.607-  45 2.69  46 2.69  29 2.71   3 2.73  23 2.75  26 2.77
  45  0.611  0.470  0.536-  23 2.53  44 2.69  14 2.73  17 2.80  28 2.83  34 2.89  26 2.90   3 3.01
                            29 3.01  46 3.05  22 3.08  35 3.19  43 3.25   7 3.44
  46  0.575  0.354  0.600-  30 2.68  44 2.69   1 2.73  29 2.79  42 2.95   3 2.95  28 2.98  45 3.05
                            17 3.10
 
  LATTYP: Found a simple cubic cell.
 ALAT       =    22.1115891728
  
  Lattice vectors:
  
 A1 = (  22.1115891728,   0.0000000000,   0.0000000000)
 A2 = (   0.0000000000,  22.1115891728,   0.0000000000)
 A3 = (   0.0000000000,   0.0000000000,  22.1115891728)


Analysis of symmetry for initial positions (statically):
=====================================================================
 Subroutine PRICEL returns:
 Original cell was already a primitive cell.
 

 Routine SETGRP: Setting up the symmetry group for a 
 simple cubic supercell.


 Subroutine GETGRP returns: Found  1 space group operations
 (whereof  1 operations were pure point group operations)
 out of a pool of 48 trial point group operations.


The static configuration has the point symmetry C_1 .


Analysis of symmetry for dynamics (positions and initial velocities):
=====================================================================
 Subroutine PRICEL returns:
 Original cell was already a primitive cell.
 

 Routine SETGRP: Setting up the symmetry group for a 
 simple cubic supercell.


 Subroutine GETGRP returns: Found  1 space group operations
 (whereof  1 operations were pure point group operations)
 out of a pool of 48 trial point group operations.


The dynamic configuration has the point symmetry C_1 .


Analysis of magnetic symmetry:
=====================================================================
 Subroutine PRICEL returns:
 Original cell was already a primitive cell.
 

 Subroutine MAGSYM returns: Found  1 space group operations
 (whereof  1 operations were pure point group operations)
 out of a pool of  1 trial space group operations
 (whereof  1 operations were pure point group operations)
 and found also     1 'primitive' translations


The magnetic configuration has the point symmetry C_1 .
 
 
 KPOINTS: Gamma-point only                        
  k-points in reciprocal lattice
Space group operators:
 irot       det(A)        alpha          n_x          n_y          n_z        tau_x        tau_y        tau_z
    1     1.000000     0.000000     1.000000     0.000000     0.000000     0.000000     0.000000     0.000000


--------------------------------------------------------------------------------------------------------




 Dimension of arrays:
   k-points           NKPTS =      1   k-points in BZ     NKDIM =      1   number of bands    NBANDS=    328
   number of dos      NEDOS =    301   number of ions     NIONS =     46
   non local maximal  LDIM  =      6   non local SUM 2l+1 LMDIM =     18
   total plane-waves  NPLWV = 729000
   max r-space proj   IRMAX =      1   max aug-charges    IRDMAX=   3515
   dimension x,y,z NGX =    90 NGY =   90 NGZ =   90
   dimension x,y,z NGXF=   180 NGYF=  180 NGZF=  180
   support grid    NGXF=   180 NGYF=  180 NGZF=  180
   ions per type =              46
 NGX,Y,Z   is equivalent  to a cutoff of   6.77,  6.77,  6.77 a.u.
 NGXF,Y,Z  is equivalent  to a cutoff of  13.53, 13.53, 13.53 a.u.


 I would recommend the setting:
   dimension x,y,z NGX =    85 NGY =   85 NGZ =   85
 SYSTEM =  unknown system                          
 POSCAR =  Ti46, -307.6133774 <s> Ag </s>          

 Startparameter for this run:
   NWRITE =      2    write-flag & timer
   PREC   = normal    normal or accurate (medium, high low for compatibility)
   ISTART =      0    job   : 0-new  1-cont  2-samecut
   ICHARG =      2    charge: 1-file 2-atom 10-const
   ISPIN  =      2    spin polarized calculation?
   LNONCOLLINEAR =      F non collinear calculations
   LSORBIT =      F    spin-orbit coupling
   INIWAV =      1    electr: 0-lowe 1-rand  2-diag
   LASPH  =      F    aspherical Exc in radial PAW
   METAGGA=      F    non-selfconsistent MetaGGA calc.

 Electronic Relaxation 1
   ENCUT  =  249.8 eV  18.36 Ry    4.29 a.u.  28.50 28.50 28.50*2*pi/ulx,y,z
   ENINI  =  249.8     initial cutoff
   ENAUG  =  412.5 eV  augmentation charge cutoff
   NELM   =     60;   NELMIN=  2; NELMDL= -5     # of ELM steps 
   EDIFF  = 0.1E-03   stopping-criterion for ELM
   LREAL  =      F    real-space projection
   NLSPLINE    = F    spline interpolate recip. space projectors
   LCOMPAT=      F    compatible to vasp.4.4
   GGA_COMPAT  = T    GGA compatible to vasp.4.4-vasp.4.6
   LMAXPAW     = -100 max onsite density
   LMAXMIX     =    2 max onsite mixed and CHGCAR
   VOSKOWN=      0    Vosko Wilk Nusair interpolation
   ROPT   =    0.00000
 Ionic relaxation
   EDIFFG = 0.1E-02   stopping-criterion for IOM
   NSW    =   1000    number of steps for IOM
   NBLOCK =      1;   KBLOCK =   1000    inner block; outer block 
   IBRION =      2    ionic relax: 0-MD 1-quasi-New 2-CG
   NFREE  =      1    steps in history (QN), initial steepest desc. (CG)
   ISIF   =      2    stress and relaxation
   IWAVPR =     11    prediction:  0-non 1-charg 2-wave 3-comb
   ISYM   =      2    0-nonsym 1-usesym 2-fastsym
   LCORR  =      T    Harris-Foulkes like correction to forces

   POTIM  = 0.1000    time-step for ionic-motion
   TEIN   =    0.0    initial temperature
   TEBEG  =    0.0;   TEEND  =   0.0 temperature during run
   SMASS  =  -3.00    Nose mass-parameter (am)
   estimated Nose-frequenzy (Omega)   =  0.10E-29 period in steps =****** mass=  -0.112E-25a.u.
   SCALEE = 1.0000    scale energy and forces
   NPACO  =    256;   APACO  = 16.0  distance and # of slots for P.C.
   PSTRESS=    0.0 pullay stress

  Mass of Ions in am
   POMASS = 107.87
  Ionic Valenz
   ZVAL   =  11.00
  Atomic Wigner-Seitz radii
   RWIGS  =  -1.00
  virtual crystal weights 
   VCA    =   1.00
   NELECT =     506.0000    total number of electrons
   NUPDOWN=      -1.0000    fix difference up-down

 DOS related values:
   EMIN   =  10.00;   EMAX   =-10.00  energy-range for DOS
   EFERMI =   0.00
   ISMEAR =     0;   SIGMA  =   0.00  broadening in eV -4-tet -1-fermi 0-gaus

 Electronic relaxation 2 (details)
   IALGO  =     38    algorithm
   LDIAG  =      T    sub-space diagonalisation (order eigenvalues)
   LSUBROT=      F    optimize rotation matrix (better conditioning)
   TURBO    =      0    0=normal 1=particle mesh
   IRESTART =      0    0=no restart 2=restart with 2 vectors
   NREBOOT  =      0    no. of reboots
   NMIN     =      0    reboot dimension
   EREF     =   0.00    reference energy to select bands
   IMIX   =      4    mixing-type and parameters
     AMIX     =   0.40;   BMIX     =  1.00
     AMIX_MAG =   1.60;   BMIX_MAG =  1.00
     AMIN     =   0.10
     WC   =   100.;   INIMIX=   1;  MIXPRE=   1;  MAXMIX= -45

 Intra band minimization:
   WEIMIN = 0.0010     energy-eigenvalue tresh-hold
   EBREAK =  0.76E-07  absolut break condition
   DEPER  =   0.30     relativ break condition  

   TIME   =   0.40     timestep for ELM

  volume/ion in A,a.u.               =     235.02      1585.98
  Fermi-wavevector in a.u.,A,eV,Ry     =   0.589981  1.114903  4.735891  0.348078
  Thomas-Fermi vector in A             =   1.637846
 
 Write flags
   LWAVE  =      F    write WAVECAR
   LCHARG =      F    write CHGCAR
   LVTOT  =      F    write LOCPOT, total local potential
   LVHAR  =      F    write LOCPOT, Hartree potential only
   LELF   =      F    write electronic localiz. function (ELF)
   LORBIT =      0    0 simple, 1 ext, 2 COOP (PROOUT)


 Dipole corrections
   LMONO  =      F    monopole corrections only (constant potential shift)
   LDIPOL =      F    correct potential (dipole corrections)
   IDIPOL =      0    1-x, 2-y, 3-z, 4-all directions 
   EPSILON=  1.0000000 bulk dielectric constant

 Exchange correlation treatment:
   GGA     =    PE    GGA type
   LEXCH   =     8    internal setting for exchange type
   VOSKOWN=      0    Vosko Wilk Nusair interpolation
   LHFCALC =     F    Hartree Fock is set to
   LHFONE  =     F    Hartree Fock one center treatment
   AEXX    =    0.0000 exact exchange contribution

 Linear response parameters
   LEPSILON=     F    determine dielectric tensor
   LRPA    =     F    only Hartree local field effects (RPA)
   LNABLA  =     F    use nabla operator in PAW spheres
   LVEL    =     F    velocity operator in full k-point grid
   LINTERFAST=   F  fast interpolation
   KINTER  =     0    interpolate to denser k-point grid
   CSHIFT  =0.1000    complex shift for real part using Kramers Kronig
   OMEGAMAX=  -1.0    maximum frequency
   DEG_THRESHOLD= 0.2000000E-02 threshold for treating states as degnerate
   RTIME   =    0.100 relaxation time in fs

 Orbital magnetization related:
   ORBITALMAG=     F  switch on orbital magnetization
   LCHIMAG   =     F  perturbation theory with respect to B field
   DQ        =  0.001000  dq finite difference perturbation B field



--------------------------------------------------------------------------------------------------------


 conjugate gradient relaxation of ions
 charge density and potential will be updated during run
 spin polarized calculation
 Variant of blocked Davidson
 Davidson routine will perform the subspace rotation
 perform sub-space diagonalisation
    after iterative eigenvector-optimisation
 modified Broyden-mixing scheme, WC =      100.0
 initial mixing is a Kerker type mixing with AMIX =  0.4000 and BMIX =      1.0000
 Hartree-type preconditioning will be used
 using additional bands           75
 reciprocal scheme for non local part
 use partial core corrections
 calculate Harris-corrections to forces 
   (improved forces if not selfconsistent)
 use gradient corrections 
 use of overlap-Matrix (Vanderbilt PP)
 Gauss-broadening in eV      SIGMA  =   0.00


--------------------------------------------------------------------------------------------------------


  energy-cutoff  :      249.84
  volume of cell :    10810.85
      direct lattice vectors                 reciprocal lattice vectors
    22.111589173  0.000000000  0.000000000     0.045225153  0.000000000  0.000000000
     0.000000000 22.111589173  0.000000000     0.000000000  0.045225153  0.000000000
     0.000000000  0.000000000 22.111589173     0.000000000  0.000000000  0.045225153

  length of vectors
    22.111589173 22.111589173 22.111589173     0.045225153  0.045225153  0.045225153


 
 k-points in units of 2pi/SCALE and weight: Gamma-point only                        
   0.00000000  0.00000000  0.00000000       1.000
 
 k-points in reciprocal lattice and weights: Gamma-point only                        
   0.00000000  0.00000000  0.00000000       1.000
 
 position of ions in fractional coordinates (direct lattice) 
   0.56694335  0.27493049  0.50536955
   0.61173536  0.67111589  0.49251271
   0.66133955  0.34908728  0.49866526
   0.35764075  0.68341725  0.40208525
   0.30262761  0.57476916  0.43995111
   0.47669292  0.29001584  0.43522852
   0.51306740  0.49229940  0.41726718
   0.37662937  0.65394615  0.51427749
   0.34635118  0.58744399  0.32594268
   0.44389792  0.65683134  0.32260404
   0.49139841  0.53658899  0.69859248
   0.36270701  0.47557807  0.37590680
   0.45811232  0.52983375  0.31316414
   0.57690294  0.57388345  0.59330295
   0.36699745  0.41454175  0.57755888
   0.30411794  0.45690376  0.48125259
   0.54138595  0.38850676  0.46878870
   0.48129552  0.69216598  0.44378929
   0.42445617  0.58682483  0.41885926
   0.39065181  0.49728808  0.65672640
   0.41575052  0.49404821  0.49468332
   0.68666335  0.58646709  0.52151719
   0.72171149  0.46748657  0.50552601
   0.45436061  0.58675819  0.58269235
   0.39516377  0.62017696  0.66050155
   0.69196583  0.52898577  0.62096664
   0.40209685  0.38031799  0.46014882
   0.49174699  0.45795318  0.58064870
   0.59437637  0.45704862  0.67037477
   0.46510653  0.32990939  0.55449235
   0.47154724  0.38684251  0.35747836
   0.33059827  0.54918682  0.56451974
   0.64438989  0.65837897  0.61960798
   0.63597600  0.53462803  0.42485368
   0.65876995  0.41933923  0.40923684
   0.58602027  0.31979943  0.38686560
   0.52546086  0.69352306  0.56767330
   0.52645042  0.65249903  0.67477848
   0.57363472  0.43986038  0.33651122
   0.54014151  0.60806609  0.36990553
   0.60979313  0.57204640  0.70789247
   0.47531982  0.40335609  0.67388280
   0.53218197  0.58353324  0.48583790
   0.68518864  0.40462181  0.60655420
   0.61121536  0.46999041  0.53579328
   0.57478898  0.35376807  0.60034637
 
 position of ions in cartesian coordinates  (Angst):
  12.53601849  6.07914994 11.17452389
  13.52644105 14.83943875 10.89023865
  14.62326853  7.71887456 11.02628135
   7.90800543 15.11144142  8.89074393
   6.69157747 12.70905944  9.72801815
  10.54043804  6.41271111  9.62359413
  11.34473556 10.88552213  9.22644039
   8.32787395 14.45978866 11.37149261
   7.65837493 12.98932023  7.20711063
   9.81528851 14.52358482  7.13328805
  10.86559977 11.86483525 15.44698990
   8.02002835 10.51578688  8.31189675
  10.12959139 11.71546618  6.92455683
  12.75624089 12.68947504 13.11887100
   8.11489681  9.16617679 12.77074478
   6.72453105 10.10286818 10.64125962
  11.97090366  8.59050197 10.36566316
  10.64220875 15.30488986  9.81288636
   9.38540054 12.97562952  9.26164392
   8.63793224 10.99582972 14.52126434
   9.19290471 10.92419103 10.93823437
  15.18321793 12.96771944 11.53157384
  15.95818800 10.33687096 11.17798343
  10.04663514 12.97415613 12.88425395
   8.73769895 13.71309807 14.60473889
  15.30046420 11.69671613 13.73055932
   8.89100027  8.40943519 10.17462160
  10.87330739 10.12607264 12.83906558
  13.14260617 10.10607139 14.82305142
  10.28424459  7.29482081 12.26070705
  10.42665886  8.55370255  7.90441471
   7.31005317 12.14339326 12.48242861
  14.24848446 14.55780537 13.70051717
  14.06244009 11.82147540  9.39418995
  14.56645039  9.27225670  9.04887683
  12.95783955  7.07127361  8.55421323
  11.61877464 15.33489689 12.55215886
  11.64065532 14.42779039 14.92042451
  12.68397536  9.72601206  7.44079777
  11.94338721 13.44530765  8.17919903
  13.48349508 12.64885506 15.65262757
  10.51007665  8.91884417 14.90061958
  11.76738913 12.90284717 10.74264815
  15.15060961  8.94683123 13.41187722
  13.51494297 10.39223494 11.84724087
  12.70949780  7.82237433 13.27461223
 


--------------------------------------------------------------------------------------------------------


 use parallel FFT for wavefunctions z direction half grid
 k-point  1 :   0.0000 0.0000 0.0000  plane waves:   48617

 maximum and minimum number of plane-waves per node :      3053     3034

 maximum number of plane-waves:     48617
 maximum index in each direction: 
   IXMAX=   28   IYMAX=   28   IZMAX=   28
   IXMIN=  -28   IYMIN=  -28   IZMIN=    0

 WARNING: aliasing errors must be expected set NGX to 114 to avoid them
 WARNING: aliasing errors must be expected set NGY to 114 to avoid them
 WARNING: aliasing errors must be expected set NGZ to 114 to avoid them
 aliasing errors are usually negligible using standard VASP settings
 and one can safely disregard these warnings

 parallel 3D FFT for wavefunctions:
    minimum data exchange during FFTs selected (reduces bandwidth)
 parallel 3D FFT for charge:
    minimum data exchange during FFTs selected (reduces bandwidth)


 total amount of memory used by VASP on root node    56123. kBytes
========================================================================

   base      :      30000. kBytes
   nonl-proj :       2689. kBytes
   fftplans  :       4332. kBytes
   grid      :      10964. kBytes
   one-center:         46. kBytes
   wavefun   :       8092. kBytes
 
     INWAV:  cpu time    0.00: real time    0.00
 Broyden mixing: mesh for mixing (old mesh)
   NGX = 57   NGY = 57   NGZ = 57
  (NGX  =180   NGY  =180   NGZ  =180)
  gives a total of 185193 points

 initial charge density was supplied:
 charge density of overlapping atoms calculated
 number of electron     506.0000000 magnetization      46.0000000
 keeping initial charge density in first step


--------------------------------------------------------------------------------------------------------


 Maximum index for augmentation-charges          267 (set IRDMAX)


--------------------------------------------------------------------------------------------------------


 First call to EWALD:  gamma=   0.080
 Maximum number of real-space cells 3x 3x 3
 Maximum number of reciprocal cells 3x 3x 3

 FEWALD executed in parallel
    FEWALD:  cpu time    0.00: real time    0.00


----------------------------------------- Iteration    1(   1)  ---------------------------------------


    POTLOK:  cpu time    0.22: real time    0.22
    SETDIJ:  cpu time    0.01: real time    0.01
     EDDAV:  cpu time    4.70: real time    4.71
       DOS:  cpu time    0.00: real time    0.00
    --------------------------------------------
      LOOP:  cpu time    4.93: real time    4.96

 eigenvalue-minimisations  :  1344
 total energy-change (2. order) : 0.4154759E+04  (-0.1103921E+05)
 number of electron     506.0000000 magnetization      46.0000000
 augmentation part      506.0000000 magnetization      46.0000000

 Free energy of the ion-electron system (eV)
  ---------------------------------------------------
  alpha Z        PSCENC =       166.48303101
  Ewald energy   TEWEN  =    134881.57476160
  -Hartree energ DENC   =   -180746.06268741
  -exchange      EXHF   =         0.00000000
  -V(xc)+E(xc)   XCENC  =      -491.55287641
  PAW double counting   =     46155.12019120   -44034.17200843
  entropy T*S    EENTRO =         0.00000000
  eigenvalues    EBANDS =       512.23204515
  atomic energy  EATOM  =     47711.13698397
  ---------------------------------------------------
  free energy    TOTEN  =      4154.75944069 eV

  energy without entropy =     4154.75944069  energy(sigma->0) =     4154.75944069


--------------------------------------------------------------------------------------------------------




----------------------------------------- Iteration    1(   2)  ---------------------------------------


     EDDAV:  cpu time    6.64: real time    6.64
       DOS:  cpu time    0.00: real time    0.00
    --------------------------------------------
      LOOP:  cpu time    6.64: real time    6.66

 eigenvalue-minimisations  :  2072
 total energy-change (2. order) :-0.3587494E+04  (-0.3250480E+04)
 number of electron     506.0000000 magnetization      46.0000000
 augmentation part      506.0000000 magnetization      46.0000000

 Free energy of the ion-electron system (eV)
  ---------------------------------------------------
  alpha Z        PSCENC =       166.48303101
  Ewald energy   TEWEN  =    134881.57476160
  -Hartree energ DENC   =   -180746.06268741
  -exchange      EXHF   =         0.00000000
  -V(xc)+E(xc)   XCENC  =      -491.55287641
  PAW double counting   =     46155.12019120   -44034.17200843
  entropy T*S    EENTRO =         0.00000000
  eigenvalues    EBANDS =     -3075.26177246
  atomic energy  EATOM  =     47711.13698397
  ---------------------------------------------------
  free energy    TOTEN  =       567.26562309 eV

  energy without entropy =      567.26562309  energy(sigma->0) =      567.26562309


--------------------------------------------------------------------------------------------------------




----------------------------------------- Iteration    1(   3)  ---------------------------------------


     EDDAV:  cpu time    5.39: real time    5.40
       DOS:  cpu time    0.00: real time    0.00
    --------------------------------------------
      LOOP:  cpu time    5.40: real time    6.35

 eigenvalue-minimisations  :  1600
 total energy-change (2. order) :-0.6424205E+03  (-0.5959729E+03)
 number of electron     506.0000000 magnetization      46.0000000
 augmentation part      506.0000000 magnetization      46.0000000

 Free energy of the ion-electron system (eV)
  ---------------------------------------------------
  alpha Z        PSCENC =       166.48303101
  Ewald energy   TEWEN  =    134881.57476160
  -Hartree energ DENC   =   -180746.06268741
  -exchange      EXHF   =         0.00000000
  -V(xc)+E(xc)   XCENC  =      -491.55287641
  PAW double counting   =     46155.12019120   -44034.17200843
  entropy T*S    EENTRO =        -0.00000000
  eigenvalues    EBANDS =     -3717.68226822
  atomic energy  EATOM  =     47711.13698397
  ---------------------------------------------------
  free energy    TOTEN  =       -75.15487268 eV

  energy without entropy =      -75.15487268  energy(sigma->0) =      -75.15487268


--------------------------------------------------------------------------------------------------------




----------------------------------------- Iteration    1(   4)  ---------------------------------------


     EDDAV:  cpu time    4.97: real time    4.97
       DOS:  cpu time    0.00: real time    0.00
    --------------------------------------------
      LOOP:  cpu time    4.98: real time    4.98

 eigenvalue-minimisations  :  1440
 total energy-change (2. order) :-0.2113484E+02  (-0.2097013E+02)
 number of electron     506.0000000 magnetization      46.0000000
 augmentation part      506.0000000 magnetization      46.0000000

 Free energy of the ion-electron system (eV)
  ---------------------------------------------------
  alpha Z        PSCENC =       166.48303101
  Ewald energy   TEWEN  =    134881.57476160
  -Hartree energ DENC   =   -180746.06268741
  -exchange      EXHF   =         0.00000000
  -V(xc)+E(xc)   XCENC  =      -491.55287641
  PAW double counting   =     46155.12019120   -44034.17200843
  entropy T*S    EENTRO =         0.00000000
  eigenvalues    EBANDS =     -3738.81710701
  atomic energy  EATOM  =     47711.13698397
  ---------------------------------------------------
  free energy    TOTEN  =       -96.28971146 eV

  energy without entropy =      -96.28971146  energy(sigma->0) =      -96.28971146


--------------------------------------------------------------------------------------------------------




----------------------------------------- Iteration    1(   5)  ---------------------------------------


     EDDAV:  cpu time    5.07: real time    5.08
       DOS:  cpu time    0.00: real time    0.00
    CHARGE:  cpu time    0.13: real time    0.13
    MIXING:  cpu time    0.00: real time    0.00
    --------------------------------------------
      LOOP:  cpu time    5.21: real time    5.22

 eigenvalue-minimisations  :  1472
 total energy-change (2. order) :-0.3146063E+00  (-0.3143704E+00)
 number of electron     505.9998582 magnetization      40.9792852
 augmentation part      236.4223168 magnetization      38.1889234

 Broyden mixing:
  rms(total) = 0.45495E+01    rms(broyden)= 0.45490E+01
  rms(prec ) = 0.46113E+01
  weight for this iteration     100.00

 Free energy of the ion-electron system (eV)
  ---------------------------------------------------
  alpha Z        PSCENC =       166.48303101
  Ewald energy   TEWEN  =    134881.57476160
  -Hartree energ DENC   =   -180746.06268741
  -exchange      EXHF   =         0.00000000
  -V(xc)+E(xc)   XCENC  =      -491.55287641
  PAW double counting   =     46155.12019120   -44034.17200843
  entropy T*S    EENTRO =         0.00000000
  eigenvalues    EBANDS =     -3739.13171332
  atomic energy  EATOM  =     47711.13698397
  ---------------------------------------------------
  free energy    TOTEN  =       -96.60431778 eV

  energy without entropy =      -96.60431778  energy(sigma->0) =      -96.60431778


--------------------------------------------------------------------------------------------------------




----------------------------------------- Iteration    1(   6)  ---------------------------------------


    POTLOK:  cpu time    0.22: real time    0.22
    SETDIJ:  cpu time    0.01: real time    0.01
     EDDAV:  cpu time    4.67: real time    4.67
       DOS:  cpu time    0.00: real time    0.00
    CHARGE:  cpu time    0.13: real time    0.13
    MIXING:  cpu time    0.00: real time    0.00
    --------------------------------------------
      LOOP:  cpu time    5.03: real time    5.86

 eigenvalue-minimisations  :  1328
 total energy-change (2. order) : 0.5034030E+02  (-0.1544508E+02)
 number of electron     505.9998549 magnetization      37.3734802
 augmentation part      242.3190285 magnetization      22.1568881

 Broyden mixing:
  rms(total) = 0.25368E+01    rms(broyden)= 0.25367E+01
  rms(prec ) = 0.25574E+01
  weight for this iteration     100.00

 eigenvalues of (default mixing * dielectric matrix)
  average eigenvalue GAMMA=   0.8911
  0.8911

 Free energy of the ion-electron system (eV)
  ---------------------------------------------------
  alpha Z        PSCENC =       166.48303101
  Ewald energy   TEWEN  =    134881.57476160
  -Hartree energ DENC   =   -180534.66942465
  -exchange      EXHF   =         0.00000000
  -V(xc)+E(xc)   XCENC  =      -472.45189614
  PAW double counting   =     48358.96991882   -46281.93154907
  entropy T*S    EENTRO =         0.00000000
  eigenvalues    EBANDS =     -3875.37584371
  atomic energy  EATOM  =     47711.13698397
  ---------------------------------------------------
  free energy    TOTEN  =       -46.26401818 eV

  energy without entropy =      -46.26401818  energy(sigma->0) =      -46.26401818


--------------------------------------------------------------------------------------------------------




----------------------------------------- Iteration    1(   7)  ---------------------------------------


    POTLOK:  cpu time    0.22: real time    0.22
    SETDIJ:  cpu time    0.01: real time    0.01
     EDDAV:  cpu time    4.80: real time    4.81
       DOS:  cpu time    0.00: real time    0.00
    CHARGE:  cpu time    0.13: real time    0.13
    MIXING:  cpu time    0.00: real time    0.00
    --------------------------------------------
      LOOP:  cpu time    5.17: real time    5.18

 eigenvalue-minimisations  :  1376
 total energy-change (2. order) : 0.9763971E+01  (-0.1074085E+01)
 number of electron     505.9998549 magnetization      31.5076290
 augmentation part      242.3825174 magnetization      18.6117155

 Broyden mixing:
  rms(total) = 0.14939E+01    rms(broyden)= 0.14939E+01
  rms(prec ) = 0.15044E+01
  weight for this iteration     100.00

 eigenvalues of (default mixing * dielectric matrix)
  average eigenvalue GAMMA=   1.1717
  0.7697  1.5738

 Free energy of the ion-electron system (eV)
  ---------------------------------------------------
  alpha Z        PSCENC =       166.48303101
  Ewald energy   TEWEN  =    134881.57476160
  -Hartree energ DENC   =   -180641.67288622
  -exchange      EXHF   =         0.00000000
  -V(xc)+E(xc)   XCENC  =      -465.07062118
  PAW double counting   =     49722.87277384   -47675.26395528
  entropy T*S    EENTRO =         0.00000000
  eigenvalues    EBANDS =     -3736.56013453
  atomic energy  EATOM  =     47711.13698397
  ---------------------------------------------------
  free energy    TOTEN  =       -36.50004679 eV

  energy without entropy =      -36.50004679  energy(sigma->0) =      -36.50004679


--------------------------------------------------------------------------------------------------------




----------------------------------------- Iteration    1(   8)  ---------------------------------------


    POTLOK:  cpu time    0.21: real time    0.21
    SETDIJ:  cpu time    0.01: real time    0.01
     EDDAV:  cpu time    4.86: real time    4.87
       DOS:  cpu time    0.00: real time    0.00
    CHARGE:  cpu time    0.13: real time    0.13
    MIXING:  cpu time    0.00: real time    0.00
    --------------------------------------------
      LOOP:  cpu time    5.22: real time    5.25

 eigenvalue-minimisations  :  1392
 total energy-change (2. order) : 0.8224524E+01  (-0.3368792E+00)
 number of electron     505.9998549 magnetization      28.3865348
 augmentation part      242.3316204 magnetization      15.6378418

 Broyden mixing:
  rms(total) = 0.71405E+00    rms(broyden)= 0.71403E+00
  rms(prec ) = 0.71746E+00
  weight for this iteration     100.00

 eigenvalues of (default mixing * dielectric matrix)
  average eigenvalue GAMMA=   1.2851
  2.3307  0.8999  0.6246

 Free energy of the ion-electron system (eV)
  ---------------------------------------------------
  alpha Z        PSCENC =       166.48303101
  Ewald energy   TEWEN  =    134881.57476160
  -Hartree energ DENC   =   -180772.50620464
  -exchange      EXHF   =         0.00000000
  -V(xc)+E(xc)   XCENC  =      -458.47365750
  PAW double counting   =     51284.59796006   -49267.50221795
  entropy T*S    EENTRO =         0.00000000
  eigenvalues    EBANDS =     -3573.58617974
  atomic energy  EATOM  =     47711.13698397
  ---------------------------------------------------
  free energy    TOTEN  =       -28.27552319 eV

  energy without entropy =      -28.27552319  energy(sigma->0) =      -28.27552319


--------------------------------------------------------------------------------------------------------




----------------------------------------- Iteration    1(   9)  ---------------------------------------


    POTLOK:  cpu time    0.21: real time    0.21
    SETDIJ:  cpu time    0.01: real time    0.01
     EDDAV:  cpu time    4.90: real time    4.91
       DOS:  cpu time    0.00: real time    0.00
    CHARGE:  cpu time    0.13: real time    0.13
    MIXING:  cpu time    0.00: real time    0.00
    --------------------------------------------
      LOOP:  cpu time    5.26: real time    5.27

 eigenvalue-minimisations  :  1408
 total energy-change (2. order) :-0.5191566E+01  (-0.8648713E-01)
 number of electron     505.9998549 magnetization      24.3751017
 augmentation part      242.2018074 magnetization      11.8455691

 Broyden mixing:
  rms(total) = 0.47331E+00    rms(broyden)= 0.47331E+00
  rms(prec ) = 0.47654E+00
  weight for this iteration     100.00

 eigenvalues of (default mixing * dielectric matrix)
  average eigenvalue GAMMA=   1.2740
  2.3129  0.6226  0.8217  1.3389

 Free energy of the ion-electron system (eV)
  ---------------------------------------------------
  alpha Z        PSCENC =       166.48303101
  Ewald energy   TEWEN  =    134881.57476160
  -Hartree energ DENC   =   -180810.71450521
  -exchange      EXHF   =         0.00000000
  -V(xc)+E(xc)   XCENC  =      -462.09694294
  PAW double counting   =     51638.42443201   -49627.84943156
  entropy T*S    EENTRO =         0.00000000
  eigenvalues    EBANDS =     -3530.42541852
  atomic energy  EATOM  =     47711.13698397
  ---------------------------------------------------
  free energy    TOTEN  =       -33.46708964 eV

  energy without entropy =      -33.46708964  energy(sigma->0) =      -33.46708964


--------------------------------------------------------------------------------------------------------




----------------------------------------- Iteration    1(  10)  ---------------------------------------


    POTLOK:  cpu time    0.21: real time    0.21
    SETDIJ:  cpu time    0.01: real time    0.01
     EDDAV:  cpu time    4.69: real time    4.70
       DOS:  cpu time    0.00: real time    0.00
    CHARGE:  cpu time    0.13: real time    0.13
    MIXING:  cpu time    0.00: real time    0.01
    --------------------------------------------
      LOOP:  cpu time    5.05: real time    5.12

 eigenvalue-minimisations  :  1328
 total energy-change (2. order) :-0.1418508E+02  (-0.4105269E+00)
 number of electron     505.9998551 magnetization      18.3653850
 augmentation part      242.0892227 magnetization       6.5040324

 Broyden mixing:
  rms(total) = 0.33909E+00    rms(broyden)= 0.33908E+00
  rms(prec ) = 0.34100E+00
  weight for this iteration     100.00

 eigenvalues of (default mixing * dielectric matrix)
  average eigenvalue GAMMA=   1.5011
  2.7338  2.3680  0.8835  0.8835  0.6367

 Free energy of the ion-electron system (eV)
  ---------------------------------------------------
  alpha Z        PSCENC =       166.48303101
  Ewald energy   TEWEN  =    134881.57476160
  -Hartree energ DENC   =   -180818.64364478
  -exchange      EXHF   =         0.00000000
  -V(xc)+E(xc)   XCENC  =      -472.64326866
  PAW double counting   =     51649.94306283   -49639.05878113
  entropy T*S    EENTRO =         0.00000000
  eigenvalues    EBANDS =     -3526.44431150
  atomic energy  EATOM  =     47711.13698397
  ---------------------------------------------------
  free energy    TOTEN  =       -47.65216666 eV

  energy without entropy =      -47.65216666  energy(sigma->0) =      -47.65216666


--------------------------------------------------------------------------------------------------------




----------------------------------------- Iteration    1(  11)  ---------------------------------------


    POTLOK:  cpu time    0.21: real time    0.21
    SETDIJ:  cpu time    0.01: real time    0.01
     EDDAV:  cpu time    4.69: real time    4.70
       DOS:  cpu time    0.00: real time    0.00
    CHARGE:  cpu time    0.13: real time    0.13
    MIXING:  cpu time    0.00: real time    0.01
    --------------------------------------------
      LOOP:  cpu time    5.05: real time    5.06

 eigenvalue-minimisations  :  1328
 total energy-change (2. order) :-0.1935072E+02  (-0.9727159E+00)
 number of electron     505.9998550 magnetization      16.5779954
 augmentation part      242.0301358 magnetization       7.4743105

 Broyden mixing:
  rms(total) = 0.26358E+00    rms(broyden)= 0.26346E+00
  rms(prec ) = 0.26909E+00
  weight for this iteration     100.00

 eigenvalues of (default mixing * dielectric matrix)
  average eigenvalue GAMMA=   1.4259
  3.3937  2.2771  0.8865  0.8865  0.6376  0.4738

 Free energy of the ion-electron system (eV)
  ---------------------------------------------------
  alpha Z        PSCENC =       166.48303101
  Ewald energy   TEWEN  =    134881.57476160
  -Hartree energ DENC   =   -180815.40113198
  -exchange      EXHF   =         0.00000000
  -V(xc)+E(xc)   XCENC  =      -487.27717951
  PAW double counting   =     51623.24304126   -49612.04075744
  entropy T*S    EENTRO =         0.00000000
  eigenvalues    EBANDS =     -3534.72163419
  atomic energy  EATOM  =     47711.13698397
  ---------------------------------------------------
  free energy    TOTEN  =       -67.00288529 eV

  energy without entropy =      -67.00288529  energy(sigma->0) =      -67.00288529


--------------------------------------------------------------------------------------------------------




----------------------------------------- Iteration    1(  12)  ---------------------------------------


    POTLOK:  cpu time    0.22: real time    0.22
    SETDIJ:  cpu time    0.01: real time    0.01
     EDDAV:  cpu time    4.93: real time    4.94
       DOS:  cpu time    0.00: real time    0.00
    CHARGE:  cpu time    0.13: real time    0.13
    MIXING:  cpu time    0.00: real time    0.01
    --------------------------------------------
      LOOP:  cpu time    5.30: real time    6.16

 eigenvalue-minimisations  :  1416
 total energy-change (2. order) :-0.4193054E+01  (-0.1057017E+00)
 number of electron     505.9998550 magnetization      13.1923888
 augmentation part      241.9669393 magnetization       4.3754711

 Broyden mixing:
  rms(total) = 0.20327E+00    rms(broyden)= 0.20326E+00
  rms(prec ) = 0.20890E+00
  weight for this iteration     100.00

 eigenvalues of (default mixing * dielectric matrix)
  average eigenvalue GAMMA=   1.5345
  4.2883  2.3639  1.0714  1.0714  0.7797  0.6342  0.5323

 Free energy of the ion-electron system (eV)
  ---------------------------------------------------
  alpha Z        PSCENC =       166.48303101
  Ewald energy   TEWEN  =    134881.57476160
  -Hartree energ DENC   =   -180812.35419519
  -exchange      EXHF   =         0.00000000
  -V(xc)+E(xc)   XCENC  =      -490.43750426
  PAW double counting   =     51609.60634132   -49598.62242868
  entropy T*S    EENTRO =        -0.00000000
  eigenvalues    EBANDS =     -3538.58292941
  atomic energy  EATOM  =     47711.13698397
  ---------------------------------------------------
  free energy    TOTEN  =       -71.19593962 eV

  energy without entropy =      -71.19593962  energy(sigma->0) =      -71.19593962


--------------------------------------------------------------------------------------------------------




----------------------------------------- Iteration    1(  13)  ---------------------------------------


    POTLOK:  cpu time    0.21: real time    0.21
    SETDIJ:  cpu time    0.01: real time    0.01
     EDDAV:  cpu time    4.75: real time    4.75
       DOS:  cpu time    0.00: real time    0.00
    CHARGE:  cpu time    0.13: real time    0.13
    MIXING:  cpu time    0.00: real time    0.01
    --------------------------------------------
      LOOP:  cpu time    5.11: real time    5.13

 eigenvalue-minimisations  :  1344
 total energy-change (2. order) :-0.9194799E+01  (-0.3331954E+00)
 number of electron     505.9998550 magnetization      11.9150186
 augmentation part      242.0240268 magnetization       7.3108243

 Broyden mixing:
  rms(total) = 0.26648E+00    rms(broyden)= 0.26632E+00
  rms(prec ) = 0.27867E+00
  weight for this iteration     100.00

 eigenvalues of (default mixing * dielectric matrix)
  average eigenvalue GAMMA=   1.4246
  4.6287  2.3409  1.0938  1.0938  0.7952  0.6339  0.5790  0.2317

 Free energy of the ion-electron system (eV)
  ---------------------------------------------------
  alpha Z        PSCENC =       166.48303101
  Ewald energy   TEWEN  =    134881.57476160
  -Hartree energ DENC   =   -180781.70714714
  -exchange      EXHF   =         0.00000000
  -V(xc)+E(xc)   XCENC  =      -497.97878926
  PAW double counting   =     51477.40578884   -49465.91191709
  entropy T*S    EENTRO =         0.00000000
  eigenvalues    EBANDS =     -3571.39345047
  atomic energy  EATOM  =     47711.13698397
  ---------------------------------------------------
  free energy    TOTEN  =       -80.39073853 eV

  energy without entropy =      -80.39073853  energy(sigma->0) =      -80.39073853


--------------------------------------------------------------------------------------------------------




----------------------------------------- Iteration    1(  14)  ---------------------------------------


    POTLOK:  cpu time    0.21: real time    0.21
    SETDIJ:  cpu time    0.01: real time    0.01
     EDDAV:  cpu time    5.02: real time    5.03
       DOS:  cpu time    0.00: real time    0.00
    CHARGE:  cpu time    0.13: real time    0.13
    MIXING:  cpu time    0.01: real time    0.01
    --------------------------------------------
      LOOP:  cpu time    5.39: real time    5.39

 eigenvalue-minimisations  :  1448
 total energy-change (2. order) :-0.1601922E+01  (-0.2254273E-01)
 number of electron     505.9998550 magnetization       9.0069528
 augmentation part      242.0246781 magnetization       4.5425548

 Broyden mixing:
  rms(total) = 0.20773E+00    rms(broyden)= 0.20772E+00
  rms(prec ) = 0.21808E+00
  weight for this iteration     100.00

 eigenvalues of (default mixing * dielectric matrix)
  average eigenvalue GAMMA=   1.5766
  6.1035  2.2358  1.5546  0.9510  0.7361  0.7361  0.8263  0.6333  0.4127

 Free energy of the ion-electron system (eV)
  ---------------------------------------------------
  alpha Z        PSCENC =       166.48303101
  Ewald energy   TEWEN  =    134881.57476160
  -Hartree energ DENC   =   -180774.89537052
  -exchange      EXHF   =         0.00000000
  -V(xc)+E(xc)   XCENC  =      -499.35911346
  PAW double counting   =     51460.08924042   -49448.75587785
  entropy T*S    EENTRO =         0.00000000
  eigenvalues    EBANDS =     -3578.26631555
  atomic energy  EATOM  =     47711.13698397
  ---------------------------------------------------
  free energy    TOTEN  =       -81.99266039 eV

  energy without entropy =      -81.99266039  energy(sigma->0) =      -81.99266039


--------------------------------------------------------------------------------------------------------




----------------------------------------- Iteration    1(  15)  ---------------------------------------


    POTLOK:  cpu time    0.21: real time    0.21
    SETDIJ:  cpu time    0.01: real time    0.01
     EDDAV:  cpu time    4.75: real time    4.76
       DOS:  cpu time    0.00: real time    0.00
    CHARGE:  cpu time    0.13: real time    0.13
    MIXING:  cpu time    0.01: real time    0.01
    --------------------------------------------
      LOOP:  cpu time    5.11: real time    5.12

 eigenvalue-minimisations  :  1344
 total energy-change (2. order) :-0.4357078E+01  (-0.9913051E-01)
 number of electron     505.9998550 magnetization       7.7811568
 augmentation part      242.0164838 magnetization       5.4381703

 Broyden mixing:
  rms(total) = 0.19813E+00    rms(broyden)= 0.19802E+00
  rms(prec ) = 0.20853E+00
  weight for this iteration     100.00

 eigenvalues of (default mixing * dielectric matrix)
  average eigenvalue GAMMA=   1.4942
  6.4871  2.2227  1.6418  0.7287  0.7287  0.9354  0.8268  0.6371  0.4738  0.2597

 Free energy of the ion-electron system (eV)
  ---------------------------------------------------
  alpha Z        PSCENC =       166.48303101
  Ewald energy   TEWEN  =    134881.57476160
  -Hartree energ DENC   =   -180757.16583677
  -exchange      EXHF   =         0.00000000
  -V(xc)+E(xc)   XCENC  =      -503.14701604
  PAW double counting   =     51417.79866491   -49406.82241782
  entropy T*S    EENTRO =         0.00000000
  eigenvalues    EBANDS =     -3596.20790944
  atomic energy  EATOM  =     47711.13698397
  ---------------------------------------------------
  free energy    TOTEN  =       -86.34973857 eV

  energy without entropy =      -86.34973857  energy(sigma->0) =      -86.34973857


--------------------------------------------------------------------------------------------------------




----------------------------------------- Iteration    1(  16)  ---------------------------------------


    POTLOK:  cpu time    0.21: real time    0.21
    SETDIJ:  cpu time    0.01: real time    0.01
     EDDAV:  cpu time    4.88: real time    4.88
       DOS:  cpu time    0.00: real time    0.00
    CHARGE:  cpu time    0.13: real time    0.13
    MIXING:  cpu time    0.01: real time    0.01
    --------------------------------------------
      LOOP:  cpu time    5.24: real time    5.25

 eigenvalue-minimisations  :  1392
 total energy-change (2. order) :-0.1149477E+01  (-0.1281986E-01)
 number of electron     505.9998550 magnetization       5.7982370
 augmentation part      242.0251035 magnetization       3.5491150

 Broyden mixing:
  rms(total) = 0.14939E+00    rms(broyden)= 0.14938E+00
  rms(prec ) = 0.15771E+00
  weight for this iteration     100.00

 eigenvalues of (default mixing * dielectric matrix)
  average eigenvalue GAMMA=   1.5903
  7.6858  2.1102  1.7938  0.9334  0.9334  0.9641  0.8722  0.6304  0.5993  0.5993
  0.3717

 Free energy of the ion-electron system (eV)
  ---------------------------------------------------
  alpha Z        PSCENC =       166.48303101
  Ewald energy   TEWEN  =    134881.57476160
  -Hartree energ DENC   =   -180748.71574225
  -exchange      EXHF   =         0.00000000
  -V(xc)+E(xc)   XCENC  =      -504.20790314
  PAW double counting   =     51400.85532778   -49389.91664557
  entropy T*S    EENTRO =         0.00000000
  eigenvalues    EBANDS =     -3604.70902912
  atomic energy  EATOM  =     47711.13698397
  ---------------------------------------------------
  free energy    TOTEN  =       -87.49921572 eV

  energy without entropy =      -87.49921572  energy(sigma->0) =      -87.49921572


--------------------------------------------------------------------------------------------------------




----------------------------------------- Iteration    1(  17)  ---------------------------------------


    POTLOK:  cpu time    0.21: real time    0.21
    SETDIJ:  cpu time    0.01: real time    0.01
     EDDAV:  cpu time    4.76: real time    4.76
       DOS:  cpu time    0.00: real time    0.00
    CHARGE:  cpu time    0.13: real time    0.13
    MIXING:  cpu time    0.01: real time    0.01
    --------------------------------------------
      LOOP:  cpu time    5.12: real time    5.15

 eigenvalue-minimisations  :  1344
 total energy-change (2. order) :-0.2104070E+01  (-0.3259240E-01)
 number of electron     505.9998550 magnetization       3.8079620
 augmentation part      241.9973157 magnetization       1.6749630

 Broyden mixing:
  rms(total) = 0.87375E-01    rms(broyden)= 0.87369E-01
  rms(prec ) = 0.93913E-01
  weight for this iteration     100.00

 eigenvalues of (default mixing * dielectric matrix)
  average eigenvalue GAMMA=   1.7169
  9.2610  2.3516  1.5063  1.5063  1.0699  1.0699  0.7064  0.7064  0.7711  0.6304
  0.6586  0.3649

 Free energy of the ion-electron system (eV)
  ---------------------------------------------------
  alpha Z        PSCENC =       166.48303101
  Ewald energy   TEWEN  =    134881.57476160
  -Hartree energ DENC   =   -180734.18127455
  -exchange      EXHF   =         0.00000000
  -V(xc)+E(xc)   XCENC  =      -506.14304829
  PAW double counting   =     51386.78521219   -49375.93443280
  entropy T*S    EENTRO =         0.00000000
  eigenvalues    EBANDS =     -3619.32451857
  atomic energy  EATOM  =     47711.13698397
  ---------------------------------------------------
  free energy    TOTEN  =       -89.60328545 eV

  energy without entropy =      -89.60328545  energy(sigma->0) =      -89.60328545


--------------------------------------------------------------------------------------------------------




----------------------------------------- Iteration    1(  18)  ---------------------------------------


    POTLOK:  cpu time    0.21: real time    0.21
    SETDIJ:  cpu time    0.01: real time    0.01
     EDDAV:  cpu time    4.72: real time    4.72
       DOS:  cpu time    0.00: real time    0.00
    CHARGE:  cpu time    0.13: real time    0.13
    MIXING:  cpu time    0.01: real time    0.01
    --------------------------------------------
      LOOP:  cpu time    5.08: real time    5.09

 eigenvalue-minimisations  :  1328
 total energy-change (2. order) :-0.2257354E+01  (-0.3116916E-01)
 number of electron     505.9998550 magnetization       3.1350100
 augmentation part      241.9817182 magnetization       1.0844662

 Broyden mixing:
  rms(total) = 0.42268E-01    rms(broyden)= 0.42246E-01
  rms(prec ) = 0.48003E-01
  weight for this iteration     100.00

 eigenvalues of (default mixing * dielectric matrix)
  average eigenvalue GAMMA=   1.7579
 10.1227  2.6719  1.8072  1.3274  1.3274  0.7783  0.7783  0.9370  0.6957  0.6957
  0.6730  0.6730  0.3652

 Free energy of the ion-electron system (eV)
  ---------------------------------------------------
  alpha Z        PSCENC =       166.48303101
  Ewald energy   TEWEN  =    134881.57476160
  -Hartree energ DENC   =   -180706.24207320
  -exchange      EXHF   =         0.00000000
  -V(xc)+E(xc)   XCENC  =      -508.44441527
  PAW double counting   =     51360.63356723   -49349.29202353
  entropy T*S    EENTRO =         0.00000000
  eigenvalues    EBANDS =     -3647.71047133
  atomic energy  EATOM  =     47711.13698397
  ---------------------------------------------------
  free energy    TOTEN  =       -91.86063951 eV

  energy without entropy =      -91.86063951  energy(sigma->0) =      -91.86063951


--------------------------------------------------------------------------------------------------------




----------------------------------------- Iteration    1(  19)  ---------------------------------------


    POTLOK:  cpu time    0.22: real time    0.21
    SETDIJ:  cpu time    0.01: real time    0.01
     EDDAV:  cpu time    4.84: real time    4.85
       DOS:  cpu time    0.00: real time    0.00
    CHARGE:  cpu time    0.13: real time    0.13
    MIXING:  cpu time    0.01: real time    0.01
    --------------------------------------------
      LOOP:  cpu time    5.21: real time    5.22

 eigenvalue-minimisations  :  1376
 total energy-change (2. order) :-0.9182719E+00  (-0.4373753E-02)
 number of electron     505.9998550 magnetization       2.5514074
 augmentation part      241.9939168 magnetization       0.5223889

 Broyden mixing:
  rms(total) = 0.29566E-01    rms(broyden)= 0.29556E-01
  rms(prec ) = 0.34730E-01
  weight for this iteration     100.00

 eigenvalues of (default mixing * dielectric matrix)
  average eigenvalue GAMMA=   1.8198
 10.6744  3.0683  2.2045  1.3936  1.3936  1.1417  0.8429  0.8429  0.8896  0.7064
  0.7064  0.6236  0.6236  0.3653

 Free energy of the ion-electron system (eV)
  ---------------------------------------------------
  alpha Z        PSCENC =       166.48303101
  Ewald energy   TEWEN  =    134881.57476160
  -Hartree energ DENC   =   -180688.47318791
  -exchange      EXHF   =         0.00000000
  -V(xc)+E(xc)   XCENC  =      -509.46220361
  PAW double counting   =     51359.52446528   -49347.97532344
  entropy T*S    EENTRO =         0.00000000
  eigenvalues    EBANDS =     -3665.58743835
  atomic energy  EATOM  =     47711.13698397
  ---------------------------------------------------
  free energy    TOTEN  =       -92.77891144 eV

  energy without entropy =      -92.77891144  energy(sigma->0) =      -92.77891144


--------------------------------------------------------------------------------------------------------




----------------------------------------- Iteration    1(  20)  ---------------------------------------


    POTLOK:  cpu time    0.21: real time    0.21
    SETDIJ:  cpu time    0.01: real time    0.01
     EDDAV:  cpu time    4.78: real time    4.78
       DOS:  cpu time    0.00: real time    0.00
    CHARGE:  cpu time    0.13: real time    0.13
    MIXING:  cpu time    0.01: real time    0.01
    --------------------------------------------
      LOOP:  cpu time    5.14: real time    5.16

 eigenvalue-minimisations  :  1344
 total energy-change (2. order) :-0.8030616E+00  (-0.3342199E-02)
 number of electron     505.9998550 magnetization       2.2642831
 augmentation part      242.0022982 magnetization       0.2393359

 Broyden mixing:
  rms(total) = 0.16040E-01    rms(broyden)= 0.16031E-01
  rms(prec ) = 0.19696E-01
  weight for this iteration     100.00

 eigenvalues of (default mixing * dielectric matrix)
  average eigenvalue GAMMA=   1.8743
 11.0525  3.8598  2.4379  1.5795  1.5795  1.2353  0.8181  0.8181  0.8465  0.8465
  0.7146  0.7146  0.6080  0.6378  0.3652

 Free energy of the ion-electron system (eV)
  ---------------------------------------------------
  alpha Z        PSCENC =       166.48303101
  Ewald energy   TEWEN  =    134881.57476160
  -Hartree energ DENC   =   -180665.99944126
  -exchange      EXHF   =         0.00000000
  -V(xc)+E(xc)   XCENC  =      -510.38860257
  PAW double counting   =     51373.24864021   -49361.65807673
  entropy T*S    EENTRO =         0.00000000
  eigenvalues    EBANDS =     -3687.97926930
  atomic energy  EATOM  =     47711.13698397
  ---------------------------------------------------
  free energy    TOTEN  =       -93.58197307 eV

  energy without entropy =      -93.58197307  energy(sigma->0) =      -93.58197307


--------------------------------------------------------------------------------------------------------




----------------------------------------- Iteration    1(  21)  ---------------------------------------


    POTLOK:  cpu time    0.21: real time    0.21
    SETDIJ:  cpu time    0.01: real time    0.01
     EDDAV:  cpu time    4.81: real time    4.81
       DOS:  cpu time    0.00: real time    0.00
    CHARGE:  cpu time    0.13: real time    0.13
    MIXING:  cpu time    0.01: real time    0.01
    --------------------------------------------
      LOOP:  cpu time    5.17: real time    5.18

 eigenvalue-minimisations  :  1360
 total energy-change (2. order) :-0.2953424E+00  (-0.9206846E-03)
 number of electron     505.9998550 magnetization       2.2331177
 augmentation part      242.0081404 magnetization       0.2097709

 Broyden mixing:
  rms(total) = 0.10716E-01    rms(broyden)= 0.10712E-01
  rms(prec ) = 0.13273E-01
  weight for this iteration     100.00

 eigenvalues of (default mixing * dielectric matrix)
  average eigenvalue GAMMA=   1.8605
 11.1526  4.2035  2.4521  1.7431  1.7431  1.2152  0.8648  0.8648  0.8707  0.8707
  0.7343  0.7343  0.7069  0.6315  0.6151  0.3652

 Free energy of the ion-electron system (eV)
  ---------------------------------------------------
  alpha Z        PSCENC =       166.48303101
  Ewald energy   TEWEN  =    134881.57476160
  -Hartree energ DENC   =   -180651.25074470
  -exchange      EXHF   =         0.00000000
  -V(xc)+E(xc)   XCENC  =      -510.75616526
  PAW double counting   =     51380.57116866   -49368.98687298
  entropy T*S    EENTRO =         0.00000000
  eigenvalues    EBANDS =     -3702.64947773
  atomic energy  EATOM  =     47711.13698397
  ---------------------------------------------------
  free energy    TOTEN  =       -93.87731543 eV

  energy without entropy =      -93.87731543  energy(sigma->0) =      -93.87731543


--------------------------------------------------------------------------------------------------------




----------------------------------------- Iteration    1(  22)  ---------------------------------------


    POTLOK:  cpu time    0.22: real time    0.21
    SETDIJ:  cpu time    0.01: real time    0.01
     EDDAV:  cpu time    4.04: real time    4.04
       DOS:  cpu time    0.00: real time    0.00
    CHARGE:  cpu time    0.13: real time    0.13
    MIXING:  cpu time    0.01: real time    0.01
    --------------------------------------------
      LOOP:  cpu time    4.40: real time    4.45

 eigenvalue-minimisations  :  1072
 total energy-change (2. order) :-0.6781634E-01  (-0.1894613E-03)
 number of electron     505.9998550 magnetization       2.2032453
 augmentation part      242.0112137 magnetization       0.1775233

 Broyden mixing:
  rms(total) = 0.65334E-02    rms(broyden)= 0.65325E-02
  rms(prec ) = 0.87209E-02
  weight for this iteration     100.00

 eigenvalues of (default mixing * dielectric matrix)
  average eigenvalue GAMMA=   1.8659
 11.0668  4.7043  2.4386  1.7049  1.7049  1.4598  1.4598  0.8136  0.8136  0.8811
  0.8811  0.7479  0.7479  0.6856  0.6229  0.6229  0.3652

 Free energy of the ion-electron system (eV)
  ---------------------------------------------------
  alpha Z        PSCENC =       166.48303101
  Ewald energy   TEWEN  =    134881.57476160
  -Hartree energ DENC   =   -180644.46236991
  -exchange      EXHF   =         0.00000000
  -V(xc)+E(xc)   XCENC  =      -510.85049961
  PAW double counting   =     51383.49904446   -49371.91143581
  entropy T*S    EENTRO =         0.00000000
  eigenvalues    EBANDS =     -3709.41464747
  atomic energy  EATOM  =     47711.13698397
  ---------------------------------------------------
  free energy    TOTEN  =       -93.94513176 eV

  energy without entropy =      -93.94513176  energy(sigma->0) =      -93.94513176


--------------------------------------------------------------------------------------------------------




----------------------------------------- Iteration    1(  23)  ---------------------------------------


    POTLOK:  cpu time    0.21: real time    0.21
    SETDIJ:  cpu time    0.01: real time    0.01
     EDDAV:  cpu time    4.59: real time    4.60
       DOS:  cpu time    0.00: real time    0.00
    CHARGE:  cpu time    0.13: real time    0.13
    MIXING:  cpu time    0.01: real time    0.01
    --------------------------------------------
      LOOP:  cpu time    4.95: real time    5.41

 eigenvalue-minimisations  :  1280
 total energy-change (2. order) :-0.5649624E-01  (-0.2301527E-03)
 number of electron     505.9998550 magnetization       2.1111013
 augmentation part      242.0133942 magnetization       0.0798538

 Broyden mixing:
  rms(total) = 0.51474E-02    rms(broyden)= 0.51466E-02
  rms(prec ) = 0.63350E-02
  weight for this iteration     100.00

 eigenvalues of (default mixing * dielectric matrix)
  average eigenvalue GAMMA=   1.8733
 11.2190  4.9961  2.3887  2.3887  1.5988  1.5988  1.2808  1.2808  0.8256  0.8256
  0.8731  0.7275  0.7275  0.3652  0.6938  0.6938  0.6066  0.6284

 Free energy of the ion-electron system (eV)
  ---------------------------------------------------
  alpha Z        PSCENC =       166.48303101
  Ewald energy   TEWEN  =    134881.57476160
  -Hartree energ DENC   =   -180636.42487551
  -exchange      EXHF   =         0.00000000
  -V(xc)+E(xc)   XCENC  =      -510.93683624
  PAW double counting   =     51387.49675690   -49375.90200869
  entropy T*S    EENTRO =         0.00000000
  eigenvalues    EBANDS =     -3717.42944105
  atomic energy  EATOM  =     47711.13698397
  ---------------------------------------------------
  free energy    TOTEN  =       -94.00162801 eV

  energy without entropy =      -94.00162801  energy(sigma->0) =      -94.00162801


--------------------------------------------------------------------------------------------------------




----------------------------------------- Iteration    1(  24)  ---------------------------------------


    POTLOK:  cpu time    0.21: real time    0.21
    SETDIJ:  cpu time    0.01: real time    0.01
     EDDAV:  cpu time    3.75: real time    3.75
       DOS:  cpu time    0.00: real time    0.00
    CHARGE:  cpu time    0.13: real time    0.13
    MIXING:  cpu time    0.01: real time    0.01
    --------------------------------------------
      LOOP:  cpu time    4.11: real time    4.51

 eigenvalue-minimisations  :   960
 total energy-change (2. order) :-0.1108072E-01  (-0.5841872E-04)
 number of electron     505.9998550 magnetization       2.0951468
 augmentation part      242.0158780 magnetization       0.0670235

 Broyden mixing:
  rms(total) = 0.31894E-02    rms(broyden)= 0.31890E-02
  rms(prec ) = 0.40355E-02
  weight for this iteration     100.00

 eigenvalues of (default mixing * dielectric matrix)
  average eigenvalue GAMMA=   1.8505
 11.1775  5.2030  2.7530  2.1390  1.8256  1.8256  1.1607  1.1607  0.8322  0.8322
  0.3652  0.9010  0.9010  0.7330  0.7330  0.7213  0.6458  0.6458  0.6033

 Free energy of the ion-electron system (eV)
  ---------------------------------------------------
  alpha Z        PSCENC =       166.48303101
  Ewald energy   TEWEN  =    134881.57476160
  -Hartree energ DENC   =   -180632.64987946
  -exchange      EXHF   =         0.00000000
  -V(xc)+E(xc)   XCENC  =      -510.96604061
  PAW double counting   =     51387.36550664   -49375.76903445
  entropy T*S    EENTRO =         0.00000000
  eigenvalues    EBANDS =     -3721.18803744
  atomic energy  EATOM  =     47711.13698397
  ---------------------------------------------------
  free energy    TOTEN  =       -94.01270873 eV

  energy without entropy =      -94.01270873  energy(sigma->0) =      -94.01270873


--------------------------------------------------------------------------------------------------------




----------------------------------------- Iteration    1(  25)  ---------------------------------------


    POTLOK:  cpu time    0.22: real time    0.21
    SETDIJ:  cpu time    0.01: real time    0.01
     EDDAV:  cpu time    3.62: real time    3.62
       DOS:  cpu time    0.00: real time    0.00
    CHARGE:  cpu time    0.13: real time    0.13
    MIXING:  cpu time    0.01: real time    0.01
    --------------------------------------------
      LOOP:  cpu time    3.98: real time    4.01

 eigenvalue-minimisations  :   904
 total energy-change (2. order) :-0.8868316E-02  (-0.2132263E-04)
 number of electron     505.9998550 magnetization       2.0195885
 augmentation part      242.0136301 magnetization      -0.0093918

 Broyden mixing:
  rms(total) = 0.25393E-02    rms(broyden)= 0.25390E-02
  rms(prec ) = 0.31551E-02
  weight for this iteration     100.00

 eigenvalues of (default mixing * dielectric matrix)
  average eigenvalue GAMMA=   1.8639
 11.2467  5.2911  2.8593  2.2631  2.2631  1.9385  1.3470  1.3470  0.8284  0.8284
  0.9571  0.9571  0.3652  0.7310  0.7310  0.7608  0.7199  0.6250  0.6250  0.5942

 Free energy of the ion-electron system (eV)
  ---------------------------------------------------
  alpha Z        PSCENC =       166.48303101
  Ewald energy   TEWEN  =    134881.57476160
  -Hartree energ DENC   =   -180630.71036985
  -exchange      EXHF   =         0.00000000
  -V(xc)+E(xc)   XCENC  =      -510.97694525
  PAW double counting   =     51389.45743922   -49377.88581403
  entropy T*S    EENTRO =         0.00000000
  eigenvalues    EBANDS =     -3723.10066372
  atomic energy  EATOM  =     47711.13698397
  ---------------------------------------------------
  free energy    TOTEN  =       -94.02157704 eV

  energy without entropy =      -94.02157704  energy(sigma->0) =      -94.02157704


--------------------------------------------------------------------------------------------------------




----------------------------------------- Iteration    1(  26)  ---------------------------------------


    POTLOK:  cpu time    0.21: real time    0.21
    SETDIJ:  cpu time    0.01: real time    0.01
     EDDAV:  cpu time    3.60: real time    3.61
       DOS:  cpu time    0.00: real time    0.00
    CHARGE:  cpu time    0.13: real time    0.13
    MIXING:  cpu time    0.01: real time    0.01
    --------------------------------------------
      LOOP:  cpu time    3.97: real time    4.03

 eigenvalue-minimisations  :   904
 total energy-change (2. order) :-0.5847516E-02  (-0.2257408E-04)
 number of electron     505.9998550 magnetization       2.0210189
 augmentation part      242.0157966 magnetization      -0.0041254

 Broyden mixing:
  rms(total) = 0.19427E-02    rms(broyden)= 0.19425E-02
  rms(prec ) = 0.23440E-02
  weight for this iteration     100.00

 eigenvalues of (default mixing * dielectric matrix)
  average eigenvalue GAMMA=   1.8636
 11.1945  5.6887  3.2413  2.2532  2.2532  2.1492  1.4167  1.4167  1.1258  0.8342
  0.8342  0.3652  0.8501  0.8501  0.7349  0.7349  0.7787  0.6315  0.6220  0.6220
  0.5383

 Free energy of the ion-electron system (eV)
  ---------------------------------------------------
  alpha Z        PSCENC =       166.48303101
  Ewald energy   TEWEN  =    134881.57476160
  -Hartree energ DENC   =   -180627.88852413
  -exchange      EXHF   =         0.00000000
  -V(xc)+E(xc)   XCENC  =      -510.99536554
  PAW double counting   =     51388.71524411   -49377.14060771
  entropy T*S    EENTRO =         0.00000000
  eigenvalues    EBANDS =     -3725.91294787
  atomic energy  EATOM  =     47711.13698397
  ---------------------------------------------------
  free energy    TOTEN  =       -94.02742456 eV

  energy without entropy =      -94.02742456  energy(sigma->0) =      -94.02742456


--------------------------------------------------------------------------------------------------------




----------------------------------------- Iteration    1(  27)  ---------------------------------------


    POTLOK:  cpu time    0.22: real time    0.21
    SETDIJ:  cpu time    0.00: real time    0.01
     EDDAV:  cpu time    3.59: real time    3.59
       DOS:  cpu time    0.00: real time    0.00
    CHARGE:  cpu time    0.13: real time    0.13
    MIXING:  cpu time    0.01: real time    0.01
    --------------------------------------------
      LOOP:  cpu time    3.96: real time    4.05

 eigenvalue-minimisations  :   896
 total energy-change (2. order) :-0.3061238E-02  (-0.4583327E-05)
 number of electron     505.9998550 magnetization       2.0085085
 augmentation part      242.0148938 magnetization      -0.0175510

 Broyden mixing:
  rms(total) = 0.10634E-02    rms(broyden)= 0.10633E-02
  rms(prec ) = 0.13844E-02
  weight for this iteration     100.00

 eigenvalues of (default mixing * dielectric matrix)
  average eigenvalue GAMMA=   1.8880
 11.1767  6.0546  3.7038  2.3682  2.3682  2.1216  1.4969  1.3935  1.2681  1.2681
  0.8332  0.8332  0.3652  0.7372  0.7372  0.8350  0.7765  0.7765  0.6405  0.6184
  0.6184  0.5450

 Free energy of the ion-electron system (eV)
  ---------------------------------------------------
  alpha Z        PSCENC =       166.48303101
  Ewald energy   TEWEN  =    134881.57476160
  -Hartree energ DENC   =   -180627.03928290
  -exchange      EXHF   =         0.00000000
  -V(xc)+E(xc)   XCENC  =      -510.99915890
  PAW double counting   =     51389.48187482   -49377.91627369
  entropy T*S    EENTRO =         0.00000000
  eigenvalues    EBANDS =     -3726.75242171
  atomic energy  EATOM  =     47711.13698397
  ---------------------------------------------------
  free energy    TOTEN  =       -94.03048580 eV

  energy without entropy =      -94.03048580  energy(sigma->0) =      -94.03048580


--------------------------------------------------------------------------------------------------------




----------------------------------------- Iteration    1(  28)  ---------------------------------------


    POTLOK:  cpu time    0.22: real time    0.21
    SETDIJ:  cpu time    0.01: real time    0.01
     EDDAV:  cpu time    3.58: real time    3.59
       DOS:  cpu time    0.00: real time    0.00
    CHARGE:  cpu time    0.13: real time    0.13
    MIXING:  cpu time    0.01: real time    0.01
    --------------------------------------------
      LOOP:  cpu time    3.95: real time    3.97

 eigenvalue-minimisations  :   896
 total energy-change (2. order) :-0.3011235E-02  (-0.4978335E-05)
 number of electron     505.9998550 magnetization       2.0079369
 augmentation part      242.0149848 magnetization      -0.0177779

 Broyden mixing:
  rms(total) = 0.54181E-03    rms(broyden)= 0.54159E-03
  rms(prec ) = 0.72788E-03
  weight for this iteration     100.00

 eigenvalues of (default mixing * dielectric matrix)
  average eigenvalue GAMMA=   1.9201
 11.1399  6.7351  4.3058  2.4323  2.3269  2.3269  1.4706  1.4706  1.3689  1.3689
  0.8315  0.8315  0.9188  0.9188  0.3652  0.7336  0.7336  0.7746  0.6703  0.6703
  0.6190  0.6127  0.5373

 Free energy of the ion-electron system (eV)
  ---------------------------------------------------
  alpha Z        PSCENC =       166.48303101
  Ewald energy   TEWEN  =    134881.57476160
  -Hartree energ DENC   =   -180625.90849868
  -exchange      EXHF   =         0.00000000
  -V(xc)+E(xc)   XCENC  =      -511.00515663
  PAW double counting   =     51389.41714521   -49377.85447164
  entropy T*S    EENTRO =        -0.00000000
  eigenvalues    EBANDS =     -3727.87729188
  atomic energy  EATOM  =     47711.13698397
  ---------------------------------------------------
  free energy    TOTEN  =       -94.03349703 eV

  energy without entropy =      -94.03349703  energy(sigma->0) =      -94.03349703


--------------------------------------------------------------------------------------------------------




----------------------------------------- Iteration    1(  29)  ---------------------------------------


    POTLOK:  cpu time    0.21: real time    0.21
    SETDIJ:  cpu time    0.01: real time    0.01
     EDDAV:  cpu time    3.45: real time    3.45
       DOS:  cpu time    0.00: real time    0.00
    CHARGE:  cpu time    0.13: real time    0.13
    MIXING:  cpu time    0.01: real time    0.01
    --------------------------------------------
      LOOP:  cpu time    3.81: real time    3.82

 eigenvalue-minimisations  :   840
 total energy-change (2. order) :-0.1090377E-02  (-0.1453936E-05)
 number of electron     505.9998550 magnetization       2.0053753
 augmentation part      242.0151739 magnetization      -0.0205976

 Broyden mixing:
  rms(total) = 0.37700E-03    rms(broyden)= 0.37691E-03
  rms(prec ) = 0.50135E-03
  weight for this iteration     100.00

 eigenvalues of (default mixing * dielectric matrix)
  average eigenvalue GAMMA=   1.9339
 11.0847  7.4009  4.5617  2.5639  2.2703  2.2703  1.7899  1.7899  1.3032  1.3032
  0.8322  0.8322  1.0335  0.3652  0.7351  0.7351  0.8907  0.7660  0.7660  0.7125
  0.6414  0.6169  0.6169  0.5312

 Free energy of the ion-electron system (eV)
  ---------------------------------------------------
  alpha Z        PSCENC =       166.48303101
  Ewald energy   TEWEN  =    134881.57476160
  -Hartree energ DENC   =   -180625.35788313
  -exchange      EXHF   =         0.00000000
  -V(xc)+E(xc)   XCENC  =      -511.00730397
  PAW double counting   =     51389.28650318   -49377.71956542
[...]
  0.000  -0.035  -0.007  -0.002  -0.000   0.000  -0.033  -0.007
 -0.035   0.000   0.001  -0.007  -0.001  -0.033   0.000   0.001
 total augmentation occupancy for first ion, spin component:           1
  2.837   0.067  -0.005  -0.032  -0.053  -0.828  -0.076   0.014   0.006   0.030  -0.016  -0.027   0.009  -0.033  -0.187  -0.001
  0.067   2.705  -0.086  -0.089  -0.037  -0.076  -0.712   0.028   0.095   0.024  -0.174   0.019  -0.017  -0.142  -0.034  -0.002
 -0.005  -0.086   2.513  -0.007   0.097   0.014   0.028  -0.485  -0.025  -0.084   0.237  -0.059   0.065   0.018   0.005   0.005
 -0.032  -0.089  -0.007   2.544   0.095   0.006   0.095  -0.025  -0.522  -0.095  -0.157   0.028  -0.005   0.053   0.021   0.001
 -0.053  -0.037   0.097   0.095   2.592   0.030   0.024  -0.084  -0.095  -0.630   0.069  -0.059   0.091   0.017   0.033   0.010
 -0.828  -0.076   0.014   0.006   0.030   0.794   0.084  -0.022   0.016  -0.010   0.010   0.024  -0.010   0.028   0.211   0.001
 -0.076  -0.712   0.028   0.095   0.024   0.084   0.692   0.020  -0.100  -0.014   0.144  -0.011   0.018   0.171   0.029  -0.001
  0.014   0.028  -0.485  -0.025  -0.084  -0.022   0.020   0.431   0.051   0.076  -0.204   0.048  -0.080  -0.006  -0.009   0.006
  0.006   0.095  -0.025  -0.522  -0.095   0.016  -0.100   0.051   0.474   0.094   0.159  -0.036   0.005  -0.061  -0.018  -0.001
  0.030   0.024  -0.084  -0.095  -0.630  -0.010  -0.014   0.076   0.094   0.635  -0.053   0.042  -0.118  -0.017  -0.032   0.008
 -0.016  -0.174   0.237  -0.157   0.069   0.010   0.144  -0.204   0.159  -0.053   1.802  -0.230   0.236   0.020  -0.027  -0.022
 -0.027   0.019  -0.059   0.028  -0.059   0.024  -0.011   0.048  -0.036   0.042  -0.230   0.049  -0.050   0.003   0.013   0.004
  0.009  -0.017   0.065  -0.005   0.091  -0.010   0.018  -0.080   0.005  -0.118   0.236  -0.050   0.067   0.006  -0.001  -0.005
 -0.033  -0.142   0.018   0.053   0.017   0.028   0.171  -0.006  -0.061  -0.017   0.020   0.003   0.006   0.060   0.018  -0.000
 -0.187  -0.034   0.005   0.021   0.033   0.211   0.029  -0.009  -0.018  -0.032  -0.027   0.013  -0.001   0.018   0.081   0.000
 -0.001  -0.002   0.005   0.001   0.010   0.001  -0.001   0.006  -0.001   0.008  -0.022   0.004  -0.005  -0.000   0.000   0.001
  0.002  -0.008  -0.004  -0.003  -0.001  -0.002  -0.010   0.000   0.004   0.001  -0.001  -0.000  -0.000  -0.004  -0.001   0.000
 -0.006   0.002   0.000  -0.004  -0.002  -0.013  -0.002   0.000   0.001   0.002   0.003  -0.001   0.000  -0.001  -0.005  -0.000
 total augmentation occupancy for first ion, spin component:           2
 -0.000   0.000   0.000   0.000   0.000   0.000   0.000  -0.000  -0.000  -0.000  -0.000  -0.000  -0.000   0.000   0.000   0.000
  0.000   0.000   0.000   0.000   0.000  -0.000  -0.000  -0.000   0.000  -0.000   0.000  -0.000   0.000   0.000   0.000   0.000
  0.000   0.000  -0.000  -0.000  -0.000  -0.000  -0.000   0.000   0.000   0.000  -0.000   0.000   0.000   0.000  -0.000  -0.000
  0.000   0.000  -0.000   0.000  -0.000  -0.000   0.000   0.000  -0.000   0.000   0.000  -0.000   0.000  -0.000  -0.000  -0.000
  0.000   0.000  -0.000  -0.000  -0.000  -0.000  -0.000   0.000   0.000   0.000  -0.000   0.000   0.000  -0.000   0.000  -0.000
  0.000  -0.000  -0.000  -0.000  -0.000  -0.000  -0.000   0.000   0.000   0.000   0.000   0.000  -0.000  -0.000  -0.000  -0.000
  0.000  -0.000  -0.000   0.000  -0.000  -0.000   0.000   0.000  -0.000   0.000  -0.000   0.000  -0.000   0.000  -0.000  -0.000
 -0.000  -0.000   0.000   0.000   0.000   0.000   0.000  -0.000  -0.000  -0.000   0.000  -0.000  -0.000   0.000   0.000   0.000
 -0.000   0.000   0.000  -0.000   0.000   0.000  -0.000  -0.000   0.000  -0.000  -0.000   0.000  -0.000  -0.000  -0.000   0.000
 -0.000  -0.000   0.000   0.000   0.000   0.000   0.000  -0.000  -0.000  -0.000  -0.000  -0.000  -0.000   0.000  -0.000   0.000
 -0.000   0.000  -0.000   0.000  -0.000   0.000  -0.000   0.000  -0.000  -0.000   0.000  -0.000  -0.000   0.000  -0.000  -0.000
 -0.000  -0.000   0.000  -0.000   0.000   0.000   0.000  -0.000   0.000  -0.000  -0.000  -0.000  -0.000   0.000  -0.000   0.000
 -0.000   0.000   0.000   0.000   0.000  -0.000  -0.000  -0.000  -0.000  -0.000  -0.000  -0.000   0.000  -0.000  -0.000   0.000
  0.000   0.000   0.000  -0.000  -0.000  -0.000   0.000   0.000  -0.000   0.000   0.000   0.000  -0.000   0.000   0.000   0.000
  0.000   0.000  -0.000  -0.000   0.000  -0.000  -0.000   0.000  -0.000  -0.000  -0.000  -0.000  -0.000   0.000   0.000   0.000
  0.000   0.000  -0.000  -0.000  -0.000  -0.000  -0.000   0.000   0.000   0.000  -0.000   0.000   0.000   0.000   0.000  -0.000
 -0.000  -0.000  -0.000   0.000  -0.000   0.000   0.000  -0.000  -0.000  -0.000   0.000  -0.000   0.000  -0.000   0.000  -0.000
 -0.000  -0.000   0.000   0.000  -0.000  -0.000   0.000  -0.000   0.000   0.000   0.000   0.000   0.000   0.000  -0.000  -0.000


------------------------ aborting loop because EDIFF is reached ----------------------------------------


    CHARGE:  cpu time    0.13: real time    0.13
    FORLOC:  cpu time    0.02: real time    0.02
    FORNL :  cpu time    3.56: real time    3.56
    STRESS:  cpu time    4.16: real time    4.17
    FORCOR:  cpu time    0.22: real time    0.22
    FORHAR:  cpu time    0.04: real time    0.04
    MIXING:  cpu time    0.00: real time    0.00
    OFIELD:  cpu time    0.00: real time    0.00

  FORCE on cell =-STRESS in cart. coord.  units (eV):
  Direction    XX          YY          ZZ          XY          YZ          ZX
  --------------------------------------------------------------------------------------
  Alpha Z   166.48303   166.48303   166.48303
  Ewald   42150.78248 40643.40485 42071.12378 -7945.62953  1883.94835  8506.48215
  Hartree 57395.14733 55992.03615 57382.69448 -7451.63934  1690.14271  7970.61529
  E(xc)   -2667.70637 -2667.93711 -2668.09780    -0.71013     0.49518     0.70649
  Local  ************************************ 15398.80857 -3571.57048-16475.68834
  n-local  -478.96040  -479.36266  -480.67713    -2.58343    -0.09828     1.88549
  augment  4227.45420  4228.57261  4227.71395     0.78647    -0.83720    -1.39022
  Kinetic  6296.39634  6298.60559  6296.38241     0.65107    -2.24908    -2.43423
  Fock        0.00000     0.00000     0.00000     0.00000     0.00000     0.00000
  -------------------------------------------------------------------------------------
  Total     -15.78367   -16.25566   -16.13828    -0.31632    -0.16879     0.17663
  in kB      -2.33915    -2.40910    -2.39171    -0.04688    -0.02502     0.02618
  external pressure =       -2.38 kB  Pullay stress =        0.00 kB


 VOLUME and BASIS-vectors are now :
 -----------------------------------------------------------------------------
  energy-cutoff  :      249.84
  volume of cell :    10810.85
      direct lattice vectors                 reciprocal lattice vectors
    22.111589173  0.000000000  0.000000000     0.045225153  0.000000000  0.000000000
     0.000000000 22.111589173  0.000000000     0.000000000  0.045225153  0.000000000
     0.000000000  0.000000000 22.111589173     0.000000000  0.000000000  0.045225153

  length of vectors
    22.111589173 22.111589173 22.111589173     0.045225153  0.045225153  0.045225153


 FORCES acting on ions
    electron-ion (+dipol)            ewald-force                    non-local-force                 convergence-correction
 -----------------------------------------------------------------------------------------------
   -.313E+03 0.169E+04 -.663E+02   0.313E+03 -.168E+04 0.673E+02   -.167E-01 -.507E+01 -.103E+01   0.626E-03 0.183E-02 -.186E-02
   -.100E+04 -.136E+04 0.494E+03   0.999E+03 0.135E+04 -.492E+03   0.241E+01 0.245E+01 -.163E+01   0.105E-02 -.227E-02 -.666E-03
   -.122E+04 0.124E+04 0.741E+02   0.121E+04 -.124E+04 -.722E+02   0.239E+01 -.200E+01 -.189E+01   -.238E-03 0.432E-03 0.122E-02
   0.959E+03 -.135E+04 0.573E+03   -.956E+03 0.134E+04 -.571E+03   -.243E+01 0.373E+01 -.212E+01   0.161E-03 0.786E-03 -.886E-03
   0.166E+04 -.455E+03 0.289E+03   -.166E+04 0.455E+03 -.288E+03   -.381E+01 0.128E+00 -.529E+00   -.943E-03 0.111E-02 -.772E-04
   0.444E+03 0.157E+04 0.618E+03   -.443E+03 -.157E+04 -.617E+03   -.101E+01 -.442E+01 -.134E+01   0.257E-03 0.114E-02 -.277E-03
   -.745E+01 0.264E+03 0.703E+03   0.706E+01 -.264E+03 -.702E+03   0.376E+00 -.335E+00 -.111E+01   -.353E-02 0.211E-02 0.742E-03
   0.984E+03 -.134E+04 -.307E+03   -.982E+03 0.134E+04 0.305E+03   -.142E+01 0.133E+01 0.168E+01   -.134E-02 0.149E-02 -.639E-03
   0.112E+04 -.307E+03 0.130E+04   -.111E+04 0.305E+03 -.130E+04   -.272E+01 0.138E+01 -.426E+01   0.339E-03 -.457E-04 -.229E-03
   -.673E+01 -.102E+04 0.141E+04   0.766E+01 0.102E+04 -.141E+04   -.925E+00 0.300E+01 -.447E+01   0.748E-03 0.525E-04 -.582E-03
   0.133E+03 0.163E+02 -.161E+04   -.133E+03 -.165E+02 0.161E+04   -.430E+00 0.165E+00 0.194E+01   0.538E-03 -.158E-02 -.228E-02
   0.120E+04 0.568E+03 0.107E+04   -.120E+04 -.566E+03 -.107E+04   -.182E+01 -.135E+01 -.909E+00   -.985E-03 0.234E-03 0.209E-02
   0.129E+03 0.583E+02 0.173E+04   -.130E+03 -.589E+02 -.173E+04   0.180E+00 0.587E+00 -.353E+01   -.819E-03 -.874E-04 0.377E-03
   -.530E+03 -.491E+03 -.587E+03   0.529E+03 0.490E+03 0.587E+03   0.118E+01 0.112E+01 0.434E+00   0.132E-02 0.185E-02 -.181E-02
   0.124E+04 0.948E+03 -.728E+03   -.123E+04 -.946E+03 0.727E+03   -.195E+01 -.116E+01 0.961E+00   -.380E-03 -.685E-03 -.110E-02
   0.168E+04 0.645E+03 0.745E+02   -.167E+04 -.643E+03 -.747E+02   -.566E+01 -.106E+01 0.220E+00   -.126E-02 0.244E-03 0.837E-03
   -.306E+03 0.926E+03 0.347E+03   0.306E+03 -.925E+03 -.346E+03   -.316E+00 -.103E+01 -.661E+00   0.466E-03 0.338E-02 -.169E-02
   -.127E+03 -.166E+04 0.528E+03   0.126E+03 0.165E+04 -.527E+03   0.112E+01 0.300E+01 -.160E+01   0.139E-03 0.343E-03 -.839E-03
   0.503E+03 -.573E+03 0.759E+03   -.503E+03 0.573E+03 -.759E+03   -.164E+00 0.720E+00 -.582E+00   0.207E-02 0.965E-03 0.167E-02
   0.112E+04 0.261E+03 -.129E+04   -.111E+04 -.260E+03 0.129E+04   -.161E+01 -.104E+01 0.256E+01   0.637E-03 -.830E-03 -.511E-03
   0.903E+03 0.526E+02 -.983E+02   -.902E+03 -.522E+02 0.975E+02   -.106E+01 -.465E+00 0.860E+00   -.502E-02 0.202E-02 0.321E-02
   -.152E+04 -.794E+03 0.115E+03   0.152E+04 0.792E+03 -.113E+03   0.217E+01 0.150E+01 -.134E+01   0.221E-02 -.337E-02 -.133E-02
   -.171E+04 0.117E+03 0.255E+03   0.170E+04 -.118E+03 -.256E+03   0.506E+01 0.354E+00 0.420E+00   0.592E-03 -.131E-02 0.128E-02
   0.668E+03 -.711E+03 -.775E+03   -.668E+03 0.712E+03 0.775E+03   -.616E+00 -.920E+00 0.460E+00   -.653E-03 0.288E-02 0.633E-03
   0.776E+03 -.755E+03 -.132E+04   -.772E+03 0.751E+03 0.131E+04   -.356E+01 0.319E+01 0.412E+01   0.138E-02 -.155E-02 0.123E-02
   -.147E+04 -.198E+03 -.897E+03   0.146E+04 0.197E+03 0.896E+03   0.331E+01 0.956E+00 0.735E+00   0.108E-02 0.571E-03 0.140E-02
   0.102E+04 0.116E+04 0.352E+03   -.102E+04 -.116E+04 -.352E+03   -.565E+00 -.973E+00 -.523E-01   -.407E-03 0.152E-02 -.527E-04
   0.146E+03 0.383E+03 -.453E+03   -.145E+03 -.382E+03 0.452E+03   -.111E+01 -.711E+00 0.128E+01   -.385E-03 0.272E-02 -.638E-03
   -.524E+03 0.518E+03 -.148E+04   0.524E+03 -.517E+03 0.148E+04   0.714E+00 -.853E+00 0.232E+01   -.947E-03 -.185E-03 -.359E-04
   0.634E+03 0.149E+04 -.531E+03   -.633E+03 -.149E+04 0.530E+03   -.112E+01 -.211E+01 0.867E+00   0.116E-02 0.176E-03 -.215E-02
   0.423E+03 0.951E+03 0.140E+04   -.423E+03 -.949E+03 -.140E+04   -.249E-01 -.235E+01 -.315E+01   0.405E-03 0.436E-03 0.844E-03
   0.158E+04 -.394E+03 -.683E+03   -.158E+04 0.393E+03 0.681E+03   -.361E+01 0.582E+00 0.220E+01   -.168E-02 0.112E-02 0.222E-02
   -.966E+03 -.138E+04 -.558E+03   0.963E+03 0.138E+04 0.557E+03   0.281E+01 0.284E+01 0.108E+01   0.181E-02 0.750E-04 -.980E-03
   -.113E+04 -.366E+03 0.770E+03   0.113E+04 0.367E+03 -.771E+03   0.146E+01 -.549E+00 0.542E+00   -.242E-02 -.107E-02 0.940E-04
   -.133E+04 0.499E+03 0.963E+03   0.133E+04 -.499E+03 -.960E+03   0.275E+01 -.113E+00 -.248E+01   0.184E-02 0.939E-03 0.154E-04
   -.591E+03 0.114E+04 0.120E+04   0.590E+03 -.114E+04 -.120E+04   0.790E+00 -.391E+01 -.234E+01   0.979E-03 0.150E-03 -.820E-03
   0.356E+02 -.169E+04 -.383E+03   -.359E+02 0.169E+04 0.381E+03   0.336E+00 0.328E+01 0.202E+01   0.317E-03 0.880E-03 -.797E-03
   -.438E+02 -.124E+04 -.121E+04   0.438E+02 0.124E+04 0.121E+04   0.706E-01 0.259E+01 0.241E+01   0.113E-02 -.416E-03 -.626E-03
   -.800E+03 0.145E+03 0.154E+04   0.798E+03 -.145E+03 -.154E+04   0.175E+01 0.577E+00 -.266E+01   0.147E-03 0.351E-03 0.141E-02
   -.806E+03 -.791E+03 0.127E+04   0.804E+03 0.789E+03 -.126E+04   0.180E+01 0.121E+01 -.163E+01   0.446E-03 -.632E-04 -.344E-03
   -.808E+03 -.532E+03 -.148E+04   0.807E+03 0.530E+03 0.147E+04   0.178E+01 0.204E+01 0.422E+01   -.743E-03 -.347E-03 -.601E-03
   0.433E+03 0.978E+03 -.139E+04   -.431E+03 -.976E+03 0.139E+04   -.175E+01 -.209E+01 0.288E+01   0.258E-03 -.190E-02 -.202E-02
   -.124E+03 -.666E+03 0.993E+02   0.124E+03 0.665E+03 -.987E+02   0.505E+00 0.101E+01 -.630E+00   -.455E-02 0.985E-03 -.438E-03
   -.125E+04 0.837E+03 -.916E+03   0.125E+04 -.835E+03 0.913E+03   0.338E+01 -.211E+01 0.247E+01   0.823E-04 -.635E-03 0.311E-02
   -.876E+03 0.293E+03 -.186E+03   0.875E+03 -.293E+03 0.186E+03   0.138E+01 -.450E-01 0.786E+00   0.386E-03 0.517E-03 0.233E-02
   -.334E+03 0.131E+04 -.980E+03   0.334E+03 -.131E+04 0.979E+03   0.479E+00 -.184E+01 0.144E+01   0.183E-03 -.101E-02 -.977E-03
 -----------------------------------------------------------------------------------------------
   -.467E+00 -.120E+01 0.105E+01   -.244E-11 -.227E-12 0.136E-11   0.500E+00 0.122E+01 -.102E+01   -.354E-02 0.139E-01 -.535E-03
 
 
 POSITION                                       TOTAL-FORCE (eV/Angst)
 -----------------------------------------------------------------------------------
     12.63419      5.81222     11.31996         0.009105      0.007835     -0.007943
     13.32192     14.54666     10.57196        -0.001888     -0.008986      0.002730
     14.92459      7.47455     11.44560         0.008365      0.001726      0.003665
      7.84095     15.32712      8.59617         0.002797     -0.003741     -0.003618
      6.69583     12.82719      9.75267         0.003204      0.006795     -0.007295
     10.59796      6.49343      9.36546         0.003711      0.007151      0.000565
     10.92233     10.66476      9.34786        -0.013035     -0.002179      0.004259
      8.56019     14.46654     11.20358        -0.006281      0.006332     -0.003492
      7.43992     12.93179      6.87654         0.011071     -0.002653      0.011435
     10.03888     14.52872      6.68129        -0.002527     -0.001943     -0.000777
     11.05306     11.69912     15.44560         0.000045     -0.003399     -0.010098
      8.05092     10.53384      8.27965        -0.004345      0.010872      0.000472
     10.16533     11.48040      6.62205        -0.009445      0.000578     -0.000094
     12.76339     12.46030     13.15040        -0.000943      0.004483     -0.011681
      8.23327      9.24630     12.82167        -0.001500     -0.003187     -0.000923
      6.48648     10.03754     10.68577        -0.007504      0.000539      0.001226
     12.26857      8.42646     10.42546         0.000821      0.008991     -0.004865
     10.66955     15.41452      9.45623         0.001124      0.006705     -0.001447
      9.32604     13.02721      8.81847        -0.038135      0.002627     -0.020375
      8.34301     11.08204     14.87135         0.003377     -0.003726     -0.002203
      8.80022     11.39603     11.06072         0.003153      0.004642     -0.001209
     15.30062     12.91496     11.79675         0.000718     -0.013471     -0.002712
     16.42217     10.22520     11.27495         0.006840     -0.031003      0.015643
      9.68450     13.01230     13.31898        -0.001347      0.007570      0.002265
      9.00550     13.63591     15.90065         0.007588     -0.009939      0.006605
     15.60716     11.38576     14.05026         0.004382     -0.002997      0.006295
      8.95145      8.62524     10.12105         0.002814      0.001177      0.001293
     11.11774     10.30205     12.28756        -0.001510      0.007766     -0.001893
     13.22181     10.08402     14.86594        -0.000381     -0.002924     -0.000476
     10.31309      7.34349     12.20471         0.003924      0.002718     -0.005788
     10.27514      8.69445      7.53634         0.001890      0.003210      0.001715
      6.88635     12.36716     12.71118        -0.008288      0.008322      0.011639
     13.93367     14.92648     13.40276         0.001607      0.004656     -0.006576
     13.63551     11.70887      9.86126        -0.010459     -0.009428      0.009525
     14.69931      9.19125      9.22402         0.006600     -0.001246      0.002537
     12.86882      7.51620      7.85926         0.004224      0.001288     -0.001660
     11.17324     15.33279     12.28202         0.001610      0.002620     -0.004072
     11.56203     14.43670     14.92777         0.001763     -0.001940     -0.004020
     12.78431     10.29960      7.36563         0.000927     -0.001807      0.005413
     12.07855     13.16131      8.08991         0.001532      0.002060     -0.004689
     13.81837     12.82126     15.64930        -0.001049     -0.004311     -0.000180
     10.50480      9.00306     14.62198         0.000773     -0.007586     -0.007061
     11.16869     12.90479     10.93045         0.004557      0.009803      0.019054
     15.55020      8.60361     13.89601         0.003393     -0.002553      0.007953
     13.90381     10.07046     12.07348         0.004320      0.003240      0.000831
     12.82090      7.74174     13.36845         0.002405     -0.004685      0.000027
 -----------------------------------------------------------------------------------
    total drift:                                0.029800      0.032848      0.024283


--------------------------------------------------------------------------------------------------------



  FREE ENERGIE OF THE ION-ELECTRON SYSTEM (eV)
  ---------------------------------------------------
  free  energy   TOTEN  =       -99.74319327 eV

  energy  without entropy=      -99.74319327  energy(sigma->0) =      -99.74319327
 
 d Force = 0.1341553E-04[ 0.218E-04, 0.502E-05]  d Energy = 0.1193638E-04 0.148E-05
 d Force = 0.1357960E+00[ 0.136E+00, 0.136E+00]  d Ewald  = 0.1357960E+00 0.138E-08


--------------------------------------------------------------------------------------------------------


    POTLOK:  cpu time    0.23: real time    0.23


--------------------------------------------------------------------------------------------------------




--------------------------------------------------------------------------------------------------------


  
 reached required accuracy - stopping structural energy minimisation
     LOOP+:  cpu time   17.10: real time   17.22
    4ORBIT:  cpu time    0.00: real time    0.00

 total amount of memory used by VASP on root node    56123. kBytes
========================================================================

   base      :      30000. kBytes
   nonl-proj :       2689. kBytes
   fftplans  :       4332. kBytes
   grid      :      10964. kBytes
   one-center:         46. kBytes
   wavefun   :       8092. kBytes
 
  
  
 General timing and accounting informations for this job:
 ========================================================
  
                  Total CPU time used (sec):     2643.637
                            User time (sec):     2628.200
                          System time (sec):       15.437
                         Elapsed time (sec):     2721.032
  
                   Maximum memory used (kb):       69152.
                   Average memory used (kb):           0.
  
                          Minor page faults:      1045173
                          Major page faults:            0
                 Voluntary context switches:        82319
