unknown system                          
           1
    20.949947    0.000000    0.000000
     0.000000   20.949947    0.000000
     0.000000    0.000000   20.949947
   Ag
  10
Direct configuration=     1
   0.51284447  0.49899172  0.52267650
   0.38612601  0.40095432  0.37795889
   0.38492337  0.52385716  0.36336621
   0.50582011  0.40609353  0.41259008
   0.47320352  0.45899026  0.28566574
   0.42667574  0.44051463  0.61390344
   0.39391973  0.49353077  0.48625323
   0.39724980  0.36971320  0.49840357
   0.50240344  0.52977360  0.40204624
   0.51496530  0.37571230  0.53526760
Direct configuration=     2
   0.51306392  0.49921528  0.52289631
   0.38591251  0.40073080  0.37774028
   0.38466376  0.52414022  0.36305014
   0.50606339  0.40586973  0.41252756
   0.47315660  0.45902837  0.28575351
   0.42674043  0.44047828  0.61382337
   0.39366924  0.49373224  0.48631558
   0.39698573  0.36943055  0.49853084
   0.50264617  0.53005926  0.40191589
   0.51522974  0.37544676  0.53557801
Direct configuration=     3
   0.51372225  0.49988596  0.52355577
   0.38527199  0.40006027  0.37708445
   0.38388495  0.52498943  0.36210193
   0.50679324  0.40519831  0.41233999
   0.47301583  0.45914269  0.28601682
   0.42693451  0.44036922  0.61358318
   0.39291775  0.49433665  0.48650263
   0.39619353  0.36858259  0.49891263
   0.50337439  0.53091625  0.40152482
   0.51602305  0.37465013  0.53650926
Direct configuration=     4
   0.51503890  0.50122733  0.52487468
   0.38399096  0.39871919  0.37577281
   0.38232732  0.52668783  0.36020551
   0.50825294  0.40385548  0.41196485
   0.47273430  0.45937132  0.28654344
   0.42732265  0.44015111  0.61310280
   0.39141479  0.49554547  0.48687672
   0.39460912  0.36688668  0.49967623
   0.50483083  0.53263022  0.40074270
   0.51760968  0.37305687  0.53837176
Direct configuration=     5
   0.51521253  0.50140421  0.52504859
   0.38382204  0.39854235  0.37559985
   0.38212192  0.52691179  0.35995544
   0.50844543  0.40367841  0.41191539
   0.47269717  0.45940147  0.28661288
   0.42737384  0.44012234  0.61303945
   0.39121660  0.49570487  0.48692605
   0.39440019  0.36666305  0.49977692
   0.50502288  0.53285624  0.40063956
   0.51781890  0.37284677  0.53861736
Direct configuration=     6
   0.51516592  0.50138570  0.52497951
   0.38384880  0.39857454  0.37563485
   0.38213002  0.52695531  0.35965140
   0.50846538  0.40363698  0.41209990
   0.47248076  0.45956290  0.28695703
   0.42761579  0.43996998  0.61272010
   0.39122619  0.49573968  0.48675037
   0.39441923  0.36668253  0.49975994
   0.50498086  0.53282495  0.40067504
   0.51779854  0.37279893  0.53890336
Direct configuration=     7
   0.51502609  0.50133015  0.52477225
   0.38392907  0.39867111  0.37573985
   0.38215431  0.52708585  0.35873928
   0.50852526  0.40351272  0.41265345
   0.47183154  0.46004721  0.28798946
   0.42834163  0.43951289  0.61176202
   0.39125498  0.49584412  0.48622333
   0.39447636  0.36674098  0.49970899
   0.50485478  0.53273107  0.40078150
   0.51773747  0.37265539  0.53976136
Direct configuration=     8
   0.51474644  0.50121906  0.52435773
   0.38408962  0.39886426  0.37594987
   0.38220288  0.52734693  0.35691505
   0.50864502  0.40326420  0.41376054
   0.47053310  0.46101583  0.29005433
   0.42979333  0.43859870  0.60984588
   0.39131256  0.49605300  0.48516923
   0.39459061  0.36685787  0.49960709
   0.50460262  0.53254332  0.40099441
   0.51761532  0.37236832  0.54147736
Direct configuration=     9
   0.51467825  0.50119196  0.52425664
   0.38412877  0.39891136  0.37600108
   0.38221473  0.52741061  0.35647016
   0.50867423  0.40320359  0.41403053
   0.47021644  0.46125205  0.29055790
   0.43014736  0.43837575  0.60937859
   0.39132660  0.49610394  0.48491217
   0.39461847  0.36688638  0.49958224
   0.50454112  0.53249753  0.40104633
   0.51758553  0.37229832  0.54189585
Direct configuration=    10
   0.51476549  0.50102544  0.52400047
   0.38411477  0.39908427  0.37630143
   0.38174858  0.52792359  0.35585275
   0.50869042  0.40306743  0.41487428
   0.47003588  0.46144351  0.29081923
   0.43036476  0.43822413  0.60911366
   0.39132889  0.49619958  0.48405196
   0.39479868  0.36688409  0.49933745
   0.50428776  0.53251121  0.40121403
   0.51799626  0.37176824  0.54256624
Direct configuration=    11
   0.51502722  0.50052585  0.52323194
   0.38407276  0.39960298  0.37720245
   0.38035014  0.52946255  0.35400049
   0.50873900  0.40265895  0.41740552
   0.46949421  0.46201791  0.29160323
   0.43101695  0.43776927  0.60831888
   0.39133576  0.49648649  0.48147132
   0.39533930  0.36687724  0.49860309
   0.50352769  0.53255226  0.40171712
   0.51922847  0.37017800  0.54457744
Direct configuration=    12
   0.51555068  0.49952667  0.52169490
   0.38398874  0.40064041  0.37900451
   0.37755327  0.53254047  0.35029599
   0.50883616  0.40184200  0.42246801
   0.46841085  0.46316670  0.29317122
   0.43232133  0.43685954  0.60672933
   0.39134949  0.49706032  0.47631005
   0.39642055  0.36686353  0.49713437
   0.50200754  0.53263434  0.40272329
   0.52169288  0.36699754  0.54859983
Direct configuration=    13
   0.51531325  0.49997987  0.52239207
   0.38402685  0.40016985  0.37818714
   0.37882187  0.53114439  0.35197627
   0.50879209  0.40221255  0.42017178
   0.46890224  0.46264563  0.29246002
   0.43172969  0.43727217  0.60745031
   0.39134326  0.49680004  0.47865109
   0.39593012  0.36686974  0.49780055
   0.50269704  0.53259711  0.40226691
   0.52057508  0.36844013  0.54677536
Direct configuration=    14
   0.51541837  0.49949937  0.52243038
   0.38399029  0.40063915  0.37809070
   0.37832849  0.53172397  0.35126035
   0.50874633  0.40218045  0.42090402
   0.46880564  0.46272021  0.29259745
   0.43178351  0.43722516  0.60731514
   0.39142056  0.49683558  0.47791878
   0.39636923  0.36678341  0.49798765
   0.50222145  0.53267357  0.40209685
   0.52104762  0.36785063  0.54753019
Direct configuration=    15
   0.51573371  0.49805785  0.52254533
   0.38388062  0.40204703  0.37780137
   0.37684837  0.53346268  0.34911261
   0.50860904  0.40208417  0.42310073
   0.46851583  0.46294395  0.29300974
   0.43194496  0.43708413  0.60690962
   0.39165246  0.49694219  0.47572185
   0.39768658  0.36652439  0.49854894
   0.50079467  0.53290295  0.40158665
   0.52246527  0.36608215  0.54979466
Direct configuration=    16
   0.51636438  0.49517480  0.52277523
   0.38366127  0.40486280  0.37722270
   0.37388811  0.53694012  0.34481712
   0.50833446  0.40189160  0.42749414
   0.46793622  0.46339142  0.29383433
   0.43226786  0.43680207  0.60609857
   0.39211625  0.49715541  0.47132800
   0.40032126  0.36600635  0.49967152
   0.49794112  0.53336172  0.40056626
   0.52530056  0.36254519  0.55432361
Direct configuration=    17
   0.51604886  0.49661717  0.52266022
   0.38377101  0.40345409  0.37751220
   0.37536911  0.53520038  0.34696613
   0.50847183  0.40198794  0.42529614
   0.46822620  0.46316755  0.29342179
   0.43210632  0.43694318  0.60650433
   0.39188421  0.49704874  0.47352621
   0.39900314  0.36626552  0.49910990
   0.49936873  0.53313220  0.40107675
   0.52388208  0.36431471  0.55205781
Direct configuration=    18
   0.51599255  0.49617133  0.52263534
   0.38380794  0.40380784  0.37741043
   0.37541520  0.53524308  0.34643722
   0.50825015  0.40225554  0.42494097
   0.46822902  0.46303974  0.29319560
   0.43195960  0.43703182  0.60670054
   0.39205034  0.49684738  0.47414785
   0.39953332  0.36633214  0.49915970
   0.49908808  0.53313373  0.40101942
   0.52380529  0.36426890  0.55248442
Direct configuration=    19
   0.51582361  0.49483379  0.52256072
   0.38391874  0.40486911  0.37710511
   0.37555348  0.53537117  0.34485050
   0.50758511  0.40305833  0.42387545
   0.46823749  0.46265630  0.29251702
   0.43151946  0.43729771  0.60728917
   0.39254872  0.49624331  0.47601275
   0.40112383  0.36653200  0.49930909
   0.49824613  0.53313830  0.40084742
   0.52357492  0.36413148  0.55376426
Direct configuration=    20
   0.51574190  0.49418686  0.52252463
   0.38397233  0.40538241  0.37695744
   0.37562036  0.53543313  0.34408304
   0.50726344  0.40344662  0.42336008
   0.46824158  0.46247084  0.29218880
   0.43130658  0.43742632  0.60757388
   0.39278978  0.49595113  0.47691476
   0.40189312  0.36662866  0.49938134
   0.49783889  0.53314052  0.40076422
   0.52346350  0.36406501  0.55438329
Direct configuration=    21
   0.51617589  0.49365493  0.52239377
   0.38353554  0.40587248  0.37739389
   0.37584006  0.53531547  0.34386390
   0.50755061  0.40335443  0.42286246
   0.46850866  0.46225547  0.29152480
   0.43085240  0.43771133  0.60814224
   0.39235915  0.49617306  0.47721764
   0.40255228  0.36639212  0.49892103
   0.49724089  0.53335241  0.40086542
   0.52351603  0.36404980  0.55494634
Direct configuration=    22
   0.51681204  0.49287520  0.52220196
   0.38289526  0.40659085  0.37803366
   0.37616209  0.53514301  0.34354267
   0.50797155  0.40321929  0.42213302
   0.46890013  0.46193979  0.29055149
   0.43018664  0.43812910  0.60897536
   0.39172793  0.49649836  0.47766161
   0.40351850  0.36604538  0.49824629
   0.49636431  0.53366301  0.40101376
   0.52359303  0.36402750  0.55577166
Direct configuration=    23
   0.51682945  0.49210411  0.52177820
   0.38259326  0.40725750  0.37823568
   0.37647792  0.53493452  0.34338759
   0.50858568  0.40300715  0.42149425
   0.46893766  0.46181205  0.29041793
   0.43003889  0.43819729  0.60863539
   0.39131974  0.49693992  0.47799041
   0.40441404  0.36599056  0.49829686
   0.49567710  0.53351011  0.40134183
   0.52325775  0.36437828  0.55655335
Direct configuration=    24
   0.51683649  0.49179244  0.52160692
   0.38247120  0.40752695  0.37831733
   0.37660557  0.53485025  0.34332491
   0.50883390  0.40292141  0.42123606
   0.46895283  0.46176042  0.29036394
   0.42997917  0.43822485  0.60849798
   0.39115475  0.49711839  0.47812331
   0.40477600  0.36596841  0.49831730
   0.49539934  0.53344830  0.40147443
   0.52312224  0.36452006  0.55686930
Direct configuration=    25
   0.51650847  0.49191209  0.52152419
   0.38297120  0.40721331  0.37850800
   0.37621793  0.53530912  0.34321722
   0.50878677  0.40268621  0.42109200
   0.46887061  0.46176906  0.29091287
   0.42988193  0.43838456  0.60810317
   0.39113701  0.49704388  0.47826647
   0.40453884  0.36638155  0.49809607
   0.49568086  0.53320778  0.40141791
   0.52353786  0.36422393  0.55699359
Direct configuration=    26
   0.51649932  0.49191543  0.52152188
   0.38298515  0.40720456  0.37851332
   0.37620712  0.53532193  0.34321422
   0.50878546  0.40267965  0.42108798
   0.46886832  0.46176930  0.29092818
   0.42987922  0.43838901  0.60809216
   0.39113651  0.49704180  0.47827046
   0.40453222  0.36639308  0.49808990
   0.49568871  0.53320107  0.40141634
   0.52354946  0.36421567  0.55699706
Direct configuration=    27
   0.51630454  0.49173554  0.52143786
   0.38318184  0.40729831  0.37832218
   0.37604220  0.53549415  0.34321144
   0.50906955  0.40236148  0.42100486
   0.46871672  0.46180940  0.29144691
   0.42986548  0.43844430  0.60757261
   0.39097706  0.49725616  0.47827201
   0.40466912  0.36653211  0.49835032
   0.49568725  0.53301638  0.40135426
   0.52361774  0.36418366  0.55715904
Direct configuration=    28
   0.51628273  0.49171540  0.52142845
   0.38320386  0.40730880  0.37830078
   0.37602373  0.53551343  0.34321113
   0.50910135  0.40232586  0.42099556
   0.46869974  0.46181389  0.29150499
   0.42986394  0.43845049  0.60751445
   0.39095921  0.49728016  0.47827218
   0.40468445  0.36654768  0.49837948
   0.49568709  0.53299571  0.40134731
   0.52362539  0.36418008  0.55717717
Direct configuration=    29
   0.51629242  0.49151287  0.52123524
   0.38322446  0.40741558  0.37847777
   0.37589828  0.53563656  0.34327023
   0.50938613  0.40202116  0.42098582
   0.46868821  0.46181852  0.29163828
   0.42974874  0.43857680  0.60736107
   0.39074369  0.49750255  0.47814061
   0.40486341  0.36660883  0.49824051
   0.49557026  0.53290409  0.40142764
   0.52371589  0.36413453  0.55735432
Direct configuration=    30
   0.51629518  0.49145525  0.52118026
   0.38323032  0.40744597  0.37852814
   0.37586258  0.53567159  0.34328705
   0.50946716  0.40193446  0.42098305
   0.46868493  0.46181983  0.29167621
   0.42971597  0.43861275  0.60731743
   0.39068236  0.49756583  0.47810318
   0.40491434  0.36662623  0.49820096
   0.49553701  0.53287802  0.40145050
   0.52374164  0.36412157  0.55740473
