   23   23 1000    2
  0.3400953E+03  0.1985071E-08  0.1985071E-08  0.1985071E-08  0.1000000E-15
  1.000000000000000E-004
  CAR 
 unknown system                          
    253      1    164
 
  0.0000000E+00  0.0000000E+00  0.0000000E+00  0.1000000E+01
    1       -9.562211     -9.545841
    2       -9.196539     -9.187538
    3       -9.103212     -9.093410
    4       -9.041565     -9.030839
    5       -9.002177     -8.988171
    6       -8.984891     -8.973334
    7       -8.954284     -8.941356
    8       -8.949283     -8.937245
    9       -8.933078     -8.920387
   10       -8.761032     -8.753472
   11       -8.719071     -8.700717
   12       -8.697536     -8.681891
   13       -8.671510     -8.656495
   14       -8.658927     -8.639349
   15       -8.636075     -8.626353
   16       -8.631268     -8.618510
   17       -8.615885     -8.598545
   18       -8.571901     -8.559045
   19       -8.549536     -8.534171
   20       -8.495863     -8.478770
   21       -8.481727     -8.461769
   22       -8.439974     -8.425220
   23       -8.427502     -8.417022
   24       -8.388665     -8.374387
   25       -8.374976     -8.362767
   26       -8.359069     -8.346147
   27       -8.342179     -8.328199
   28       -8.319590     -8.300495
   29       -8.303318     -8.289292
   30       -8.278058     -8.259477
   31       -8.254608     -8.241056
   32       -8.238887     -8.227170
   33       -8.196859     -8.186410
   34       -8.142547     -8.129911
   35       -8.121210     -8.110564
   36       -8.111014     -8.099510
   37       -8.079541     -8.067585
   38       -8.052651     -8.035985
   39       -8.039883     -8.026103
   40       -8.008246     -7.992922
   41       -7.981220     -7.968984
   42       -7.951372     -7.937106
   43       -7.869282     -7.861570
   44       -7.845342     -7.830237
   45       -7.831269     -7.815429
   46       -7.817154     -7.798751
   47       -7.796811     -7.783515
   48       -7.787282     -7.772910
   49       -7.746087     -7.735192
   50       -7.726209     -7.714236
   51       -7.695907     -7.684989
   52       -7.667164     -7.654967
   53       -7.658960     -7.648292
   54       -7.633539     -7.622120
   55       -7.597438     -7.586033
   56       -7.571660     -7.562077
   57       -7.558737     -7.547603
   58       -7.549728     -7.538295
   59       -7.506228     -7.498045
   60       -7.486306     -7.476146
   61       -7.452219     -7.439168
   62       -7.412207     -7.400218
   63       -7.367861     -7.357664
   64       -7.364298     -7.353162
   65       -7.299797     -7.286597
   66       -7.262327     -7.251535
   67       -7.236809     -7.225375
   68       -7.200786     -7.187961
   69       -7.176681     -7.168334
   70       -7.149552     -7.136089
   71       -7.114455     -7.105042
   72       -7.096757     -7.083119
   73       -7.082139     -7.072283
   74       -7.070747     -7.055569
   75       -7.023463     -7.006547
   76       -7.012576     -7.000466
   77       -6.992779     -6.977062
   78       -6.968549     -6.955459
   79       -6.961172     -6.948391
   80       -6.953261     -6.939208
   81       -6.935799     -6.926142
   82       -6.925318     -6.915349
   83       -6.911988     -6.904013
   84       -6.886584     -6.875145
   85       -6.878125     -6.866672
   86       -6.871831     -6.859989
   87       -6.855802     -6.844874
   88       -6.827327     -6.815166
   89       -6.787743     -6.778044
   90       -6.779831     -6.771894
   91       -6.768240     -6.759805
   92       -6.764377     -6.752636
   93       -6.747412     -6.737477
   94       -6.733310     -6.722017
   95       -6.713587     -6.702684
   96       -6.703406     -6.692069
   97       -6.671416     -6.660271
   98       -6.660976     -6.648442
   99       -6.645501     -6.633120
  100       -6.621684     -6.610979
  101       -6.612472     -6.601444
  102       -6.592281     -6.578409
  103       -6.587154     -6.575218
  104       -6.567501     -6.555598
  105       -6.559754     -6.550193
  106       -6.551910     -6.536241
  107       -6.509953     -6.501976
  108       -6.486278     -6.474776
  109       -6.470016     -6.460968
  110       -6.459444     -6.450420
  111       -6.455244     -6.448166
  112       -6.431786     -6.419304
  113       -6.422709     -6.412695
  114       -6.404698     -6.392275
  115       -6.370331     -6.358227
  116       -6.342542     -6.336083
  117       -6.305058     -6.296858
  118       -6.251079     -6.234876
  119       -6.218759     -6.193649
  120       -5.485729     -5.443306
  121       -5.195716     -5.141923
  122       -5.044351     -5.014935
  123       -4.653651     -4.619352
  124       -4.228503     -4.195103
  125       -3.737074     -3.702203
  126       -3.667237     -3.637671
  127       -3.508842     -3.384444
  128       -3.129638     -3.076732
  129       -3.056115     -3.019616
  130       -2.965354     -2.933130
  131       -2.401685     -2.366556
  132       -2.369357     -2.341076
  133       -2.229607     -2.191773
  134       -2.014723     -1.972241
  135       -1.877602     -1.820964
  136       -1.800345     -1.759366
  137       -1.773552     -1.704872
  138       -1.385338     -1.324512
  139       -1.318026     -1.239403
  140       -1.047004     -0.980672
  141       -0.884933     -0.851666
  142       -0.818899     -0.787660
  143       -0.790688     -0.758701
  144       -0.387707     -0.364474
  145       -0.368456     -0.331384
  146       -0.186530     -0.148209
  147       -0.135955     -0.100731
  148       -0.021419      0.005677
  149        0.014144      0.094740
  150        0.122893      0.159707
  151        0.359857      0.418953
  152        0.461215      0.470811
  153        0.566790      0.595058
  154        0.626526      0.674483
  155        0.702833      0.763505
  156        0.805401      0.819434
  157        0.813463      0.834909
  158        0.856784      0.872107
  159        0.867859      0.877217
  160        0.898919      0.916760
  161        0.911663      0.941609
  162        0.990216      1.028324
  163        1.051916      1.073499
  164        1.086326      1.110097
