 vasp.5.3.5 31Mar14 (build Feb 01 2018 12:10:03) gamma-only                     
  
 executed on             LinuxIFC date 2019.03.22  22:42:59
 running on   32 total cores
 distrk:  each k-point on   32 cores,    1 groups
 distr:  one band on NCORES_PER_BAND=   8 cores,    4 groups


--------------------------------------------------------------------------------------------------------


 INCAR:
 POTCAR:    PAW_PBE Ag 02Apr2005                  
 POTCAR:    PAW_PBE Ag 02Apr2005                  
   VRHFIN =Ag : s1 d10                                                          
   LEXCH  = PE                                                                  
   EATOM  =  1037.2675 eV,   76.2370 Ry                                         
                                                                                
   TITEL  = PAW_PBE Ag 02Apr2005                                                
   LULTRA =        F    use ultrasoft PP ?                                      
   IUNSCR =        1    unscreen: 0-lin 1-nonlin 2-no                           
   RPACOR =    2.000    partial core radius                                     
   POMASS =  107.868; ZVAL   =   11.000    mass and valenz                      
   RCORE  =    2.500    outmost cutoff radius                                   
   RWIGS  =    2.840; RWIGS  =    1.503    wigner-seitz radius (au A)           
   ENMAX  =  249.844; ENMIN  =  187.383 eV                                      
   ICORE  =        3    local potential                                         
   LCOR   =        T    correct aug charges                                     
   LPAW   =        T    paw PP                                                  
   EAUG   =  412.496                                                            
   DEXC   =    0.000                                                            
   RMAX   =    2.560    core radius for proj-oper                               
   RAUG   =    1.300    factor for augmentation sphere                          
   RDEP   =    2.576    radius for radial grids                                 
   RDEPT  =    2.072    core radius for aug-charge                              
                                                                                
   Atomic configuration                                                         
   12 entries                                                                   
     n  l   j            E        occ.                                          
     1  0  0.50    -25324.9161   2.0000                                         
     2  0  0.50     -3728.5341   2.0000                                         
     2  1  1.50     -3344.0404   6.0000                                         
     3  0  0.50      -683.5581   2.0000                                         
     3  1  1.50      -557.3225   6.0000                                         
     3  2  2.50      -358.3853  10.0000                                         
     4  0  0.50       -95.0341   2.0000                                         
     4  1  1.50       -58.5511   6.0000                                         
     4  2  2.50        -7.4440  10.0000                                         
     5  0  0.50        -4.4045   1.0000                                         
     5  1  0.50        -1.3606   0.0000                                         
     4  3  2.50        -1.3606   0.0000                                         
   Description                                                                  
     l       E           TYP  RCUT    TYP  RCUT                                 
     2     -7.4439781     23  2.400                                             
     2     -8.8045607     23  2.400                                             
     0     -4.4044681     23  2.400                                             
     0      1.9520038     23  2.400                                             
     1     -1.3605826     23  2.500                                             
     1     27.2116520     23  2.500                                             
     3     -4.0817478     23  2.400                                             
  local pseudopotential read in
  partial core-charges read in
  partial kinetic energy density read in
  atomic valenz-charges read in
  non local Contribution for L=           2  read in
    real space projection operators read in
  non local Contribution for L=           2  read in
    real space projection operators read in
  non local Contribution for L=           0  read in
    real space projection operators read in
  non local Contribution for L=           0  read in
    real space projection operators read in
  non local Contribution for L=           1  read in
    real space projection operators read in
  non local Contribution for L=           1  read in
    real space projection operators read in
    PAW grid and wavefunctions read in
 
   number of l-projection  operators is LMAX  =           6
   number of lm-projection operators is LMMAX =          18
 
  PAW_PBE Ag 02Apr2005                  :
 energy of atom  1       EATOM=-1037.2675
 kinetic energy error for atom=    0.0689 (will be added to EATOM!!)
 
 
 POSCAR: Ti6, -30.15215927 <s> Ag </s>           
  positions in direct lattice
  No initial velocities read in
 exchange correlation table for  LEXCH =        8
   RHO(1)=    0.500       N(1)  =     2000
   RHO(2)=  100.500       N(2)  =     4000
 


--------------------------------------------------------------------------------------------------------


 ion  position               nearest neighbor table
   1  0.599  0.603  0.512-   4 2.24   2 2.24
   2  0.600  0.472  0.493-   3 2.17   1 2.24   4 2.83   5 2.88
   3  0.531  0.367  0.467-   2 2.17   5 2.51
   4  0.481  0.583  0.454-   1 2.24   6 2.49   5 2.80   2 2.83
   5  0.440  0.452  0.547-   6 2.13   3 2.51   4 2.80   2 2.88
   6  0.392  0.566  0.570-   5 2.13   4 2.49
 
  LATTYP: Found a simple cubic cell.
 ALAT       =    16.9325547437
  
  Lattice vectors:
  
 A1 = (  16.9325547437,   0.0000000000,   0.0000000000)
 A2 = (   0.0000000000,  16.9325547437,   0.0000000000)
 A3 = (   0.0000000000,   0.0000000000,  16.9325547437)


Analysis of symmetry for initial positions (statically):
=====================================================================
 Subroutine PRICEL returns:
 Original cell was already a primitive cell.
 

 Routine SETGRP: Setting up the symmetry group for a 
 simple cubic supercell.


 Subroutine GETGRP returns: Found  1 space group operations
 (whereof  1 operations were pure point group operations)
 out of a pool of 48 trial point group operations.


The static configuration has the point symmetry C_1 .


Analysis of symmetry for dynamics (positions and initial velocities):
=====================================================================
 Subroutine PRICEL returns:
 Original cell was already a primitive cell.
 

 Routine SETGRP: Setting up the symmetry group for a 
 simple cubic supercell.


 Subroutine GETGRP returns: Found  1 space group operations
 (whereof  1 operations were pure point group operations)
 out of a pool of 48 trial point group operations.


The dynamic configuration has the point symmetry C_1 .


Analysis of magnetic symmetry:
=====================================================================
 Subroutine PRICEL returns:
 Original cell was already a primitive cell.
 

 Subroutine MAGSYM returns: Found  1 space group operations
 (whereof  1 operations were pure point group operations)
 out of a pool of  1 trial space group operations
 (whereof  1 operations were pure point group operations)
 and found also     1 'primitive' translations


The magnetic configuration has the point symmetry C_1 .
 
 
 KPOINTS: Gamma-point only                        
  k-points in reciprocal lattice
Space group operators:
 irot       det(A)        alpha          n_x          n_y          n_z        tau_x        tau_y        tau_z
    1     1.000000     0.000001     1.000000     0.000000     0.000000     0.000000     0.000000     0.000000


--------------------------------------------------------------------------------------------------------




 Dimension of arrays:
   k-points           NKPTS =      1   k-points in BZ     NKDIM =      1   number of bands    NBANDS=     44
   number of dos      NEDOS =    301   number of ions     NIONS =      6
   non local maximal  LDIM  =      6   non local SUM 2l+1 LMDIM =     18
   total plane-waves  NPLWV = 343000
   max r-space proj   IRMAX =      1   max aug-charges    IRDMAX=   3673
   dimension x,y,z NGX =    70 NGY =   70 NGZ =   70
   dimension x,y,z NGXF=   140 NGYF=  140 NGZF=  140
   support grid    NGXF=   140 NGYF=  140 NGZF=  140
   ions per type =               6
 NGX,Y,Z   is equivalent  to a cutoff of   6.87,  6.87,  6.87 a.u.
 NGXF,Y,Z  is equivalent  to a cutoff of  13.75, 13.75, 13.75 a.u.


 I would recommend the setting:
   dimension x,y,z NGX =    65 NGY =   65 NGZ =   65
 SYSTEM =  unknown system                          
 POSCAR =  Ti6, -30.15215927 <s> Ag </s>           

 Startparameter for this run:
   NWRITE =      2    write-flag & timer
   PREC   = normal    normal or accurate (medium, high low for compatibility)
   ISTART =      0    job   : 0-new  1-cont  2-samecut
   ICHARG =      2    charge: 1-file 2-atom 10-const
   ISPIN  =      2    spin polarized calculation?
   LNONCOLLINEAR =      F non collinear calculations
   LSORBIT =      F    spin-orbit coupling
   INIWAV =      1    electr: 0-lowe 1-rand  2-diag
   LASPH  =      F    aspherical Exc in radial PAW
   METAGGA=      F    non-selfconsistent MetaGGA calc.

 Electronic Relaxation 1
   ENCUT  =  249.8 eV  18.36 Ry    4.29 a.u.  21.82 21.82 21.82*2*pi/ulx,y,z
   ENINI  =  249.8     initial cutoff
   ENAUG  =  412.5 eV  augmentation charge cutoff
   NELM   =     60;   NELMIN=  2; NELMDL= -5     # of ELM steps 
   EDIFF  = 0.1E-03   stopping-criterion for ELM
   LREAL  =      F    real-space projection
   NLSPLINE    = F    spline interpolate recip. space projectors
   LCOMPAT=      F    compatible to vasp.4.4
   GGA_COMPAT  = T    GGA compatible to vasp.4.4-vasp.4.6
   LMAXPAW     = -100 max onsite density
   LMAXMIX     =    2 max onsite mixed and CHGCAR
   VOSKOWN=      0    Vosko Wilk Nusair interpolation
   ROPT   =    0.00000
 Ionic relaxation
   EDIFFG = 0.1E-02   stopping-criterion for IOM
   NSW    =   1000    number of steps for IOM
   NBLOCK =      1;   KBLOCK =   1000    inner block; outer block 
   IBRION =      2    ionic relax: 0-MD 1-quasi-New 2-CG
   NFREE  =      1    steps in history (QN), initial steepest desc. (CG)
   ISIF   =      2    stress and relaxation
   IWAVPR =     11    prediction:  0-non 1-charg 2-wave 3-comb
   ISYM   =      2    0-nonsym 1-usesym 2-fastsym
   LCORR  =      T    Harris-Foulkes like correction to forces

   POTIM  = 0.1000    time-step for ionic-motion
   TEIN   =    0.0    initial temperature
   TEBEG  =    0.0;   TEEND  =   0.0 temperature during run
   SMASS  =  -3.00    Nose mass-parameter (am)
   estimated Nose-frequenzy (Omega)   =  0.10E-29 period in steps =****** mass=  -0.655E-26a.u.
   SCALEE = 1.0000    scale energy and forces
   NPACO  =    256;   APACO  = 16.0  distance and # of slots for P.C.
   PSTRESS=    0.0 pullay stress

  Mass of Ions in am
   POMASS = 107.87
  Ionic Valenz
   ZVAL   =  11.00
  Atomic Wigner-Seitz radii
   RWIGS  =  -1.00
  virtual crystal weights 
   VCA    =   1.00
   NELECT =      66.0000    total number of electrons
   NUPDOWN=      -1.0000    fix difference up-down

 DOS related values:
   EMIN   =  10.00;   EMAX   =-10.00  energy-range for DOS
   EFERMI =   0.00
   ISMEAR =     0;   SIGMA  =   0.00  broadening in eV -4-tet -1-fermi 0-gaus

 Electronic relaxation 2 (details)
   IALGO  =     38    algorithm
   LDIAG  =      T    sub-space diagonalisation (order eigenvalues)
   LSUBROT=      F    optimize rotation matrix (better conditioning)
   TURBO    =      0    0=normal 1=particle mesh
   IRESTART =      0    0=no restart 2=restart with 2 vectors
   NREBOOT  =      0    no. of reboots
   NMIN     =      0    reboot dimension
   EREF     =   0.00    reference energy to select bands
   IMIX   =      4    mixing-type and parameters
     AMIX     =   0.40;   BMIX     =  1.00
     AMIX_MAG =   1.60;   BMIX_MAG =  1.00
     AMIN     =   0.10
     WC   =   100.;   INIMIX=   1;  MIXPRE=   1;  MAXMIX= -45

 Intra band minimization:
   WEIMIN = 0.0010     energy-eigenvalue tresh-hold
   EBREAK =  0.57E-06  absolut break condition
   DEPER  =   0.30     relativ break condition  

   TIME   =   0.40     timestep for ELM

  volume/ion in A,a.u.               =     809.13      5460.25
  Fermi-wavevector in a.u.,A,eV,Ry     =   0.390721  0.738356  2.077107  0.152663
  Thomas-Fermi vector in A             =   1.332869
 
 Write flags
   LWAVE  =      F    write WAVECAR
   LCHARG =      F    write CHGCAR
   LVTOT  =      F    write LOCPOT, total local potential
   LVHAR  =      F    write LOCPOT, Hartree potential only
   LELF   =      F    write electronic localiz. function (ELF)
   LORBIT =      0    0 simple, 1 ext, 2 COOP (PROOUT)


 Dipole corrections
   LMONO  =      F    monopole corrections only (constant potential shift)
   LDIPOL =      F    correct potential (dipole corrections)
   IDIPOL =      0    1-x, 2-y, 3-z, 4-all directions 
   EPSILON=  1.0000000 bulk dielectric constant

 Exchange correlation treatment:
   GGA     =    PE    GGA type
   LEXCH   =     8    internal setting for exchange type
   VOSKOWN=      0    Vosko Wilk Nusair interpolation
   LHFCALC =     F    Hartree Fock is set to
   LHFONE  =     F    Hartree Fock one center treatment
   AEXX    =    0.0000 exact exchange contribution

 Linear response parameters
   LEPSILON=     F    determine dielectric tensor
   LRPA    =     F    only Hartree local field effects (RPA)
   LNABLA  =     F    use nabla operator in PAW spheres
   LVEL    =     F    velocity operator in full k-point grid
   LINTERFAST=   F  fast interpolation
   KINTER  =     0    interpolate to denser k-point grid
   CSHIFT  =0.1000    complex shift for real part using Kramers Kronig
   OMEGAMAX=  -1.0    maximum frequency
   DEG_THRESHOLD= 0.2000000E-02 threshold for treating states as degnerate
   RTIME   =    0.100 relaxation time in fs

 Orbital magnetization related:
   ORBITALMAG=     F  switch on orbital magnetization
   LCHIMAG   =     F  perturbation theory with respect to B field
   DQ        =  0.001000  dq finite difference perturbation B field



--------------------------------------------------------------------------------------------------------


 conjugate gradient relaxation of ions
 charge density and potential will be updated during run
 spin polarized calculation
 Variant of blocked Davidson
 Davidson routine will perform the subspace rotation
 perform sub-space diagonalisation
    after iterative eigenvector-optimisation
 modified Broyden-mixing scheme, WC =      100.0
 initial mixing is a Kerker type mixing with AMIX =  0.4000 and BMIX =      1.0000
 Hartree-type preconditioning will be used
 using additional bands           11
 reciprocal scheme for non local part
 use partial core corrections
 calculate Harris-corrections to forces 
   (improved forces if not selfconsistent)
 use gradient corrections 
 use of overlap-Matrix (Vanderbilt PP)
 Gauss-broadening in eV      SIGMA  =   0.00


--------------------------------------------------------------------------------------------------------


  energy-cutoff  :      249.84
  volume of cell :     4854.76
      direct lattice vectors                 reciprocal lattice vectors
    16.932554744  0.000000000  0.000000000     0.059057834  0.000000000  0.000000000
     0.000000000 16.932554744  0.000000000     0.000000000  0.059057834  0.000000000
     0.000000000  0.000000000 16.932554744     0.000000000  0.000000000  0.059057834

  length of vectors
    16.932554744 16.932554744 16.932554744     0.059057834  0.059057834  0.059057834


 
 k-points in units of 2pi/SCALE and weight: Gamma-point only                        
   0.00000000  0.00000000  0.00000000       1.000
 
 k-points in reciprocal lattice and weights: Gamma-point only                        
   0.00000000  0.00000000  0.00000000       1.000
 
 position of ions in fractional coordinates (direct lattice) 
   0.59897780  0.60270446  0.51168126
   0.60017595  0.47159532  0.49262506
   0.53100687  0.36650490  0.46723151
   0.48129727  0.58283748  0.45414484
   0.43975552  0.45218530  0.54664793
   0.39191204  0.56649097  0.56971310
 
 position of ions in cartesian coordinates  (Angst):
  10.14222431 10.20532618  8.66407091
  10.16251216  7.98531357  8.34140073
   8.99130285  6.20586434  7.91142316
   8.14959238  9.86892760  7.68983239
   7.44618441  7.65665228  9.25614603
   6.63607207  9.59213934  9.64669828
 


--------------------------------------------------------------------------------------------------------


 use parallel FFT for wavefunctions z direction half grid
 k-point  1 :   0.0000 0.0000 0.0000  plane waves:   21754

 maximum and minimum number of plane-waves per node :      2725     2712

 maximum number of plane-waves:     21754
 maximum index in each direction: 
   IXMAX=   21   IYMAX=   21   IZMAX=   21
   IXMIN=  -21   IYMIN=  -21   IZMIN=    0

 WARNING: aliasing errors must be expected set NGX to  86 to avoid them
 WARNING: aliasing errors must be expected set NGY to  86 to avoid them
 WARNING: aliasing errors must be expected set NGZ to  86 to avoid them
 aliasing errors are usually negligible using standard VASP settings
 and one can safely disregard these warnings

 parallel 3D FFT for wavefunctions:
    minimum data exchange during FFTs selected (reduces bandwidth)
 parallel 3D FFT for charge:
    minimum data exchange during FFTs selected (reduces bandwidth)


 total amount of memory used by VASP on root node    46514. kBytes
========================================================================

   base      :      30000. kBytes
   nonl-proj :        654. kBytes
   fftplans  :       4200. kBytes
   grid      :      10682. kBytes
   one-center:         15. kBytes
   wavefun   :        963. kBytes
 
     INWAV:  cpu time    0.00: real time    0.00
 Broyden mixing: mesh for mixing (old mesh)
   NGX = 43   NGY = 43   NGZ = 43
  (NGX  =140   NGY  =140   NGZ  =140)
  gives a total of  79507 points

 initial charge density was supplied:
 charge density of overlapping atoms calculated
 number of electron      66.0000000 magnetization       6.0000000
 keeping initial charge density in first step


--------------------------------------------------------------------------------------------------------


 Maximum index for augmentation-charges          254 (set IRDMAX)


--------------------------------------------------------------------------------------------------------


 First call to EWALD:  gamma=   0.105
 Maximum number of real-space cells 3x 3x 3
 Maximum number of reciprocal cells 3x 3x 3

 FEWALD executed in parallel
    FEWALD:  cpu time    0.00: real time    0.00


----------------------------------------- Iteration    1(   1)  ---------------------------------------


    POTLOK:  cpu time    0.17: real time    0.17
    SETDIJ:  cpu time    0.00: real time    0.01
     EDDAV:  cpu time    0.24: real time    0.24
       DOS:  cpu time    0.00: real time    0.00
    --------------------------------------------
      LOOP:  cpu time    0.41: real time    0.48

 eigenvalue-minimisations  :   176
 total energy-change (2. order) : 0.6049988E+03  (-0.9205584E+03)
 number of electron      66.0000000 magnetization       6.0000000
 augmentation part       66.0000000 magnetization       6.0000000

 Free energy of the ion-electron system (eV)
  ---------------------------------------------------
  alpha Z        PSCENC =         6.30738319
  Ewald energy   TEWEN  =      3892.65896006
  -Hartree energ DENC   =     -9813.03250930
  -exchange      EXHF   =         0.00000000
  -V(xc)+E(xc)   XCENC  =       -65.97315448
  PAW double counting   =      6020.23306842    -5743.58765327
  entropy T*S    EENTRO =        -0.00000000
  eigenvalues    EBANDS =        85.20087594
  atomic energy  EATOM  =      6223.19178052
  ---------------------------------------------------
  free energy    TOTEN  =       604.99875109 eV

  energy without entropy =      604.99875109  energy(sigma->0) =      604.99875109


--------------------------------------------------------------------------------------------------------




----------------------------------------- Iteration    1(   2)  ---------------------------------------


     EDDAV:  cpu time    0.40: real time    0.41
       DOS:  cpu time    0.00: real time    0.00
    --------------------------------------------
      LOOP:  cpu time    0.41: real time    0.41

 eigenvalue-minimisations  :   352
 total energy-change (2. order) :-0.3639564E+03  (-0.3283702E+03)
 number of electron      66.0000000 magnetization       6.0000000
 augmentation part       66.0000000 magnetization       6.0000000

 Free energy of the ion-electron system (eV)
  ---------------------------------------------------
  alpha Z        PSCENC =         6.30738319
  Ewald energy   TEWEN  =      3892.65896006
  -Hartree energ DENC   =     -9813.03250930
  -exchange      EXHF   =         0.00000000
  -V(xc)+E(xc)   XCENC  =       -65.97315448
  PAW double counting   =      6020.23306842    -5743.58765327
  entropy T*S    EENTRO =         0.00000000
  eigenvalues    EBANDS =      -278.75555074
  atomic energy  EATOM  =      6223.19178052
  ---------------------------------------------------
  free energy    TOTEN  =       241.04232440 eV

  energy without entropy =      241.04232440  energy(sigma->0) =      241.04232440


--------------------------------------------------------------------------------------------------------




----------------------------------------- Iteration    1(   3)  ---------------------------------------


     EDDAV:  cpu time    0.34: real time    0.34
       DOS:  cpu time    0.00: real time    0.00
    --------------------------------------------
      LOOP:  cpu time    0.34: real time    0.35

 eigenvalue-minimisations  :   288
 total energy-change (2. order) :-0.2213711E+03  (-0.2080927E+03)
 number of electron      66.0000000 magnetization       6.0000000
 augmentation part       66.0000000 magnetization       6.0000000

 Free energy of the ion-electron system (eV)
  ---------------------------------------------------
  alpha Z        PSCENC =         6.30738319
  Ewald energy   TEWEN  =      3892.65896006
  -Hartree energ DENC   =     -9813.03250930
  -exchange      EXHF   =         0.00000000
  -V(xc)+E(xc)   XCENC  =       -65.97315448
  PAW double counting   =      6020.23306842    -5743.58765327
  entropy T*S    EENTRO =         0.00000000
  eigenvalues    EBANDS =      -500.12660144
  atomic energy  EATOM  =      6223.19178052
  ---------------------------------------------------
  free energy    TOTEN  =        19.67127370 eV

  energy without entropy =       19.67127370  energy(sigma->0) =       19.67127370


--------------------------------------------------------------------------------------------------------




----------------------------------------- Iteration    1(   4)  ---------------------------------------


     EDDAV:  cpu time    0.24: real time    0.24
       DOS:  cpu time    0.00: real time    0.00
    --------------------------------------------
      LOOP:  cpu time    0.24: real time    0.25

 eigenvalue-minimisations  :   188
 total energy-change (2. order) :-0.2384610E+02  (-0.2355398E+02)
 number of electron      66.0000000 magnetization       6.0000000
 augmentation part       66.0000000 magnetization       6.0000000

 Free energy of the ion-electron system (eV)
  ---------------------------------------------------
  alpha Z        PSCENC =         6.30738319
  Ewald energy   TEWEN  =      3892.65896006
  -Hartree energ DENC   =     -9813.03250930
  -exchange      EXHF   =         0.00000000
  -V(xc)+E(xc)   XCENC  =       -65.97315448
  PAW double counting   =      6020.23306842    -5743.58765327
  entropy T*S    EENTRO =         0.00000000
  eigenvalues    EBANDS =      -523.97270241
  atomic energy  EATOM  =      6223.19178052
  ---------------------------------------------------
  free energy    TOTEN  =        -4.17482727 eV

  energy without entropy =       -4.17482727  energy(sigma->0) =       -4.17482727


--------------------------------------------------------------------------------------------------------




----------------------------------------- Iteration    1(   5)  ---------------------------------------


     EDDAV:  cpu time    0.24: real time    0.24
       DOS:  cpu time    0.00: real time    0.00
    CHARGE:  cpu time    0.02: real time    0.03
    MIXING:  cpu time    0.00: real time    0.00
    --------------------------------------------
      LOOP:  cpu time    0.28: real time    0.28

 eigenvalue-minimisations  :   188
 total energy-change (2. order) :-0.4434939E+00  (-0.4428979E+00)
 number of electron      65.9999881 magnetization       4.8381219
 augmentation part       31.2717278 magnetization       4.9439502

 Broyden mixing:
  rms(total) = 0.20773E+01    rms(broyden)= 0.20771E+01
  rms(prec ) = 0.20964E+01
  weight for this iteration     100.00

 Free energy of the ion-electron system (eV)
  ---------------------------------------------------
  alpha Z        PSCENC =         6.30738319
  Ewald energy   TEWEN  =      3892.65896006
  -Hartree energ DENC   =     -9813.03250930
  -exchange      EXHF   =         0.00000000
  -V(xc)+E(xc)   XCENC  =       -65.97315448
  PAW double counting   =      6020.23306842    -5743.58765327
  entropy T*S    EENTRO =         0.00000000
  eigenvalues    EBANDS =      -524.41619635
  atomic energy  EATOM  =      6223.19178052
  ---------------------------------------------------
  free energy    TOTEN  =        -4.61832121 eV

  energy without entropy =       -4.61832121  energy(sigma->0) =       -4.61832121


--------------------------------------------------------------------------------------------------------




----------------------------------------- Iteration    1(   6)  ---------------------------------------


    POTLOK:  cpu time    0.15: real time    0.15
    SETDIJ:  cpu time    0.00: real time    0.01
     EDDAV:  cpu time    0.25: real time    0.25
       DOS:  cpu time    0.00: real time    0.00
    CHARGE:  cpu time    0.02: real time    0.02
    MIXING:  cpu time    0.00: real time    0.00
    --------------------------------------------
      LOOP:  cpu time    0.43: real time    0.44

 eigenvalue-minimisations  :   188
 total energy-change (2. order) : 0.1090924E+02  (-0.2486325E+01)
 number of electron      65.9999879 magnetization       3.6593945
 augmentation part       31.6133762 magnetization       3.2773931

 Broyden mixing:
  rms(total) = 0.11366E+01    rms(broyden)= 0.11366E+01
  rms(prec ) = 0.11461E+01
  weight for this iteration     100.00

 eigenvalues of (default mixing * dielectric matrix)
  average eigenvalue GAMMA=   0.9712
  0.9712

 Free energy of the ion-electron system (eV)
  ---------------------------------------------------
  alpha Z        PSCENC =         6.30738319
  Ewald energy   TEWEN  =      3892.65896006
  -Hartree energ DENC   =     -9803.55495089
  -exchange      EXHF   =         0.00000000
  -V(xc)+E(xc)   XCENC  =       -59.37764596
  PAW double counting   =      6429.20325738    -6159.37656168
  entropy T*S    EENTRO =         0.00000000
  eigenvalues    EBANDS =      -522.76130654
  atomic energy  EATOM  =      6223.19178052
  ---------------------------------------------------
  free energy    TOTEN  =         6.29091609 eV

  energy without entropy =        6.29091609  energy(sigma->0) =        6.29091609


--------------------------------------------------------------------------------------------------------




----------------------------------------- Iteration    1(   7)  ---------------------------------------


    POTLOK:  cpu time    0.15: real time    0.15
    SETDIJ:  cpu time    0.00: real time    0.01
     EDDAV:  cpu time    0.26: real time    0.26
       DOS:  cpu time    0.00: real time    0.00
    CHARGE:  cpu time    0.03: real time    0.02
    MIXING:  cpu time    0.00: real time    0.00
    --------------------------------------------
      LOOP:  cpu time    0.45: real time    0.46

 eigenvalue-minimisations  :   208
 total energy-change (2. order) : 0.1438516E+01  (-0.2502406E+00)
 number of electron      65.9999879 magnetization       2.5380514
 augmentation part       31.5746061 magnetization       2.3145601

 Broyden mixing:
  rms(total) = 0.57700E+00    rms(broyden)= 0.57699E+00
  rms(prec ) = 0.58307E+00
  weight for this iteration     100.00

 eigenvalues of (default mixing * dielectric matrix)
  average eigenvalue GAMMA=   1.1446
  0.7277  1.5615

 Free energy of the ion-electron system (eV)
  ---------------------------------------------------
  alpha Z        PSCENC =         6.30738319
  Ewald energy   TEWEN  =      3892.65896006
  -Hartree energ DENC   =     -9820.02503905
  -exchange      EXHF   =         0.00000000
  -V(xc)+E(xc)   XCENC  =       -57.41459724
  PAW double counting   =      6744.74639897    -6480.64375792
  entropy T*S    EENTRO =         0.00000000
  eigenvalues    EBANDS =      -501.09169674
  atomic energy  EATOM  =      6223.19178052
  ---------------------------------------------------
  free energy    TOTEN  =         7.72943181 eV

  energy without entropy =        7.72943181  energy(sigma->0) =        7.72943181


--------------------------------------------------------------------------------------------------------




----------------------------------------- Iteration    1(   8)  ---------------------------------------


    POTLOK:  cpu time    0.15: real time    0.15
    SETDIJ:  cpu time    0.00: real time    0.01
     EDDAV:  cpu time    0.25: real time    0.25
       DOS:  cpu time    0.00: real time    0.00
    CHARGE:  cpu time    0.03: real time    0.02
    MIXING:  cpu time    0.00: real time    0.00
    --------------------------------------------
      LOOP:  cpu time    0.44: real time    0.44

 eigenvalue-minimisations  :   188
 total energy-change (2. order) :-0.5295380E+01  (-0.3038778E+00)
 number of electron      65.9999879 magnetization       2.0241924
 augmentation part       31.4910893 magnetization       1.8875093

 Broyden mixing:
  rms(total) = 0.20094E+00    rms(broyden)= 0.20093E+00
  rms(prec ) = 0.20701E+00
  weight for this iteration     100.00

 eigenvalues of (default mixing * dielectric matrix)
  average eigenvalue GAMMA=   1.2186
  2.1059  0.9270  0.6227

 Free energy of the ion-electron system (eV)
  ---------------------------------------------------
  alpha Z        PSCENC =         6.30738319
  Ewald energy   TEWEN  =      3892.65896006
  -Hartree energ DENC   =     -9833.03273229
  -exchange      EXHF   =         0.00000000
  -V(xc)+E(xc)   XCENC  =       -61.19018027
  PAW double counting   =      6979.17892122    -6718.85562172
  entropy T*S    EENTRO =         0.00000000
  eigenvalues    EBANDS =      -485.82445894
  atomic energy  EATOM  =      6223.19178052
  ---------------------------------------------------
  free energy    TOTEN  =         2.43405177 eV

  energy without entropy =        2.43405177  energy(sigma->0) =        2.43405177


--------------------------------------------------------------------------------------------------------




----------------------------------------- Iteration    1(   9)  ---------------------------------------


    POTLOK:  cpu time    0.15: real time    0.15
    SETDIJ:  cpu time    0.00: real time    0.01
     EDDAV:  cpu time    0.24: real time    0.24
       DOS:  cpu time    0.00: real time    0.00
    CHARGE:  cpu time    0.02: real time    0.02
    MIXING:  cpu time    0.00: real time    0.00
    --------------------------------------------
      LOOP:  cpu time    0.43: real time    0.44

 eigenvalue-minimisations  :   184
 total energy-change (2. order) :-0.2281091E+01  (-0.7504575E-01)
 number of electron      65.9999879 magnetization       1.3736466
 augmentation part       31.5182812 magnetization       1.2719888

 Broyden mixing:
  rms(total) = 0.96880E-01    rms(broyden)= 0.96873E-01
  rms(prec ) = 0.10381E+00
  weight for this iteration     100.00

 eigenvalues of (default mixing * dielectric matrix)
  average eigenvalue GAMMA=   1.2837
  2.2555  0.6224  0.8264  1.4303

 Free energy of the ion-electron system (eV)
  ---------------------------------------------------
  alpha Z        PSCENC =         6.30738319
  Ewald energy   TEWEN  =      3892.65896006
  -Hartree energ DENC   =     -9830.82142507
  -exchange      EXHF   =         0.00000000
  -V(xc)+E(xc)   XCENC  =       -63.00198195
  PAW double counting   =      7017.07870526    -6757.19626375
  entropy T*S    EENTRO =         0.00000000
  eigenvalues    EBANDS =      -488.06419780
  atomic energy  EATOM  =      6223.19178052
  ---------------------------------------------------
  free energy    TOTEN  =         0.15296046 eV

  energy without entropy =        0.15296046  energy(sigma->0) =        0.15296046


--------------------------------------------------------------------------------------------------------




----------------------------------------- Iteration    1(  10)  ---------------------------------------


    POTLOK:  cpu time    0.15: real time    0.15
    SETDIJ:  cpu time    0.00: real time    0.01
     EDDAV:  cpu time    0.24: real time    0.24
       DOS:  cpu time    0.00: real time    0.00
    CHARGE:  cpu time    0.02: real time    0.02
    MIXING:  cpu time    0.01: real time    0.00
    --------------------------------------------
      LOOP:  cpu time    0.44: real time    0.44

 eigenvalue-minimisations  :   184
 total energy-change (2. order) :-0.2344448E+01  (-0.8725471E-01)
 number of electron      65.9999879 magnetization       0.9829317
 augmentation part       31.5709226 magnetization       0.9345481

 Broyden mixing:
  rms(total) = 0.66126E-01    rms(broyden)= 0.66115E-01
  rms(prec ) = 0.68805E-01
  weight for this iteration     100.00

 eigenvalues of (default mixing * dielectric matrix)
  average eigenvalue GAMMA=   1.2873
  2.6027  1.4699  0.8635  0.8635  0.6368

 Free energy of the ion-electron system (eV)
  ---------------------------------------------------
  alpha Z        PSCENC =         6.30738319
  Ewald energy   TEWEN  =      3892.65896006
  -Hartree energ DENC   =     -9825.59087171
  -exchange      EXHF   =         0.00000000
  -V(xc)+E(xc)   XCENC  =       -64.98754251
  PAW double counting   =      7014.63668002    -6754.69111133
  entropy T*S    EENTRO =         0.00000000
  eigenvalues    EBANDS =      -493.71676620
  atomic energy  EATOM  =      6223.19178052
  ---------------------------------------------------
  free energy    TOTEN  =        -2.19148795 eV

  energy without entropy =       -2.19148795  energy(sigma->0) =       -2.19148795


--------------------------------------------------------------------------------------------------------




----------------------------------------- Iteration    1(  11)  ---------------------------------------


    POTLOK:  cpu time    0.15: real time    0.15
    SETDIJ:  cpu time    0.00: real time    0.01
     EDDAV:  cpu time    0.25: real time    0.25
       DOS:  cpu time    0.00: real time    0.00
    CHARGE:  cpu time    0.03: real time    0.03
    MIXING:  cpu time    0.00: real time    0.00
    --------------------------------------------
      LOOP:  cpu time    0.44: real time    0.45

 eigenvalue-minimisations  :   192
 total energy-change (2. order) :-0.9563709E+00  (-0.2444708E-01)
 number of electron      65.9999879 magnetization       0.4755564
 augmentation part       31.5657333 magnetization       0.4457186

 Broyden mixing:
  rms(total) = 0.42189E-01    rms(broyden)= 0.42186E-01
  rms(prec ) = 0.46038E-01
  weight for this iteration     100.00

 eigenvalues of (default mixing * dielectric matrix)
  average eigenvalue GAMMA=   1.4171
  2.7548  1.9798  1.4193  0.9435  0.6391  0.7660

 Free energy of the ion-electron system (eV)
  ---------------------------------------------------
  alpha Z        PSCENC =         6.30738319
  Ewald energy   TEWEN  =      3892.65896006
  -Hartree energ DENC   =     -9824.96174194
  -exchange      EXHF   =         0.00000000
  -V(xc)+E(xc)   XCENC  =       -65.78452570
  PAW double counting   =      7013.67727602    -6753.77435417
  entropy T*S    EENTRO =         0.00000000
  eigenvalues    EBANDS =      -494.46263688
  atomic energy  EATOM  =      6223.19178052
  ---------------------------------------------------
  free energy    TOTEN  =        -3.14785889 eV

  energy without entropy =       -3.14785889  energy(sigma->0) =       -3.14785889


--------------------------------------------------------------------------------------------------------




----------------------------------------- Iteration    1(  12)  ---------------------------------------


    POTLOK:  cpu time    0.15: real time    0.15
    SETDIJ:  cpu time    0.00: real time    0.01
     EDDAV:  cpu time    0.24: real time    0.24
       DOS:  cpu time    0.00: real time    0.00
    CHARGE:  cpu time    0.02: real time    0.02
    MIXING:  cpu time    0.00: real time    0.01
    --------------------------------------------
      LOOP:  cpu time    0.42: real time    0.43

 eigenvalue-minimisations  :   176
 total energy-change (2. order) :-0.9395856E+00  (-0.2540822E-01)
 number of electron      65.9999879 magnetization       0.2251667
 augmentation part       31.5805818 magnetization       0.2121969

 Broyden mixing:
  rms(total) = 0.20773E-01    rms(broyden)= 0.20765E-01
  rms(prec ) = 0.22936E-01
  weight for this iteration     100.00

 eigenvalues of (default mixing * dielectric matrix)
  average eigenvalue GAMMA=   1.4935
  3.5504  2.3882  1.3721  1.0638  0.8190  0.6305  0.6305

 Free energy of the ion-electron system (eV)
  ---------------------------------------------------
  alpha Z        PSCENC =         6.30738319
  Ewald energy   TEWEN  =      3892.65896006
  -Hartree energ DENC   =     -9821.12362578
  -exchange      EXHF   =         0.00000000
  -V(xc)+E(xc)   XCENC  =       -66.68914448
  PAW double counting   =      6982.58741931    -6722.24660597
  entropy T*S    EENTRO =         0.00000000
  eigenvalues    EBANDS =      -498.77361129
  atomic energy  EATOM  =      6223.19178052
  ---------------------------------------------------
  free energy    TOTEN  =        -4.08744444 eV

  energy without entropy =       -4.08744444  energy(sigma->0) =       -4.08744444


--------------------------------------------------------------------------------------------------------




----------------------------------------- Iteration    1(  13)  ---------------------------------------


    POTLOK:  cpu time    0.15: real time    0.15
    SETDIJ:  cpu time    0.00: real time    0.01
     EDDAV:  cpu time    0.26: real time    0.26
       DOS:  cpu time    0.00: real time    0.00
    CHARGE:  cpu time    0.02: real time    0.02
    MIXING:  cpu time    0.01: real time    0.01
    --------------------------------------------
      LOOP:  cpu time    0.45: real time    0.45

 eigenvalue-minimisations  :   196
 total energy-change (2. order) :-0.3528115E+00  (-0.5747375E-02)
 number of electron      65.9999879 magnetization       0.1057490
 augmentation part       31.5861890 magnetization       0.1004334

 Broyden mixing:
  rms(total) = 0.10807E-01    rms(broyden)= 0.10800E-01
  rms(prec ) = 0.13052E-01
  weight for this iteration     100.00

 eigenvalues of (default mixing * dielectric matrix)
  average eigenvalue GAMMA=   1.5358
  4.0709  2.4018  1.6668  1.1943  0.9219  0.7802  0.6337  0.6171

 Free energy of the ion-electron system (eV)
  ---------------------------------------------------
  alpha Z        PSCENC =         6.30738319
  Ewald energy   TEWEN  =      3892.65896006
  -Hartree energ DENC   =     -9819.16663382
  -exchange      EXHF   =         0.00000000
  -V(xc)+E(xc)   XCENC  =       -67.05212657
  PAW double counting   =      6974.42354149    -6713.95335682
  entropy T*S    EENTRO =         0.00000000
  eigenvalues    EBANDS =      -500.84980394
  atomic energy  EATOM  =      6223.19178052
  ---------------------------------------------------
  free energy    TOTEN  =        -4.44025589 eV

  energy without entropy =       -4.44025589  energy(sigma->0) =       -4.44025589


--------------------------------------------------------------------------------------------------------




----------------------------------------- Iteration    1(  14)  ---------------------------------------


    POTLOK:  cpu time    0.15: real time    0.15
    SETDIJ:  cpu time    0.00: real time    0.01
     EDDAV:  cpu time    0.25: real time    0.25
       DOS:  cpu time    0.00: real time    0.00
    CHARGE:  cpu time    0.03: real time    0.02
    MIXING:  cpu time    0.00: real time    0.01
    --------------------------------------------
      LOOP:  cpu time    0.44: real time    0.44

 eigenvalue-minimisations  :   188
 total energy-change (2. order) :-0.1487796E+00  (-0.9242822E-03)
 number of electron      65.9999879 magnetization       0.0373567
 augmentation part       31.5852343 magnetization       0.0354488

 Broyden mixing:
  rms(total) = 0.63272E-02    rms(broyden)= 0.63249E-02
  rms(prec ) = 0.82004E-02
  weight for this iteration     100.00

 eigenvalues of (default mixing * dielectric matrix)
  average eigenvalue GAMMA=   1.5637
  4.3787  2.4825  1.8640  1.5260  0.9502  0.8880  0.6891  0.6421  0.6525

 Free energy of the ion-electron system (eV)
  ---------------------------------------------------
  alpha Z        PSCENC =         6.30738319
  Ewald energy   TEWEN  =      3892.65896006
  -Hartree energ DENC   =     -9818.02501480
  -exchange      EXHF   =         0.00000000
  -V(xc)+E(xc)   XCENC  =       -67.21422302
  PAW double counting   =      6974.95468669    -6714.46141259
  entropy T*S    EENTRO =         0.00000000
  eigenvalues    EBANDS =      -502.00119555
  atomic energy  EATOM  =      6223.19178052
  ---------------------------------------------------
  free energy    TOTEN  =        -4.58903549 eV

  energy without entropy =       -4.58903549  energy(sigma->0) =       -4.58903549


--------------------------------------------------------------------------------------------------------




----------------------------------------- Iteration    1(  15)  ---------------------------------------


    POTLOK:  cpu time    0.15: real time    0.15
    SETDIJ:  cpu time    0.01: real time    0.01
     EDDAV:  cpu time    0.23: real time    0.23
       DOS:  cpu time    0.00: real time    0.00
    CHARGE:  cpu time    0.02: real time    0.03
    MIXING:  cpu time    0.01: real time    0.01
    --------------------------------------------
      LOOP:  cpu time    0.42: real time    0.43

 eigenvalue-minimisations  :   168
 total energy-change (2. order) :-0.6070128E-01  (-0.4154316E-03)
 number of electron      65.9999879 magnetization       0.0124303
 augmentation part       31.5875251 magnetization       0.0117533

 Broyden mixing:
  rms(total) = 0.25330E-02    rms(broyden)= 0.25320E-02
  rms(prec ) = 0.39668E-02
  weight for this iteration     100.00

 eigenvalues of (default mixing * dielectric matrix)
  average eigenvalue GAMMA=   1.6178
  4.7768  2.7711  2.2870  1.6107  1.0664  0.8621  0.8621  0.6316  0.6316  0.6788

 Free energy of the ion-electron system (eV)
  ---------------------------------------------------
  alpha Z        PSCENC =         6.30738319
  Ewald energy   TEWEN  =      3892.65896006
  -Hartree energ DENC   =     -9816.78018922
  -exchange      EXHF   =         0.00000000
  -V(xc)+E(xc)   XCENC  =       -67.29205149
  PAW double counting   =      6977.19863183    -6716.69400114
  entropy T*S    EENTRO =         0.00000000
  eigenvalues    EBANDS =      -503.24025053
  atomic energy  EATOM  =      6223.19178052
  ---------------------------------------------------
  free energy    TOTEN  =        -4.64973677 eV

  energy without entropy =       -4.64973677  energy(sigma->0) =       -4.64973677


--------------------------------------------------------------------------------------------------------




----------------------------------------- Iteration    1(  16)  ---------------------------------------


    POTLOK:  cpu time    0.15: real time    0.15
    SETDIJ:  cpu time    0.01: real time    0.01
     EDDAV:  cpu time    0.22: real time    0.22
       DOS:  cpu time    0.00: real time    0.00
    CHARGE:  cpu time    0.02: real time    0.02
    MIXING:  cpu time    0.01: real time    0.01
    --------------------------------------------
      LOOP:  cpu time    0.41: real time    0.42

 eigenvalue-minimisations  :   160
 total energy-change (2. order) :-0.9215487E-02  (-0.8319166E-04)
 number of electron      65.9999879 magnetization       0.0015791
 augmentation part       31.5878192 magnetization       0.0012961

 Broyden mixing:
  rms(total) = 0.14788E-02    rms(broyden)= 0.14784E-02
  rms(prec ) = 0.26291E-02
  weight for this iteration     100.00

 eigenvalues of (default mixing * dielectric matrix)
  average eigenvalue GAMMA=   1.6141
  4.9895  2.8339  2.4384  1.6681  1.1173  1.1173  0.9034  0.7515  0.6812  0.6274
  0.6274

 Free energy of the ion-electron system (eV)
  ---------------------------------------------------
  alpha Z        PSCENC =         6.30738319
  Ewald energy   TEWEN  =      3892.65896006
  -Hartree energ DENC   =     -9816.22458506
  -exchange      EXHF   =         0.00000000
  -V(xc)+E(xc)   XCENC  =       -67.30841060
  PAW double counting   =      6978.21853916    -6717.71668168
  entropy T*S    EENTRO =         0.00000000
  eigenvalues    EBANDS =      -503.78593784
  atomic energy  EATOM  =      6223.19178052
  ---------------------------------------------------
  free energy    TOTEN  =        -4.65895226 eV

  energy without entropy =       -4.65895226  energy(sigma->0) =       -4.65895226


--------------------------------------------------------------------------------------------------------




----------------------------------------- Iteration    1(  17)  ---------------------------------------


    POTLOK:  cpu time    0.15: real time    0.15
    SETDIJ:  cpu time    0.01: real time    0.01
     EDDAV:  cpu time    0.22: real time    0.22
       DOS:  cpu time    0.00: real time    0.00
    CHARGE:  cpu time    0.02: real time    0.02
    MIXING:  cpu time    0.00: real time    0.01
    --------------------------------------------
      LOOP:  cpu time    0.40: real time    0.41

 eigenvalue-minimisations  :   152
 total energy-change (2. order) :-0.2814183E-02  (-0.6303613E-04)
 number of electron      65.9999879 magnetization       0.0010932
 augmentation part       31.5882763 magnetization       0.0008655

 Broyden mixing:
  rms(total) = 0.93547E-03    rms(broyden)= 0.93529E-03
  rms(prec ) = 0.17374E-02
  weight for this iteration     100.00

 eigenvalues of (default mixing * dielectric matrix)
  average eigenvalue GAMMA=   1.6614
  4.9741  3.3660  2.5092  1.8693  1.6899  1.0922  0.8978  0.8978  0.7369  0.6251
  0.6390  0.6390

 Free energy of the ion-electron system (eV)
  ---------------------------------------------------
  alpha Z        PSCENC =         6.30738319
  Ewald energy   TEWEN  =      3892.65896006
  -Hartree energ DENC   =     -9815.77927499
  -exchange      EXHF   =         0.00000000
  -V(xc)+E(xc)   XCENC  =       -67.31575213
  PAW double counting   =      6978.71712569    -6718.21981546
  entropy T*S    EENTRO =         0.00000000
  eigenvalues    EBANDS =      -504.22217332
  atomic energy  EATOM  =      6223.19178052
  ---------------------------------------------------
  free energy    TOTEN  =        -4.66176644 eV

  energy without entropy =       -4.66176644  energy(sigma->0) =       -4.66176644


--------------------------------------------------------------------------------------------------------




----------------------------------------- Iteration    1(  18)  ---------------------------------------


    POTLOK:  cpu time    0.15: real time    0.15
    SETDIJ:  cpu time    0.01: real time    0.01
     EDDAV:  cpu time    0.20: real time    0.20
       DOS:  cpu time    0.00: real time    0.00
    CHARGE:  cpu time    0.02: real time    0.02
    MIXING:  cpu time    0.01: real time    0.01
    --------------------------------------------
      LOOP:  cpu time    0.39: real time    0.40

 eigenvalue-minimisations  :   136
 total energy-change (2. order) :-0.1746734E-02  (-0.2320422E-04)
 number of electron      65.9999879 magnetization      -0.0011102
 augmentation part       31.5882004 magnetization      -0.0012713

 Broyden mixing:
  rms(total) = 0.57674E-03    rms(broyden)= 0.57668E-03
  rms(prec ) = 0.10712E-02
  weight for this iteration     100.00

 eigenvalues of (default mixing * dielectric matrix)
  average eigenvalue GAMMA=   1.6785
  5.0856  3.8654  2.5347  2.2337  1.6256  1.1919  0.9550  0.9550  0.7958  0.7008
  0.6188  0.6188  0.6398

 Free energy of the ion-electron system (eV)
  ---------------------------------------------------
  alpha Z        PSCENC =         6.30738319
  Ewald energy   TEWEN  =      3892.65896006
  -Hartree energ DENC   =     -9815.42444128
  -exchange      EXHF   =         0.00000000
  -V(xc)+E(xc)   XCENC  =       -67.32061308
  PAW double counting   =      6978.92517698    -6718.43030302
  entropy T*S    EENTRO =         0.00000000
  eigenvalues    EBANDS =      -504.57145654
  atomic energy  EATOM  =      6223.19178052
  ---------------------------------------------------
  free energy    TOTEN  =        -4.66351318 eV

  energy without entropy =       -4.66351318  energy(sigma->0) =       -4.66351318


--------------------------------------------------------------------------------------------------------




----------------------------------------- Iteration    1(  19)  ---------------------------------------


    POTLOK:  cpu time    0.15: real time    0.15
    SETDIJ:  cpu time    0.00: real time    0.01
     EDDAV:  cpu time    0.22: real time    0.21
       DOS:  cpu time    0.00: real time    0.00
    CHARGE:  cpu time    0.02: real time    0.02
    MIXING:  cpu time    0.01: real time    0.01
    --------------------------------------------
      LOOP:  cpu time    0.40: real time    0.41

 eigenvalue-minimisations  :   152
 total energy-change (2. order) :-0.4138149E-03  (-0.5133685E-05)
 number of electron      65.9999879 magnetization      -0.0003575
 augmentation part       31.5886492 magnetization      -0.0004128

 Broyden mixing:
  rms(total) = 0.43631E-03    rms(broyden)= 0.43627E-03
  rms(prec ) = 0.73931E-03
  weight for this iteration     100.00

 eigenvalues of (default mixing * dielectric matrix)
  average eigenvalue GAMMA=   1.6881
  5.0762  4.3366  2.6037  2.3018  1.7834  1.2850  1.0921  0.9265  0.9265  0.7247
  0.7247  0.6363  0.6082  0.6082

 Free energy of the ion-electron system (eV)
  ---------------------------------------------------
  alpha Z        PSCENC =         6.30738319
  Ewald energy   TEWEN  =      3892.65896006
  -Hartree energ DENC   =     -9815.19605466
  -exchange      EXHF   =         0.00000000
  -V(xc)+E(xc)   XCENC  =       -67.32393211
  PAW double counting   =      6978.64468858    -6718.14508507
  entropy T*S    EENTRO =         0.00000000
  eigenvalues    EBANDS =      -504.80166751
  atomic energy  EATOM  =      6223.19178052
  ---------------------------------------------------
  free energy    TOTEN  =        -4.66392699 eV

  energy without entropy =       -4.66392699  energy(sigma->0) =       -4.66392699


--------------------------------------------------------------------------------------------------------




----------------------------------------- Iteration    1(  20)  ---------------------------------------


    POTLOK:  cpu time    0.15: real time    0.15
    SETDIJ:  cpu time    0.00: real time    0.01
     EDDAV:  cpu time    0.19: real time    0.19
       DOS:  cpu time    0.00: real time    0.00
    CHARGE:  cpu time    0.03: real time    0.03
    MIXING:  cpu time    0.00: real time    0.01
    --------------------------------------------
      LOOP:  cpu time    0.38: real time    0.47

 eigenvalue-minimisations  :   124
 total energy-change (2. order) :-0.3085390E-03  (-0.4399919E-05)
 number of electron      65.9999879 magnetization       0.0000840
 augmentation part       31.5887116 magnetization       0.0000662

 Broyden mixing:
  rms(total) = 0.24038E-03    rms(broyden)= 0.24036E-03
  rms(prec ) = 0.45365E-03
  weight for this iteration     100.00

 eigenvalues of (default mixing * dielectric matrix)
  average eigenvalue GAMMA=   1.7299
  5.4831  4.7096  2.7970  2.3545  1.9759  1.4860  1.1705  0.9764  0.8729  0.8729
  0.7656  0.6399  0.6399  0.6241  0.5804

 Free energy of the ion-electron system (eV)
  ---------------------------------------------------
  alpha Z        PSCENC =         6.30738319
  Ewald energy   TEWEN  =      3892.65896006
  -Hartree energ DENC   =     -9815.06426742
  -exchange      EXHF   =         0.00000000
  -V(xc)+E(xc)   XCENC  =       -67.32548809
  PAW double counting   =      6978.48315719    -6717.98194409
  entropy T*S    EENTRO =         0.00000000
  eigenvalues    EBANDS =      -504.93381689
  atomic energy  EATOM  =      6223.19178052
  ---------------------------------------------------
  free energy    TOTEN  =        -4.66423553 eV

  energy without entropy =       -4.66423553  energy(sigma->0) =       -4.66423553


--------------------------------------------------------------------------------------------------------




----------------------------------------- Iteration    1(  21)  ---------------------------------------


    POTLOK:  cpu time    0.15: real time    0.15
    SETDIJ:  cpu time    0.01: real time    0.01
     EDDAV:  cpu time    0.20: real time    0.21
       DOS:  cpu time    0.00: real time    0.00
    --------------------------------------------
      LOOP:  cpu time    0.36: real time    0.37

 eigenvalue-minimisations  :   144
 total energy-change (2. order) :-0.3518234E-04  (-0.8033694E-06)
 number of electron      65.9999879 magnetization       0.0000840
 augmentation part       31.5887116 magnetization       0.0000662

 Free energy of the ion-electron system (eV)
  ---------------------------------------------------
  alpha Z        PSCENC =         6.30738319
  Ewald energy   TEWEN  =      3892.65896006
  -Hartree energ DENC   =     -9815.00631295
  -exchange      EXHF   =         0.00000000
  -V(xc)+E(xc)   XCENC  =       -67.32598879
  PAW double counting   =      6978.51870581    -6718.01758377
  entropy T*S    EENTRO =        -0.00000000
  eigenvalues    EBANDS =      -504.99121479
  atomic energy  EATOM  =      6223.19178052
  ---------------------------------------------------
  free energy    TOTEN  =        -4.66427071 eV

  energy without entropy =       -4.66427071  energy(sigma->0) =       -4.66427071


--------------------------------------------------------------------------------------------------------




 average (electrostatic) potential at core
  the test charge radii are     1.1249
  (the norm of the test charge is              1.0000)
       1 -82.5160       2 -82.5660       3 -82.3796       4 -82.7290       5 -82.4718
       6 -82.4861
 
 
 
 E-fermi :  -4.6296     XC(G=0):  -0.6160     alpha+bet : -0.2837


 spin component 1

 k-point     1 :       0.0000    0.0000    0.0000
  band No.  band energies     occupation 
      1     -10.2674      1.00000
      2     -10.0139      1.00000
      3      -9.9591      1.00000
      4      -9.8125      1.00000
      5      -9.4911      1.00000
      6      -9.4238      1.00000
      7      -9.3612      1.00000
      8      -9.0092      1.00000
      9      -8.9527      1.00000
     10      -8.5926      1.00000
     11      -8.4429      1.00000
     12      -8.2606      1.00000
     13      -7.8225      1.00000
     14      -7.7321      1.00000
     15      -7.6623      1.00000
     16      -7.5146      1.00000
     17      -7.5052      1.00000
     18      -7.3007      1.00000
     19      -7.1951      1.00000
     20      -7.1679      1.00000
     21      -7.1205      1.00000
     22      -7.0145      1.00000
     23      -6.8804      1.00000
     24      -6.7060      1.00000
     25      -6.6319      1.00000
     26      -6.4853      1.00000
     27      -6.4198      1.00000
     28      -6.2734      1.00000
     29      -6.1742      1.00000
     30      -6.0851      1.00000
     31      -5.7374      1.00000
     32      -4.8485      1.00000
     33      -4.6312      1.00000
     34      -3.1072      0.00000
     35      -2.2862      0.00000
     36      -2.0686      0.00000
     37      -1.6563      0.00000
     38      -0.9520      0.00000
     39      -0.9237      0.00000
     40      -0.2144      0.00000
     41      -0.0278      0.00000
     42       0.0076      0.00000
     43       0.3358      0.00000
     44       0.5421      0.00000

 spin component 2

 k-point     1 :       0.0000    0.0000    0.0000
  band No.  band energies     occupation 
      1     -10.2674      1.00000
      2     -10.0139      1.00000
      3      -9.9591      1.00000
      4      -9.8126      1.00000
      5      -9.4911      1.00000
      6      -9.4238      1.00000
      7      -9.3612      1.00000
      8      -9.0092      1.00000
      9      -8.9527      1.00000
     10      -8.5926      1.00000
     11      -8.4429      1.00000
     12      -8.2606      1.00000
     13      -7.8225      1.00000
     14      -7.7321      1.00000
     15      -7.6624      1.00000
     16      -7.5146      1.00000
     17      -7.5052      1.00000
     18      -7.3008      1.00000
     19      -7.1951      1.00000
     20      -7.1679      1.00000
     21      -7.1205      1.00000
     22      -7.0145      1.00000
     23      -6.8804      1.00000
     24      -6.7061      1.00000
     25      -6.6319      1.00000
     26      -6.4853      1.00000
     27      -6.4198      1.00000
     28      -6.2734      1.00000
     29      -6.1742      1.00000
     30      -6.0851      1.00000
     31      -5.7375      1.00000
     32      -4.8484      1.00000
     33      -4.6311      1.00000
     34      -3.1068      0.00000
     35      -2.2858      0.00000
     36      -2.0682      0.00000
     37      -1.6556      0.00000
     38      -0.9504      0.00000
     39      -0.9217      0.00000
     40      -0.2111      0.00000
     41      -0.0189      0.00000
     42       0.0139      0.00000
     43       0.2945      0.00000
     44       0.5711      0.00000


--------------------------------------------------------------------------------------------------------


 soft charge-density along one line, spin component           1
         0         1         2         3         4         5         6         7         8         9
 total charge-density along one line
 
 soft charge-density along one line, spin component           2
         0         1         2         3         4         5         6         7         8         9
 total charge-density along one line
 
 pseudopotential strength for first ion, spin component:           1
-10.494  -0.032   0.003  -0.017  -0.005 -10.462  -0.031   0.003
 -0.032 -10.465  -0.004  -0.004   0.015  -0.031 -10.433  -0.004
  0.003  -0.004 -10.444  -0.017  -0.021   0.003  -0.004 -10.414
 -0.017  -0.004  -0.017 -10.454  -0.045  -0.016  -0.004  -0.016
 -0.005   0.015  -0.021  -0.045 -10.523  -0.005   0.015  -0.020
-10.462  -0.031   0.003  -0.016  -0.005 -10.405  -0.030   0.003
 -0.031 -10.433  -0.004  -0.004   0.015  -0.030 -10.378  -0.004
  0.003  -0.004 -10.414  -0.016  -0.020   0.003  -0.004 -10.359
 -0.016  -0.004  -0.016 -10.423  -0.044  -0.016  -0.004  -0.016
 -0.005   0.015  -0.020  -0.044 -10.489  -0.005   0.014  -0.019
  0.001   0.006  -0.012   0.015  -0.004   0.001   0.006  -0.012
  0.001   0.010  -0.019   0.025  -0.007   0.001   0.010  -0.019
 -0.001   0.007   0.007  -0.001   0.011  -0.001   0.006   0.008
 -0.001  -0.002   0.014  -0.004  -0.002  -0.001  -0.003   0.013
 -0.004  -0.001   0.003   0.002  -0.008  -0.004  -0.001   0.003
 -0.004   0.006   0.011  -0.002   0.017  -0.005   0.006   0.012
 -0.002  -0.007   0.015  -0.008  -0.003  -0.002  -0.008   0.014
 -0.009  -0.002   0.005   0.001  -0.013  -0.010  -0.002   0.005
 pseudopotential strength for first ion, spin component:           2
-10.494  -0.032   0.003  -0.017  -0.005 -10.462  -0.031   0.003
 -0.032 -10.465  -0.004  -0.004   0.015  -0.031 -10.433  -0.004
  0.003  -0.004 -10.444  -0.017  -0.021   0.003  -0.004 -10.414
 -0.017  -0.004  -0.017 -10.454  -0.045  -0.016  -0.004  -0.016
 -0.005   0.015  -0.021  -0.045 -10.523  -0.005   0.015  -0.020
-10.462  -0.031   0.003  -0.016  -0.005 -10.405  -0.030   0.003
 -0.031 -10.433  -0.004  -0.004   0.015  -0.030 -10.378  -0.004
  0.003  -0.004 -10.414  -0.016  -0.020   0.003  -0.004 -10.359
 -0.016  -0.004  -0.016 -10.423  -0.044  -0.016  -0.004  -0.016
 -0.005   0.015  -0.020  -0.044 -10.489  -0.005   0.014  -0.019
  0.001   0.006  -0.012   0.015  -0.004   0.001   0.006  -0.012
  0.001   0.010  -0.019   0.025  -0.007   0.001   0.010  -0.019
 -0.001   0.007   0.007  -0.001   0.011  -0.001   0.006   0.008
 -0.001  -0.002   0.014  -0.004  -0.002  -0.001  -0.003   0.013
 -0.004  -0.001   0.003   0.002  -0.008  -0.004  -0.001   0.003
 -0.004   0.006   0.011  -0.002   0.017  -0.005   0.006   0.012
 -0.002  -0.007   0.015  -0.008  -0.003  -0.002  -0.008   0.014
 -0.009  -0.002   0.005   0.001  -0.013  -0.010  -0.002   0.005
 total augmentation occupancy for first ion, spin component:           1
  3.943   0.372  -0.335   0.253  -0.005  -2.047  -0.414   0.319  -0.308  -0.045  -0.132   0.121   0.196   0.018   0.249  -0.014
  0.372   3.367   0.010   0.231  -0.282  -0.414  -1.429  -0.002  -0.241   0.316  -0.491   0.122   0.151   0.197   0.033  -0.006
 -0.335   0.010   3.204  -0.012   0.100   0.319  -0.001  -1.256  -0.015  -0.188   0.908  -0.226  -0.209   0.043  -0.177   0.018
  0.253   0.231  -0.012   3.324   0.417  -0.307  -0.241  -0.015  -1.451  -0.575  -1.053   0.231   0.065   0.191   0.207  -0.004
 -0.005  -0.282   0.100   0.417   4.459  -0.045   0.316  -0.189  -0.575  -2.788   0.198  -0.051  -0.334   0.010   0.289   0.027
 -2.047  -0.414   0.319  -0.307  -0.045   2.136   0.452  -0.308   0.357   0.091   0.134  -0.109  -0.183  -0.021  -0.253   0.013
 -0.414  -1.429  -0.001  -0.241   0.316   0.452   1.478  -0.007   0.252  -0.350   0.424  -0.091  -0.163  -0.204  -0.033   0.010
  0.319  -0.002  -1.256  -0.015  -0.189  -0.308  -0.007   1.297   0.036   0.270  -0.802   0.172   0.229  -0.052   0.170  -0.014
 -0.308  -0.241  -0.015  -1.451  -0.575   0.357   0.252   0.036   1.558   0.721   0.888  -0.156  -0.056  -0.210  -0.239   0.003
 -0.045   0.316  -0.188  -0.575  -2.788   0.091  -0.350   0.270   0.721   3.091  -0.172   0.028   0.369  -0.024  -0.315  -0.022
 -0.132  -0.491   0.908  -1.053   0.198   0.134   0.424  -0.802   0.888  -0.172   2.357  -0.277  -0.294  -0.179  -0.234   0.015
  0.121   0.122  -0.226   0.231  -0.051  -0.109  -0.091   0.172  -0.156   0.028  -0.277   0.062   0.057   0.025   0.053  -0.004
  0.196   0.151  -0.209   0.065  -0.334  -0.183  -0.163   0.229  -0.056   0.369  -0.294   0.057   0.114   0.018   0.014  -0.007
  0.018   0.197   0.043   0.191   0.010  -0.021  -0.204  -0.052  -0.210  -0.024  -0.179   0.025   0.018   0.057   0.022  -0.001
  0.249   0.033  -0.177   0.207   0.289  -0.253  -0.033   0.170  -0.239  -0.315  -0.234   0.053   0.014   0.022   0.113  -0.001
 -0.014  -0.006   0.018  -0.004   0.027   0.013   0.010  -0.014   0.003  -0.022   0.015  -0.004  -0.007  -0.001  -0.001   0.000
 -0.003  -0.013   0.007  -0.016  -0.002   0.002   0.014   0.003   0.014   0.001   0.012  -0.002  -0.001  -0.004  -0.001   0.000
 -0.018  -0.003   0.013  -0.012  -0.023   0.017   0.002  -0.010   0.014   0.018   0.013  -0.003  -0.001  -0.001  -0.007   0.000
 total augmentation occupancy for first ion, spin component:           2
 -0.000  -0.000   0.000   0.000  -0.000   0.000   0.000  -0.000   0.000   0.000  -0.000   0.000  -0.000  -0.000  -0.000   0.000
 -0.000   0.000  -0.000   0.000  -0.000   0.000  -0.000   0.000  -0.000   0.000  -0.000   0.000  -0.000  -0.000  -0.000   0.000
  0.000  -0.000  -0.000  -0.000   0.000  -0.000   0.000   0.000   0.000  -0.000   0.000  -0.000   0.000  -0.000   0.000  -0.000
  0.000   0.000  -0.000   0.000   0.000  -0.000  -0.000   0.000  -0.000  -0.000   0.000  -0.000   0.000   0.000  -0.000  -0.000
 -0.000  -0.000   0.000   0.000   0.000   0.000   0.000  -0.000  -0.000  -0.000   0.000  -0.000   0.000  -0.000  -0.000  -0.000
  0.000   0.000  -0.000  -0.000   0.000  -0.000  -0.000   0.000  -0.000  -0.000   0.000  -0.000   0.000   0.000   0.000   0.000
  0.000  -0.000   0.000  -0.000   0.000  -0.000   0.000  -0.000   0.000  -0.000   0.000  -0.000  -0.000  -0.000   0.000  -0.000
 -0.000   0.000   0.000   0.000  -0.000   0.000  -0.000  -0.000  -0.000   0.000   0.000  -0.000  -0.000   0.000  -0.000   0.000
  0.000  -0.000   0.000  -0.000  -0.000  -0.000   0.000  -0.000   0.000   0.000   0.000  -0.000  -0.000  -0.000  -0.000   0.000
  0.000   0.000  -0.000  -0.000  -0.000  -0.000  -0.000   0.000   0.000   0.000   0.000  -0.000   0.000   0.000  -0.000   0.000
 -0.000  -0.000   0.000   0.000   0.000   0.000   0.000   0.000   0.000   0.000  -0.000   0.000  -0.000  -0.000  -0.000   0.000
  0.000   0.000  -0.000  -0.000  -0.000  -0.000  -0.000  -0.000  -0.000  -0.000   0.000   0.000   0.000   0.000   0.000  -0.000
 -0.000  -0.000   0.000   0.000   0.000   0.000  -0.000  -0.000  -0.000   0.000  -0.000   0.000  -0.000   0.000  -0.000   0.000
 -0.000  -0.000  -0.000   0.000  -0.000   0.000  -0.000   0.000  -0.000   0.000  -0.000   0.000   0.000  -0.000   0.000   0.000
 -0.000  -0.000   0.000  -0.000  -0.000   0.000   0.000  -0.000  -0.000  -0.000  -0.000   0.000  -0.000   0.000  -0.000  -0.000
  0.000   0.000  -0.000  -0.000  -0.000   0.000  -0.000   0.000   0.000   0.000   0.000  -0.000   0.000   0.000  -0.000  -0.000
 -0.000   0.000   0.000  -0.000  -0.000   0.000  -0.000  -0.000   0.000   0.000   0.000  -0.000  -0.000   0.000  -0.000   0.000
  0.000  -0.000  -0.000   0.000  -0.000  -0.000   0.000   0.000  -0.000   0.000  -0.000  -0.000   0.000   0.000   0.000  -0.000


------------------------ aborting loop because EDIFF is reached ----------------------------------------


    CHARGE:  cpu time    0.02: real time    0.02
    FORLOC:  cpu time    0.00: real time    0.00
    FORNL :  cpu time    0.06: real time    0.06
    STRESS:  cpu time    0.08: real time    0.08
    FORCOR:  cpu time    0.15: real time    0.15
    FORHAR:  cpu time    0.02: real time    0.02
    MIXING:  cpu time    0.01: real time    0.01
    OFIELD:  cpu time    0.00: real time    0.00

  FORCE on cell =-STRESS in cart. coord.  units (eV):
  Direction    XX          YY          ZZ          XY          YZ          ZX
  --------------------------------------------------------------------------------------
  Alpha Z     6.30738     6.30738     6.30738
  Ewald    1819.96164  2542.91640  -470.22165  -116.11161   314.89000  -707.11377
  Hartree  3732.69507  4198.51319  1883.71377   -98.89490   199.48851  -595.14748
  E(xc)    -350.64825  -350.39882  -351.46532    -0.08445     0.18225    -0.35937
  Local   -6530.51302 -7698.11150 -2404.99772   214.76597  -504.45393  1303.51679
  n-local   -37.92585   -28.11421   -44.31528     0.96910     4.02933     0.38894
  augment   548.11208   541.83645   552.06969    -0.01779    -2.96579    -0.14156
  Kinetic   829.21751   824.03409   833.03754     0.79634    -2.65818     0.70249
  Fock        0.00000     0.00000     0.00000     0.00000     0.00000     0.00000
  -------------------------------------------------------------------------------------
  Total      17.20657    36.98298     4.12842     1.42266     8.51219     1.84605
  in kB       5.67855    12.20520     1.36247     0.46951     2.80921     0.60924
  external pressure =        6.42 kB  Pullay stress =        0.00 kB


 VOLUME and BASIS-vectors are now :
 -----------------------------------------------------------------------------
  energy-cutoff  :      249.84
  volume of cell :     4854.76
      direct lattice vectors                 reciprocal lattice vectors
    16.932554744  0.000000000  0.000000000     0.059057834  0.000000000  0.000000000
     0.000000000 16.932554744  0.000000000     0.000000000  0.059057834  0.000000000
     0.000000000  0.000000000 16.932554744     0.000000000  0.000000000  0.059057834

  length of vectors
    16.932554744 16.932554744 16.932554744     0.059057834  0.059057834  0.059057834


 FORCES acting on ions
    electron-ion (+dipol)            ewald-force                    non-local-force                 convergence-correction
 -----------------------------------------------------------------------------------------------
   -.526E+03 -.577E+03 -.165E+03   0.527E+03 0.576E+03 0.163E+03   0.435E+01 0.623E+01 0.473E+01   0.133E-02 0.124E-02 0.626E-03
   -.629E+03 0.198E+03 0.242E+02   0.629E+03 -.197E+03 -.248E+02   0.412E+01 -.311E+00 0.108E+01   0.700E-03 0.910E-03 0.118E-02
   -.166E+02 0.717E+03 0.262E+03   0.150E+02 -.717E+03 -.260E+03   -.140E+01 -.746E+01 -.446E+01   -.387E-04 -.320E-02 -.435E-03
   0.259E+03 -.407E+03 0.550E+03   -.259E+03 0.407E+03 -.545E+03   -.415E+01 -.355E+00 -.748E+01   -.137E-02 0.182E-02 -.538E-03
   0.358E+03 0.459E+03 -.285E+03   -.356E+03 -.462E+03 0.283E+03   0.777E+00 -.457E+01 0.161E+01   -.955E-03 0.127E-02 0.363E-03
   0.555E+03 -.391E+03 -.386E+03   -.555E+03 0.392E+03 0.384E+03   -.422E+01 0.658E+01 0.495E+01   -.789E-03 0.167E-03 -.193E-03
 -----------------------------------------------------------------------------------------------
   0.519E+00 -.124E+00 -.409E+00   0.114E-12 0.568E-13 0.114E-12   -.519E+00 0.116E+00 0.428E+00   -.113E-02 0.221E-02 0.100E-02
 
 
 POSITION                                       TOTAL-FORCE (eV/Angst)
 -----------------------------------------------------------------------------------
     10.14222     10.20533      8.66407         4.706457      6.129354      2.843641
     10.16251      7.98531      8.34140         3.862917      0.616650      0.535650
      8.99130      6.20586      7.91142        -3.080052     -6.716588     -1.935505
      8.14959      9.86893      7.68983        -3.637364     -0.448663     -3.071044
      7.44618      7.65665      9.25615         2.407239     -7.094357     -0.992759
      6.63607      9.59214      9.64670        -4.259198      7.513604      2.620018
 -----------------------------------------------------------------------------------
    total drift:                               -0.001690     -0.005860      0.020242


--------------------------------------------------------------------------------------------------------



  FREE ENERGIE OF THE ION-ELECTRON SYSTEM (eV)
  ---------------------------------------------------
  free  energy   TOTEN  =        -4.66427071 eV

  energy  without entropy=       -4.66427071  energy(sigma->0) =       -4.66427071
 


--------------------------------------------------------------------------------------------------------


    POTLOK:  cpu time    0.16: real time    0.16


--------------------------------------------------------------------------------------------------------




--------------------------------------------------------------------------------------------------------


    WAVPRE:  cpu time    0.01: real time    0.01
 FEWALD executed in parallel
    FEWALD:  cpu time    0.00: real time    0.00
    ORTHCH:  cpu time    0.01: real time    0.01
     LOOP+:  cpu time    8.92: real time    9.23


----------------------------------------- Iteration    2(   1)  ---------------------------------------


    POTLOK:  cpu time    0.15: real time    0.15
    SETDIJ:  cpu time    0.00: real time    0.01
     EDDAV:  cpu time    0.24: real time    0.24
       DOS:  cpu time    0.00: real time    0.00
    CHARGE:  cpu time    0.02: real time    0.02
    MIXING:  cpu time    0.00: real time    0.01
    --------------------------------------------
      LOOP:  cpu time    0.42: real time    0.43

 eigenvalue-minimisations  :   176
 total energy-change (2. order) :-0.2135507E+01  (-0.2009802E+02)
 number of electron      66.0000155 magnetization       0.0004340
 augmentation part       31.6516041 magnetization       0.0003347

 Broyden mixing:
  rms(total) = 0.42033E+00    rms(broyden)= 0.42015E+00
  rms(prec ) = 0.42057E+00
  weight for this iteration     100.00

 Free energy of the ion-electron system (eV)
  ---------------------------------------------------
  alpha Z        PSCENC =         6.30738319
  Ewald energy   TEWEN  =      3660.95945318
  -Hartree energ DENC   =     -9591.30646675
  -exchange      EXHF   =         0.00000000
  -V(xc)+E(xc)   XCENC  =       -68.17202274
  PAW double counting   =      6978.62064230    -6718.12013119
  entropy T*S    EENTRO =         0.00000000
  eigenvalues    EBANDS =      -498.28038127
  atomic energy  EATOM  =      6223.19178052
  ---------------------------------------------------
  free energy    TOTEN  =        -6.79974276 eV

  energy without entropy =       -6.79974276  energy(sigma->0) =       -6.79974276


--------------------------------------------------------------------------------------------------------




----------------------------------------- Iteration    2(   2)  ---------------------------------------


    POTLOK:  cpu time    0.15: real time    0.15
    SETDIJ:  cpu time    0.01: real time    0.01
     EDDAV:  cpu time    0.25: real time    0.25
       DOS:  cpu time    0.00: real time    0.00
    CHARGE:  cpu time    0.02: real time    0.02
    MIXING:  cpu time    0.00: real time    0.00
    --------------------------------------------
      LOOP:  cpu time    0.44: real time    0.44

 eigenvalue-minimisations  :   188
 total energy-change (2. order) :-0.8723964E-01  (-0.9180589E-01)
 number of electron      66.0000154 magnetization       0.0002276
 augmentation part       31.6229241 magnetization       0.0002013

 Broyden mixing:
  rms(total) = 0.29555E+00    rms(broyden)= 0.29554E+00
  rms(prec ) = 0.29629E+00
  weight for this iteration     100.00

 eigenvalues of (default mixing * dielectric matrix)
  average eigenvalue GAMMA=   2.5327
  2.5327

 Free energy of the ion-electron system (eV)
  ---------------------------------------------------
  alpha Z        PSCENC =         6.30738319
  Ewald energy   TEWEN  =      3660.95945318
  -Hartree energ DENC   =     -9592.78748631
  -exchange      EXHF   =         0.00000000
  -V(xc)+E(xc)   XCENC  =       -68.13317927
  PAW double counting   =      6922.58482721    -6661.14742724
  entropy T*S    EENTRO =         0.00000000
  eigenvalues    EBANDS =      -497.86233369
  atomic energy  EATOM  =      6223.19178052
  ---------------------------------------------------
  free energy    TOTEN  =        -6.88698240 eV

  energy without entropy =       -6.88698240  energy(sigma->0) =       -6.88698240


--------------------------------------------------------------------------------------------------------




----------------------------------------- Iteration    2(   3)  ---------------------------------------


    POTLOK:  cpu time    0.15: real time    0.15
    SETDIJ:  cpu time    0.00: real time    0.01
     EDDAV:  cpu time    0.24: real time    0.24
       DOS:  cpu time    0.00: real time    0.00
    CHARGE:  cpu time    0.03: real time    0.02
    MIXING:  cpu time    0.00: real time    0.00
    --------------------------------------------
      LOOP:  cpu time    0.43: real time    0.43

 eigenvalue-minimisations  :   180
 total energy-change (2. order) : 0.3256256E-02  (-0.6221419E-02)
 number of electron      66.0000155 magnetization       0.0001788
 augmentation part       31.6489738 magnetization       0.0002225

 Broyden mixing:
  rms(total) = 0.33466E-01    rms(broyden)= 0.33455E-01
  rms(prec ) = 0.36133E-01
  weight for this iteration     100.00

 eigenvalues of (default mixing * dielectric matrix)
  average eigenvalue GAMMA=   1.7423
  2.5901  0.8946

 Free energy of the ion-electron system (eV)
  ---------------------------------------------------
  alpha Z        PSCENC =         6.30738319
  Ewald energy   TEWEN  =      3660.95945318
  -Hartree energ DENC   =     -9596.19307633
  -exchange      EXHF   =         0.00000000
  -V(xc)+E(xc)   XCENC  =       -68.10060002
  PAW double counting   =      6785.72094746    -6522.63855806
  entropy T*S    EENTRO =         0.00000000
  eigenvalues    EBANDS =      -496.13105608
  atomic energy  EATOM  =      6223.19178052
  ---------------------------------------------------
  free energy    TOTEN  =        -6.88372615 eV

  energy without entropy =       -6.88372615  energy(sigma->0) =       -6.88372615


--------------------------------------------------------------------------------------------------------




----------------------------------------- Iteration    2(   4)  ---------------------------------------


    POTLOK:  cpu time    0.15: real time    0.15
    SETDIJ:  cpu time    0.00: real time    0.01
     EDDAV:  cpu time    0.25: real time    0.25
       DOS:  cpu time    0.00: real time    0.00
    CHARGE:  cpu time    0.02: real time    0.02
    MIXING:  cpu time    0.00: real time    0.00
    --------------------------------------------
      LOOP:  cpu time    0.44: real time    0.44

 eigenvalue-minimisations  :   192
 total energy-change (2. order) : 0.1538259E-02  (-0.5265668E-03)
 number of electron      66.0000154 magnetization       0.0001408
 augmentation part       31.6397683 magnetization       0.0001560

 Broyden mixing:
  rms(total) = 0.12689E-01    rms(broyden)= 0.12687E-01
  rms(prec ) = 0.13930E-01
  weight for this iteration     100.00

 eigenvalues of (default mixing * dielectric matrix)
  average eigenvalue GAMMA=   1.5400
  2.4938  0.9381  1.1881

 Free energy of the ion-electron system (eV)
  ---------------------------------------------------
  alpha Z        PSCENC =         6.30738319
  Ewald energy   TEWEN  =      3660.95945318
  -Hartree energ DENC   =     -9596.72383400
  -exchange      EXHF   =         0.00000000
  -V(xc)+E(xc)   XCENC  =       -68.07376634
  PAW double counting   =      6773.47908163    -6510.31022398
  entropy T*S    EENTRO =         0.00000000
  eigenvalues    EBANDS =      -495.71206208
  atomic energy  EATOM  =      6223.19178052
  ---------------------------------------------------
  free energy    TOTEN  =        -6.88218789 eV

  energy without entropy =       -6.88218789  energy(sigma->0) =       -6.88218789


--------------------------------------------------------------------------------------------------------




----------------------------------------- Iteration    2(   5)  ---------------------------------------


    POTLOK:  cpu time    0.15: real time    0.15
    SETDIJ:  cpu time    0.00: real time    0.01
     EDDAV:  cpu time    0.27: real time    0.27
       DOS:  cpu time    0.00: real time    0.00
    CHARGE:  cpu time    0.02: real time    0.02
    MIXING:  cpu time    0.00: real time    0.00
    --------------------------------------------
      LOOP:  cpu time    0.45: real time    0.46

 eigenvalue-minimisations  :   208
 total energy-change (2. order) : 0.1893116E-03  (-0.1856018E-03)
 number of electron      66.0000154 magnetization       0.0001049
 augmentation part       31.6343987 magnetization       0.0001054

 Broyden mixing:
[...]
  ---------------------------------------------------
  alpha Z        PSCENC =         6.30738319
  Ewald energy   TEWEN  =      2770.56130401
  -Hartree energ DENC   =     -8734.42524260
  -exchange      EXHF   =         0.00000000
  -V(xc)+E(xc)   XCENC  =       -69.83499397
  PAW double counting   =      6378.37995208    -6109.57809723
  entropy T*S    EENTRO =         0.00000000
  eigenvalues    EBANDS =      -474.42952037
  atomic energy  EATOM  =      6223.19178052
  ---------------------------------------------------
  free energy    TOTEN  =        -9.82743436 eV

  energy without entropy =       -9.82743436  energy(sigma->0) =       -9.82743436


--------------------------------------------------------------------------------------------------------




----------------------------------------- Iteration   36(   3)  ---------------------------------------


    POTLOK:  cpu time    0.15: real time    0.15
    SETDIJ:  cpu time    0.00: real time    0.01
     EDDAV:  cpu time    0.16: real time    0.16
       DOS:  cpu time    0.00: real time    0.00
    --------------------------------------------
      LOOP:  cpu time    0.32: real time    1.05

 eigenvalue-minimisations  :    96
 total energy-change (2. order) :-0.1641231E-05  (-0.3829707E-05)
 number of electron      66.0000386 magnetization       0.0000000
 augmentation part       31.7813902 magnetization       0.0000000

 Free energy of the ion-electron system (eV)
  ---------------------------------------------------
  alpha Z        PSCENC =         6.30738319
  Ewald energy   TEWEN  =      2770.56130401
  -Hartree energ DENC   =     -8734.40458649
  -exchange      EXHF   =         0.00000000
  -V(xc)+E(xc)   XCENC  =       -69.83526225
  PAW double counting   =      6378.69243984    -6109.89636737
  entropy T*S    EENTRO =         0.00000000
  eigenvalues    EBANDS =      -474.44412746
  atomic energy  EATOM  =      6223.19178052
  ---------------------------------------------------
  free energy    TOTEN  =        -9.82743600 eV

  energy without entropy =       -9.82743600  energy(sigma->0) =       -9.82743600


--------------------------------------------------------------------------------------------------------




 average (electrostatic) potential at core
  the test charge radii are     1.1249
  (the norm of the test charge is              1.0000)
       1 -82.0982       2 -82.2012       3 -82.0958       4 -82.2025       5 -82.1996
       6 -82.0880
 
 
 
 E-fermi :  -4.8614     XC(G=0):  -0.6749     alpha+bet : -0.2837


 spin component 1

 k-point     1 :       0.0000    0.0000    0.0000
  band No.  band energies     occupation 
      1      -8.7660      1.00000
      2      -8.6938      1.00000
      3      -8.6921      1.00000
      4      -8.3480      1.00000
      5      -8.0432      1.00000
      6      -8.0295      1.00000
      7      -7.9975      1.00000
      8      -7.9865      1.00000
      9      -7.8340      1.00000
     10      -7.5788      1.00000
     11      -7.5226      1.00000
     12      -7.2972      1.00000
     13      -7.2958      1.00000
     14      -7.2862      1.00000
     15      -7.2596      1.00000
     16      -7.2406      1.00000
     17      -7.2365      1.00000
     18      -7.1255      1.00000
     19      -7.1183      1.00000
     20      -6.9724      1.00000
     21      -6.9629      1.00000
     22      -6.8207      1.00000
     23      -6.8152      1.00000
     24      -6.7667      1.00000
     25      -6.7006      1.00000
     26      -6.6974      1.00000
     27      -6.6883      1.00000
     28      -6.5395      1.00000
     29      -6.3823      1.00000
     30      -6.3754      1.00000
     31      -6.3723      1.00000
     32      -4.8906      1.00000
     33      -4.8858      1.00000
     34      -2.6948      0.00000
     35      -2.4460      0.00000
     36      -2.4324      0.00000
     37      -1.7805      0.00000
     38      -0.7897      0.00000
     39      -0.7840      0.00000
     40      -0.4342      0.00000
     41      -0.4310      0.00000
     42      -0.1593      0.00000
     43      -0.0942      0.00000
     44       0.1368      0.00000

 spin component 2

 k-point     1 :       0.0000    0.0000    0.0000
  band No.  band energies     occupation 
      1      -8.7660      1.00000
      2      -8.6938      1.00000
      3      -8.6921      1.00000
      4      -8.3480      1.00000
      5      -8.0432      1.00000
      6      -8.0295      1.00000
      7      -7.9975      1.00000
      8      -7.9865      1.00000
      9      -7.8340      1.00000
     10      -7.5788      1.00000
     11      -7.5226      1.00000
     12      -7.2972      1.00000
     13      -7.2958      1.00000
     14      -7.2862      1.00000
     15      -7.2596      1.00000
     16      -7.2406      1.00000
     17      -7.2365      1.00000
     18      -7.1255      1.00000
     19      -7.1183      1.00000
     20      -6.9724      1.00000
     21      -6.9629      1.00000
     22      -6.8207      1.00000
     23      -6.8152      1.00000
     24      -6.7667      1.00000
     25      -6.7006      1.00000
     26      -6.6974      1.00000
     27      -6.6883      1.00000
     28      -6.5395      1.00000
     29      -6.3823      1.00000
     30      -6.3754      1.00000
     31      -6.3723      1.00000
     32      -4.8906      1.00000
     33      -4.8858      1.00000
     34      -2.6948      0.00000
     35      -2.4460      0.00000
     36      -2.4324      0.00000
     37      -1.7805      0.00000
     38      -0.7897      0.00000
     39      -0.7840      0.00000
     40      -0.4342      0.00000
     41      -0.4310      0.00000
     42      -0.1593      0.00000
     43      -0.0942      0.00000
     44       0.1368      0.00000


--------------------------------------------------------------------------------------------------------


 soft charge-density along one line, spin component           1
         0         1         2         3         4         5         6         7         8         9
 total charge-density along one line
 
 soft charge-density along one line, spin component           2
         0         1         2         3         4         5         6         7         8         9
 total charge-density along one line
 
 pseudopotential strength for first ion, spin component:           1
-10.284   0.007   0.012  -0.001   0.002 -10.260   0.006   0.011
  0.007 -10.252  -0.001  -0.009   0.002   0.006 -10.229  -0.001
  0.012  -0.001 -10.246   0.003   0.001   0.011  -0.001 -10.223
 -0.001  -0.009   0.003 -10.255   0.010  -0.001  -0.008   0.003
  0.002   0.002   0.001   0.010 -10.295   0.002   0.002   0.001
-10.260   0.006   0.011  -0.001   0.002 -10.212   0.006   0.011
  0.006 -10.229  -0.001  -0.008   0.002   0.006 -10.183  -0.001
  0.011  -0.001 -10.223   0.003   0.001   0.011  -0.001 -10.177
 -0.001  -0.008   0.003 -10.232   0.010  -0.001  -0.008   0.003
  0.002   0.002   0.001   0.010 -10.271   0.002   0.002   0.001
  0.005   0.001  -0.010  -0.004   0.001   0.005   0.001  -0.010
  0.009   0.001  -0.016  -0.006   0.001   0.009   0.001  -0.016
  0.030  -0.004  -0.014   0.000  -0.026   0.028  -0.004  -0.014
  0.000   0.026  -0.005   0.030   0.000   0.000   0.026  -0.005
  0.026   0.000  -0.017  -0.004   0.029   0.025   0.000  -0.016
  0.036  -0.005  -0.018   0.000  -0.031   0.035  -0.005  -0.017
  0.000   0.032  -0.006   0.037   0.000   0.000   0.031  -0.006
  0.031   0.000  -0.020  -0.004   0.036   0.030   0.000  -0.019
 pseudopotential strength for first ion, spin component:           2
-10.284   0.007   0.012  -0.001   0.002 -10.260   0.006   0.011
  0.007 -10.252  -0.001  -0.009   0.002   0.006 -10.229  -0.001
  0.012  -0.001 -10.246   0.003   0.001   0.011  -0.001 -10.223
 -0.001  -0.009   0.003 -10.255   0.010  -0.001  -0.008   0.003
  0.002   0.002   0.001   0.010 -10.295   0.002   0.002   0.001
-10.260   0.006   0.011  -0.001   0.002 -10.212   0.006   0.011
  0.006 -10.229  -0.001  -0.008   0.002   0.006 -10.183  -0.001
  0.011  -0.001 -10.223   0.003   0.001   0.011  -0.001 -10.177
 -0.001  -0.008   0.003 -10.232   0.010  -0.001  -0.008   0.003
  0.002   0.002   0.001   0.010 -10.271   0.002   0.002   0.001
  0.005   0.001  -0.010  -0.004   0.001   0.005   0.001  -0.010
  0.009   0.001  -0.016  -0.006   0.001   0.009   0.001  -0.016
  0.030  -0.004  -0.014   0.000  -0.026   0.028  -0.004  -0.014
  0.000   0.026  -0.005   0.030   0.000   0.000   0.026  -0.005
  0.026   0.000  -0.017  -0.004   0.029   0.025   0.000  -0.016
  0.036  -0.005  -0.018   0.000  -0.031   0.035  -0.005  -0.017
  0.000   0.032  -0.006   0.037   0.000   0.000   0.031  -0.006
  0.031   0.000  -0.020  -0.004   0.036   0.030   0.000  -0.019
 total augmentation occupancy for first ion, spin component:           1
  2.426  -0.020  -0.155  -0.051   0.022  -0.465   0.030   0.204   0.052   0.003  -0.467   0.088   0.068  -0.009   0.067   0.012
 -0.020   2.255   0.005   0.034   0.006   0.030  -0.220  -0.004  -0.060   0.005  -0.013  -0.001  -0.004   0.011  -0.005  -0.002
 -0.155   0.005   2.381   0.042  -0.021   0.204  -0.004  -0.356  -0.045   0.019   0.684  -0.114  -0.063   0.008  -0.070  -0.003
 -0.051   0.034   0.042   2.282  -0.009   0.052  -0.060  -0.045  -0.268   0.063   0.261  -0.044  -0.015   0.017  -0.032   0.001
  0.022   0.006  -0.021  -0.009   2.267   0.003   0.005   0.019   0.063  -0.454  -0.050   0.010  -0.024  -0.008   0.036  -0.013
 -0.465   0.030   0.204   0.052   0.003   0.485  -0.038  -0.247  -0.053  -0.024   0.398  -0.070  -0.097   0.008  -0.088   0.008
  0.030  -0.220  -0.004  -0.060   0.005  -0.038   0.177   0.003   0.083  -0.015   0.006   0.004   0.005  -0.031   0.005  -0.000
  0.204  -0.004  -0.356  -0.045   0.019  -0.247   0.003   0.321   0.048  -0.018  -0.561   0.076   0.083  -0.005   0.092  -0.007
  0.052  -0.060  -0.045  -0.268   0.063  -0.053   0.083   0.048   0.242  -0.110  -0.215   0.029   0.013  -0.042   0.044  -0.001
  0.003   0.005   0.019   0.063  -0.454  -0.024  -0.015  -0.018  -0.110   0.598   0.044  -0.008   0.068   0.015  -0.079  -0.005
 -0.467  -0.013   0.684   0.261  -0.050   0.398   0.006  -0.561  -0.215   0.044   1.751  -0.153  -0.171   0.029  -0.196   0.014
  0.088  -0.001  -0.114  -0.044   0.010  -0.070   0.004   0.076   0.029  -0.008  -0.153   0.023   0.022  -0.004   0.025  -0.001
  0.068  -0.004  -0.063  -0.015  -0.024  -0.097   0.005   0.083   0.013   0.068  -0.171   0.022   0.037  -0.001   0.018  -0.003
 -0.009   0.011   0.008   0.017  -0.008   0.008  -0.031  -0.005  -0.042   0.015   0.029  -0.004  -0.001   0.010  -0.006   0.000
  0.067  -0.005  -0.070  -0.032   0.036  -0.088   0.005   0.092   0.044  -0.079  -0.196   0.025   0.018  -0.006   0.042  -0.002
  0.012  -0.002  -0.003   0.001  -0.013   0.008  -0.000  -0.007  -0.001  -0.005   0.014  -0.001  -0.003   0.000  -0.002   0.001
  0.001   0.015  -0.004   0.017   0.001  -0.001   0.002   0.001   0.003  -0.001  -0.002   0.000   0.000  -0.001   0.001  -0.000
  0.010   0.001  -0.004   0.001   0.015   0.007  -0.001  -0.008  -0.004   0.006   0.016  -0.002  -0.002   0.001  -0.004   0.000
 total augmentation occupancy for first ion, spin component:           2
  0.000   0.000   0.000   0.000  -0.000  -0.000  -0.000  -0.000  -0.000   0.000  -0.000   0.000  -0.000   0.000  -0.000   0.000
  0.000  -0.000  -0.000   0.000   0.000  -0.000   0.000   0.000  -0.000  -0.000  -0.000   0.000   0.000  -0.000   0.000   0.000
  0.000  -0.000  -0.000  -0.000  -0.000  -0.000   0.000   0.000   0.000   0.000  -0.000  -0.000   0.000  -0.000   0.000  -0.000
  0.000   0.000  -0.000  -0.000  -0.000  -0.000  -0.000   0.000   0.000   0.000  -0.000  -0.000   0.000  -0.000   0.000  -0.000
 -0.000   0.000  -0.000  -0.000  -0.000   0.000  -0.000   0.000   0.000   0.000   0.000  -0.000   0.000   0.000   0.000  -0.000
 -0.000  -0.000  -0.000  -0.000   0.000  -0.000   0.000   0.000   0.000  -0.000  -0.000  -0.000   0.000  -0.000   0.000  -0.000
 -0.000   0.000   0.000  -0.000  -0.000   0.000   0.000  -0.000  -0.000  -0.000   0.000  -0.000  -0.000   0.000  -0.000   0.000
 -0.000   0.000   0.000   0.000   0.000   0.000  -0.000  -0.000  -0.000  -0.000   0.000   0.000  -0.000   0.000  -0.000   0.000
 -0.000  -0.000   0.000   0.000   0.000   0.000  -0.000  -0.000  -0.000  -0.000   0.000   0.000  -0.000   0.000  -0.000   0.000
  0.000  -0.000   0.000   0.000   0.000  -0.000  -0.000  -0.000  -0.000   0.000  -0.000   0.000   0.000   0.000  -0.000   0.000
 -0.000  -0.000  -0.000  -0.000   0.000  -0.000   0.000   0.000   0.000  -0.000   0.000  -0.000  -0.000   0.000  -0.000  -0.000
  0.000   0.000  -0.000  -0.000  -0.000  -0.000  -0.000   0.000   0.000   0.000  -0.000   0.000   0.000  -0.000   0.000  -0.000
 -0.000   0.000   0.000   0.000   0.000   0.000  -0.000  -0.000  -0.000   0.000  -0.000   0.000  -0.000   0.000  -0.000   0.000
  0.000  -0.000  -0.000  -0.000   0.000  -0.000   0.000   0.000   0.000   0.000   0.000  -0.000   0.000  -0.000  -0.000  -0.000
 -0.000   0.000   0.000   0.000   0.000   0.000  -0.000  -0.000  -0.000  -0.000  -0.000   0.000  -0.000  -0.000  -0.000   0.000
  0.000   0.000  -0.000  -0.000  -0.000  -0.000   0.000   0.000   0.000   0.000  -0.000  -0.000   0.000  -0.000   0.000  -0.000
 -0.000   0.000   0.000   0.000  -0.000   0.000   0.000  -0.000  -0.000  -0.000   0.000  -0.000   0.000  -0.000   0.000  -0.000
  0.000  -0.000  -0.000  -0.000  -0.000  -0.000   0.000   0.000   0.000   0.000  -0.000  -0.000   0.000   0.000   0.000  -0.000


------------------------ aborting loop because EDIFF is reached ----------------------------------------


    CHARGE:  cpu time    0.02: real time    0.02
    FORLOC:  cpu time    0.00: real time    0.00
    FORNL :  cpu time    0.06: real time    0.06
    STRESS:  cpu time    0.08: real time    0.08
    FORCOR:  cpu time    0.15: real time    0.15
    FORHAR:  cpu time    0.02: real time    0.02
    MIXING:  cpu time    0.00: real time    0.00
    OFIELD:  cpu time    0.00: real time    0.00

  FORCE on cell =-STRESS in cart. coord.  units (eV):
  Direction    XX          YY          ZZ          XY          YZ          ZX
  --------------------------------------------------------------------------------------
  Alpha Z     6.30738     6.30738     6.30738
  Ewald    1971.19601  2259.68990 -1460.32705    94.48123   338.59201  -982.04349
  Hartree  3764.15463  4000.13615   970.03564    74.35852   270.21256  -782.00835
  E(xc)    -346.98391  -346.79989  -349.17992     0.07024     0.24229    -0.69968
  Local   -6694.31120 -7217.14228  -489.31279  -168.14612  -606.56380  1757.48397
  n-local   -70.41636   -70.69302   -67.77022    -0.04038    -0.30819     0.85111
  augment   548.31690   547.86151   554.09829    -0.19877    -0.63033     1.83765
  Kinetic   819.69610   818.51513   834.00172    -0.45524    -1.56340     4.55171
  Fock        0.00000     0.00000     0.00000     0.00000     0.00000     0.00000
  -------------------------------------------------------------------------------------
  Total      -2.04044    -2.12512    -2.14696     0.06948    -0.01885    -0.02708
  in kB      -0.67339    -0.70134    -0.70855     0.02293    -0.00622    -0.00894
  external pressure =       -0.69 kB  Pullay stress =        0.00 kB


 VOLUME and BASIS-vectors are now :
 -----------------------------------------------------------------------------
  energy-cutoff  :      249.84
  volume of cell :     4854.76
      direct lattice vectors                 reciprocal lattice vectors
    16.932554744  0.000000000  0.000000000     0.059057834  0.000000000  0.000000000
     0.000000000 16.932554744  0.000000000     0.000000000  0.059057834  0.000000000
     0.000000000  0.000000000 16.932554744     0.000000000  0.000000000  0.059057834

  length of vectors
    16.932554744 16.932554744 16.932554744     0.059057834  0.059057834  0.059057834


 FORCES acting on ions
    electron-ion (+dipol)            ewald-force                    non-local-force                 convergence-correction
 -----------------------------------------------------------------------------------------------
   -.431E+03 -.378E+03 0.727E+02   0.425E+03 0.373E+03 -.719E+02   0.591E+01 0.514E+01 -.840E+00   -.360E-01 -.748E-02 0.765E-02
   -.421E+03 0.152E+03 0.137E+03   0.419E+03 -.151E+03 -.136E+03   0.270E+01 -.955E+00 -.857E+00   0.276E-01 0.244E-02 -.104E-01
   -.890E+02 0.560E+03 0.891E+02   0.878E+02 -.552E+03 -.879E+02   0.121E+01 -.766E+01 -.123E+01   -.322E-01 0.544E-02 0.103E-01
   0.845E+02 -.455E+03 -.370E+02   -.839E+02 0.452E+03 0.370E+02   -.564E+00 0.293E+01 0.159E-01   -.615E-01 -.686E-01 0.176E-01
   0.344E+03 0.306E+03 -.784E+02   -.342E+03 -.304E+03 0.778E+02   -.221E+01 -.196E+01 0.560E+00   0.430E-01 0.468E-01 -.145E-01
   0.513E+03 -.185E+03 -.184E+03   -.506E+03 0.182E+03 0.181E+03   -.700E+01 0.248E+01 0.258E+01   0.577E-01 0.191E-01 -.102E-01
 -----------------------------------------------------------------------------------------------
   -.402E-01 0.271E-01 -.222E+00   0.000E+00 -.853E-13 0.000E+00   0.437E-01 -.226E-01 0.224E+00   -.136E-02 -.234E-02 0.427E-03
 
 
 POSITION                                       TOTAL-FORCE (eV/Angst)
 -----------------------------------------------------------------------------------
     10.88261     10.61198      8.16542         0.041146      0.016561     -0.018033
     10.04335      8.06303      8.10765        -0.020281      0.008382      0.007209
      9.07216      5.55879      8.11813         0.014164      0.004254      0.000928
      8.31386     10.15924      8.75062        -0.003751     -0.001628      0.019269
      7.40536      7.53423      8.83659        -0.031927     -0.003546      0.005987
      5.81054      9.58696      9.53116         0.000648     -0.024023     -0.015360
 -----------------------------------------------------------------------------------
    total drift:                                0.002059      0.002147      0.002362


--------------------------------------------------------------------------------------------------------



  FREE ENERGIE OF THE ION-ELECTRON SYSTEM (eV)
  ---------------------------------------------------
  free  energy   TOTEN  =        -9.82743600 eV

  energy  without entropy=       -9.82743600  energy(sigma->0) =       -9.82743600
 
 d Force = 0.2244728E-03[-0.230E-03, 0.679E-03]  d Energy = 0.2110956E-03 0.134E-04
 d Force =-0.5810563E+01[-0.582E+01,-0.580E+01]  d Ewald  =-0.5810549E+01-0.149E-04


--------------------------------------------------------------------------------------------------------


    POTLOK:  cpu time    0.16: real time    0.16


--------------------------------------------------------------------------------------------------------




--------------------------------------------------------------------------------------------------------


  
 reached required accuracy - stopping structural energy minimisation
     LOOP+:  cpu time    1.68: real time    3.57
    4ORBIT:  cpu time    0.00: real time    0.00

 total amount of memory used by VASP on root node    46514. kBytes
========================================================================

   base      :      30000. kBytes
   nonl-proj :        654. kBytes
   fftplans  :       4200. kBytes
   grid      :      10682. kBytes
   one-center:         15. kBytes
   wavefun   :        963. kBytes
 
  
  
 General timing and accounting informations for this job:
 ========================================================
  
                  Total CPU time used (sec):      110.979
                            User time (sec):      107.115
                          System time (sec):        3.864
                         Elapsed time (sec):      128.075
  
                   Maximum memory used (kb):       50400.
                   Average memory used (kb):           0.
  
                          Minor page faults:       633125
                          Major page faults:            0
                 Voluntary context switches:         6940
