unknown system                          
           1
    20.496261    0.000000    0.000000
     0.000000   20.496261    0.000000
     0.000000    0.000000   20.496261
   Ag
  26
Direct configuration=     1
   0.70809262  0.46609216  0.52399554
   0.57294889  0.34512043  0.66511097
   0.61324031  0.47304712  0.61687002
   0.62643513  0.36354923  0.54712188
   0.62719216  0.42740745  0.42594359
   0.63570497  0.58390896  0.54685012
   0.67431508  0.55293587  0.42599128
   0.46215129  0.39149893  0.61434098
   0.52006959  0.46467847  0.70501326
   0.67314625  0.67724163  0.46167454
   0.55322028  0.45218905  0.32285746
   0.58474918  0.59148926  0.66912003
   0.51341437  0.39253591  0.49059889
   0.54937826  0.55934398  0.39616842
   0.51224329  0.51811320  0.52585880
   0.54700678  0.68023658  0.44321972
   0.44365342  0.43655121  0.38945021
   0.45624000  0.56631690  0.65728046
   0.38220915  0.39190057  0.50244161
   0.51026224  0.64291469  0.56376054
   0.42610209  0.56654534  0.36511575
   0.38766156  0.52532850  0.48071719
   0.42553453  0.68976754  0.40563545
   0.36796149  0.48194090  0.60036074
   0.33782065  0.60667991  0.63074473
   0.38578377  0.64920356  0.52029519
Direct configuration=     2
   0.70823708  0.46618092  0.52401821
   0.57303676  0.34509968  0.66529158
   0.61330221  0.47293460  0.61688526
   0.62662234  0.36331083  0.54701798
   0.62715875  0.42739900  0.42597802
   0.63566023  0.58403159  0.54685839
   0.67465345  0.55278678  0.42575421
   0.46198467  0.39142117  0.61423894
   0.52001801  0.46475400  0.70540927
   0.67340163  0.67746715  0.46164468
   0.55327449  0.45219922  0.32254495
   0.58475468  0.59148125  0.66927239
   0.51349580  0.39224784  0.49046581
   0.54939211  0.55920824  0.39620518
   0.51232974  0.51810377  0.52592514
   0.54702048  0.68038422  0.44315716
   0.44348926  0.43664843  0.38942496
   0.45618195  0.56621766  0.65743065
   0.38208785  0.39176862  0.50250642
   0.51036165  0.64316762  0.56380488
   0.42599683  0.56655490  0.36482571
   0.38752485  0.52527191  0.48055388
   0.42544206  0.68996666  0.40548862
   0.36779493  0.48183130  0.60070092
   0.33756145  0.60668783  0.63086370
   0.38575408  0.64941216  0.52027046
Direct configuration=     3
   0.70867045  0.46644722  0.52408622
   0.57330037  0.34503742  0.66583340
   0.61348791  0.47259703  0.61693097
   0.62718398  0.36259564  0.54670627
   0.62705854  0.42737365  0.42608131
   0.63552602  0.58439948  0.54688320
   0.67566853  0.55233950  0.42504300
   0.46148483  0.39118789  0.61393281
   0.51986324  0.46498058  0.70659729
   0.67416777  0.67814372  0.46155509
   0.55343713  0.45222973  0.32160742
   0.58477118  0.59145721  0.66972949
   0.51374010  0.39138362  0.49006658
   0.54943369  0.55880103  0.39631545
   0.51258909  0.51807551  0.52612417
   0.54706158  0.68082716  0.44296947
   0.44299679  0.43694007  0.38934920
   0.45600779  0.56591993  0.65788123
   0.38172395  0.39137279  0.50270086
   0.51065987  0.64392639  0.56393791
   0.42568108  0.56658356  0.36395561
   0.38711473  0.52510212  0.48006396
   0.42516466  0.69056402  0.40504812
   0.36729524  0.48150251  0.60172144
   0.33678384  0.60671161  0.63122059
   0.38566499  0.65003798  0.52019629
Direct configuration=     4
   0.70953720  0.46697981  0.52422224
   0.57382758  0.34491292  0.66691704
   0.61385930  0.47192190  0.61702241
   0.62830727  0.36116525  0.54608285
   0.62685811  0.42732294  0.42628788
   0.63525759  0.58513525  0.54693282
   0.67769871  0.55144493  0.42362057
   0.46048513  0.39072131  0.61332056
   0.51955370  0.46543375  0.70897334
   0.67570006  0.67949684  0.46137592
   0.55376241  0.45229075  0.31973237
   0.58480419  0.59140914  0.67064370
   0.51422871  0.38965518  0.48926811
   0.54951683  0.55798659  0.39653600
   0.51310778  0.51801898  0.52652224
   0.54714379  0.68171304  0.44259408
   0.44201185  0.43752337  0.38919768
   0.45565948  0.56532448  0.65878238
   0.38099615  0.39058112  0.50308973
   0.51125631  0.64544395  0.56420395
   0.42504956  0.56664089  0.36221540
   0.38629450  0.52476254  0.47908411
   0.42460986  0.69175874  0.40416714
   0.36629585  0.48084494  0.60376249
   0.33522862  0.60675915  0.63193438
   0.38548681  0.65128963  0.52004794
Direct configuration=     5
   0.71127070  0.46804500  0.52449428
   0.57488202  0.34466390  0.66908432
   0.61460209  0.47057164  0.61720528
   0.63055383  0.35830446  0.54483602
   0.62645725  0.42722153  0.42670104
   0.63472074  0.58660679  0.54703207
   0.68175906  0.54965579  0.42077573
   0.45848574  0.38978817  0.61209604
   0.51893463  0.46634008  0.71372543
   0.67876462  0.68220309  0.46101759
   0.55441296  0.45241278  0.31598226
   0.58487022  0.59131299  0.67247210
   0.51520592  0.38619829  0.48767118
   0.54968312  0.55635773  0.39697711
   0.51414517  0.51790593  0.52731837
   0.54730821  0.68348479  0.44184332
   0.44004195  0.43868995  0.38889466
   0.45496285  0.56413357  0.66058469
   0.37954055  0.38899778  0.50386747
   0.51244918  0.64847906  0.56473605
   0.42378653  0.56675554  0.35873498
   0.38465403  0.52408339  0.47712442
   0.42350027  0.69414819  0.40240516
   0.36429709  0.47952978  0.60784458
   0.33211819  0.60685424  0.63336197
   0.38513044  0.65379291  0.51975124
Direct configuration=     6
   0.71127989  0.46842508  0.52457361
   0.57480519  0.34542415  0.66929211
   0.61415591  0.47001006  0.61752965
   0.63119203  0.35791228  0.54487332
   0.62610841  0.42761973  0.42654786
   0.63481179  0.58683191  0.54606228
   0.68257795  0.55010627  0.42049599
   0.45930964  0.38970198  0.61257271
   0.51925577  0.46579907  0.71430779
   0.67896793  0.68206020  0.46078708
   0.55423132  0.45249942  0.31536363
   0.58460825  0.59074944  0.67270470
   0.51487167  0.38541099  0.48728082
   0.54977943  0.55567165  0.39750788
   0.51393674  0.51772576  0.52753906
   0.54782006  0.68364319  0.44139758
   0.44032131  0.43888097  0.38881383
   0.45422812  0.56432078  0.66039868
   0.37928930  0.38893390  0.50402838
   0.51243455  0.64880315  0.56517214
   0.42393107  0.56737425  0.35792217
   0.38446946  0.52423146  0.47764388
   0.42342005  0.69447674  0.40179380
   0.36352505  0.47939216  0.60849787
   0.33195813  0.60662849  0.63323400
   0.38524837  0.65390428  0.52019652
Direct configuration=     7
   0.71130399  0.46942148  0.52478159
   0.57460378  0.34741721  0.66983683
   0.61298621  0.46853782  0.61838002
   0.63286510  0.35688413  0.54497111
   0.62519390  0.42866366  0.42614628
   0.63505050  0.58742206  0.54351989
   0.68472473  0.55128723  0.41976265
   0.46146956  0.38947602  0.61382233
   0.52009767  0.46438076  0.71583448
   0.67950093  0.68168559  0.46018279
   0.55375514  0.45272654  0.31374186
   0.58392147  0.58927206  0.67331449
   0.51399540  0.38334701  0.48625747
   0.55003191  0.55387304  0.39889936
   0.51339031  0.51725345  0.52811762
   0.54916193  0.68405845  0.44022903
   0.44105366  0.43938177  0.38860195
   0.45230195  0.56481157  0.65991104
   0.37863061  0.38876644  0.50445021
   0.51239620  0.64965278  0.56631537
   0.42430999  0.56899624  0.35579131
   0.38398558  0.52461965  0.47900568
   0.42320975  0.69533808  0.40019108
   0.36150108  0.47903139  0.61021051
   0.33153852  0.60603667  0.63289853
   0.38555751  0.65419624  0.52136387
Direct configuration=     8
   0.71051930  0.47007719  0.52491056
   0.57503638  0.34808557  0.67022412
   0.61244717  0.46817137  0.61812401
   0.63333561  0.35706413  0.54482175
   0.62446148  0.42968284  0.42618621
   0.63431841  0.58696452  0.54250624
   0.68552984  0.55201181  0.41954920
   0.46198222  0.39036474  0.61399543
   0.52006522  0.46466501  0.71608134
   0.67986618  0.68144252  0.45957671
   0.55327288  0.45288700  0.31318375
   0.58319267  0.58808710  0.67279807
   0.51379289  0.38239669  0.48617822
   0.55007911  0.55270962  0.39998323
   0.51288089  0.51683373  0.52855335
   0.54925692  0.68362282  0.43982903
   0.44170138  0.44027144  0.38883197
   0.45240366  0.56428638  0.65983527
   0.37878333  0.38922830  0.50513966
   0.51261115  0.64962174  0.56655506
   0.42501335  0.56963269  0.35559842
   0.38434840  0.52504224  0.47949465
   0.42350595  0.69544697  0.40019305
   0.36091476  0.47773825  0.61054062
   0.33099273  0.60578805  0.63242839
   0.38622548  0.65441460  0.52141902
Direct configuration=     9
   0.70816523  0.47204430  0.52529746
   0.57633420  0.35009066  0.67138600
   0.61083003  0.46707204  0.61735597
   0.63474713  0.35760412  0.54437367
   0.62226420  0.43274037  0.42630601
   0.63212217  0.58559190  0.53946530
   0.68794518  0.55418554  0.41890883
   0.46352020  0.39303091  0.61451473
   0.51996787  0.46551776  0.71682193
   0.68096192  0.68071333  0.45775847
   0.55182610  0.45336841  0.31150945
   0.58100627  0.58453220  0.67124880
   0.51318537  0.37954574  0.48594048
   0.55022069  0.54921939  0.40323482
   0.51135263  0.51557458  0.52986055
   0.54954190  0.68231593  0.43862904
   0.44364456  0.44294047  0.38952204
   0.45270881  0.56271081  0.65960795
   0.37924150  0.39061388  0.50720803
   0.51325600  0.64952863  0.56727414
   0.42712344  0.57154204  0.35501975
   0.38543686  0.52631003  0.48096158
   0.42439454  0.69577361  0.40019899
   0.35915580  0.47385884  0.61153093
   0.32935536  0.60504218  0.63101797
   0.38822939  0.65506967  0.52158446
Direct configuration=    10
   0.70753437  0.47278770  0.52515712
   0.57720151  0.35000310  0.67203623
   0.61044659  0.46671062  0.61640538
   0.63464430  0.35800833  0.54383134
   0.62138958  0.43403805  0.42669625
   0.63042542  0.58526150  0.53842803
   0.68858940  0.55423417  0.41823923
   0.46429907  0.39429312  0.61439337
   0.51989164  0.46595439  0.71748476
   0.68133377  0.68094552  0.45714639
   0.55142406  0.45352958  0.31071294
   0.58089855  0.58385443  0.67051297
   0.51347678  0.37818750  0.48614466
   0.55037487  0.54835770  0.40450097
   0.51058293  0.51461535  0.53074171
   0.54965381  0.68098230  0.43878654
   0.44447473  0.44412353  0.39070253
   0.45083470  0.56187312  0.65889330
   0.37974112  0.39111815  0.50770950
   0.51384162  0.64939220  0.56706499
   0.42824705  0.57208479  0.35547682
   0.38579948  0.52703092  0.48121229
   0.42464591  0.69627131  0.40072373
   0.35831095  0.47354727  0.61226831
   0.32951281  0.60368378  0.62976451
   0.38896234  0.65564894  0.52150350
Direct configuration=    11
   0.70654150  0.47395766  0.52493626
   0.57856651  0.34986529  0.67305958
   0.60984312  0.46614183  0.61490931
   0.63448246  0.35864447  0.54297780
   0.62001307  0.43608038  0.42731042
   0.62775503  0.58474150  0.53679555
   0.68960328  0.55431069  0.41718541
   0.46552486  0.39627961  0.61420237
   0.51977166  0.46664156  0.71852793
   0.68191899  0.68131094  0.45618307
   0.55079132  0.45378324  0.30945937
   0.58072901  0.58278774  0.66935489
   0.51393543  0.37604985  0.48646600
   0.55061754  0.54700155  0.40649367
   0.50937156  0.51310569  0.53212851
   0.54982995  0.67888339  0.43903441
   0.44578126  0.44598547  0.39256040
   0.44788518  0.56055473  0.65776857
   0.38052743  0.39191178  0.50849871
   0.51476328  0.64917748  0.56673584
   0.43001542  0.57293898  0.35619617
   0.38637017  0.52816547  0.48160685
   0.42504152  0.69705461  0.40154958
   0.35698130  0.47305691  0.61342882
   0.32976061  0.60154590  0.62779178
   0.39011588  0.65656062  0.52137607
Direct configuration=    12
   0.70679944  0.47473781  0.52443923
   0.57936188  0.34963380  0.67360005
   0.60909834  0.46559629  0.61456937
   0.63422999  0.35848659  0.54216014
   0.61936326  0.43633709  0.42776466
   0.62611176  0.58479563  0.53489767
   0.69002121  0.55411672  0.41606085
   0.46682720  0.39796844  0.61430754
   0.51998608  0.46721048  0.71903769
   0.68217337  0.68156497  0.45559507
   0.55056011  0.45414449  0.30901898
   0.58004333  0.58262364  0.66856237
   0.51426583  0.37438689  0.48660798
   0.55079328  0.54701565  0.40749537
   0.50825364  0.51161394  0.53339216
   0.55012961  0.67692064  0.43951044
   0.44726086  0.44689869  0.39451748
   0.44780285  0.55949471  0.65735721
   0.38126632  0.39242195  0.50869653
   0.51478569  0.64904041  0.56676840
   0.43118744  0.57381944  0.35714273
   0.38596619  0.52920328  0.48203356
   0.42530031  0.69818070  0.40196742
   0.35555706  0.47208140  0.61403774
   0.32883951  0.60061329  0.62533403
   0.39055282  0.65763041  0.52166268
Direct configuration=    13
   0.70734742  0.47639514  0.52338336
   0.58105155  0.34914203  0.67474821
   0.60751613  0.46443736  0.61384719
   0.63369365  0.35815120  0.54042313
   0.61798280  0.43688244  0.42872963
   0.62262080  0.58491062  0.53086583
   0.69090908  0.55370466  0.41367186
   0.46959388  0.40155616  0.61453095
   0.52044159  0.46841908  0.72012062
   0.68271375  0.68210463  0.45434591
   0.55006892  0.45491191  0.30808342
   0.57858669  0.58227504  0.66687874
   0.51496773  0.37085411  0.48690959
   0.55116661  0.54704561  0.40962337
   0.50587873  0.50844487  0.53607664
   0.55076619  0.67275099  0.44052171
   0.45040411  0.44883873  0.39867510
   0.44762795  0.55724282  0.65648332
   0.38283602  0.39350576  0.50911679
   0.51483328  0.64874923  0.56683757
   0.43367727  0.57568988  0.35915360
   0.38510797  0.53140801  0.48294007
   0.42585009  0.70057295  0.40285509
   0.35253139  0.47000903  0.61533133
   0.32688271  0.59863205  0.62011278
   0.39148105  0.65990304  0.52227156
Direct configuration=    14
   0.70718572  0.47590608  0.52369493
   0.58055295  0.34928715  0.67440940
   0.60798302  0.46477935  0.61406030
   0.63385192  0.35825017  0.54093570
   0.61839016  0.43672152  0.42844488
   0.62365094  0.58487669  0.53205558
   0.69064708  0.55382625  0.41437682
   0.46877747  0.40049747  0.61446502
   0.52030717  0.46806244  0.71980106
   0.68255429  0.68194538  0.45471452
   0.55021386  0.45468545  0.30835949
   0.57901653  0.58237791  0.66737556
   0.51476061  0.37189659  0.48682059
   0.55105644  0.54703677  0.40899542
   0.50657954  0.50938003  0.53528448
   0.55057834  0.67398140  0.44022330
   0.44947658  0.44826625  0.39744823
   0.44767956  0.55790733  0.65674120
   0.38237282  0.39318594  0.50899277
   0.51481924  0.64883515  0.56681716
   0.43294255  0.57513794  0.35856021
   0.38536122  0.53075742  0.48267257
   0.42568786  0.69986703  0.40259315
   0.35342423  0.47062056  0.61494961
   0.32746014  0.59921669  0.62165351
   0.39120714  0.65923241  0.52209189
Direct configuration=    15
   0.70753981  0.47637450  0.52357830
   0.58101782  0.34921387  0.67456163
   0.60802320  0.46428356  0.61401211
   0.63466718  0.35747132  0.54061882
   0.61815131  0.43527820  0.42858030
   0.62350813  0.58422228  0.52962515
   0.69049980  0.55375249  0.41323912
   0.46987917  0.40163625  0.61496663
   0.52154756  0.46806775  0.72068796
   0.68290028  0.68177745  0.45386595
   0.55024970  0.45551173  0.30917467
   0.57852625  0.58297914  0.66635264
   0.51442784  0.36977481  0.48680692
   0.55164841  0.54662337  0.40930876
   0.50519388  0.50836322  0.53513342
   0.55035942  0.67374141  0.44046435
   0.45139121  0.44887887  0.39997091
   0.44736280  0.55740844  0.65616653
   0.38342043  0.39372874  0.50901779
   0.51327032  0.64905053  0.56780612
   0.43375514  0.57646973  0.35998325
   0.38367283  0.53215574  0.48378843
   0.42631411  0.70151575  0.40265889
   0.35177580  0.46861090  0.61528054
   0.32652072  0.59851165  0.61861655
   0.39091424  0.66113566  0.52227164
Direct configuration=    16
   0.70830950  0.47739268  0.52332477
   0.58202830  0.34905459  0.67489252
   0.60811054  0.46320587  0.61390735
   0.63643930  0.35577836  0.53993003
   0.61763215  0.43214089  0.42887465
   0.62319770  0.58279981  0.52434215
   0.69017967  0.55359215  0.41076609
   0.47227393  0.40411163  0.61605697
   0.52424379  0.46807929  0.72261581
   0.68365235  0.68141242  0.45202141
   0.55032759  0.45730780  0.31094661
   0.57746055  0.58428602  0.66412913
   0.51370449  0.36516272  0.48677720
   0.55293517  0.54572477  0.40998986
   0.50218187  0.50615301  0.53480507
   0.54988356  0.67321973  0.44098833
   0.45555304  0.45021051  0.40545443
   0.44667427  0.55632400  0.65491739
   0.38569762  0.39490862  0.50907218
   0.50990345  0.64951868  0.56995581
   0.43552146  0.57936462  0.36307648
   0.38000280  0.53519525  0.48621396
   0.42767538  0.70509957  0.40280178
   0.34819261  0.46424251  0.61599989
   0.32447873  0.59697911  0.61201515
   0.39027756  0.66527273  0.52266235
Direct configuration=    17
   0.70810648  0.47712411  0.52339164
   0.58176176  0.34909661  0.67480524
   0.60808751  0.46349013  0.61393498
   0.63597186  0.35622492  0.54011171
   0.61776909  0.43296843  0.42879701
   0.62327958  0.58317502  0.52573566
   0.69026411  0.55363445  0.41141841
   0.47164225  0.40345869  0.61576937
   0.52353260  0.46807625  0.72210730
   0.68345397  0.68150870  0.45250795
   0.55030704  0.45683405  0.31047922
   0.57774165  0.58394130  0.66471563
   0.51389529  0.36637927  0.48678503
   0.55259576  0.54596180  0.40981021
   0.50297636  0.50673601  0.53489168
   0.55000908  0.67335733  0.44085012
   0.45445526  0.44985926  0.40400803
   0.44685588  0.55661004  0.65524688
   0.38509696  0.39459740  0.50905783
   0.51079154  0.64939519  0.56938878
   0.43505555  0.57860103  0.36226057
   0.38097085  0.53439351  0.48557417
   0.42731631  0.70415426  0.40276409
   0.34913776  0.46539477  0.61581014
   0.32501735  0.59738335  0.61375642
   0.39044550  0.66418148  0.52255929
Direct configuration=    18
   0.70808397  0.47701184  0.52335344
   0.58221231  0.34897947  0.67473502
   0.60850754  0.46368640  0.61352953
   0.63680410  0.35550486  0.54021158
   0.61781086  0.43157712  0.42901056
   0.62246101  0.58286725  0.52504103
   0.69010868  0.55323794  0.41055749
   0.47194514  0.40369800  0.61644157
   0.52474453  0.46840561  0.72258916
   0.68366502  0.68120823  0.45162591
   0.55049722  0.45753927  0.31113138
   0.57785285  0.58418160  0.66379291
   0.51435692  0.36395267  0.48738034
   0.55360264  0.54584540  0.40998447
   0.50229039  0.50674967  0.53375211
   0.54965015  0.67388427  0.44130518
   0.45526235  0.45104441  0.40567378
   0.44598085  0.55568073  0.65475958
   0.38567391  0.39507606  0.50918524
   0.51023089  0.64926990  0.56987898
   0.43531602  0.57943275  0.36391458
   0.37915128  0.53553392  0.48672426
   0.42765625  0.70575298  0.40276217
   0.34820109  0.46400502  0.61619165
   0.32477177  0.59609333  0.61115987
   0.38969961  0.66631865  0.52184556
Direct configuration=    19
   0.70801644  0.47667503  0.52323883
   0.58356397  0.34862804  0.67452435
   0.60976765  0.46427521  0.61231318
   0.63930081  0.35334471  0.54051118
   0.61793618  0.42740320  0.42965122
   0.62000528  0.58194392  0.52295714
   0.68964239  0.55204843  0.40797473
   0.47285380  0.40441591  0.61845819
   0.52838033  0.46939371  0.72403475
   0.68429817  0.68030680  0.44897977
   0.55106776  0.45965493  0.31308786
   0.57818643  0.58490248  0.66102474
   0.51574183  0.35667288  0.48916625
   0.55662327  0.54549622  0.41050726
   0.50023249  0.50679067  0.53033341
   0.54857334  0.67546507  0.44267038
   0.45768361  0.45459988  0.41067105
   0.44335577  0.55289278  0.65329767
   0.38740474  0.39651203  0.50956746
   0.50854896  0.64889404  0.57134956
   0.43609744  0.58192793  0.36887663
   0.37369258  0.53895514  0.49017455
   0.42867606  0.71054917  0.40275641
   0.34539109  0.45983574  0.61733618
   0.32403503  0.59222326  0.60337021
   0.38746194  0.67273016  0.51970438
Direct configuration=    20
   0.70803560  0.47677059  0.52327135
   0.58318049  0.34872774  0.67458412
   0.60941015  0.46410816  0.61265827
   0.63859246  0.35395757  0.54042618
   0.61790063  0.42858739  0.42946946
   0.62070200  0.58220588  0.52354836
   0.68977468  0.55238591  0.40870749
   0.47259600  0.40421223  0.61788605
   0.52734881  0.46911338  0.72362462
   0.68411854  0.68056254  0.44973051
   0.55090589  0.45905469  0.31253278
   0.57809179  0.58469796  0.66181010
   0.51534892  0.35873824  0.48865957
   0.55576628  0.54559529  0.41035894
   0.50081634  0.50677904  0.53130334
   0.54887884  0.67501657  0.44228306
   0.45699667  0.45359115  0.40925327
   0.44410053  0.55368376  0.65371243
   0.38691368  0.39610463  0.50945902
   0.50902614  0.64900068  0.57093234
   0.43587574  0.58122002  0.36746884
   0.37524128  0.53798450  0.48919566
   0.42838673  0.70918844  0.40275804
   0.34618832  0.46101862  0.61701146
   0.32424405  0.59332125  0.60558023
   0.38809679  0.67091114  0.52031186
Direct configuration=    21
   0.70751419  0.47633147  0.52279885
   0.58364723  0.34901908  0.67395993
   0.60949288  0.46447903  0.61201158
   0.63930503  0.35342084  0.54114008
   0.61778456  0.42788224  0.42970645
   0.62038837  0.58252611  0.52522581
   0.69006108  0.55164364  0.40892302
   0.47214378  0.40409630  0.61811025
   0.52781970  0.47018117  0.72278253
   0.68367457  0.67964988  0.44921683
   0.55101359  0.45888895  0.31231002
   0.57852504  0.58394509  0.66179334
   0.51565370  0.35789368  0.48944650
   0.55681787  0.54682358  0.41010250
   0.50081898  0.50741994  0.53060918
   0.54869406  0.67537481  0.44283785
   0.45679653  0.45393265  0.40992374
   0.44408448  0.55180680  0.65347974
   0.38739420  0.39657371  0.50964068
   0.50842630  0.64863630  0.57007645
   0.43570649  0.58178762  0.36954043
   0.37459666  0.53811471  0.48959814
   0.42814683  0.71084595  0.40201331
   0.34600530  0.46077472  0.61757316
   0.32458692  0.59212672  0.60406893
   0.38743901  0.67236236  0.51964805
Direct configuration=    22
   0.70636480  0.47536347  0.52175728
   0.58467614  0.34966132  0.67258397
   0.60967527  0.46529658  0.61058601
   0.64087581  0.35223766  0.54271379
   0.61752871  0.42632781  0.43022886
   0.61969701  0.58323204  0.52892358
   0.69069242  0.55000738  0.40939815
   0.47114688  0.40384073  0.61860448
   0.52885773  0.47253501  0.72092623
   0.68269589  0.67763798  0.44808444
   0.55125099  0.45852358  0.31181896
   0.57948011  0.58228546  0.66175638
   0.51632556  0.35603193  0.49118122
   0.55913600  0.54953126  0.40953720
   0.50082480  0.50883276  0.52907896
   0.54828673  0.67616451  0.44406086
   0.45635533  0.45468544  0.41140172
   0.44404910  0.54766922  0.65296681
   0.38845347  0.39760777  0.51004115
   0.50710400  0.64783306  0.56818970
   0.43533339  0.58303884  0.37410708
   0.37317565  0.53840175  0.49048538
   0.42761800  0.71449979  0.40037162
   0.34560184  0.46023706  0.61881139
   0.32534273  0.58949349  0.60073740
   0.38598898  0.67556144  0.51818474
Direct configuration=    23
   0.70586020  0.47482352  0.52109672
   0.58499983  0.35029627  0.67167649
   0.60955391  0.46503210  0.60969477
   0.64161908  0.35178703  0.54334333
   0.61669620  0.42610087  0.43023227
   0.62042812  0.58364494  0.53027959
   0.69144772  0.54897962  0.41009947
   0.47093980  0.40368642  0.61867705
   0.52944074  0.47288205  0.72053505
   0.68191786  0.67629315  0.44774621
   0.55118740  0.45833842  0.31239131
   0.57961741  0.58251506  0.66184981
   0.51658944  0.35576998  0.49206976
   0.56009788  0.54985898  0.40874766
   0.50097558  0.50955854  0.52853412
   0.54754737  0.67711189  0.44431794
   0.45696488  0.45498602  0.41112264
   0.44415206  0.54637621  0.65236909
   0.38882529  0.39805017  0.51041346
   0.50573083  0.64676513  0.56778573
   0.43519671  0.58422017  0.37722997
   0.37325395  0.53793115  0.48997589
   0.42761482  0.71618854  0.39947260
   0.34507823  0.45958629  0.61971074
   0.32565389  0.58936661  0.60000739
   0.38514817  0.67638821  0.51715829
Direct configuration=    24
   0.70470106  0.47358316  0.51957930
   0.58574339  0.35175484  0.66959189
   0.60927513  0.46442456  0.60764745
   0.64332649  0.35075186  0.54478946
   0.61478380  0.42557956  0.43024010
   0.62210760  0.58459342  0.53339455
   0.69318275  0.54661871  0.41171052
   0.47046410  0.40333195  0.61884376
   0.53078000  0.47367924  0.71963645
   0.68013060  0.67320388  0.44696922
   0.55104132  0.45791309  0.31370608
   0.57993283  0.58304251  0.66206445
   0.51719562  0.35516824  0.49411087
   0.56230746  0.55061181  0.40693396
   0.50132195  0.51122577  0.52728254
   0.54584896  0.67928818  0.44490848
   0.45836509  0.45567648  0.41048156
   0.44438856  0.54340597  0.65099605
   0.38967942  0.39906644  0.51126873
   0.50257644  0.64431193  0.56685775
   0.43488274  0.58693387  0.38440372
   0.37343382  0.53685010  0.48880552
   0.42760751  0.72006783  0.39740744
   0.34387539  0.45809138  0.62177669
   0.32636865  0.58907516  0.59833044
   0.38321669  0.67828741  0.51480038
Direct configuration=    25
   0.70487538  0.47228066  0.51949712
   0.58554818  0.35172623  0.66930142
   0.60836649  0.46519752  0.60695116
   0.64441466  0.35027262  0.54416255
   0.61332473  0.42542277  0.43038992
   0.62330758  0.58487880  0.53311538
   0.69480367  0.54564128  0.41174754
   0.47086079  0.40346635  0.61891681
   0.53191042  0.47247496  0.72039585
   0.67868392  0.67210856  0.44677604
   0.55104761  0.45716830  0.31382816
   0.57952811  0.58424537  0.66205124
   0.51733480  0.35570949  0.49532203
   0.56304561  0.55175420  0.40677345
   0.50213837  0.51139479  0.52662990
   0.54466619  0.67962545  0.44469673
   0.45972099  0.45540112  0.40987202
   0.44415536  0.54357054  0.65002052
   0.38998990  0.39969954  0.51110921
   0.50010282  0.64233028  0.56711507
   0.43602356  0.58978176  0.38808238
   0.37319596  0.53513855  0.48893593
   0.42775526  0.72204478  0.39665672
   0.34241271  0.45751204  0.62281816
   0.32703977  0.59010345  0.59865237
   0.38228450  0.67758795  0.51271965
Direct configuration=    26
   0.70523176  0.46961799  0.51932912
   0.58514912  0.35166775  0.66870761
   0.60650898  0.46677767  0.60552775
   0.64663916  0.34929292  0.54288096
   0.61034200  0.42510226  0.43069621
   0.62576068  0.58546218  0.53254469
   0.69811727  0.54364315  0.41182324
   0.47167173  0.40374110  0.61906614
   0.53422131  0.47001309  0.72194826
   0.67572650  0.66986944  0.44638113
   0.55106048  0.45564577  0.31407771
   0.57870076  0.58670434  0.66202424
   0.51761932  0.35681593  0.49779799
   0.56455460  0.55408956  0.40644534
   0.50380736  0.51174031  0.52529573
   0.54224830  0.68031492  0.44426386
   0.46249282  0.45483822  0.40862597
   0.44367863  0.54390697  0.64802627
   0.39062460  0.40099375  0.51078312
   0.49504609  0.63827925  0.56764111
   0.43835570  0.59560361  0.39560256
   0.37270971  0.53163969  0.48920253
   0.42805729  0.72608618  0.39512204
   0.33942259  0.45632771  0.62494722
   0.32841172  0.59220553  0.59931050
   0.38037885  0.67615807  0.50846608
Direct configuration=    27
   0.70555907  0.46825323  0.51945776
   0.58526108  0.35144802  0.66814328
   0.60559640  0.46744097  0.60505641
   0.64754826  0.34905633  0.54193893
   0.60981577  0.42564806  0.43105770
   0.62579036  0.58469047  0.53255105
   0.69971370  0.54256784  0.41149325
   0.47154902  0.40468876  0.61932261
   0.53505458  0.46976007  0.72213537
   0.67449847  0.66980899  0.44546390
   0.55170725  0.45477228  0.31328172
   0.57775684  0.58713941  0.66181985
   0.51764444  0.35737807  0.49943560
   0.56624686  0.55467515  0.40621140
   0.50457634  0.51089285  0.52408011
   0.54112044  0.68050680  0.44456023
   0.46288677  0.45506508  0.40892551
   0.44390669  0.54298586  0.64856670
   0.39080702  0.40147209  0.51067878
   0.49312070  0.63724140  0.56740860
   0.43975218  0.59802560  0.39965688
   0.37201217  0.52986617  0.49026668
   0.42778351  0.72897589  0.39445353
   0.33846627  0.45647718  0.62514938
   0.32912326  0.59309557  0.59947099
   0.37923992  0.67460523  0.50595113
Direct configuration=    28
   0.70616430  0.46572965  0.51969564
   0.58546809  0.35104171  0.66709977
   0.60390895  0.46866748  0.60418486
   0.64922927  0.34861885  0.54019700
   0.60884271  0.42665731  0.43172615
   0.62584526  0.58326349  0.53256281
   0.70266567  0.54057949  0.41088308
   0.47132212  0.40644107  0.61979686
   0.53659537  0.46929222  0.72248137
   0.67222771  0.66969721  0.44376784
   0.55290319  0.45315710  0.31180987
   0.57601144  0.58794390  0.66144192
   0.51769089  0.35841752  0.50246373
   0.56937601  0.55575797  0.40577882
   0.50599825  0.50932583  0.52183230
   0.53903492  0.68086160  0.44510825
   0.46361521  0.45548455  0.40947941
   0.44432839  0.54128264  0.64956600
   0.39114433  0.40235658  0.51048585
   0.48956045  0.63532230  0.56697866
   0.44233441  0.60250409  0.40715372
   0.37072235  0.52658675  0.49223440
   0.42727726  0.73431925  0.39321737
   0.33669794  0.45675357  0.62552320
   0.33043896  0.59474135  0.59976776
   0.37713392  0.67173386  0.50130072
Direct configuration=    29
   0.70589216  0.46686436  0.51958868
   0.58537501  0.35122440  0.66756897
   0.60466770  0.46811599  0.60457675
   0.64847342  0.34881556  0.54098025
   0.60928024  0.42620351  0.43142559
   0.62582057  0.58390512  0.53255753
   0.70133834  0.54147354  0.41115744
   0.47142415  0.40565315  0.61958362
   0.53590256  0.46950259  0.72232580
   0.67324874  0.66974747  0.44453046
   0.55236544  0.45388335  0.31247168
   0.57679625  0.58758217  0.66161185
   0.51767000  0.35795014  0.50110215
   0.56796901  0.55527109  0.40597332
   0.50535890  0.51003043  0.52284301
   0.53997266  0.68070206  0.44486183
   0.46328767  0.45529594  0.40923035
   0.44413877  0.54204848  0.64911667
   0.39099266  0.40195887  0.51057260
   0.49116129  0.63618521  0.56717198
   0.44117333  0.60049037  0.40378282
   0.37130231  0.52806132  0.49134963
   0.42750489  0.73191665  0.39377320
   0.33749306  0.45662930  0.62535512
   0.32984736  0.59400134  0.59963432
   0.37808087  0.67302495  0.50339174
Direct configuration=    30
   0.70628683  0.46673890  0.51971215
   0.58576578  0.35132821  0.66647410
   0.60483183  0.46740185  0.60473817
   0.64831978  0.34863108  0.54075037
   0.61018025  0.42705979  0.43173037
   0.62496785  0.58304671  0.53262074
   0.70188157  0.54119001  0.41122236
   0.47073236  0.40672487  0.62026092