31
Energy = -96.09367962 eV
Al 13.83647125064463 11.948058269983036 9.5659589835615
Al 13.733287813690518 9.447671880780927 7.937714696305391
Al 13.791204025415405 11.51093887774742 12.204375459417852
Al 12.536348914738992 6.959184728504422 11.713205872721906
Al 11.274108875492944 9.006967831409549 6.87565859823569
Al 13.354293863642432 11.906290469537264 6.900001361274818
Al 11.732393658930167 12.73763423980607 11.047534471532453
Al 11.80677905969069 7.842583178898449 9.290091296572474
Al 12.912683757853342 9.172850503789835 13.249783936756767
Al 11.716753776178734 13.441573407271095 8.415283235287713
Al 10.746612752152966 11.64269164073087 6.457324275300821
Al 13.420873527401044 9.427519998632928 10.59644795579319
Al 11.339158054133623 10.693450698499468 9.096506413808633
Al 11.295502677290813 11.362199623381281 13.272436524676731
Al 10.381515194368317 6.544851097411269 13.286590930437525
Al 9.840984748614657 14.420462356969958 10.20917079142596
Al 10.700798943276633 9.217423182916143 11.527670448801056
Al 9.702644477277623 6.6846054033965006 10.677233915289913
Al 8.920698952419457 12.799310906805502 8.03315017505164
Al 9.650603635640469 13.414281425197133 12.741858519031684
Al 10.435107237851087 8.98733657252902 14.35022979723341
Al 8.928352329315095 10.08574116480945 7.764374721167876
Al 8.313202533067665 8.176017572180994 12.668368857068401
Al 9.186475461875958 11.498208339105012 10.755159942742754
Al 9.452489804748343 7.44806009169662 8.126394624994628
Al 8.290311453049023 8.88927523532488 10.041140700069995
Al 8.651443645319473 10.880002019797317 13.673814874509661
Al 7.287954925769655 13.687531748256491 10.003142722393326
Al 6.667846461754318 10.18740472817364 11.716181852068686
Al 6.902083897407405 11.12442953944895 9.172085096267054
Al 7.041782557438304 12.706211533457848 12.481877216650275
