unknown system                          
           1
    17.802610    0.000000    0.000000
     0.000000   17.802610    0.000000
     0.000000    0.000000   17.802610
   Ag
  10
Direct configuration=     1
   0.61098530  0.39334064  0.41984201
   0.60038146  0.67522048  0.46412738
   0.54894771  0.59130780  0.57814753
   0.55881921  0.53460364  0.42928506
   0.59290285  0.49454105  0.68422664
   0.55373007  0.43269049  0.55302138
   0.45476122  0.63068716  0.47121177
   0.44863313  0.49762217  0.63381580
   0.46183732  0.42370440  0.43759035
   0.36605261  0.51488478  0.50928331
Direct configuration=     2
   0.61124568  0.39311379  0.41964199
   0.60063585  0.67550648  0.46402349
   0.54916363  0.59150142  0.57831246
   0.55909282  0.53463385  0.42905716
   0.59314462  0.49451225  0.68455853
   0.55398451  0.43245690  0.55312301
   0.45427632  0.63088598  0.47110520
   0.44813169  0.49759118  0.63401971
   0.46137366  0.42351017  0.43741582
   0.36600210  0.51489060  0.50929387
Direct configuration=     3
   0.61202679  0.39243325  0.41904195
   0.60139902  0.67636448  0.46371181
   0.54981139  0.59208227  0.57880726
   0.55991364  0.53472445  0.42837345
   0.59386994  0.49442584  0.68555421
   0.55474783  0.43175613  0.55342790
   0.45282161  0.63148246  0.47078547
   0.44662739  0.49749820  0.63463142
   0.45998269  0.42292747  0.43689223
   0.36585058  0.51490806  0.50932555
Direct configuration=     4
   0.61358903  0.39107217  0.41784186
   0.60292534  0.67808048  0.46308845
   0.55110692  0.59324399  0.57979685
   0.56155529  0.53490567  0.42700604
   0.59532059  0.49425302  0.68754557
   0.55627445  0.43035458  0.55403767
   0.44991219  0.63267540  0.47014601
   0.44361879  0.49731225  0.63585484
   0.45720075  0.42176209  0.43584505
   0.36554754  0.51494298  0.50938890
Direct configuration=     5
   0.61386139  0.39083488  0.41763264
   0.60319144  0.67837964  0.46297977
   0.55133278  0.59344652  0.57996938
   0.56184149  0.53493726  0.42676764
   0.59557350  0.49422289  0.68789274
   0.55654060  0.43011023  0.55414398
   0.44940497  0.63288338  0.47003453
   0.44309427  0.49727983  0.63606813
   0.45671575  0.42155891  0.43566248
   0.36549471  0.51494906  0.50939994
Direct configuration=     6
   0.61390909  0.39062937  0.41746408
   0.60321127  0.67854316  0.46286131
   0.55134814  0.59338440  0.57989766
   0.56177177  0.53490312  0.42692472
   0.59563980  0.49422851  0.68807541
   0.55647717  0.43027086  0.55410884
   0.44941993  0.63292596  0.47001186
   0.44318278  0.49729084  0.63622455
   0.45677794  0.42147720  0.43558177
   0.36531299  0.51494920  0.50940104
Direct configuration=     7
   0.61405221  0.39001283  0.41695839
   0.60327078  0.67903370  0.46250591
   0.55139422  0.59319802  0.57968252
   0.56156260  0.53480072  0.42739594
   0.59583871  0.49424536  0.68862344
   0.55628688  0.43075276  0.55400342
   0.44946483  0.63305373  0.46994383
   0.44344830  0.49732385  0.63669383
   0.45696451  0.42123205  0.43533962
   0.36476785  0.51494960  0.50940433
Direct configuration=     8
   0.61433845  0.38877975  0.41594702
   0.60338978  0.68001480  0.46179512
   0.55148638  0.59282526  0.57925223
   0.56114427  0.53459590  0.42833838
   0.59623653  0.49427908  0.68971949
   0.55590630  0.43171655  0.55379258
   0.44955463  0.63330925  0.46980778
   0.44397934  0.49738988  0.63763239
   0.45733765  0.42074175  0.43485533
   0.36367757  0.51495039  0.50941090
Direct configuration=     9
   0.61407842  0.38891460  0.41608360
   0.60317885  0.67999939  0.46165572
   0.55174276  0.59287250  0.57923490
   0.56137682  0.53443896  0.42837826
   0.59623127  0.49439518  0.68963311
   0.55610954  0.43169768  0.55362883
   0.44933282  0.63319290  0.46990327
   0.44373098  0.49754610  0.63756909
   0.45710088  0.42073979  0.43483735
   0.36416855  0.51480551  0.50962710
Direct configuration=    10
   0.61400595  0.38895218  0.41612166
   0.60312006  0.67999509  0.46161688
   0.55181421  0.59288567  0.57923007
   0.56144162  0.53439522  0.42838938
   0.59622981  0.49442753  0.68960904
   0.55616618  0.43169242  0.55358319
   0.44927101  0.63316048  0.46992989
   0.44366177  0.49758964  0.63755145
   0.45703489  0.42073924  0.43483234
   0.36430538  0.51476514  0.50968735
Direct configuration=    11
   0.61388957  0.38893703  0.41612983
   0.60295861  0.67998357  0.46149767
   0.55194721  0.59289464  0.57919043
   0.56150605  0.53441738  0.42843129
   0.59619490  0.49450737  0.68951539
   0.55618293  0.43175403  0.55365325
   0.44922970  0.63309430  0.46997613
   0.44372084  0.49767215  0.63760441
   0.45692469  0.42069395  0.43477184
   0.36449639  0.51464818  0.50978099
Direct configuration=    12
   0.61354375  0.38889200  0.41615413
   0.60247883  0.67994933  0.46114343
   0.55234241  0.59292132  0.57907265
   0.56169750  0.53448321  0.42855585
   0.59609119  0.49474463  0.68923711
   0.55623269  0.43193711  0.55386142
   0.44910696  0.63289764  0.47011356
   0.44389636  0.49791735  0.63776179
   0.45659719  0.42055938  0.43459203
   0.36506400  0.51430064  0.51005927
Direct configuration=    13
   0.61341254  0.38889872  0.41618703
   0.60237738  0.68001851  0.46102132
   0.55243637  0.59298092  0.57902386
   0.56171069  0.53438483  0.42857062
   0.59614109  0.49482260  0.68927975
   0.55620766  0.43191847  0.55375143
   0.44904950  0.63285809  0.47015345
   0.44390600  0.49800244  0.63786024
   0.45661527  0.42052291  0.43454364
   0.36519438  0.51419511  0.51015991
Direct configuration=    14
   0.61304818  0.38891739  0.41627839
   0.60209567  0.68021063  0.46068221
   0.55269730  0.59314641  0.57888839
   0.56174733  0.53411162  0.42861164
   0.59627968  0.49503913  0.68939815
   0.55613815  0.43186671  0.55344598
   0.44888991  0.63274825  0.47026422
   0.44393278  0.49823875  0.63813362
   0.45666546  0.42042164  0.43440927
   0.36555643  0.51390208  0.51043937
Direct configuration=    15
   0.61294430  0.38882491  0.41624767
   0.60193766  0.68030766  0.46048648
   0.55281950  0.59319965  0.57882570
   0.56172488  0.53410581  0.42862380
   0.59634432  0.49516714  0.68940385
   0.55603524  0.43189833  0.55348131
   0.44884423  0.63268406  0.47031012
   0.44405702  0.49836407  0.63831245
   0.45665242  0.42032339  0.43428621
   0.36569131  0.51372760  0.51057366
Direct configuration=    16
   0.61263263  0.38854746  0.41615551
   0.60146362  0.68059877  0.45989929
   0.55318612  0.59335936  0.57863763
   0.56165751  0.53408837  0.42866027
   0.59653822  0.49555118  0.68942094
   0.55572654  0.43199319  0.55358729
   0.44870719  0.63249148  0.47044780
   0.44442977  0.49874001  0.63884894
   0.45661332  0.42002865  0.43391704
   0.36609595  0.51320414  0.51097655
Direct configuration=    17
   0.61200930  0.38799255  0.41597119
   0.60051556  0.68118098  0.45872490
   0.55391937  0.59367879  0.57826148
   0.56152278  0.53405350  0.42873321
   0.59692604  0.49631927  0.68945512
   0.55510913  0.43218291  0.55379927
   0.44843311  0.63210632  0.47072317
   0.44517525  0.49949189  0.63992191
   0.45653512  0.41943917  0.43317869
   0.36690522  0.51215723  0.51178231
Direct configuration=    18
   0.61076264  0.38688275  0.41560255
   0.59861944  0.68234541  0.45637611
   0.55538585  0.59431765  0.57750918
   0.56125332  0.53398376  0.42887910
   0.59770166  0.49785543  0.68952348
   0.55387432  0.43256234  0.55422323
   0.44788495  0.63133601  0.47127390
   0.44666622  0.50099565  0.64206786
   0.45637872  0.41826021  0.43170200
   0.36852378  0.51006340  0.51339384
Direct configuration=    19
   0.61102919  0.38796137  0.41661881
   0.59880443  0.68189930  0.45656092
   0.55512951  0.59464406  0.57706892
   0.56107663  0.53305446  0.42855017
   0.59845284  0.49784898  0.68922000
   0.55335404  0.43220107  0.55323045
   0.44753008  0.63103570  0.47178424
   0.44605126  0.50148399  0.64185697
   0.45668899  0.41875625  0.43206198
   0.36893390  0.50971744  0.51359878
Direct configuration=    20
   0.61091434  0.38749659  0.41618091
   0.59872472  0.68209153  0.45648129
   0.55523997  0.59450341  0.57725863
   0.56115276  0.53345489  0.42869191
   0.59812915  0.49785176  0.68935077
   0.55357823  0.43235674  0.55365824
   0.44768300  0.63116510  0.47156433
   0.44631625  0.50127356  0.64194784
   0.45655530  0.41854251  0.43190686
   0.36875718  0.50986651  0.51351047
Direct configuration=    21
   0.61179855  0.38807225  0.41684231
   0.59888281  0.68148727  0.45657788
   0.55508607  0.59444431  0.57709024
   0.56091532  0.53356196  0.42832808
   0.59858140  0.49788149  0.68843584
   0.55288452  0.43238631  0.55388961
   0.44741657  0.63092165  0.47193424
   0.44633258  0.50181170  0.64197967
   0.45640445  0.41861154  0.43183936
   0.36874861  0.50942414  0.51363402
Direct configuration=    22
   0.61238521  0.38845420  0.41728114
   0.59898770  0.68108635  0.45664196
   0.55498397  0.59440510  0.57697851
   0.56075779  0.53363299  0.42808668
   0.59888145  0.49790121  0.68782880
   0.55242426  0.43240592  0.55404312
   0.44723980  0.63076012  0.47217968
   0.44634342  0.50216874  0.64200079
   0.45630436  0.41865734  0.43179457
   0.36874292  0.50913063  0.51371599
Direct configuration=    23
   0.61306797  0.38887610  0.41788557
   0.59924707  0.68098708  0.45651494
   0.55510756  0.59441166  0.57690269
   0.56040855  0.53369913  0.42792350
   0.59948873  0.49793001  0.68725885
   0.55174018  0.43234774  0.55390760
   0.44688692  0.63074193  0.47229953
   0.44625605  0.50272900  0.64269890
   0.45658313  0.41819958  0.43122907
   0.36826473  0.50868038  0.51393060
Direct configuration=    24
   0.61347357  0.38912674  0.41824463
   0.59940114  0.68092811  0.45643947
   0.55518098  0.59441555  0.57685766
   0.56020109  0.53373842  0.42782656
   0.59984949  0.49794711  0.68692027
   0.55133380  0.43231318  0.55382709
   0.44667729  0.63073113  0.47237073
   0.44620414  0.50306182  0.64311362
   0.45674874  0.41792765  0.43089313
   0.36798065  0.50841291  0.51405808
Direct configuration=    25
   0.61321025  0.38896402  0.41801152
   0.59930111  0.68096639  0.45648847
   0.55513331  0.59441302  0.57688690
   0.56033578  0.53371291  0.42788949
   0.59961527  0.49793601  0.68714009
   0.55159763  0.43233562  0.55387936
   0.44681339  0.63073814  0.47232450
   0.44623784  0.50284574  0.64284437
   0.45664122  0.41810419  0.43111123
   0.36816508  0.50858656  0.51397531
