12
Energy = -74.79710563 eV
Ir 9.132545295218085 8.928966299675583 6.854226017446167
Ir 6.870855974887083 7.843903827553173 7.261892239485677
Ir 9.503025037125918 11.358201512384616 7.3383371685816305
Ir 7.084699918462109 10.374725306194874 7.0220270143753405
Ir 9.240948335351227 6.581071624130554 7.498973040986264
Ir 7.020046849467499 5.368402962871859 7.620626927418585
Ir 9.17283894401235 4.992775064913068 9.450183461655941
Ir 7.957772922782964 11.628273608469168 9.277766385422783
Ir 9.56241610726473 9.58424234694407 9.212716212213165
Ir 7.088471622597769 9.319628413932676 9.300903626884104
Ir 10.05450847080884 7.345544332162546 9.821269337017348
Ir 7.529208373298793 6.891602552045192 9.558416419789925
