4
Energy = -15.7371125 eV
Ir 10.237120815838459 7.882295216464844 7.96463383708982
Ir 11.681030462107021 12.481062142304824 10.933949443698154
Ir 9.854204023180651 12.060706611573769 12.09270531639004
Ir 8.44072664163312 7.799689244009509 9.242596082680466
