5
Energy = -25.15048119 eV
Ir 12.897784237438165 10.245246062378696 12.716334487660529
Ir 9.642680855819592 10.547814533595496 9.363295451218132
Ir 10.11130733634141 10.300231101936445 7.231219582388505
Ir 8.683075720964002 10.791398014049053 11.440534643367043
Ir 10.972562015170624 10.601144664788825 11.720961843330086
