8
Energy = -47.34570827 eV
Ir 10.422491425277874 10.07759146010437 9.449553531552342
Ir 10.254410476121462 7.759749931763646 8.662758577161055
Ir 8.04456394291329 7.510777290339184 9.757744683334439
Ir 7.97184387143311 9.885230459556238 9.748621889848636
Ir 8.861680196442844 5.871724916844508 7.897915510238472
Ir 8.923642017698272 9.494678917439709 7.469150617617864
Ir 7.237770733495345 7.662159455887214 7.416329457270007
Ir 6.435006862939919 9.94778927822979 7.806798353263341
