9
Energy = -53.65870576 eV
Ir 8.462774752867201 9.50559014519346 7.173645707735552
Ir 10.321824819896536 7.843181470500644 6.7294573234979636
Ir 6.642581659024445 7.861593523752525 7.0095215674816105
Ir 10.93522106158897 9.865584936134569 7.895105461365437
Ir 8.733527112841704 7.1415831357621355 8.393878527336152
Ir 6.862559631497705 5.664236198070771 8.350402946968586
Ir 5.2054450978596005 7.316081423959741 9.006416702914343
Ir 6.916357206457237 8.999016448670853 9.266236182170703
Ir 9.34297843063508 9.226402490624052 9.598605353198277
