 running on   32 total cores
 distrk:  each k-point on   32 cores,    1 groups
 distr:  one band on    8 cores,    4 groups
 using from now: INCAR     
 vasp.5.3.5 31Mar14 (build Feb 01 2018 12:10:03) gamma-only                     
  
 POSCAR found type information on POSCAR  Ag
 POSCAR found :  1 types and      16 ions
 scaLAPACK will be used
 LDA part: xc-table for Pade appr. of Perdew
 POSCAR, INCAR and KPOINTS ok, starting setup
 WARNING: small aliasing (wrap around) errors must be expected
 FFT: planning ...
 WAVECAR not read
 entering main loop
       N       E                     dE             d eps       ncg     rms          rms(c)
DAV:   1     0.156152192060E+04    0.15615E+04   -0.25864E+04   464   0.530E+02
DAV:   2     0.711807108993E+03   -0.84971E+03   -0.75329E+03   880   0.934E+01
DAV:   3     0.108634465945E+03   -0.60317E+03   -0.54917E+03   720   0.843E+01
DAV:   4    -0.216298964737E+02   -0.13026E+03   -0.11451E+03   608   0.408E+01
DAV:   5    -0.302510945951E+02   -0.86212E+01   -0.85145E+01   500   0.110E+01    0.206E+01
DAV:   6    -0.942210327003E+01    0.20829E+02   -0.59477E+01   476   0.146E+01    0.996E+00
DAV:   7    -0.481525371726E+01    0.46068E+01   -0.44972E+00   520   0.501E+00    0.649E+00
DAV:   8    -0.321089421780E+01    0.16044E+01   -0.14029E+00   508   0.380E+00    0.361E+00
DAV:   9    -0.883013497289E+01   -0.56192E+01   -0.20325E+00   504   0.251E+00    0.237E+00
DAV:  10    -0.154635323647E+02   -0.66334E+01   -0.23276E+00   480   0.282E+00    0.177E+00
DAV:  11    -0.213615498048E+02   -0.58980E+01   -0.26122E+00   496   0.254E+00    0.124E+00
DAV:  12    -0.249816955606E+02   -0.36201E+01   -0.13911E+00   480   0.161E+00    0.190E+00
DAV:  13    -0.250246123338E+02   -0.42917E-01   -0.25048E-02   580   0.341E-01    0.183E+00
DAV:  14    -0.265280166173E+02   -0.15034E+01   -0.31413E-01   488   0.132E+00    0.153E+00
DAV:  15    -0.277253087845E+02   -0.11973E+01   -0.31897E-01   480   0.144E+00    0.103E+00
DAV:  16    -0.285120840841E+02   -0.78678E+00   -0.27565E-01   468   0.169E+00    0.499E-01
DAV:  17    -0.291307460412E+02   -0.61866E+00   -0.10489E-01   480   0.743E-01    0.467E-01
DAV:  18    -0.296902978028E+02   -0.55955E+00   -0.27776E-02   480   0.303E-01    0.294E-01
DAV:  19    -0.301631820032E+02   -0.47288E+00   -0.26115E-02   488   0.240E-01    0.216E-01
DAV:  20    -0.302216456086E+02   -0.58464E-01   -0.15295E-03   536   0.164E-01    0.165E-01
DAV:  21    -0.302917187890E+02   -0.70073E-01   -0.37027E-03   488   0.273E-01    0.549E-02
DAV:  22    -0.303351220950E+02   -0.43403E-01   -0.29525E-03   504   0.164E-01    0.799E-02
DAV:  23    -0.303384424442E+02   -0.33203E-02   -0.26055E-04   364   0.861E-02    0.507E-02
DAV:  24    -0.303399314966E+02   -0.14891E-02   -0.21442E-04   352   0.698E-02    0.207E-02
DAV:  25    -0.303404180643E+02   -0.48657E-03   -0.12877E-04   336   0.296E-02    0.151E-02
DAV:  26    -0.303407307624E+02   -0.31270E-03   -0.12905E-05   352   0.992E-03    0.788E-03
DAV:  27    -0.303422258862E+02   -0.14951E-02   -0.41946E-05   348   0.110E-02    0.523E-03
DAV:  28    -0.303429148793E+02   -0.68899E-03   -0.14066E-05   340   0.748E-03    0.269E-03
DAV:  29    -0.303432490313E+02   -0.33415E-03   -0.50833E-06   328   0.362E-03    0.199E-03
DAV:  30    -0.303434055006E+02   -0.15647E-03   -0.18644E-06   332   0.274E-03    0.128E-03
DAV:  31    -0.303434362039E+02   -0.30703E-04   -0.93976E-07   308   0.193E-03
   1 F= -.30343436E+02 E0= -.30343436E+02  d E =-.303434E+02  mag=     0.0004
 curvature:   0.00 expect dE= 0.000E+00 dE for cont linesearch  0.000E+00
 trial: gam= 0.00000 g(F)=  0.147E-01 g(S)=  0.000E+00 ort = 0.000E+00 (trialstep = 0.100E+01)
 search vector abs. value=  0.147E-01
 bond charge predicted
       N       E                     dE             d eps       ncg     rms          rms(c)
DAV:   1    -0.303573174464E+02   -0.13912E-01   -0.10008E+00   512   0.249E+00    0.815E-02
DAV:   2    -0.303578039424E+02   -0.48650E-03   -0.49851E-03   500   0.242E-01    0.514E-02
DAV:   3    -0.303578092783E+02   -0.53358E-05   -0.87109E-05   296   0.292E-02
   2 F= -.30357809E+02 E0= -.30357809E+02  d E =-.143731E-01  mag=     0.0002
 ZBRENT: can't locate minimum, use default step
 trial-energy change:   -0.014373  1 .order   -0.014167   -0.014734   -0.013600
 step:   4.0000(harm= 12.9960)  dis= 0.01209  next Energy=   -30.439177 (dE=-0.957E-01)
 bond charge predicted
       N       E                     dE             d eps       ncg     rms          rms(c)
DAV:   1    -0.303917808846E+02   -0.33977E-01   -0.90250E+00   472   0.748E+00    0.257E-01
DAV:   2    -0.303960554699E+02   -0.42746E-02   -0.45356E-02   504   0.727E-01    0.154E-01
DAV:   3    -0.303960089848E+02    0.46485E-04   -0.88299E-04   480   0.880E-02
   3 F= -.30396009E+02 E0= -.30396009E+02  d E =-.525728E-01  mag=     0.0001
 curvature:  -2.84 expect dE=-0.249E-01 dE for cont linesearch -0.247E-01
 ZBRENT: increasing intervall
 opt :  10.0000  next Energy=   -30.450134 (dE=-0.107E+00)
 bond charge predicted
       N       E                     dE             d eps       ncg     rms          rms(c)
DAV:   1    -0.304317799975E+02   -0.35725E-01   -0.36097E+01   480   0.150E+01    0.556E-01
DAV:   2    -0.304490860708E+02   -0.17306E-01   -0.18394E-01   504   0.146E+00    0.314E-01
DAV:   3    -0.304488482906E+02    0.23778E-03   -0.37482E-03   492   0.179E-01    0.183E-01
DAV:   4    -0.304488839148E+02   -0.35624E-04   -0.81282E-04   496   0.917E-02
   4 F= -.30448884E+02 E0= -.30448884E+02  d E =-.105448E+00  mag=     0.0001
 curvature:  -6.23 expect dE=-0.186E-01 dE for cont linesearch -0.158E-01
 ZBRENT: increasing intervall
 opt :  22.0000  next Energy=   -30.459836 (dE=-0.116E+00)
 bond charge predicted
       N       E                     dE             d eps       ncg     rms          rms(c)
DAV:   1    -0.303786689824E+02    0.70179E-01   -0.14464E+02   464   0.301E+01    0.131E+00
DAV:   2    -0.304531099648E+02   -0.74441E-01   -0.75596E-01   512   0.296E+00    0.679E-01
DAV:   3    -0.304523031861E+02    0.80678E-03   -0.16851E-02   480   0.373E-01    0.381E-01
DAV:   4    -0.304525482310E+02   -0.24504E-03   -0.28519E-03   504   0.181E-01    0.554E-02
DAV:   5    -0.304524112205E+02    0.13701E-03   -0.64563E-04   476   0.668E-02    0.227E-02
DAV:   6    -0.304524356454E+02   -0.24425E-04   -0.49037E-05   336   0.181E-02
   5 F= -.30452436E+02 E0= -.30452436E+02  d E =-.108999E+00  mag=     0.0000
 curvature:  -4.32 expect dE=-0.236E-01 dE for cont linesearch -0.106E-01
 ZBRENT: bracketing found
 ZBRENT: interpolating
 opt :  16.0510  next Energy=   -30.470308 (dE=-0.127E+00)
 bond charge predicted
       N       E                     dE             d eps       ncg     rms          rms(c)
DAV:   1    -0.304517329313E+02    0.67829E-03   -0.35478E+01   472   0.149E+01    0.576E-01
DAV:   2    -0.304688924092E+02   -0.17159E-01   -0.17376E-01   484   0.145E+00    0.409E-01
DAV:   3    -0.304687391603E+02    0.15325E-03   -0.36121E-03   492   0.182E-01    0.228E-01
DAV:   4    -0.304687536308E+02   -0.14470E-04   -0.94550E-04   496   0.101E-01
   6 F= -.30468754E+02 E0= -.30468754E+02  d E =-.125317E+00  mag=     0.0000
 curvature:  -7.29 expect dE=-0.957E-02 dE for cont linesearch -0.459E-04
 trial: gam= 0.06837 g(F)=  0.131E-02 g(S)=  0.000E+00 ort = 0.305E-03 (trialstep = 0.401E+01)
 search vector abs. value=  0.142E-02
 bond charge predicted
       N       E                     dE             d eps       ncg     rms          rms(c)
DAV:   1    -0.304728358863E+02   -0.40967E-02   -0.15367E+00   504   0.310E+00    0.672E-02
DAV:   2    -0.304735315602E+02   -0.69567E-03   -0.69964E-03   496   0.291E-01    0.504E-02
DAV:   3    -0.304735262378E+02    0.53224E-05   -0.10370E-04   304   0.371E-02
   7 F= -.30473526E+02 E0= -.30473526E+02  d E =-.477261E-02  mag=     0.0000
 trial-energy change:   -0.004773  1 .order   -0.004551   -0.005345   -0.003758
 step:  13.5055(harm= 13.5055)  dis= 0.01182  next Energy=   -30.477754 (dE=-0.900E-02)
 bond charge predicted
       N       E                     dE             d eps       ncg     rms          rms(c)
DAV:   1    -0.304764711232E+02   -0.29396E-02   -0.86274E+00   472   0.734E+00    0.166E-01
DAV:   2    -0.304804615562E+02   -0.39904E-02   -0.39673E-02   480   0.690E-01    0.115E-01
DAV:   3    -0.304804397300E+02    0.21826E-04   -0.65642E-04   508   0.906E-02
   8 F= -.30480440E+02 E0= -.30480440E+02  d E =-.116861E-01  mag=     0.0000
 curvature:  -7.21 expect dE=-0.202E-02 dE for cont linesearch -0.634E-03
 trial: gam=-0.03316 g(F)=  0.281E-03 g(S)=  0.000E+00 ort = 0.354E-03 (trialstep = 0.591E+01)
 search vector abs. value=  0.259E-03
 bond charge predicted
       N       E                     dE             d eps       ncg     rms          rms(c)
DAV:   1    -0.304815950688E+02   -0.11335E-02   -0.60979E-01   496   0.193E+00    0.406E-02
DAV:   2    -0.304818829373E+02   -0.28787E-03   -0.29214E-03   472   0.192E-01    0.356E-02
DAV:   3    -0.304818856085E+02   -0.26713E-05   -0.50033E-05   288   0.267E-02
   9 F= -.30481886E+02 E0= -.30481886E+02  d E =-.144588E-02  mag=     0.0000
 trial-energy change:   -0.001446  1 .order   -0.001348   -0.001590   -0.001106
 step:  19.3910(harm= 19.3910)  dis= 0.01088  next Energy=   -30.483049 (dE=-0.261E-02)
 bond charge predicted
       N       E                     dE             d eps       ncg     rms          rms(c)
DAV:   1    -0.304824920882E+02   -0.60915E-03   -0.31667E+00   464   0.439E+00    0.874E-02
DAV:   2    -0.304840100830E+02   -0.15180E-02   -0.15245E-02   496   0.437E-01    0.805E-02
DAV:   3    -0.304840074036E+02    0.26794E-05   -0.24264E-04   320   0.587E-02
  10 F= -.30484007E+02 E0= -.30484007E+02  d E =-.356767E-02  mag=     0.0000
 curvature:  -9.33 expect dE=-0.110E-02 dE for cont linesearch -0.312E-04
 trial: gam= 0.27394 g(F)=  0.117E-03 g(S)=  0.000E+00 ort = 0.294E-04 (trialstep = 0.861E+01)
 search vector abs. value=  0.153E-03
 bond charge predicted
       N       E                     dE             d eps       ncg     rms          rms(c)
DAV:   1    -0.304846552926E+02   -0.64521E-03   -0.76340E-01   480   0.217E+00    0.447E-02
DAV:   2    -0.304849993764E+02   -0.34408E-03   -0.34326E-03   512   0.203E-01    0.371E-02
DAV:   3    -0.304849986864E+02    0.69001E-06   -0.49035E-05   288   0.248E-02
  11 F= -.30484999E+02 E0= -.30484999E+02  d E =-.991283E-03  mag=     0.0000
 trial-energy change:   -0.000991  1 .order   -0.000791   -0.001080   -0.000501
 step:  16.0632(harm= 16.0632)  dis= 0.00643  next Energy=   -30.485015 (dE=-0.101E-02)
 bond charge predicted
       N       E                     dE             d eps       ncg     rms          rms(c)
DAV:   1    -0.304851638700E+02   -0.16449E-03   -0.57401E-01   464   0.188E+00    0.442E-02
DAV:   2    -0.304854232936E+02   -0.25942E-03   -0.26096E-03   496   0.176E-01    0.320E-02
DAV:   3    -0.304854228000E+02    0.49359E-06   -0.38501E-05   288   0.230E-02
  12 F= -.30485423E+02 E0= -.30485423E+02  d E =-.141540E-02  mag=     0.0000
 curvature:  -9.79 expect dE=-0.530E-03 dE for cont linesearch -0.109E-05
 trial: gam= 0.63464 g(F)=  0.541E-04 g(S)=  0.000E+00 ort = 0.412E-05 (trialstep = 0.101E+02)
 search vector abs. value=  0.121E-03
 bond charge predicted
       N       E                     dE             d eps       ncg     rms          rms(c)
DAV:   1    -0.304856389927E+02   -0.21570E-03   -0.82598E-01   464   0.223E+00    0.404E-02
DAV:   2    -0.304860165236E+02   -0.37753E-03   -0.38205E-03   488   0.215E-01    0.337E-02
DAV:   3    -0.304860154149E+02    0.11087E-05   -0.55532E-05   280   0.287E-02
  13 F= -.30486015E+02 E0= -.30486015E+02  d E =-.592615E-03  mag=     0.0000
 trial-energy change:   -0.000593  1 .order   -0.000391   -0.000573   -0.000210
 step:  15.9364(harm= 15.9364)  dis= 0.00651  next Energy=   -30.485875 (dE=-0.452E-03)
 bond charge predicted
       N       E                     dE             d eps       ncg     rms          rms(c)
DAV:   1    -0.304861097262E+02   -0.93203E-04   -0.27784E-01   464   0.129E+00    0.270E-02
DAV:   2    -0.304862339339E+02   -0.12421E-03   -0.12515E-03   472   0.123E-01    0.232E-02
DAV:   3    -0.304862338435E+02    0.90331E-07   -0.17933E-05   280   0.160E-02
  14 F= -.30486234E+02 E0= -.30486234E+02  d E =-.811044E-03  mag=     0.0000
 curvature: -16.99 expect dE=-0.234E-03 dE for cont linesearch -0.380E-04
 trial: gam=-0.13863 g(F)=  0.138E-04 g(S)=  0.000E+00 ort = 0.164E-04 (trialstep = 0.113E+02)
 search vector abs. value=  0.115E-04
 reached required accuracy - stopping structural energy minimisation
Application 90931701 resources: utime ~7439s, stime ~160s, Rss ~87632, inblocks ~81383, outblocks ~150581
