10
Energy = -32.82035562 eV
Se 9.41535076525379 9.795862419724804 5.859149824296921
Se 10.903529448204244 11.028839570015093 7.007148833634736
Se 9.708925382719249 11.018931643782985 9.324454581643574
Se 11.689789720456622 10.858709222416564 10.640442243205593
Se 12.025955759927513 8.525145247969718 10.643762428376826
Se 7.299331168877573 9.686522542265273 7.891087882686137
Se 8.10036354515237 10.568933663652178 11.385600345250817
Se 10.15793074370401 7.633484583619711 11.859330147139529
Se 8.687234300918632 6.892710971787549 10.292940547549417
Se 7.004107089351678 8.983378059331399 10.08860109078172
