15
Energy = -51.9046771 eV
Se 8.794342484903188 7.523482822352614 5.697332635437057
Se 10.708577321376403 8.831476857384729 6.241809958202399
Se 10.249655667067014 11.125097546164312 5.927454992110425
Se 7.744661995247964 6.74965190136583 7.649642251846422
Se 7.211807912940297 12.255215417658073 7.778446783675048
Se 6.442968476212649 10.173480039730755 8.533673972556713
Se 9.562105152511858 12.081216445175608 7.976449507326098
Se 9.00413115122493 4.8497655198397105 8.307285005899
Se 11.051612188784919 9.005320285351035 9.705202872999259
Se 5.707903306245117 10.438818380369193 10.781078784694369
Se 10.006641812586098 5.48429591099031 10.342360032886596
Se 10.959763389031338 9.838894716682336 11.921525767743374
Se 11.90476923315379 6.800541037073804 9.856288259401968
Se 7.469485050723331 11.16568512391475 12.138645810459577
Se 8.836336305489779 9.331819443445907 12.797564812260662
