12
Energy = -39.08004437 eV
Se 14.275809707820162 10.971039178243403 10.637678415542492
Se 12.192263902928755 7.91419073063727 13.792302653808626
Se 12.849917218384842 10.421462752537337 8.926650574807876
Se 13.34171497069581 12.992423268844469 11.577992419232098
Se 10.989183766314646 12.578313430159248 11.461082233119855
Se 11.237586425254358 8.775228963094492 9.85795753892311
Se 10.49204437859445 8.903167276192773 12.766490188006909
Se 10.38603853930334 11.253319072810301 13.359402430572516
Se 9.380752708197095 9.151406871969066 8.604329684133136
Se 8.636625926609973 13.023531062734872 9.818460712830648
Se 7.537147064967253 11.02388562862068 9.473298913517064
Se 6.423011296231597 10.930109295688132 7.534506333849961
