13
Energy = -43.99775341 eV
Se 10.065185445528694 11.752566037283586 13.865127024280941
Se 10.57099310241076 10.056922456640011 12.408692721527016
Se 8.841247538655796 13.372334621840396 12.352596279323068
Se 12.851772655309032 10.121398251638356 11.691700769981265
Se 13.114175301376035 11.366224460868924 9.711332915714488
Se 10.65048028250643 7.349001209444018 9.856683553980472
Se 8.845315323502758 12.385948033212191 10.32170346306129
Se 6.858398494675725 10.9196409465186 10.157750550544847
Se 11.973048815723397 8.08616299954148 8.131704561212391
Se 8.87549651827465 7.280208088826595 6.434146055227036
Se 11.60466575723986 10.423380474149953 8.142797569363998
Se 8.382827415633553 7.1988361159666 8.600764446888979
Se 7.481151191430228 9.600219654053358 8.389905887616042
