27
Energy = -92.33857421 eV
Se 9.537223333374802 15.79007712074756 15.669701450359039
Se 9.572020042004915 15.235312689404132 11.740200051263992
Se 9.916599804562598 12.693352308718023 16.229092082843422
Se 13.732201190376996 13.739141609211936 5.9827668921989625
Se 15.689223540958553 11.885321919800068 13.287336005857012
Se 10.986541983496188 15.419417725101429 14.054452836057905
Se 7.6551967817597655 12.003479829467727 15.384902617347182
Se 10.59937843023465 13.5515763571637 10.659756442817336
Se 13.866357920978647 12.779137642600597 12.12254338066876
Se 14.9796205245608 10.824147717285292 15.274007253462887
Se 7.408340157372462 14.507208855615694 12.646038409095132
Se 11.312768211907418 12.676862200056119 14.48956683167629
Se 7.838506039148429 12.229952354615465 13.108904143394012
Se 11.839820727359816 13.682935455624307 7.408129483062153
Se 16.120134209066762 11.76720108169879 8.115825575524594
Se 15.118254247605341 8.484319389646108 14.961458361445217
Se 9.77818432912063 10.204905793627786 10.62289418147341
Se 14.869611042257949 11.683641944911335 6.1122874461797005
Se 13.024968302155395 7.474967116715355 15.369713265318325
Se 13.1664401184796 11.074135532985279 10.56187997668844
Se 8.482622654281876 10.3062217411493 8.683353720911297
Se 10.081457883667515 12.652987037830215 6.203020986333338
Se 9.96655752353016 7.085573504256687 12.89532013712255
Se 15.129996901138547 10.224331029043068 9.61146136271748
Se 9.987823382116115 7.757095422966718 10.676175108589153
Se 12.152413353917213 6.328818319069417 13.492980358048976
Se 9.999979448780437 10.394725675481366 6.855356199447534
