21
Energy = -69.83342446 eV
Se 13.01211248082157 7.168724431334766 10.246917507695889
Se 14.134228849008835 9.160276957096483 9.949552531743343
Se 12.823836251724567 8.819053363757856 6.421536435995424
Se 10.819403225374757 11.594999401783113 8.359348415934724
Se 11.059949945626148 10.194311957877215 6.144439117885709
Se 15.055546978750115 12.023655881502506 12.204346327247602
Se 13.142453336956134 13.810445986480813 12.413837388557477
Se 14.295715502053907 9.88993283786464 12.308302824007233
Se 10.735246988191099 7.550539905923555 9.479101272702364
Se 15.98367546113309 15.369499064892107 14.154388069084355
Se 8.77392894952494 12.473647414994195 7.632266767113859
Se 13.83519043328834 14.99788550860013 14.517496563653598
Se 9.839711486133748 9.197307144133806 10.789621478786195
Se 7.0505675828581 10.904208459707776 8.147989588895088
Se 10.130305982505698 13.185673355729785 10.536631110604713
Se 9.204025284289193 8.062449633729678 12.883909358117675
Se 8.991079647352736 9.977918367105014 14.129541487537345
Se 11.119221550159077 12.510923049648499 12.51049397153344
Se 5.858426829485536 11.519475503990062 10.071307254522674
Se 6.051485429414891 9.758050167110442 11.694891614563646
Se 6.599275181242335 10.523485632968523 13.798186470073867
