28
Energy = -95.13339058 eV
Se 12.226667772586772 15.216031311078632 9.462412997382907
Se 7.636039590653272 12.837299468376957 11.851318548845377
Se 10.465396745233056 15.363640794358801 7.8767011009512675
Se 12.940398734006967 13.030758759424142 9.95823727845236
Se 12.3821168372618 11.149777307278562 14.405815503895607
Se 9.114101757357115 11.013266011522727 11.975899433887749
Se 8.318293905695263 15.609729813479158 8.850387760686475
Se 14.298734922100229 9.989047588400082 13.730273237714703
Se 6.169303293589836 12.349364268962198 10.10785825046591
Se 14.151361423176132 12.34897519966002 8.00699886694727
Se 9.636729421082084 11.564136852906842 7.364891151175663
Se 10.629070736166273 9.489740661494215 14.545378339723817
Se 8.51030036231839 10.181775721160902 9.219277007614911
Se 7.086621013694774 13.764319259252323 8.130112469346058
Se 7.670225028063942 8.687627458329866 7.372715843680358
Se 11.292495012195985 10.409849511778084 6.169197146382838
Se 13.241727313982118 10.247254100169414 7.551463303108657
Se 7.2617502039660895 9.173831899037046 11.788605392972771
Se 10.435287476375711 8.79498583605706 10.071846635731903
Se 6.708923824186301 6.9119363350854455 8.421700955860565
Se 11.690140284144709 7.628483820972102 15.515614515271064
Se 14.556390363444004 9.84720244979794 11.413308801682408
Se 5.362516153041627 10.362571807394366 12.021142584879337
Se 13.403055628591469 7.799047981326866 10.778253601302023
Se 11.824793044589777 6.1133020856049844 13.707765854246523
Se 10.365234687032999 7.059261550496612 8.43674031982589
Se 8.742893932650517 5.566020959851954 9.08441741726756
Se 13.869115265244849 6.317765537911639 12.549865091648263
