26
Energy = -88.09667469 eV
Se 15.438122080912901 9.283369920364057 14.34527167302596
Se 14.036839822333494 7.504979597652871 15.003229774915742
Se 16.159084406348793 10.563664746885602 16.19217448856829
Se 17.003098421082527 14.419149372147551 11.6849713314208
Se 10.967344801405792 8.604096155570385 12.922329037816741
Se 19.358917659352933 11.565654561726776 11.200129733544813
Se 11.817053458379089 8.346558276760536 15.095322565457373
Se 17.902250489937312 12.814808878298376 10.063548880943733
Se 14.749008924895069 12.42120086821921 16.526608528124875
Se 11.76466831715142 10.921013879203203 12.768812097531704
Se 15.301221825354771 13.871704719276774 14.711319343401806
Se 8.374007989618617 12.216536910550435 14.446693403233557
Se 17.30580966982119 16.48595399104045 10.63175472906628
Se 12.097364857885204 11.517268701629977 10.582102973533557
Se 8.375324451267076 8.722515084514919 11.02247886932302
Se 8.126194168832635 13.999334215975324 13.048603965787034
Se 13.279199314811489 14.034241585569687 13.508810394983973
Se 6.743595268110538 10.53171761012724 13.39480509240763
Se 5.970029326741717 11.529649841254706 11.565774963057725
Se 12.496601697831927 16.234478803233568 14.02387918385464
Se 10.087164855186108 14.349854685112819 11.675782818517401
Se 7.53568847532975 10.349294288979815 9.775884058047204
Se 10.148837274658508 12.811819981227652 9.919304705155072
Se 14.16743322724508 18.501734358968992 11.246138238422208
Se 15.29283754690368 17.21078771727719 9.621352656978925
Se 12.262949238970426 17.2658706159039 11.924102063999312
