27
Energy = -91.28711906 eV
Se 16.604600740621052 7.952498567887501 11.255739333631317
Se 13.576867954604138 14.857217706686022 6.027644511844962
Se 14.292515826180674 15.558597835933663 9.633771280199197
Se 15.796844549036145 7.044802357400109 13.078879691264929
Se 13.901665675941294 12.001802265597055 8.573365744874836
Se 12.969583030908714 16.215486337018746 7.74031723605787
Se 11.022298128254679 11.677511843551269 15.373082568825826
Se 13.008199036610474 10.641178699717159 14.557440963849206
Se 11.397861673026703 13.962041632252076 15.756336936187598
Se 14.901956575593895 6.66477688713368 9.646560743180176
Se 13.915216459204206 5.6107853519534565 11.295614298581242
Se 13.249415007210036 13.457049432484592 10.183676577224713
Se 11.980461266164264 12.826320835740844 6.8283933650183775
Se 12.449833769180527 9.834972112067142 12.419032576692596
Se 8.904805895188026 15.347526080991962 13.212053024796017
Se 11.571904843847099 7.685340733094851 12.87053743872943
Se 10.645267525066302 13.886999459548388 8.211123698581362
Se 11.182871222024733 15.259014554886257 13.792652035897593
Se 6.354036836952482 10.981038971906916 8.887954808947352
Se 8.580345915128268 11.715427104251662 12.054267342830482
Se 8.851179089116629 13.906024408829099 11.313949700498364
Se 9.19986511231555 7.939297757447641 12.942990819432111
Se 8.308056053957012 7.773928049148947 9.163228495706088
Se 6.079407207517319 8.765837985599955 9.081910807122764
Se 6.146672502177969 11.432245270671844 11.6203299361143
Se 8.418287394846127 6.584662210682018 11.167499834082447
Se 5.657884583603789 9.35444834384778 12.224075134361001
