32
Energy = -107.17320077 eV
Se 13.262473842877359 19.748877686850033 12.20413113547171
Se 11.681406014899448 6.679529599776456 14.608143857519575
Se 12.503646116324632 11.008283217380272 10.141710198460775
Se 11.56972790225609 14.10607713536567 12.709900565080895
Se 15.203594806726858 13.36159363162862 9.052623845301746
Se 17.32310179298117 10.325785534371095 16.399188973419133
Se 10.014178253196002 14.913367689146012 11.13178144953443
Se 11.575128524390204 7.022234157401911 12.27699012305892
Se 13.844214872021547 15.173616770805321 9.743889780371001
Se 7.987084011906173 18.515740145493407 12.49551905605924
Se 17.212028484465243 12.378874787673295 17.416734791491194
Se 17.03301788952451 18.43219194823472 10.946194395657697
Se 13.757824877169863 15.022361682913935 12.0728253024481
Se 14.93325298177791 13.98216949990056 19.999105894045176
Se 10.034913605912026 18.214345815010805 13.33053303482933
Se 13.704768283011104 7.5520377539144725 11.412428428122672
Se 9.272251740553294 9.514355870891947 15.370866052842635
Se 18.36468716071751 10.052710398410527 12.765826409128271
Se 9.469228651467725 10.1365494283867 11.65807775830123
Se 13.595488104140962 13.794401659017813 16.56359486891776
Se 8.22895574556337 11.668379669632142 10.384845908324525
Se 16.66657582563409 10.737329016511849 14.044485781808461
Se 14.887790487511394 12.455747916216719 18.388346922038885
Se 13.666729420328537 12.783986849451198 14.566027704423956
Se 9.79601024989422 13.204765526585302 9.490349874631752
Se 14.570305726250414 18.80365797776081 13.880671802548944
Se 9.508002906220206 11.233778122284747 13.820769681708
Se 11.647353591208553 18.194497166420394 11.489228874615316
Se 13.900525696287094 9.892469968751437 11.687910276281082
Se 16.266524835543983 17.404539981534306 12.763666653382014
Se 13.76983556571354 11.670969416631351 8.246401157690425
Se 11.504711233494413 8.77011317561505 15.692568642452947
