34
Energy = -114.79463121 eV
Se 15.220266103792651 17.18421901837909 16.598090755760207
Se 12.902925599646986 15.990621373833731 12.433803709785526
Se 14.699368583729205 10.672296111396005 5.583636723817531
Se 9.287904515065195 7.695912794846843 11.681259484353685
Se 8.707597684361382 8.56468783182041 13.806779111688744
Se 18.756032959694128 11.392498018136362 16.08740200026285
Se 16.989974387601016 11.16837511345652 14.44967933754948
Se 8.908526270648705 12.94113147050914 16.46678955532685
Se 17.69308092661112 14.60465618046842 17.72146525553109
Se 10.892346948178433 12.583853536907856 15.476727213058284
Se 17.639997281712198 12.288817763474782 17.96198891433737
Se 11.421154820237417 8.62689983217046 11.273909981850956
Se 16.721752379546064 10.101525662899965 4.843032216934698
Se 11.137656495770086 10.967521651996861 11.169734270424321
Se 11.983462004022211 10.800531239130184 16.723942793884557
Se 15.697786623976741 14.896136808422881 16.37139822751287
Se 15.281765687121892 19.02876162161869 11.304086944531626
Se 17.446762969810692 12.591080415519206 12.756241626462538
Se 13.404510024285559 12.417414376016321 8.586918492195041
Se 13.691618093080029 18.839401143473182 9.679559301095962
Se 10.21132520790718 7.64975139142678 15.36224380578435
Se 11.197711273072155 11.609382402329324 8.900669603323314
Se 12.016213132546046 16.887437847014464 10.285116057202524
Se 9.85055269646634 16.90412710323725 17.951111231643534
Se 13.62415358759244 17.620634942414735 18.24644562594308
Se 16.9509009486821 17.387283494662107 10.787759929056897
Se 12.143853147347045 13.954193390019482 18.052973626289955
Se 10.032753985768696 14.30553584014555 18.584891799756328
Se 16.64013966224516 15.863256690108635 12.551348655629672
Se 10.056079252903706 17.721521316937935 10.927197605423217
Se 12.137617240636342 9.037045015060018 15.19462567402733
Se 14.814027931768772 10.644794286516255 8.034846196332394
Se 11.736558241883984 17.08874167146019 16.75528667449205
Se 14.702817334816634 14.56914664671944 11.988231601259494
