34
Energy = -115.68746853 eV
Se 11.109183725298562 16.790509184241476 13.703494931239058
Se 16.377194481346 13.40592121132994 17.461187410367273
Se 14.466346505453302 13.821509922718182 18.485253258796128
Se 15.308848820735237 9.774275778640318 16.02660579612444
Se 16.690937870304506 16.814127541544856 12.479571976967453
Se 13.598415469321464 8.059570482366267 11.88954785503519
Se 17.14858003765235 13.585699819401487 10.710377774446561
Se 13.583324351705922 21.015885479350256 13.486878069838346
Se 12.767948715110878 12.722057558105815 11.832102283607366
Se 17.367699250214727 21.47369947021998 14.247141590409276
Se 16.08758750207107 7.938449609650051 14.719618742654365
Se 15.563649032260319 18.094125893074278 16.303041402337243
Se 12.364718516317351 8.100031105490483 17.70886153857881
Se 10.76456864133639 11.717439487477229 10.949591346369475
Se 12.622995319337317 19.70025126993227 11.799889956304451
Se 11.386782041464288 7.8266683584920465 11.67385895758616
Se 8.428015227370288 14.449981788786259 12.18032647606287
Se 17.86474149368229 18.337742635300778 16.224529090914928
Se 15.429501947279524 15.083372762651765 11.186526438748952
Se 9.128453956326572 16.67607106570808 12.39570569443013
Se 14.559396086854472 8.886485839972103 18.077542639592778
Se 9.503160803128168 13.552980760725065 10.244834516607769
Se 14.227566023829306 6.804460153626843 13.895707101227359
Se 10.881668383926643 9.904088252431604 18.064504977949376
Se 13.2598441599267 15.437271850004239 16.91459761716725
Se 18.91031919966802 15.103900614136249 10.259152295700003
Se 11.668683154666681 12.542984323323688 15.527023743261914
Se 10.198413149565384 10.73719913762664 15.965453277342371
Se 13.159690869127196 11.661365432321775 13.888596574243437
Se 18.785727827687317 15.81971923284675 12.536621322432861
Se 12.831260816663328 17.367445114014856 12.19119160936108
Se 14.886171309144855 15.929407509163129 15.39089532478829
Se 15.718862853926447 21.666054741846065 12.60990574159266
Se 18.358690621908238 19.309942886061954 14.099065111603746
