32
Energy = -106.78683493 eV
Se 18.678272154058735 10.83700447089573 15.66529961895893
Se 19.298610645310653 11.636957479209299 13.55224322479098
Se 15.104408085086556 8.33351200621796 10.501445484013924
Se 14.466411041743088 5.867416511203852 10.367170397182887
Se 16.34767201655333 10.724581261850044 15.284018477785164
Se 17.437677103922997 13.268382813497789 12.966587044967607
Se 13.110173043915834 9.322032978822708 10.06958231104805
Se 12.263491789169006 5.857525616983254 10.183963827201817
Se 16.176981247149275 13.050042859383364 14.963079111951563
Se 11.793848203630224 9.385628281341715 12.20468292866139
Se 15.927301111551335 14.03196617303177 9.392433811974527
Se 12.232530250260497 11.260049067192119 13.321047485170899
Se 16.734977175338173 16.22474864054016 10.41881846128304
Se 12.726956763676293 14.637939817743787 15.089801421028604
Se 15.100247990032475 13.039784267190482 11.191764160880572
Se 16.09091423122497 15.922473188129663 12.531118112403078
Se 15.933485412844492 18.297507799949912 14.987971128036778
Se 9.979335726950923 10.580116302871119 10.333646450771932
Se 14.099730057173185 18.666280396133573 16.144438288301806
Se 10.25161022429435 12.570298488477759 11.320812203125971
Se 11.402728333797912 15.901544790553594 7.346799536618871
Se 10.97602398938248 15.434461617766688 13.710493120766495
Se 12.815809224338123 16.840489108679524 10.711496512140021
Se 12.418457858349253 15.843841146381507 17.111275226606185
Se 11.247731488581096 14.517033546523763 18.677126266819304
Se 10.836303208416764 16.89571576649489 9.258677771561942
Se 8.972486284857041 14.545001616311069 17.985522011630493
Se 8.270380511522855 13.00326012424617 12.727837703039349
Se 11.790416329096539 17.43477900352712 12.71649087925972
Se 9.5957812226105 11.363262150854736 15.9067455862751
Se 8.478039851347088 12.24927886335509 17.79121888665665
Se 8.060541577842844 11.152283981479927 14.10796040645309
