39
Energy = -133.85303372 eV
Se 14.312881852155177 11.890354492071632 6.33211566063762
Se 9.392566692484165 12.548753599291919 6.709037874435891
Se 10.401902249180276 7.299919464762037 9.0781926342071
Se 8.31559088017333 6.418662022338912 9.74891803235414
Se 9.898673069930796 11.39173928705432 8.676229681203608
Se 11.981221458437735 5.630149170533638 9.658260004596235
Se 12.993857898242332 13.466189395464411 7.411234069379808
Se 16.269559600361667 11.59792525563736 7.651489687551905
Se 16.09668934399392 9.383705335945193 8.496844590375721
Se 7.851801480999534 14.233073770129756 7.3933365253231695
Se 9.832238552445544 15.598118359932814 10.198484559690046
Se 15.923696250127858 15.284352993159871 10.233095369651931
Se 12.249150265645133 11.858499212278472 9.303807687016745
Se 6.326916888087699 11.125835343543478 10.09600913582991
Se 12.761297784185967 13.42990696210173 11.200657506905095
Se 9.134533704335114 16.109493514461533 7.994009601694947
Se 13.450686780573495 15.50285117452089 10.528965044625366
Se 7.481206133278254 7.654796238750037 11.585130028790733
Se 13.274057487278412 6.184854906089492 11.533066759274387
Se 16.382892477578622 13.155260158289362 10.965158316620736
Se 8.508305017071072 16.7172585515285 11.814555725571052
Se 14.646874160818543 9.219159803122169 10.313955062251166
Se 6.387568803410448 15.755742888208443 12.049859607685795
Se 12.21679099197249 5.10600828835717 13.422042537323843
Se 11.273634107248528 10.528888758920528 11.486313357832108
Se 9.515240475897938 11.844069312991596 12.312971545145043
Se 5.724521342707322 8.90058974266619 10.607920685001359
Se 14.617433641354145 12.490861388142394 14.152318832809454
Se 10.49059072376357 13.151936044259239 14.059609722301722
Se 9.983283994749144 7.939266243380661 14.572734070952933
Se 16.140409049163072 9.568988662013131 12.24827500617317
Se 16.653711142277416 13.257358606539393 13.362966922102567
Se 9.538283602969017 12.466017697098048 16.096599501338588
Se 6.510327163836883 13.626156194805139 13.15201421803564
Se 12.09416256921159 6.783189014467287 14.996180635830878
Se 14.872784826536352 10.050952216000873 14.080481137417301
Se 5.121905330042769 12.38506771256052 11.731783368159373
Se 9.548584631203601 8.726116894516531 16.712376344309735
Se 10.820078211632996 10.713841959428542 17.02890958495585
