48
Energy = -163.06962873 eV
Se 12.339612310046892 15.307813605114417 5.8467953851025865
Se 7.03146041480811 10.903662054322627 6.320433243192727
Se 8.389701425378165 9.079524997870596 6.417802644933732
Se 10.525240099066158 9.889095389710818 7.225155675539797
Se 10.894710560792028 13.602913059633917 6.570192018236357
Se 8.98169770714211 14.66042014989595 7.401617374153012
Se 11.501859875799795 17.676602075728006 8.72442662077707
Se 13.678683648795936 15.911684719536984 7.735346343956972
Se 16.118838406825493 12.96740003638033 8.297691948160947
Se 6.146616585929952 11.217074006017945 8.6506071254943
Se 9.487891534747048 14.632538783344152 9.875584258060686
Se 6.968226570458889 9.483702106235782 9.875034745137802
Se 10.268829103590125 16.86922362538967 10.423701088220493
Se 11.352521287055216 11.4318978121921 12.890915497392385
Se 10.61886889914701 8.95294166361201 9.375380538319895
Se 14.970208879919154 16.82597116785624 11.714438320045879
Se 14.525095935807498 9.586605518647835 11.579494840512533
Se 15.916725276774022 15.08418481882666 7.283409407043317
Se 16.311719620086663 13.417554301647668 10.60475318728262
Se 13.443489187436057 11.829817149844995 12.152672243809333
Se 7.9613642055235605 14.914230474934664 11.90317368493416
Se 9.14453402762706 10.241286936253193 10.695441702204526
Se 19.52365396426156 15.380716066248132 11.2911885314444
Se 16.68076017129637 10.998324643387887 14.552361703729396
Se 18.61951284721061 13.305811531208565 11.318349768584444
Se 8.62679793427399 13.656452902979725 13.758000020671412
Se 16.86186455550248 18.058113213670886 11.993102156692693
Se 13.24844189059874 17.744535645133308 13.116638097900273
Se 16.815085040951104 14.758939602231807 13.867397755204832
Se 18.28697685389792 16.375318798805154 13.407284378502911
Se 14.617978701756323 12.321997256548745 14.370924662005105
Se 13.671480179027473 8.196533203715793 13.192488313948562
Se 16.25370637797558 9.057419442744262 15.55754973440585
Se 9.931990124644223 7.639709506322539 13.39112241110959
Se 16.27552920639002 12.666888167542583 16.79462362784021
Se 11.851457700202047 6.945709572330574 12.22337020807232
Se 9.804691203934816 14.99772831753092 15.277459215408232
Se 13.1928987233616 16.67573644811245 15.207798811329477
Se 12.169718137340295 14.561327953579058 15.071317931868721
Se 10.155815808183352 10.490028937290374 16.079514140144386
Se 13.460133315072934 10.304155550411155 17.364686251999874
Se 15.681046755851542 10.888254028969321 18.08615270566026
Se 9.407598842169827 7.737024848314797 18.601744175332463
Se 9.767226584787153 6.149879734670004 15.204234418603567
Se 8.979193603137594 10.216297807560482 17.938815137997686
Se 12.094216698674446 12.11089132654555 18.17532874809592
Se 10.681372479571111 11.32040617534005 19.742252592832624
Se 10.958046905773314 7.150745034413606 17.047316776708136
