49
Energy = -164.28585264 eV
Se 15.199880420768379 11.738545754512947 12.30242779642356
Se 16.940598151002664 14.818145819069088 13.756296628892043
Se 12.407716905782186 17.983153096513494 20.41458286679813
Se 12.953710358781642 14.26480107716748 20.94284613158888
Se 11.670839176269679 11.213793890423368 19.630389548306347
Se 12.683139979033871 21.187977121718276 16.059499135444575
Se 10.494722060675485 22.54053272983381 13.208662898366654
Se 10.040323139634713 19.357414957328167 10.974211457343463
Se 21.017314905597168 11.393212249828249 16.37296668363879
Se 17.58155500199694 15.921272667366525 10.170710033395041
Se 22.37638660159441 22.0103474047587 -0.03241891368037416
Se 18.703064366619433 13.645917766599963 20.815662725950727
Se 20.149571494346453 12.69762422900486 14.575614597815143
Se 18.97499375327454 13.264496766172474 18.55397892056449
Se 12.68194415891682 23.237762167830677 19.301198597272393
Se 21.463440905711707 17.050525560840864 13.009441302953423
Se 22.52193938644317 16.842879130219067 21.240631021796553
Se 10.19274044309429 17.57981042003413 12.547076620370088
Se 20.861212073386383 20.667006867107858 24.248848560105543
Se 20.517754316939303 16.564110026750424 22.50818776513565
Se 12.11331292625197 20.120401394509027 21.297829933249062
Se 13.567512256789882 23.104228879662756 17.118750047465795
Se 21.855010001656765 13.19874956570506 13.021854157452548
Se 12.41634482835593 16.838740280374406 12.398868884227642
Se 17.988210515462583 0.12622474558403174 15.016976243903661
Se 21.418633436922867 12.814944103949284 18.195761434562517
Se 21.334202177326386 17.038103989050725 10.60339787777513
Se 16.323213425459077 16.40342091836325 12.115182984229781
Se 23.933013749767056 13.21209210382727 21.23078329250411
Se 16.737552631131557 10.033281309690345 13.362201774538201
Se 15.063085731885867 13.34995503665985 13.923391238241768
Se 12.017407940926592 16.262511315444176 17.099020012661125
Se 11.078743855572814 17.956095336460137 18.394390795390766
Se 13.799372557995508 21.684558073033507 20.680976565412347
Se 24.06756196469324 15.344201587935494 22.19389822620785
Se 10.468929876803292 21.525178316371168 15.347514868410217
Se 24.23220462791061 12.589999827987683 17.506514940038702
Se 12.296618132843847 12.981277070393407 18.4919693308733
Se 12.301635675987397 12.463503181780014 22.004951150778215
Se 18.770750223155222 16.0306030965205 21.05471806867884
Se 22.897062950104768 15.275818117400709 13.498517432064027
Se 11.527755910712752 21.012371593515084 11.737621123902153
Se 13.487803120635146 18.19616875401929 14.030832971120265
Se 13.99291507510046 16.84768907871657 15.898578099975037
Se 0.04125742652401121 13.35413594514515 19.302190263798163
Se 19.152013743061506 17.708859634438046 10.140852444755803
Se 19.166578116846146 22.05669191183743 24.913530531716845
Se 17.416858478148086 10.892625369062435 15.290535814609182
Se 19.212982161475775 1.533143868025442 16.173401525214807
