47
Energy = -158.94939583 eV
Se 6.4370384257165165 15.063918996782427 6.488889919543676
Se 7.186663198391665 9.530733820255264 15.170691360336754
Se 14.378359938097883 4.956721921474098 9.88807723919345
Se 12.029576702249217 9.71952490364447 8.44559283945429
Se 13.535464181300764 8.728095239181261 14.172000269665839
Se 10.0894556177286 14.895217856017377 7.684880855676693
Se 7.755888266511168 14.552410051742994 8.358402717649698
Se 10.1844868566041 13.008083685504971 4.401652229740564
Se 14.986795876544829 12.024243001371316 9.197448232431453
Se 9.004248734535775 7.530713090737153 10.165204157560769
Se 14.493028564905842 9.817039498429322 8.896804787558228
Se 13.5291278087526 14.506334165483375 11.672405667947444
Se 14.580467366881491 12.448673694701444 11.56009244817322
Se 7.86302858635938 5.735823015671816 11.133523148697067
Se 8.145638522258501 5.419561096112186 6.734897823344643
Se 13.114135877205854 6.736519103680567 12.427431231233623
Se 4.879027143738541 11.39951658019398 9.974539830011192
Se 10.733966630100971 6.664730375164451 13.209604038078998
Se 4.3021570297778595 10.668366547302329 12.307557683584022
Se 10.436655130200053 10.042775697224247 3.1308099014702604
Se 10.156593546831008 4.486253879048973 6.82585434424883
Se 12.176497156962425 5.033266590524409 10.803243905299702
Se 9.732575228054474 2.9860572354149335 9.165739806514985
Se 10.465229559278995 13.04346906465075 13.670818717414896
Se 13.71907793564035 5.90060242534597 7.349212016450803
Se 11.36913794786854 11.866279105663807 8.000351424253001
Se 5.1925946340127895 13.095178669984794 5.974141296441088
Se 4.613867557638447 6.894066153834277 12.050865311750327
Se 15.485742062690472 6.522155955017447 11.148998132316192
Se 10.113968805551053 10.865971637655324 13.063231938278246
Se 8.433653240487972 8.938862962346086 4.000834588291304
Se 11.144504155696099 14.269405876524255 11.389419002142017
Se 12.117639941924994 9.76012900572672 4.611192632765975
Se 7.2947813045335375 10.830412140873731 9.443285150271928
Se 5.131050138883526 13.609743933716835 10.266976756144421
Se 10.743168015328177 16.043548508097263 9.58572159218308
Se 7.236617805848378 7.189612840592957 14.779943034675446
Se 5.029826470090847 6.468761071915385 14.335724679924903
Se 3.0841934416980648 8.705493538027568 12.032958922991414
Se 7.517673937502722 10.298228383894523 5.611448522228746
Se 7.699476871776066 10.49530097296996 13.087070893341469
Se 7.5859259364213525 8.669388091622748 8.598902282383426
Se 11.96633983600718 12.31100185902837 5.525132938685139
Se 11.318903317975838 8.477232747895046 14.670807283074069
Se 11.553125154436561 6.437650614155844 7.654453412273981
Se 7.719952053578171 3.9325344857156748 9.475053614533548
Se 6.149821641049056 11.837538064708845 4.275259575397458
