47
Energy = -161.12455854 eV
Se 5.820944795433799 12.698942534118116 8.71262771345418
Se 11.838492463118298 11.101182561235674 4.709220350710741
Se 8.961821852835548 12.772901621544367 6.3772572929990305
Se 13.395957184148736 10.611524012191484 6.413555706877059
Se 10.922361554894023 13.225971521932145 5.162036517157863
Se 6.637229398563587 14.254375540734614 10.485060702309895
Se 9.333111302693315 7.777937426850893 6.987511231330129
Se 4.647143592147182 11.139571240668529 9.860729925179207
Se 18.156643895940437 12.745014161275781 10.079130831468257
Se 8.944114988172544 14.688159851485267 9.609137024311678
Se 11.45410141403492 7.733156540049348 8.022526276926424
Se 12.155087527291917 9.973490288548957 8.320599884232024
Se 16.255470853733126 13.798211450689925 10.994954147075823
Se 13.801171574125378 11.139855682408092 12.070610621583704
Se 11.173412505145615 18.425358183020542 11.95400984041834
Se 14.360001885531739 12.58004549051508 10.280239604936211
Se 7.232337137558568 6.0543025510789725 9.608236722620473
Se 9.657389557347713 12.695502288896376 8.668372571396766
Se 6.464972702758312 12.715089261774207 12.364564710160156
Se 7.675087962947191 8.160774456125784 8.620990106172261
Se 18.388888697923406 9.040477106331686 10.983141252398314
Se 13.403191534288883 19.244646758780288 12.522823130055288
Se 18.960863871625648 11.2273319930314 11.700082988591399
Se 10.439276853889591 5.3205653406927595 11.519313417903911
Se 17.087996663967413 13.996361140086838 15.352918452507906
Se 15.36450105403336 12.396541912591864 15.537425650548611
Se 11.75062431562517 7.282146933700682 11.680044474264657
Se 8.199077564077697 6.0586243878223 11.754496214957518
Se 10.184346026844596 12.304639172213774 12.238510963391406
Se 11.145901300699942 16.30649035366586 12.877382800127483
Se 16.10872485047611 8.759341450935807 11.431627417254193
Se 14.73534870462156 17.379867427453615 12.16248185743395
Se 12.191720275539463 12.294430934845316 13.412309032023774
Se 6.887923420766995 10.638494600642694 11.429214333729314
Se 16.021543684488726 16.10384823507394 15.653871219217429
Se 9.32618169033481 9.962802470149693 12.560117659947338
Se 14.737107588048666 12.248137007705946 17.81443088418791
Se 15.88637479012048 8.455588094436846 13.814641520947482
Se 12.315870491409383 7.520332126669377 13.964156801116077
Se 9.03403954337589 15.098704498781913 15.8174767456243
Se 14.223969243066467 16.10231134372219 14.134248686323142
Se 10.842766602407023 16.476065669601116 15.286847151648917
Se 14.525613660965123 6.578720480651609 14.074042469106441
Se 9.510532968323965 9.440491818606903 14.736657212466943
Se 9.946079045029418 12.89616706108054 15.997654367309464
Se 13.017350986017968 13.846266229346629 18.124990610402087
Se 10.917606291406427 12.769514654030127 18.157996772990234
