48
Energy = -163.32914661 eV
Se 9.94912180492272 13.980094905966114 5.38699044402543
Se 11.325598905923233 12.998303445601152 7.422695286321843
Se 10.389118395574615 16.21583275106836 5.698786776788284
Se 8.328963643144757 8.543383764418543 7.5841167577436535
Se 13.001249848796368 11.498865524323682 8.861054569764303
Se 15.01232862688301 12.3412822796936 8.089652299556997
Se 12.653967220483276 16.60113107450992 5.307185896330472
Se 13.502178947240253 16.055340481118144 7.585292869373456
Se 15.36131609804584 14.482971525845292 8.816015202199168
Se 7.25537298149618 12.818579714178037 8.694063145882126
Se 13.34464906118757 6.497606131542581 9.093372775291126
Se 6.397159253791587 8.138683350482847 8.85005744609744
Se 10.489153510439506 14.423117788037045 9.117588092150333
Se 10.175185179372592 10.257885476295042 10.12735480598321
Se 10.22889406644797 7.949085352592733 9.036344704441001
Se 8.978781930609498 13.148640970826635 10.399492253004167
Se 14.65616128494668 8.574319666648643 12.230928698264062
Se 14.391160799396536 18.025109909353066 8.60833100333527
Se 12.708892739962604 18.79772669667447 10.070556282938716
Se 14.293733543429449 6.347988514178056 11.09508000178892
Se 13.606486425268045 13.580068302491158 13.222285998093229
Se 6.340866790713859 9.690429885164386 10.618846757418886
Se 5.540387678388978 11.81997117398225 9.905553972457131
Se 15.494536895856228 14.541563815799512 12.1255994424209
Se 16.292768729430104 7.628723492320641 13.614970019872747
Se 12.893242869034182 17.666883994383564 12.134236665322126
Se 17.178730647223002 14.86455243404807 13.744508451265661
Se 14.307421965220367 11.406125115715037 13.754574705014688
Se 9.27049565349765 6.507154493741736 10.731415685735978
Se 11.575726297927634 9.98577825674415 11.92363346920012
Se 10.904568101942798 4.787909095754788 10.935359418112348
Se 8.727221603422272 10.609584459079946 13.59665244863754
Se 9.102893529460463 13.989670320538874 15.137808815740934
Se 16.351820589545838 18.522913004960916 13.746069674339108
Se 10.22150676338627 8.937773514837888 14.852795084128067
Se 15.129826838085414 6.863924289899379 15.557543067002339
Se 12.32351672841127 5.3657675130887235 12.608632718039923
Se 16.49467763425926 16.6384278115902 15.15681378314552
Se 10.316318606720257 12.724364930317211 13.65136692749108
Se 14.048768731401752 19.03555849745728 13.668919336762611
Se 10.149190204388287 13.795253713731368 17.28941643912457
Se 15.376740441488217 11.74755174978317 15.877254941344871
Se 7.10365759746766 11.149027718963163 14.999251445478224
Se 9.050882913382535 8.780273277051885 16.825830152632207
Se 15.720935276333355 8.357470510298393 17.272158595291078
Se 14.245909215114409 10.206292688931397 17.238448582852023
Se 10.11564778053649 10.174332399928977 18.46371299946579
Se 8.965669443000175 12.22010800904286 18.5647848853331
