4
Energy = -12.37041584 eV
Se 8.924953603751488 6.515537991622903 7.412421429481819
Se 6.529200858885424 7.040668360449389 7.835314082070476
Se 5.076744286014584 6.382708913008085 6.311540458382684
Se 8.177732185100966 8.769715668672072 7.149354963817721
