40
Energy = -135.60300112 eV
Se 11.648964112724613 10.571620358513805 5.929774923647416
Se 8.326768657126152 8.132667272984149 7.560658149358046
Se 6.8490919789311935 11.78144314482851 6.97954070136823
Se 11.720249815527577 12.909568400289594 6.196488535287681
Se 12.65217844338976 9.590455322026322 7.8807372584612425
Se 8.030755011226368 13.789288097057321 6.611968474791952
Se 10.080117887418146 13.52854002187737 7.783705757800712
Se 8.993033823006183 7.650370553792084 9.638603153640146
Se 14.822288255717249 12.470136214462773 8.631413418173363
Se 13.972500650672833 16.112267875431314 12.401673168488106
Se 16.24235115553921 10.845073354410896 8.054870853205836
Se 12.018993931307921 12.118575837378707 10.364899471096502
Se 15.147881150371063 14.863651956877312 10.810340644414497
Se 14.784489894015811 8.877620789081249 7.4262200149511965
Se 5.367786735550487 12.160826794007772 8.798657924346688
Se 6.280115382267906 9.214655364688147 10.851913707928885
Se 11.153564765084681 6.4010013713837655 9.435853582388017
Se 8.224874991436433 8.497337815502295 13.998342970382954
Se 10.417323258758586 12.349469400151323 12.058607118657413
Se 9.156501386967308 14.326269107360854 11.471942794657053
Se 12.16657062652642 8.804193321339312 11.71967871918834
Se 11.067443957809402 5.17837171038647 11.32968380204394
Se 14.543360830996326 12.50391871798035 11.251730736933231
Se 14.700571697871695 6.3317429136969 13.035888615306025
Se 15.389802969358012 16.68252425282254 14.205198115909095
Se 6.510081714795884 11.628041966995276 10.762259664227399
Se 16.86656721823638 11.31288810476825 11.729576451974449
Se 6.065455535123022 8.732160503307929 13.150133502339305
Se 12.118473821655332 13.424015922979354 14.756016929389286
Se 15.36046432315109 8.022049506483972 11.732349894858384
Se 9.875870935820032 16.09932538408589 12.729149542394305
Se 12.023594531683463 7.003390276251652 12.997876256486599
Se 15.408235338694825 14.824777635364335 15.667971669437174
Se 15.858136335135397 9.914244721403898 13.254146478770387
Se 8.438660162866029 10.79826057660653 14.857623748373836
Se 12.174052625228104 11.128194699202156 15.289225112664408
Se 7.309765102377673 13.91378412540528 14.462697557145233
Se 8.493085903494396 15.742951926373598 14.843101708085857
Se 13.212437822659588 14.647937341265148 16.49237555713281
Se 10.129869152766283 10.718719234462764 16.449435207582773
