43
Energy = -143.59280189 eV
Se 8.454746183376693 14.681187577233729 23.10767006265772
Se 18.322991106297888 22.210731374452706 20.390565716633922
Se 15.734406318975864 12.261216589775042 10.512153260042624
Se 10.952428988598077 14.990210518562623 20.248434446762236
Se -0.12683438542331285 15.90637952999391 11.292664174351792
Se 8.757357268578401 12.073613156949065 20.492818665677394
Se 23.10618305856041 13.835555376726072 12.399497208843352
Se 9.92129807609117 17.014667743916924 20.43715544767149
Se 8.185297959422323 16.768313424467994 22.229662594221633
Se 21.26305004703163 13.792798906211903 17.50844179986906
Se 21.29787178552795 16.98646800188679 11.268129237669694
Se 19.57985461443665 19.59425384164661 13.178035787972261
Se 13.493846345308018 20.13760199434823 12.70473421861825
Se 14.57714531283289 16.601329247132213 13.708196764264805
Se 21.34612367193074 18.12135585177909 13.42907368943304
Se 18.098795054133625 12.30895122656941 21.165123424104788
Se 14.635166076617926 14.506790894524588 12.681559973297857
Se 17.751184617827075 14.640988151965585 21.000038995445447
Se 14.153122068182803 11.134333697342203 9.383097242096412
Se 14.00710891532433 19.830888718815494 15.010010873287388
Se 12.00345779978491 19.90656416729684 16.319785293833498
Se 12.240040368975587 10.720238070326886 10.824569754956606
Se 11.464382064841129 12.852090707108978 11.407317827478368
Se 17.589631105270303 18.392229188805914 13.770354338428852
Se 10.459449500828239 14.520269098092248 15.874474175060064
Se 13.758576223834662 18.669802225574315 9.629507478898814
Se 19.845497732512182 20.711480717816812 19.876117443698046
Se 21.05153233276058 10.822342330404648 11.426131139888058
Se 22.27335934295688 12.459747786175505 10.545026389250266
Se 9.545036234045364 13.59744343620347 18.849162280158435
Se 21.239140910376655 13.714907346330188 15.271776286560927
Se 16.244091086050542 15.001257621619121 19.224113092720696
Se 18.776925462572294 16.76999676493226 16.957632256975415
Se 10.061071937377028 16.71640604445642 15.644514700659133
Se 12.576792636631787 13.449250797822009 13.3890454880015
Se 17.405296722171112 14.866590468914291 17.174389779568376
Se 17.487700406907045 18.56198068633733 16.119521058148766
Se 7.125964434218745 13.224435079734597 21.712437898126485
Se 20.533258534822817 11.578939390641617 18.2837211817276
Se 20.363578835474872 11.933070220052201 20.58232781685734
Se 13.172910100016766 17.879511685532233 11.939078299543176
Se 11.655937157555616 17.775688674685856 17.17635754427813
Se 14.41619542302906 20.809130958646797 9.925975357224212
