42
Energy = -143.82019304 eV
Se 12.15750497317326 8.076136161483692 6.028423930790759
Se 13.55296933192288 13.595389749951822 7.019778371724808
Se 14.033800437208237 15.509411877431766 8.369060714865626
Se 10.19953952565181 8.319223874514 7.357799789514547
Se 9.992463116646954 16.227048524401173 10.202644795844261
Se 9.85121851387851 13.943156191285835 9.472016753863102
Se 16.929644790207526 13.010976893489351 8.698913425055073
Se 16.314969068531145 15.435169949784209 8.030855984332664
Se 14.007621295758737 8.354394034654891 7.454539601092352
Se 9.129794258900741 6.2242566927303775 7.4188783761759876
Se 14.557208141837158 12.13642958732886 8.493760871254604
Se 9.973599150712609 4.823437874332569 9.13750610363387
Se 14.60246854894377 6.225379758530917 8.317676851623359
Se 6.21504626390397 13.674784956856012 11.679896023076324
Se 11.475849562869309 12.75377519740193 10.66519979487233
Se 5.195363472010072 13.353642710100045 13.67592824311244
Se 17.35237500311216 12.556706498376295 10.844641938607909
Se 9.26818107628106 16.297060544094432 12.4043139563414
Se 10.254911905515433 8.618297903558174 10.908338224817316
Se 15.492611016098563 9.399997613637451 11.518707159973538
Se 15.786999593370856 16.113623907246527 12.302257996736538
Se 13.673355061835473 6.238401950366929 10.488907985275599
Se 6.79498011404556 16.319913024415396 12.153468336821158
Se 13.507088366249224 10.34938917161993 12.422547462203719
Se 13.453552506229931 16.309478581351883 12.001184805857113
Se 8.776625296503997 5.2952897356729585 11.117173997072562
Se 15.950006001360594 14.089618261744137 13.536568384258999
Se 15.356747045533156 7.069775833060505 11.920312162742462
Se 10.221778509317577 6.7077215735537985 12.331330318411453
Se 10.343625556946563 11.94356117744672 12.611947128447243
Se 6.487456069465498 11.904974108494377 15.12712212097327
Se 8.862767944186608 10.337346595581032 11.736755132040098
Se 14.042132734818987 11.266882254681352 14.53883999659328
Se 6.033642170558446 16.48171448956205 14.231159159507209
Se 12.723962779697393 17.048362278315704 14.147847877012648
Se 15.253601731984839 14.836973131374172 15.695688354217062
Se 12.91157643747511 15.055747019155394 15.412171930175594
Se 13.462947444193787 9.644372562946927 16.159599542240823
Se 9.806869933173525 13.272990931564687 16.500273188012542
Se 7.462724351838939 13.19422674559609 16.82731576021581
Se 11.118090075495466 9.69351030284649 16.414671173086862
Se 10.63352156985434 11.512640516757836 17.84516702482439
