7
Energy = -22.69805245 eV
Se 10.348037637439749 9.30484393337082 8.177917156627423
Se 9.444318363166449 7.189990291509831 7.08830188847234
Se 8.284962434515803 6.202667212243824 8.789224871690916
Se 6.335745374612631 9.151149877595735 5.7661693529562825
Se 9.761445739922438 9.181774320581196 10.31027263133575
Se 6.2696575257305405 7.474150991346374 9.076646201519749
Se 5.386676504041947 7.4248660545044425 6.85135039968376
