8
Energy = -26.23969694 eV
Se 7.639951123944673 11.911599201763119 8.302051400203851
Se 8.579194188817509 12.79824025451653 6.487805993938852
Se 11.934992491706307 8.884762220356615 8.986677399967906
Se 12.305658747035698 7.122869474846126 10.268398804121645
Se 10.067130626038841 6.585641729715518 11.333579809492909
Se 8.640104982676743 7.9066163690377484 10.138829133701007
Se 9.368541504477058 11.634019782336047 10.03252272974969
Se 8.317130167442555 10.008954799568231 11.302838560963666
