52
Energy = -113.89444904 eV
Ag 8.549050659642342 12.085822456332515 16.51451828775751
Ag 7.378176424888935 11.377382641372332 12.074271600758356
Ag 8.652006145022112 12.945861044576954 10.192946650720403
Ag 7.03076521196001 10.675087030331865 14.749541936176296
Ag 7.9159068558375205 10.397813344651878 9.22903396521473
Ag 8.353521907099083 13.796862866576673 13.288394197552297
Ag 10.350899330143905 13.9164722462758 15.4861938741364
Ag 10.330796582395228 15.86650614701801 13.515123020402587
Ag 9.823888834596785 12.064125357783668 7.814761175526891
Ag 9.250298861943268 15.505843487576175 10.981412618985821
Ag 9.89031962736299 18.049889285803832 11.814053845535707
Ag 11.198214155237254 11.421936024798502 16.588817424782064
Ag 8.06485012877643 8.81980826539856 12.99520037368674
Ag 9.70591224452561 11.389692434534961 13.980689556710782
Ag 9.9066433462539 10.519793497557034 11.153236299676964
Ag 9.499393606333514 9.224157001863544 15.597874954445754
Ag 10.38814248062753 9.386899100000567 8.340350070800426
Ag 10.776673524915802 13.227820261645762 12.112741926383269
Ag 12.353076186070593 15.923105646511134 15.430541766698395
Ag 12.230034837048938 17.87988598952275 13.372579227790235
Ag 11.171748139551294 14.08268879336365 9.425975198730772
Ag 12.262332315616762 10.79926435468342 12.65686241651537
Ag 12.723215996744523 13.727796192229276 17.123189238864093
Ag 11.992857006565517 16.405547490977582 10.909049527667506
Ag 9.166115538242405 7.973576424843724 10.520153636189496
Ag 10.75029181062947 8.393777909302464 13.04395115425241
Ag 12.349945910145793 9.424616887684904 15.093832976909907
Ag 12.832491146240882 13.04527672203984 14.29837280467428
Ag 12.391154660174081 11.219460038062385 6.906527996109647
Ag 13.43885320531568 13.092381214667833 11.421916277406366
Ag 13.990312714256929 11.259570993530016 16.51081198235809
Ag 11.611138167851625 13.917757555997621 6.6913848818085695
Ag 11.971018667587707 8.388581157062264 10.491821696560805
Ag 12.82981909760061 15.98316862095761 8.228884183753497
Ag 12.257915927217303 11.220173377780446 9.668000693344345
Ag 13.606647225011237 8.17405389794658 12.724322978617378
Ag 14.889525182685187 14.717190204993795 15.41806313083157
Ag 14.619464554862667 10.416186806008389 11.183269396216753
Ag 13.085903091696037 8.749708981818204 7.991114715021526
Ag 15.511191788678374 13.2370058097634 17.65597981557183
Ag 13.706015522722874 15.577399265197968 13.016225948169033
Ag 13.806491270940494 13.344975402573148 8.372703659161443
Ag 14.871767975579038 10.271693565949825 14.071116367221693
Ag 16.404024817809812 12.301565649569856 15.181500402054935
Ag 15.76900550844088 13.754849792096033 12.839904839361285
Ag 14.92625879549797 10.766814305561024 8.313020515240115
Ag 16.402112660994757 8.496899862712326 12.330135855437481
Ag 14.585790507083479 15.307002998563801 10.347950510569312
Ag 14.807649648386798 7.913748115363848 10.02560938785553
Ag 16.001991048330694 12.698736304099066 10.197900881688513
Ag 17.028871182768547 11.289326241788673 12.57616045815711
Ag 17.061979939968726 10.02963354130767 9.96844808193866
