11
Energy = -53.48594042 eV
Y 12.582981192347201 8.22723228875021 9.530204420921967
Y 11.283093891632465 8.116249854365398 12.791313475743449
Y 11.146348502881908 10.854224279508268 10.935483144764468
Y 13.819712491632954 11.455241718358788 9.310096633442082
Y 9.24155325782272 8.492001599146107 10.101426994758407
Y 10.925181964874005 10.56525424157282 7.779997771636586
Y 11.966683430858106 11.296958487710706 13.980145210937879
Y 8.829705437298937 10.394447686056662 13.058708354901592
Y 11.143223263177065 13.635372442161064 9.127209000167564
Y 9.846004766620307 13.528861449830313 12.400357817732193
Y 8.354681253428783 11.832595201229582 9.858632281409575
