12
Energy = -58.53007444 eV
Y 11.851551413380431 11.301519185772188 7.22626392568335
Y 14.804526268161245 10.521855659165457 8.514270672073554
Y 12.219488943411333 8.807876908580079 9.419568972297911
Y 9.908260515854579 14.005548184956137 11.089867143868693
Y 12.505554338134848 11.9495563123813 10.322905246988197
Y 9.497652843333345 10.87449247401738 9.708046539457651
Y 10.97604603101393 9.495629688807776 12.540972268092776
Y 8.560630697063417 11.665476639849743 12.849254359037678
Y 14.255085841628862 9.789056307166764 11.934429610957622
Y 9.335322444300079 14.232159631120515 14.61239268167537
Y 11.867688865536756 12.538391718179557 13.433495520271018
Y 10.077124051486411 11.108652524409628 15.669314943485656
