13
Energy = -65.27673264 eV
Y 12.31889193212592 10.185305742791957 8.673655645157568
Y 9.619216825456368 10.282463129586967 10.249761274104907
Y 12.428679040219826 9.671030045092719 11.908735319027633
Y 11.298250599954397 12.773109391627615 10.770744171801661
Y 10.39789602231312 9.009532795995561 6.3622305732835995
Y 12.309551341054812 7.0616716266396535 9.514142474395156
Y 9.160604571422779 7.494221365365707 8.924045801738014
Y 7.712798218677216 12.53988238655977 10.364821560143024
Y 9.92626494155893 12.265653537541962 7.599732756720839
Y 7.386444879092714 10.100544889661277 7.802891277528588
Y 9.40485418910777 10.810934066258389 13.233026484674264
Y 9.94315272138832 7.548905775764011 12.107238904463296
Y 6.963103204680182 9.073314031367449 11.11377921701738
