15
Energy = -75.86650255 eV
Y 11.994822899888433 12.92430476844987 14.915412629004372
Y 10.89033063607422 9.660146971860813 14.83207408853316
Y 14.014210866852125 10.45770073103284 13.555928608007186
Y 11.201607376221014 11.433384655271325 12.07814471532182
Y 10.480369462093348 14.666903840368267 12.328161585248164
Y 13.769093129301158 13.574256927230262 12.026711755042959
Y 8.720994921314604 12.244625141797682 14.082238399338605
Y 11.464561056381452 13.239220957249557 9.303059384230629
Y 14.665609986412049 13.333921419187432 8.66354822888861
Y 11.89631347084285 8.184589551883711 11.868748061094685
Y 8.360987061203215 12.401572195204913 10.64235290470409
Y 13.710044086005745 10.560166297578974 10.088492312904838
Y 8.65172076912783 9.339066964081637 12.237045765669542
Y 12.67389607756959 11.194780872046367 7.0695991731702605
Y 10.30709774762324 9.861827145986263 9.259183700639467
