4
Energy = -15.36106982 eV
Y 11.486410997958515 13.042259823276297 11.010351147361359
Y 12.175227219333374 10.386808024714878 9.424090117111229
Y 12.25649283275374 10.66238562089008 12.628050818497979
Y 11.508212362981121 13.319254183364515 14.083327056835417
