4
Energy = -13.19789989 eV
Y 12.427623833880617 11.18001436845391 12.870146866467895
Y 13.672029430262787 8.85774347608201 14.266087308745995
Y 12.721888837858112 17.414434340519456 12.23218496692217
Y 13.1360443523668 14.501741329751479 12.590270837456623
