5
Energy = -21.43430236 eV
Y 8.082021019205435 8.30742941528487 5.767857935699695
Y 7.486026407589657 8.240501282582672 8.871186503520951
Y 4.9552185112322835 8.461453072408403 6.799693746311329
Y 9.909817457098056 6.352617389865745 7.705110482246749
Y 6.766804536493829 5.724825136353959 7.012068083119518
