55
Energy = -303.26284392 eV
Y 16.29071211791654 17.073773756294457 10.776433366401013
Y 17.859328770490357 13.955785055296317 10.855284980468015
Y 14.789592455511551 20.03643573544218 11.219940636399192
Y 16.352462067577417 14.783809151825372 13.399649194649339
Y 14.232847099070346 17.429266855087054 13.345440467548512
Y 19.037136281355014 16.83204407325792 12.790396050379023
Y 12.583662884729712 20.532743784135867 13.467978341572982
Y 11.964293889753336 17.73434305738839 11.397984369308794
Y 15.508860444704483 22.08906536712281 13.761593466778514
Y 20.988171643914644 19.414621058093832 13.131675035939333
Y 13.915805269154063 14.527043762549935 11.406217809554569
Y 19.65762303465007 13.704746201604797 14.08621421365686
Y 17.085114542152162 11.554553740660044 13.443299077043356
Y 17.00972186402145 19.22224276528747 14.152810060510713
Y 18.18019068720013 20.205141593172094 11.377755253755018
Y 17.1415116310386 16.58834374147638 15.902459028226676
Y 11.210473421378017 18.15607849771504 15.214730921644515
Y 19.119234930825733 21.79117518128391 14.450367926155774
Y 11.634287187244725 15.142528409423816 13.900899961354293
Y 12.93483938456063 22.032814676079003 16.579789721372208
Y 22.034116461886565 13.193410347119155 17.008921961048628
Y 13.919071610695669 15.834571517666626 16.09256000509211
Y -1.4081685291976993 16.444246154427038 14.605876462058692
Y 19.279907091329733 11.146335758745725 16.275018891119398
Y 13.94032170167018 12.627107348584941 14.573493697290797
Y 16.65626852506217 22.17764812277436 16.896472673947564
Y 16.868051941826497 13.314660145954964 16.222068206963414
Y 15.985549494367525 10.743560280871995 17.77185779777207
Y -0.624004006117356 19.697399413746805 16.07993957830727
Y 18.810650333976152 12.503053801067715 19.275666871822008
Y 11.119622480834812 15.84782787558683 17.771111910919775
Y 13.555046939864452 10.36323629314097 20.038179922721493
Y 19.815804714383823 18.536199373433842 16.289943074803425
Y 16.58574680597751 15.147839500145006 18.968704686323697
Y 19.718516946063126 15.238808657057517 17.28096592137103
Y 14.368382188416327 19.359377120130986 16.23568212447144
Y 18.63792322980992 20.643068431469892 20.52711551495508
Y 17.073351878931863 19.20960691382854 18.014946486759538
Y 16.873793798621794 9.586980309868784 20.73078625253668
Y 20.036470094274954 21.489431158195135 17.679709335663627
Y 11.6533405997485 19.262580303046352 18.435080121697077
Y -0.4690839193319043 16.51316923386376 17.704453526406482
Y 18.851401467163647 17.33601586581744 19.782726759717168
Y 13.743310094048697 13.254753500748023 18.03611898714797
Y 21.310850264880834 15.214946472048322 20.319690197314912
Y 12.567346607310697 14.639911604024634 20.686953692479598
Y 14.218500951385792 17.260641733303707 19.144977684007742
Y 14.442646119940049 20.7568548240421 19.57181164321647
Y 15.64413980909933 12.6178199381614 20.83571816905169
Y 21.557849532731762 19.04062443383799 19.415162837494005
Y 15.168109280039506 15.71873802505382 22.182657483285777
Y 19.9505669524474 17.91404625518079 -0.7459251658388014
Y 18.394176222274144 14.77495597994785 21.89274850333733
Y 16.43842111552046 18.54561308717644 21.670148205718473
Y 12.735655464753865 18.16520172803907 -1.6569819986407064
