55
Energy = -303.18175685 eV
Y 14.130366999219858 18.779012786306847 18.650569412843513
Y 16.279809604842463 19.87107381643784 16.50551717446643
Y 17.339398774659376 18.615829795990013 19.52318929460583
Y 17.00375402370464 15.486396084802918 20.5503580796229
Y 13.62221039929289 16.167848490359464 20.47294592878654
Y 19.558668531236727 19.557782152998826 17.06458016772637
Y 19.417587325009723 16.368204593392147 18.120474206353734
Y 10.987211236169564 17.932142303437896 18.857421158682577
Y 12.602819525225506 20.221794712335207 16.159561145225737
Y 14.925591717313036 20.464922258454305 13.38198657122863
Y 14.051695768957925 17.464074864543335 15.1100385025665
Y 18.45039697025112 20.365283137745198 13.95489809944742
Y 14.743402079902795 13.087227934794571 20.052712309867527
Y 21.445551058634457 17.532030760021506 15.27753286758069
Y 16.07577379887817 16.270461971134534 17.468187922905475
Y 10.492304222028974 17.436237396759033 15.362546913211322
Y 8.678433569831485 15.88538307584439 17.61647078510498
Y 17.61892212428396 13.192797261528925 18.13678605183757
Y 10.556214481645053 14.573516078681662 20.137445044342513
Y 20.16589910391611 18.199303080243308 12.09712610246179
Y 18.384569546786537 17.186403436682664 14.828481766371548
Y 12.031226869184614 19.269706537853203 13.046890372092415
Y 19.876724583495985 13.997995694350958 15.731484084295575
Y 16.627519840996616 17.960156933447916 12.075268168909783
Y 12.146028360671188 15.284978834715538 17.49098788078801
Y 14.020692853228004 15.780525655271708 12.235216003514603
Y 13.672846523555807 18.494160236168668 10.345288518516275
Y 10.616507409837407 16.63469942693524 11.999030688975914
Y 12.12939898594072 11.891030671406092 18.7153688529491
Y 9.560119028280658 12.857483678618918 16.810814629423582
Y 8.535996491743958 14.755338144651985 14.142591003220623
Y 14.486699516640192 13.284720417681104 16.59630642310851
Y 16.716239710756525 14.297290199465019 14.141668766027781
Y 11.79060088815298 14.176964056918813 14.298639203508579
Y 21.08778634882115 15.212641395914822 13.040176071418824
Y 18.44286604383657 15.263944228841696 11.230486859185161
Y 19.184300801517697 12.377061376986699 12.721532627595778
Y 11.89167019085696 10.880270681354304 15.641994829655976
Y 17.7338774993432 11.200763599746095 15.442024513929093
Y 15.21861166291779 10.322584062579658 17.618641264452176
Y 9.72672489892001 13.778026880505779 10.852787386926414
Y 15.551488859270307 15.813102371256443 9.371541506252234
Y 12.234484852474012 15.430115585026774 9.319569030114785
Y 12.845701711622631 12.625173859459169 11.547937623336592
Y 9.757192180178404 11.582973550556664 13.17329895982685
Y 14.663283712878313 11.273731370053387 14.001021769139294
Y 16.1744258652641 12.778296584354953 11.055266385880627
Y 16.969356668432233 7.984055417278411 15.104126299953103
Y 13.837936919311616 8.247236810451591 15.306667612673225
Y 16.934255138991915 9.637760074972741 12.339449356092063
Y 13.98175921646827 12.751801308055589 8.397916296713266
Y 11.14365118113912 10.944496615298355 9.549726196051424
Y 12.28132073644165 9.298057228119308 12.536942545909803
Y 14.412639636245931 9.840964298289963 10.053394381759686
Y 14.904278731330367 7.132961001456387 12.455909163100236
