  10  10   0   0
  0.7006856E+03  0.1913556E-08  0.1913556E-08  0.1913556E-08  0.1000000E-15
  1.000000000000000E-004
  CAR 
 unknown system                          
      0.98983505     -9.52046270  301     -4.00255638      1.00000000
     -9.520  0.0000E+00  0.0000E+00  0.0000E+00  0.0000E+00
     -9.485  0.0000E+00  0.0000E+00  0.0000E+00  0.0000E+00
     -9.450  0.0000E+00  0.0000E+00  0.0000E+00  0.0000E+00
     -9.415  0.0000E+00  0.0000E+00  0.0000E+00  0.0000E+00
     -9.380  0.0000E+00  0.0000E+00  0.0000E+00  0.0000E+00
     -9.345  0.0000E+00  0.0000E+00  0.0000E+00  0.0000E+00
     -9.310  0.0000E+00  0.0000E+00  0.0000E+00  0.0000E+00
     -9.275  0.0000E+00  0.0000E+00  0.0000E+00  0.0000E+00
     -9.240  0.0000E+00  0.0000E+00  0.0000E+00  0.0000E+00
     -9.205  0.0000E+00  0.0000E+00  0.0000E+00  0.0000E+00
     -9.170  0.0000E+00  0.0000E+00  0.0000E+00  0.0000E+00
     -9.135  0.0000E+00  0.0000E+00  0.0000E+00  0.0000E+00
     -9.100  0.0000E+00  0.0000E+00  0.0000E+00  0.0000E+00
     -9.065  0.0000E+00  0.0000E+00  0.0000E+00  0.0000E+00
     -9.030  0.0000E+00  0.0000E+00  0.1000E-02  0.1000E-02
     -8.995  0.0000E+00  0.0000E+00  0.1000E-02  0.1000E-02
     -8.960  0.0000E+00  0.0000E+00  0.1000E-02  0.1000E-02
     -8.925  0.0000E+00  0.0000E+00  0.1000E-02  0.1000E-02
     -8.890  0.0000E+00  0.0000E+00  0.1000E-02  0.1000E-02
     -8.855  0.0000E+00  0.0000E+00  0.3000E-02  0.3000E-02
     -8.820  0.0000E+00  0.0000E+00  0.3000E-02  0.3000E-02
     -8.785  0.0000E+00  0.0000E+00  0.4000E-02  0.4000E-02
     -8.750  0.0000E+00  0.0000E+00  0.4000E-02  0.4000E-02
     -8.715  0.0000E+00  0.0000E+00  0.4000E-02  0.4000E-02
     -8.680  0.0000E+00  0.0000E+00  0.4000E-02  0.4000E-02
     -8.645  0.0000E+00  0.0000E+00  0.4000E-02  0.4000E-02
     -8.610  0.0000E+00  0.0000E+00  0.6000E-02  0.6000E-02
     -8.575  0.0000E+00  0.0000E+00  0.6000E-02  0.6000E-02
     -8.540  0.0000E+00  0.0000E+00  0.7000E-02  0.7000E-02
     -8.504  0.0000E+00  0.0000E+00  0.8000E-02  0.8000E-02
     -8.469  0.0000E+00  0.0000E+00  0.1000E-01  0.1000E-01
     -8.434  0.0000E+00  0.0000E+00  0.1100E-01  0.1100E-01
     -8.399  0.0000E+00  0.0000E+00  0.1200E-01  0.1200E-01
     -8.364  0.0000E+00  0.0000E+00  0.1200E-01  0.1200E-01
     -8.329  0.0000E+00  0.0000E+00  0.1200E-01  0.1200E-01
     -8.294  0.0000E+00  0.0000E+00  0.1200E-01  0.1200E-01
     -8.259  0.0000E+00  0.0000E+00  0.1200E-01  0.1200E-01
     -8.224  0.0000E+00  0.0000E+00  0.1300E-01  0.1300E-01
     -8.189  0.0000E+00  0.0000E+00  0.1300E-01  0.1300E-01
     -8.154  0.0000E+00  0.0000E+00  0.1400E-01  0.1400E-01
     -8.119  0.0000E+00  0.0000E+00  0.1400E-01  0.1400E-01
     -8.084  0.0000E+00  0.0000E+00  0.1500E-01  0.1500E-01
     -8.049  0.0000E+00  0.0000E+00  0.1700E-01  0.1700E-01
     -8.014  0.0000E+00  0.0000E+00  0.1700E-01  0.1700E-01
     -7.979  0.0000E+00  0.0000E+00  0.1700E-01  0.1700E-01
     -7.944  0.0000E+00  0.0000E+00  0.1800E-01  0.1800E-01
     -7.909  0.0000E+00  0.0000E+00  0.1900E-01  0.1900E-01
     -7.874  0.0000E+00  0.0000E+00  0.1900E-01  0.1900E-01
     -7.839  0.0000E+00  0.0000E+00  0.1900E-01  0.1900E-01
     -7.804  0.0000E+00  0.0000E+00  0.2000E-01  0.2000E-01
     -7.769  0.0000E+00  0.0000E+00  0.2000E-01  0.2000E-01
     -7.734  0.0000E+00  0.0000E+00  0.2100E-01  0.2100E-01
     -7.699  0.0000E+00  0.0000E+00  0.2100E-01  0.2100E-01
     -7.664  0.0000E+00  0.0000E+00  0.2100E-01  0.2100E-01
     -7.629  0.0000E+00  0.0000E+00  0.2200E-01  0.2200E-01
     -7.594  0.0000E+00  0.0000E+00  0.2200E-01  0.2200E-01
     -7.559  0.0000E+00  0.0000E+00  0.2200E-01  0.2200E-01
     -7.524  0.0000E+00  0.0000E+00  0.2400E-01  0.2400E-01
     -7.488  0.0000E+00  0.0000E+00  0.2400E-01  0.2400E-01
     -7.453  0.0000E+00  0.0000E+00  0.2400E-01  0.2400E-01
     -7.418  0.0000E+00  0.0000E+00  0.2400E-01  0.2400E-01
     -7.383  0.0000E+00  0.0000E+00  0.2500E-01  0.2500E-01
     -7.348  0.0000E+00  0.0000E+00  0.2600E-01  0.2600E-01
     -7.313  0.0000E+00  0.0000E+00  0.2600E-01  0.2600E-01
     -7.278  0.0000E+00  0.0000E+00  0.2800E-01  0.2800E-01
     -7.243  0.0000E+00  0.0000E+00  0.2900E-01  0.2900E-01
     -7.208  0.0000E+00  0.0000E+00  0.2900E-01  0.2900E-01
     -7.173  0.0000E+00  0.0000E+00  0.3000E-01  0.3000E-01
     -7.138  0.0000E+00  0.0000E+00  0.3100E-01  0.3100E-01
     -7.103  0.0000E+00  0.0000E+00  0.3100E-01  0.3100E-01
     -7.068  0.0000E+00  0.0000E+00  0.3200E-01  0.3200E-01
     -7.033  0.0000E+00  0.0000E+00  0.3300E-01  0.3300E-01
     -6.998  0.0000E+00  0.0000E+00  0.3400E-01  0.3400E-01
     -6.963  0.0000E+00  0.0000E+00  0.3400E-01  0.3400E-01
     -6.928  0.0000E+00  0.0000E+00  0.3600E-01  0.3600E-01
     -6.893  0.0000E+00  0.0000E+00  0.3800E-01  0.3800E-01
     -6.858  0.0000E+00  0.0000E+00  0.4000E-01  0.4000E-01
     -6.823  0.0000E+00  0.0000E+00  0.4100E-01  0.4100E-01
     -6.788  0.0000E+00  0.0000E+00  0.4200E-01  0.4200E-01
     -6.753  0.0000E+00  0.0000E+00  0.4500E-01  0.4500E-01
     -6.718  0.0000E+00  0.0000E+00  0.4500E-01  0.4500E-01
     -6.683  0.0000E+00  0.0000E+00  0.4600E-01  0.4600E-01
     -6.648  0.0000E+00  0.0000E+00  0.4700E-01  0.4700E-01
     -6.613  0.3550E-08  0.3548E-08  0.4700E-01  0.4700E-01
     -6.578  0.0000E+00  0.0000E+00  0.4800E-01  0.4800E-01
     -6.543  0.0000E+00  0.0000E+00  0.4900E-01  0.4900E-01
     -6.508  0.0000E+00  0.0000E+00  0.4900E-01  0.4900E-01
     -6.472  0.0000E+00  0.0000E+00  0.4900E-01  0.4900E-01
     -6.437  0.0000E+00  0.0000E+00  0.5000E-01  0.5000E-01
     -6.402  0.0000E+00  0.0000E+00  0.5000E-01  0.5000E-01
     -6.367  0.0000E+00  0.0000E+00  0.5100E-01  0.5100E-01
     -6.332  0.0000E+00  0.0000E+00  0.5100E-01  0.5100E-01
     -6.297  0.0000E+00  0.0000E+00  0.5100E-01  0.5100E-01
     -6.262  0.0000E+00  0.0000E+00  0.5100E-01  0.5100E-01
     -6.227  0.0000E+00  0.0000E+00  0.5100E-01  0.5100E-01
     -6.192  0.0000E+00  0.0000E+00  0.5100E-01  0.5100E-01
     -6.157  0.0000E+00  0.0000E+00  0.5100E-01  0.5100E-01
     -6.122  0.0000E+00  0.0000E+00  0.5100E-01  0.5100E-01
     -6.087  0.0000E+00  0.0000E+00  0.5100E-01  0.5100E-01
     -6.052  0.0000E+00  0.0000E+00  0.5100E-01  0.5100E-01
     -6.017  0.0000E+00  0.0000E+00  0.5100E-01  0.5100E-01
     -5.982  0.0000E+00  0.0000E+00  0.5100E-01  0.5100E-01
     -5.947  0.0000E+00  0.0000E+00  0.5100E-01  0.5100E-01
     -5.912  0.0000E+00  0.0000E+00  0.5100E-01  0.5100E-01
     -5.877  0.0000E+00  0.0000E+00  0.5100E-01  0.5100E-01
     -5.842  0.0000E+00  0.0000E+00  0.5100E-01  0.5100E-01
     -5.807  0.0000E+00  0.0000E+00  0.5100E-01  0.5100E-01
     -5.772  0.0000E+00  0.0000E+00  0.5100E-01  0.5100E-01
     -5.737  0.0000E+00  0.0000E+00  0.5100E-01  0.5100E-01
     -5.702  0.0000E+00  0.0000E+00  0.5200E-01  0.5200E-01
     -5.667  0.0000E+00  0.0000E+00  0.5200E-01  0.5200E-01
     -5.632  0.0000E+00  0.0000E+00  0.5200E-01  0.5200E-01
     -5.597  0.0000E+00  0.0000E+00  0.5200E-01  0.5200E-01
     -5.562  0.0000E+00  0.0000E+00  0.5200E-01  0.5200E-01
     -5.527  0.0000E+00  0.0000E+00  0.5200E-01  0.5200E-01
     -5.492  0.0000E+00  0.0000E+00  0.5200E-01  0.5200E-01
     -5.456  0.0000E+00  0.0000E+00  0.5200E-01  0.5200E-01
     -5.421  0.0000E+00  0.0000E+00  0.5200E-01  0.5200E-01
     -5.386  0.0000E+00  0.0000E+00  0.5200E-01  0.5200E-01
     -5.351  0.0000E+00  0.0000E+00  0.5200E-01  0.5200E-01
     -5.316  0.0000E+00  0.0000E+00  0.5200E-01  0.5200E-01
     -5.281  0.0000E+00  0.0000E+00  0.5200E-01  0.5200E-01
     -5.246  0.0000E+00  0.0000E+00  0.5200E-01  0.5200E-01
     -5.211  0.0000E+00  0.0000E+00  0.5200E-01  0.5200E-01
     -5.176  0.0000E+00  0.0000E+00  0.5300E-01  0.5300E-01
     -5.141  0.0000E+00  0.0000E+00  0.5300E-01  0.5300E-01
     -5.106  0.0000E+00  0.0000E+00  0.5300E-01  0.5300E-01
     -5.071  0.0000E+00  0.0000E+00  0.5300E-01  0.5300E-01
     -5.036  0.0000E+00  0.0000E+00  0.5300E-01  0.5300E-01
     -5.001  0.0000E+00  0.0000E+00  0.5300E-01  0.5300E-01
     -4.966  0.0000E+00  0.0000E+00  0.5300E-01  0.5300E-01
     -4.931  0.0000E+00  0.0000E+00  0.5300E-01  0.5300E-01
     -4.896  0.0000E+00  0.0000E+00  0.5300E-01  0.5300E-01
     -4.861  0.0000E+00  0.0000E+00  0.5300E-01  0.5300E-01
     -4.826  0.0000E+00  0.0000E+00  0.5300E-01  0.5300E-01
     -4.791  0.0000E+00  0.0000E+00  0.5300E-01  0.5300E-01
     -4.756  0.0000E+00  0.0000E+00  0.5300E-01  0.5300E-01
     -4.721  0.0000E+00  0.0000E+00  0.5300E-01  0.5300E-01
     -4.686  0.0000E+00  0.0000E+00  0.5300E-01  0.5300E-01
     -4.651  0.2416E-01  0.2416E-01  0.5385E-01  0.5385E-01
     -4.616  0.0000E+00  0.0000E+00  0.5400E-01  0.5400E-01
     -4.581  0.0000E+00  0.0000E+00  0.5400E-01  0.5400E-01
     -4.546  0.0000E+00  0.0000E+00  0.5400E-01  0.5400E-01
     -4.511  0.0000E+00  0.0000E+00  0.5400E-01  0.5400E-01
     -4.476  0.0000E+00  0.0000E+00  0.5400E-01  0.5400E-01
     -4.440  0.0000E+00  0.0000E+00  0.5400E-01  0.5400E-01
     -4.405  0.0000E+00  0.0000E+00  0.5400E-01  0.5400E-01
     -4.370  0.0000E+00  0.0000E+00  0.5400E-01  0.5400E-01
     -4.335  0.0000E+00  0.0000E+00  0.5400E-01  0.5400E-01
     -4.300  0.0000E+00  0.0000E+00  0.5400E-01  0.5400E-01
     -4.265  0.0000E+00  0.0000E+00  0.5400E-01  0.5400E-01
     -4.230  0.0000E+00  0.0000E+00  0.5400E-01  0.5400E-01
     -4.195  0.0000E+00  0.0000E+00  0.5400E-01  0.5400E-01
     -4.160  0.0000E+00  0.0000E+00  0.5400E-01  0.5400E-01
     -4.125  0.0000E+00  0.0000E+00  0.5400E-01  0.5400E-01
     -4.090  0.0000E+00  0.0000E+00  0.5400E-01  0.5400E-01
     -4.055  0.0000E+00  0.0000E+00  0.5400E-01  0.5400E-01
     -4.020  0.0000E+00  0.0000E+00  0.5400E-01  0.5400E-01
     -3.985  0.0000E+00  0.0000E+00  0.5500E-01  0.5500E-01
     -3.950  0.0000E+00  0.0000E+00  0.5500E-01  0.5500E-01
     -3.915  0.0000E+00  0.0000E+00  0.5500E-01  0.5500E-01
     -3.880  0.0000E+00  0.0000E+00  0.5500E-01  0.5500E-01
     -3.845  0.0000E+00  0.0000E+00  0.5500E-01  0.5500E-01
     -3.810  0.0000E+00  0.0000E+00  0.5500E-01  0.5500E-01
     -3.775  0.0000E+00  0.0000E+00  0.5500E-01  0.5500E-01
     -3.740  0.0000E+00  0.0000E+00  0.5500E-01  0.5500E-01
     -3.705  0.0000E+00  0.0000E+00  0.5500E-01  0.5500E-01
     -3.670  0.0000E+00  0.0000E+00  0.5500E-01  0.5500E-01
     -3.635  0.0000E+00  0.0000E+00  0.5500E-01  0.5500E-01
     -3.600  0.0000E+00  0.0000E+00  0.5500E-01  0.5500E-01
     -3.565  0.0000E+00  0.0000E+00  0.5500E-01  0.5500E-01
     -3.530  0.0000E+00  0.0000E+00  0.5500E-01  0.5500E-01
     -3.495  0.0000E+00  0.0000E+00  0.5500E-01  0.5500E-01
     -3.460  0.0000E+00  0.0000E+00  0.5500E-01  0.5500E-01
     -3.424  0.0000E+00  0.0000E+00  0.5500E-01  0.5500E-01
     -3.389  0.0000E+00  0.0000E+00  0.5500E-01  0.5500E-01
     -3.354  0.0000E+00  0.0000E+00  0.5500E-01  0.5500E-01
     -3.319  0.0000E+00  0.0000E+00  0.5500E-01  0.5500E-01
     -3.284  0.0000E+00  0.0000E+00  0.5500E-01  0.5500E-01
     -3.249  0.0000E+00  0.0000E+00  0.5500E-01  0.5500E-01
     -3.214  0.0000E+00  0.0000E+00  0.5500E-01  0.5500E-01
     -3.179  0.0000E+00  0.0000E+00  0.5500E-01  0.5500E-01
     -3.144  0.0000E+00  0.0000E+00  0.5500E-01  0.5500E-01
     -3.109  0.0000E+00  0.0000E+00  0.5500E-01  0.5500E-01
     -3.074  0.0000E+00  0.0000E+00  0.5500E-01  0.5500E-01
     -3.039  0.0000E+00  0.0000E+00  0.5500E-01  0.5500E-01
     -3.004  0.0000E+00  0.0000E+00  0.5500E-01  0.5500E-01
     -2.969  0.0000E+00  0.0000E+00  0.5500E-01  0.5500E-01
     -2.934  0.0000E+00  0.0000E+00  0.5500E-01  0.5500E-01
     -2.899  0.0000E+00  0.0000E+00  0.5600E-01  0.5600E-01
     -2.864  0.0000E+00  0.0000E+00  0.5600E-01  0.5600E-01
     -2.829  0.0000E+00  0.0000E+00  0.5600E-01  0.5600E-01
     -2.794  0.0000E+00  0.0000E+00  0.5600E-01  0.5600E-01
     -2.759  0.0000E+00  0.0000E+00  0.5600E-01  0.5600E-01
     -2.724  0.0000E+00  0.0000E+00  0.5600E-01  0.5600E-01
     -2.689  0.0000E+00  0.0000E+00  0.5700E-01  0.5700E-01
     -2.654  0.0000E+00  0.0000E+00  0.5700E-01  0.5700E-01
     -2.619  0.0000E+00  0.0000E+00  0.5800E-01  0.5800E-01
     -2.584  0.0000E+00  0.0000E+00  0.5800E-01  0.5800E-01
     -2.549  0.0000E+00  0.0000E+00  0.5900E-01  0.5900E-01
     -2.514  0.0000E+00  0.0000E+00  0.5900E-01  0.5900E-01
     -2.479  0.0000E+00  0.0000E+00  0.5900E-01  0.5900E-01
     -2.444  0.0000E+00  0.0000E+00  0.5900E-01  0.5900E-01
     -2.408  0.0000E+00  0.0000E+00  0.5900E-01  0.5900E-01
     -2.373  0.0000E+00  0.0000E+00  0.5900E-01  0.5900E-01
     -2.338  0.0000E+00  0.0000E+00  0.5900E-01  0.5900E-01
     -2.303  0.0000E+00  0.0000E+00  0.5900E-01  0.5900E-01
     -2.268  0.0000E+00  0.0000E+00  0.5900E-01  0.5900E-01
     -2.233  0.0000E+00  0.0000E+00  0.5900E-01  0.5900E-01
     -2.198  0.0000E+00  0.0000E+00  0.5900E-01  0.5900E-01
     -2.163  0.0000E+00  0.0000E+00  0.5900E-01  0.5900E-01
     -2.128  0.0000E+00  0.0000E+00  0.5900E-01  0.5900E-01
     -2.093  0.0000E+00  0.0000E+00  0.5900E-01  0.5900E-01
     -2.058  0.0000E+00  0.0000E+00  0.5900E-01  0.5900E-01
     -2.023  0.0000E+00  0.0000E+00  0.5900E-01  0.5900E-01
     -1.988  0.0000E+00  0.0000E+00  0.6000E-01  0.6000E-01
     -1.953  0.0000E+00  0.0000E+00  0.6000E-01  0.6000E-01
     -1.918  0.0000E+00  0.0000E+00  0.6000E-01  0.6000E-01
     -1.883  0.0000E+00  0.0000E+00  0.6000E-01  0.6000E-01
     -1.848  0.0000E+00  0.0000E+00  0.6000E-01  0.6000E-01
     -1.813  0.0000E+00  0.0000E+00  0.6000E-01  0.6000E-01
     -1.778  0.0000E+00  0.0000E+00  0.6000E-01  0.6000E-01
     -1.743  0.0000E+00  0.0000E+00  0.6000E-01  0.6000E-01
     -1.708  0.0000E+00  0.0000E+00  0.6000E-01  0.6000E-01
     -1.673  0.0000E+00  0.0000E+00  0.6100E-01  0.6100E-01
     -1.638  0.0000E+00  0.0000E+00  0.6100E-01  0.6100E-01
     -1.603  0.0000E+00  0.0000E+00  0.6100E-01  0.6100E-01
     -1.568  0.0000E+00  0.0000E+00  0.6100E-01  0.6100E-01
     -1.533  0.0000E+00  0.0000E+00  0.6100E-01  0.6100E-01
     -1.498  0.0000E+00  0.0000E+00  0.6100E-01  0.6100E-01
     -1.463  0.0000E+00  0.0000E+00  0.6100E-01  0.6100E-01
     -1.428  0.0000E+00  0.0000E+00  0.6100E-01  0.6100E-01
     -1.392  0.0000E+00  0.0000E+00  0.6100E-01  0.6100E-01
     -1.357  0.0000E+00  0.0000E+00  0.6100E-01  0.6100E-01
     -1.322  0.0000E+00  0.0000E+00  0.6100E-01  0.6100E-01
     -1.287  0.0000E+00  0.0000E+00  0.6100E-01  0.6100E-01
     -1.252  0.0000E+00  0.0000E+00  0.6100E-01  0.6100E-01
     -1.217  0.0000E+00  0.0000E+00  0.6100E-01  0.6100E-01
     -1.182  0.0000E+00  0.0000E+00  0.6100E-01  0.6100E-01
     -1.147  0.0000E+00  0.0000E+00  0.6100E-01  0.6100E-01
     -1.112  0.0000E+00  0.0000E+00  0.6100E-01  0.6100E-01
     -1.077  0.0000E+00  0.0000E+00  0.6100E-01  0.6100E-01
     -1.042  0.0000E+00  0.0000E+00  0.6100E-01  0.6100E-01
     -1.007  0.0000E+00  0.0000E+00  0.6100E-01  0.6100E-01
     -0.972  0.0000E+00  0.0000E+00  0.6100E-01  0.6100E-01
     -0.937  0.0000E+00  0.0000E+00  0.6100E-01  0.6100E-01
     -0.902  0.0000E+00  0.0000E+00  0.6200E-01  0.6200E-01
     -0.867  0.0000E+00  0.0000E+00  0.6200E-01  0.6200E-01
     -0.832  0.0000E+00  0.0000E+00  0.6200E-01  0.6200E-01
     -0.797  0.0000E+00  0.0000E+00  0.6200E-01  0.6200E-01
     -0.762  0.0000E+00  0.0000E+00  0.6300E-01  0.6300E-01
     -0.727  0.0000E+00  0.0000E+00  0.6300E-01  0.6300E-01
     -0.692  0.0000E+00  0.0000E+00  0.6300E-01  0.6300E-01
     -0.657  0.0000E+00  0.0000E+00  0.6400E-01  0.6400E-01
     -0.622  0.0000E+00  0.0000E+00  0.6400E-01  0.6400E-01
     -0.587  0.0000E+00  0.0000E+00  0.6500E-01  0.6500E-01
     -0.552  0.0000E+00  0.0000E+00  0.6500E-01  0.6500E-01
     -0.517  0.0000E+00  0.0000E+00  0.6500E-01  0.6500E-01
     -0.482  0.0000E+00  0.0000E+00  0.6500E-01  0.6500E-01
     -0.447  0.0000E+00  0.0000E+00  0.6600E-01  0.6600E-01
     -0.412  0.0000E+00  0.0000E+00  0.6600E-01  0.6600E-01
     -0.377  0.0000E+00  0.0000E+00  0.6600E-01  0.6600E-01
     -0.341  0.0000E+00  0.0000E+00  0.6600E-01  0.6600E-01
     -0.306  0.0000E+00  0.0000E+00  0.6600E-01  0.6600E-01
     -0.271  0.0000E+00  0.0000E+00  0.6600E-01  0.6600E-01
     -0.236  0.2854E-01  0.2854E-01  0.6700E-01  0.6700E-01
     -0.201  0.0000E+00  0.0000E+00  0.6700E-01  0.6700E-01
     -0.166  0.0000E+00  0.0000E+00  0.6700E-01  0.6700E-01
     -0.131  0.0000E+00  0.0000E+00  0.6700E-01  0.6700E-01
     -0.096  0.0000E+00  0.0000E+00  0.6800E-01  0.6800E-01
     -0.061  0.0000E+00  0.0000E+00  0.6800E-01  0.6800E-01
     -0.026  0.0000E+00  0.0000E+00  0.6800E-01  0.6800E-01
      0.009  0.0000E+00  0.0000E+00  0.6800E-01  0.6800E-01
      0.044  0.0000E+00  0.0000E+00  0.6800E-01  0.6800E-01
      0.079  0.0000E+00  0.0000E+00  0.6800E-01  0.6800E-01
      0.114  0.0000E+00  0.0000E+00  0.6800E-01  0.6800E-01
      0.149  0.0000E+00  0.0000E+00  0.6800E-01  0.6800E-01
      0.184  0.0000E+00  0.0000E+00  0.6800E-01  0.6800E-01
      0.219  0.0000E+00  0.0000E+00  0.6800E-01  0.6800E-01
      0.254  0.0000E+00  0.0000E+00  0.7000E-01  0.7000E-01
      0.289  0.0000E+00  0.0000E+00  0.7000E-01  0.7000E-01
      0.324  0.0000E+00  0.0000E+00  0.7000E-01  0.7000E-01
      0.359  0.0000E+00  0.0000E+00  0.7000E-01  0.7000E-01
      0.394  0.0000E+00  0.0000E+00  0.7100E-01  0.7100E-01
      0.429  0.0000E+00  0.0000E+00  0.7100E-01  0.7100E-01
      0.464  0.0000E+00  0.0000E+00  0.7100E-01  0.7100E-01
      0.499  0.0000E+00  0.0000E+00  0.7100E-01  0.7100E-01
      0.534  0.0000E+00  0.0000E+00  0.7200E-01  0.7200E-01
      0.569  0.0000E+00  0.0000E+00  0.7200E-01  0.7200E-01
      0.604  0.0000E+00  0.0000E+00  0.7200E-01  0.7200E-01
      0.639  0.0000E+00  0.0000E+00  0.7200E-01  0.7200E-01
      0.675  0.0000E+00  0.0000E+00  0.7200E-01  0.7200E-01
      0.710  0.0000E+00  0.0000E+00  0.7200E-01  0.7200E-01
      0.745  0.0000E+00  0.0000E+00  0.7200E-01  0.7200E-01
      0.780  0.0000E+00  0.0000E+00  0.7200E-01  0.7200E-01
      0.815  0.0000E+00  0.0000E+00  0.7200E-01  0.7200E-01
      0.850  0.0000E+00  0.0000E+00  0.7200E-01  0.7200E-01
      0.885  0.0000E+00  0.0000E+00  0.7200E-01  0.7200E-01
      0.920  0.0000E+00  0.0000E+00  0.7200E-01  0.7200E-01
      0.955  0.0000E+00  0.0000E+00  0.7200E-01  0.7200E-01
      0.990  0.0000E+00  0.0000E+00  0.7200E-01  0.7200E-01
