<?xml version="1.0" encoding="ISO-8859-1"?>
<modeling>
 <generator>
  <i name="program" type="string">vasp </i>
  <i name="version" type="string">5.3.5  </i>
  <i name="subversion" type="string">31Mar14 (build Feb 01 2018 12:10:03) gamma-only                       parallel </i>
  <i name="platform" type="string">LinuxIFC </i>
  <i name="date" type="string">2019 03 21 </i>
  <i name="time" type="string">15:14:06 </i>
 </generator>
 <incar>
  <i type="string" name="PREC">normal</i>
  <i type="int" name="ISPIN">     2</i>
  <i type="int" name="IBRION">     2</i>
  <i type="int" name="NSW">  1000</i>
  <i type="int" name="ISIF">     2</i>
  <i name="POTIM">      0.10000000</i>
  <i type="logical" name="LPLANE"> T  </i>
  <i type="int" name="ISMEAR">     0</i>
  <i name="SIGMA">      0.00010000</i>
  <i type="logical" name="LWAVE"> F  </i>
  <i type="logical" name="LCHARG"> F  </i>
  <i type="logical" name="LVTOT"> F  </i>
  <i type="string" name="GGA"> PE</i>
 </incar>
 <kpoints>
  <varray name="kpointlist" >
   <v>       0.00000000       0.00000000       0.00000000 </v>
  </varray>
  <varray name="weights" >
   <v>       1.00000000 </v>
  </varray>
 </kpoints>
 <parameters>
  <separator name="general" >
   <i type="string" name="SYSTEM">unknown system</i>
   <i type="logical" name="LCOMPAT"> F  </i>
  </separator>
  <separator name="electronic" >
   <i type="string" name="PREC">normal</i>
   <i name="ENMAX">    249.84400000</i>
   <i name="ENAUG">    412.49600000</i>
   <i name="EDIFF">      0.00010000</i>
   <i type="int" name="IALGO">    38</i>
   <i type="int" name="IWAVPR">    11</i>
   <i type="int" name="NBANDS">    72</i>
   <i name="NELECT">    110.00000000</i>
   <i type="int" name="TURBO">     0</i>
   <i type="int" name="IRESTART">     0</i>
   <i type="int" name="NREBOOT">     0</i>
   <i type="int" name="NMIN">     0</i>
   <i name="EREF">      0.00000000</i>
   <separator name="electronic smearing" >
    <i type="int" name="ISMEAR">     0</i>
    <i name="SIGMA">      0.00010000</i>
    <i name="KSPACING">      0.50000000</i>
    <i type="logical" name="KGAMMA"> T  </i>
   </separator>
   <separator name="electronic projectors" >
    <i type="logical" name="LREAL"> F  </i>
    <v name="ROPT">      0.00000000</v>
    <i type="int" name="LMAXPAW">  -100</i>
    <i type="int" name="LMAXMIX">     2</i>
    <i type="logical" name="NLSPLINE"> F  </i>
   </separator>
   <separator name="electronic startup" >
    <i type="int" name="ISTART">     0</i>
    <i type="int" name="ICHARG">     2</i>
    <i type="int" name="INIWAV">     1</i>
   </separator>
   <separator name="electronic spin" >
    <i type="int" name="ISPIN">     2</i>
    <i type="logical" name="LNONCOLLINEAR"> F  </i>
    <v name="MAGMOM">      1.00000000      1.00000000      1.00000000      1.00000000      1.00000000      1.00000000      1.00000000      1.00000000      1.00000000      1.00000000</v>
    <i name="NUPDOWN">     -1.00000000</i>
    <i type="logical" name="LSORBIT"> F  </i>
    <v name="SAXIS">      0.00000000      0.00000000      1.00000000</v>
    <i type="logical" name="LSPIRAL"> F  </i>
    <v name="QSPIRAL">      0.00000000      0.00000000      0.00000000</v>
    <i type="logical" name="LZEROZ"> F  </i>
   </separator>
   <separator name="electronic exchange-correlation" >
    <i type="logical" name="LASPH"> F  </i>
    <i type="logical" name="LMETAGGA"> F  </i>
   </separator>
   <separator name="electronic convergence" >
    <i type="int" name="NELM">    60</i>
    <i type="int" name="NELMDL">    -5</i>
    <i type="int" name="NELMIN">     2</i>
    <i name="ENINI">    249.84400000</i>
    <separator name="electronic convergence detail" >
     <i type="logical" name="LDIAG"> T  </i>
     <i type="logical" name="LSUBROT"> F  </i>
     <i name="WEIMIN">      0.00100000</i>
     <i name="EBREAK">      0.00000035</i>
     <i name="DEPER">      0.30000000</i>
     <i type="int" name="NRMM">     4</i>
     <i name="TIME">      0.40000000</i>
    </separator>
   </separator>
   <separator name="electronic mixer" >
    <i name="AMIX">      0.40000000</i>
    <i name="BMIX">      1.00000000</i>
    <i name="AMIN">      0.10000000</i>
    <i name="AMIX_MAG">      1.60000000</i>
    <i name="BMIX_MAG">      1.00000000</i>
    <separator name="electronic mixer details" >
     <i type="int" name="IMIX">     4</i>
     <i type="int" name="MAXMIX">   -45</i>
     <i name="WC">    100.00000000</i>
     <i type="int" name="INIMIX">     1</i>
     <i type="int" name="MIXPRE">     1</i>
     <i type="int" name="MREMOVE">     5</i>
    </separator>
   </separator>
   <separator name="electronic dipolcorrection" >
    <i type="logical" name="LDIPOL"> F  </i>
    <i type="logical" name="LMONO"> F  </i>
    <i type="int" name="IDIPOL">     0</i>
    <i name="EPSILON">      1.00000000</i>
    <v name="DIPOL">   -100.00000000   -100.00000000   -100.00000000</v>
    <i name="EFIELD">      0.00000000</i>
   </separator>
  </separator>
  <separator name="grids" >
   <i type="int" name="NGX">    80</i>
   <i type="int" name="NGY">    80</i>
   <i type="int" name="NGZ">    80</i>
   <i type="int" name="NGXF">   160</i>
   <i type="int" name="NGYF">   160</i>
   <i type="int" name="NGZF">   160</i>
   <i type="logical" name="ADDGRID"> F  </i>
  </separator>
  <separator name="ionic" >
   <i type="int" name="NSW">  1000</i>
   <i type="int" name="IBRION">     2</i>
   <i type="int" name="ISIF">     2</i>
   <i name="PSTRESS">      0.00000000</i>
   <i name="EDIFFG">      0.00100000</i>
   <i type="int" name="NFREE">     1</i>
   <i name="POTIM">      0.10000000</i>
   <i name="SMASS">     -3.00000000</i>
   <i name="SCALEE">      1.00000000</i>
  </separator>
  <separator name="ionic md" >
   <i name="TEBEG">      0.00010000</i>
   <i name="TEEND">      0.00010000</i>
   <i type="int" name="NBLOCK">     1</i>
   <i type="int" name="KBLOCK">  1000</i>
   <i type="int" name="NPACO">   256</i>
   <i name="APACO">     16.00000000</i>
  </separator>
  <separator name="symmetry" >
   <i type="int" name="ISYM">     2</i>
   <i name="SYMPREC">      0.00001000</i>
  </separator>
  <separator name="dos" >
   <i type="logical" name="LORBIT"> F  </i>
   <v name="RWIGS">     -1.00000000</v>
   <i type="int" name="NEDOS">   301</i>
   <i name="EMIN">     10.00000000</i>
   <i name="EMAX">    -10.00000000</i>
   <i name="EFERMI">      0.00000000</i>
  </separator>
  <separator name="writing" >
   <i type="int" name="NWRITE">     2</i>
   <i type="logical" name="LWAVE"> F  </i>
   <i type="logical" name="LCHARG"> F  </i>
   <i type="logical" name="LPARD"> F  </i>
   <i type="logical" name="LVTOT"> F  </i>
   <i type="logical" name="LVHAR"> F  </i>
   <i type="logical" name="LELF"> F  </i>
   <i type="logical" name="LOPTICS"> F  </i>
   <v name="STM">      0.00000000      0.00000000      0.00000000      0.00000000      0.00000000      0.00000000      0.00000000</v>
  </separator>
  <separator name="performance" >
   <i type="int" name="NPAR">     4</i>
   <i type="int" name="NSIM">     4</i>
   <i type="int" name="NBLK">    -1</i>
   <i type="logical" name="LPLANE"> T  </i>
   <i type="logical" name="LSCALAPACK"> T  </i>
   <i type="logical" name="LSCAAWARE"> F  </i>
   <i type="logical" name="LSCALU"> F  </i>
   <i type="logical" name="LASYNC"> F  </i>
   <i type="logical" name="LORBITALREAL"> F  </i>
  </separator>
  <separator name="miscellaneous" >
   <i type="int" name="IDIOT">     3</i>
   <i type="logical" name="LMUSIC"> F  </i>
   <v name="POMASS">    107.86800000</v>
   <v name="DARWINR">      0.00000000</v>
   <v name="DARWINV">      1.00000000</v>
   <i type="logical" name="LCORR"> T  </i>
  </separator>
  <i type="logical" name="GGA_COMPAT"> T  </i>
  <i type="logical" name="LBERRY"> F  </i>
  <i type="int" name="ICORELEVEL">     0</i>
  <i type="logical" name="LDAU"> F  </i>
  <i type="int" name="I_CONSTRAINED_M">     0</i>
  <separator name="electronic exchange-correlation" >
   <i type="string" name="GGA">PE</i>
   <i type="int" name="VOSKOWN">     0</i>
   <i type="logical" name="LHFCALC"> F  </i>
   <i type="string" name="PRECFOCK"></i>
   <i type="logical" name="LSYMGRAD"> F  </i>
   <i type="logical" name="LHFONE"> F  </i>
   <i type="logical" name="LRHFCALC"> F  </i>
   <i type="logical" name="LTHOMAS"> F  </i>
   <i type="logical" name="LMODELHF"> F  </i>
   <i name="ENCUT4O">     -1.00000000</i>
   <i type="int" name="EXXOEP">     0</i>
   <i type="int" name="FOURORBIT">     0</i>
   <i name="AEXX">      0.00000000</i>
   <i name="HFALPHA">      0.00000000</i>
   <i name="MCALPHA">      0.00000000</i>
   <i name="ALDAX">      1.00000000</i>
   <i name="AGGAX">      1.00000000</i>
   <i name="ALDAC">      1.00000000</i>
   <i name="AGGAC">      1.00000000</i>
   <i type="int" name="NKREDX">     1</i>
   <i type="int" name="NKREDY">     1</i>
   <i type="int" name="NKREDZ">     1</i>
   <i type="logical" name="SHIFTRED"> F  </i>
   <i type="logical" name="ODDONLY"> F  </i>
   <i type="logical" name="EVENONLY"> F  </i>
   <i type="int" name="LMAXFOCK">     0</i>
   <i type="int" name="NMAXFOCKAE">     0</i>
   <i type="logical" name="LFOCKAEDFT"> F  </i>
   <i name="HFSCREEN">      0.00000000</i>
   <i name="HFSCREENC">      0.00000000</i>
   <i type="int" name="NBANDSGWLOW">     0</i>
  </separator>
  <separator name="vdW DFT" >
   <i type="logical" name="LUSE_VDW"> F  </i>
   <i name="Zab_VDW">     -0.84910000</i>
   <i name="PARAM1">      0.12340000</i>
   <i name="PARAM2">      1.00000000</i>
   <i name="PARAM3">      0.00000000</i>
  </separator>
  <separator name="model GW" >
   <i type="int" name="MODEL_GW">     0</i>
   <i name="MODEL_EPS0">    420.41137028</i>
   <i name="MODEL_ALPHA">      1.00000000</i>
  </separator>
  <separator name="linear response parameters" >
   <i type="logical" name="LEPSILON"> F  </i>
   <i type="logical" name="LRPA"> F  </i>
   <i type="logical" name="LNABLA"> F  </i>
   <i type="logical" name="LVEL"> F  </i>
   <i type="int" name="KINTER">     0</i>
   <i name="CSHIFT">      0.10000000</i>
   <i name="OMEGAMAX">     -1.00000000</i>
   <i name="DEG_THRESHOLD">      0.00200000</i>
  </separator>
  <separator name="orbital magnetization" >
   <i type="logical" name="NUCIND"> F  </i>
   <v name="MAGPOS">      0.00000000      0.00000000      0.00000000</v>
   <i type="logical" name="LNICSALL"> T  </i>
   <i type="logical" name="ORBITALMAG"> F  </i>
   <i type="logical" name="LMAGBLOCH"> F  </i>
   <i type="logical" name="LCHIMAG"> F  </i>
   <i type="logical" name="LGAUGE"> T  </i>
   <i type="int" name="MAGATOM">     0</i>
   <v name="MAGDIPOL">      0.00000000      0.00000000      0.00000000</v>
   <v name="AVECCONST">      0.00000000      0.00000000      0.00000000</v>
  </separator>
  <separator name="response functions" >
   <i type="logical" name="LADDER"> F  </i>
   <i type="logical" name="LFXC"> F  </i>
   <i type="logical" name="LHARTREE"> T  </i>
   <i type="int" name="IBSE">     0</i>
   <i type="logical" name="LTCTE"> F  </i>
   <i type="logical" name="LTETE"> F  </i>
   <i type="logical" name="LTRIPLET"> F  </i>
   <i type="logical" name="LFXCEPS"> F  </i>
   <i type="logical" name="LFXHEG"> F  </i>
   <i type="logical" name="L2ORDER"> F  </i>
   <i type="logical" name="LUSEW"> F  </i>
   <i name="ENCUTGW">     -2.00000000</i>
   <i name="ENCUTGWSOFT">     -2.00000000</i>
   <i name="ENCUTLF">     -1.00000000</i>
   <i type="int" name="LMAXMP2">    -1</i>
   <i name="SCISSOR">      0.00000000</i>
   <i type="int" name="NOMEGA">     0</i>
   <i type="int" name="NOMEGAR">     0</i>
   <i type="int" name="NBANDSGW">    -1</i>
   <i type="int" name="NBANDSO">    -1</i>
   <i type="int" name="NBANDSV">    -1</i>
   <i type="int" name="NELM">     1</i>
   <i type="int" name="DIM">     3</i>
   <i type="int" name="ANTIRES">     0</i>
   <i name="OMEGAMAX">    -30.00000000</i>
   <i name="OMEGAMIN">    -30.00000000</i>
   <i name="OMEGATL">   -200.00000000</i>
   <i type="int" name="OMEGAGRID">     0</i>
   <i name="CSHIFT">     -0.10000000</i>
   <i type="logical" name="SELFENERGY"> F  </i>
   <i type="logical" name="LSPECTRAL"> F  </i>
   <i type="logical" name="ODDONLYGW"> F  </i>
   <i type="logical" name="EVENONLYGW"> F  </i>
   <i type="int" name="NKREDLFX">     1</i>
   <i type="int" name="NKREDLFY">     1</i>
   <i type="int" name="NKREDLFZ">     1</i>
   <i type="int" name="MAXMEM">  1800</i>
   <i type="int" name="TELESCOPE">     0</i>
   <i type="int" name="TAUPAR">     1</i>
  </separator>
  <separator name="External order field" >
   <i name="OFIELD_KAPPA">      0.00000000</i>
   <v name="OFIELD_K">      0.00000000      0.00000000      0.00000000</v>
   <i name="OFIELD_Q6_NEAR">      0.00000000</i>
   <i name="OFIELD_Q6_FAR">      0.00000000</i>
   <i name="OFIELD_A">      0.00000000</i>
  </separator>
 </parameters>
 <atominfo>
  <atoms>      10 </atoms>
  <types>       1 </types>
  <array name="atoms" >
   <dimension dim="1">ion</dimension>
   <field type="string">element</field>
   <field type="int">atomtype</field>
   <set>
    <rc><c>Ag</c><c>   1</c></rc>
    <rc><c>Ag</c><c>   1</c></rc>
    <rc><c>Ag</c><c>   1</c></rc>
    <rc><c>Ag</c><c>   1</c></rc>
    <rc><c>Ag</c><c>   1</c></rc>
    <rc><c>Ag</c><c>   1</c></rc>
    <rc><c>Ag</c><c>   1</c></rc>
    <rc><c>Ag</c><c>   1</c></rc>
    <rc><c>Ag</c><c>   1</c></rc>
    <rc><c>Ag</c><c>   1</c></rc>
   </set>
  </array>
  <array name="atomtypes" >
   <dimension dim="1">type</dimension>
   <field type="int">atomspertype</field>
   <field type="string">element</field>
   <field>mass</field>
   <field>valence</field>
   <field type="string">pseudopotential</field>
   <set>
    <rc><c>  10</c><c>Ag</c><c>    107.86800000</c><c>     11.00000000</c><c>  PAW_PBE Ag 02Apr2005                  </c></rc>
   </set>
  </array>
 </atominfo>
 <structure name="initialpos" >
  <crystal>
   <varray name="basis" >
    <v>      19.13555521       0.00000000       0.00000000 </v>
    <v>       0.00000000      19.13555521       0.00000000 </v>
    <v>       0.00000000       0.00000000      19.13555521 </v>
   </varray>
   <i name="volume">   7006.85617130 </i>
   <varray name="rec_basis" >
    <v>       0.05225874       0.00000000       0.00000000 </v>
    <v>       0.00000000       0.05225874       0.00000000 </v>
    <v>       0.00000000       0.00000000       0.05225874 </v>
   </varray>
  </crystal>
  <varray name="positions" >
   <v>       0.49756828       0.40072106       0.50218061 </v>
   <v>       0.39773990       0.30683637       0.46009685 </v>
   <v>       0.40143587       0.45679547       0.57731498 </v>
   <v>       0.58480133       0.39550008       0.40679007 </v>
   <v>       0.30979194       0.40130407       0.49854484 </v>
   <v>       0.31298466       0.50318011       0.40982783 </v>
   <v>       0.42223020       0.42328562       0.38897008 </v>
   <v>       0.43463534       0.53829484       0.47743538 </v>
   <v>       0.51925645       0.44344060       0.29997023 </v>
   <v>       0.51628191       0.55282940       0.37712520 </v>
  </varray>
 </structure>
 <calculation>
  <scstep>
   <time name="dav">    0.62    0.62</time>
   <time name="total">    0.86    0.88</time>
   <energy>
    <i name="alphaZ">     12.13922547 </i>
    <i name="ewald">  10476.42348600 </i>
    <i name="hartreedc"> -20379.40787080 </i>
    <i name="XCdc">   -111.16471099 </i>
    <i name="pawpsdc">  10033.72178070 </i>
    <i name="pawaedc">  -9572.64608879 </i>
    <i name="eentropy">      0.00000000 </i>
    <i name="bandstr">    143.11963725 </i>
    <i name="atom">  10371.98630086 </i>
    <i name="e_fr_energy">    974.17175970 </i>
    <i name="e_wo_entrp">    974.17175970 </i>
    <i name="e_0_energy">    974.17175970 </i>
   </energy>
  </scstep>
  <scstep>
   <time name="dav">    1.02    1.02</time>
   <time name="total">    1.02    1.03</time>
   <energy>
    <i name="e_fr_energy">    378.23224178 </i>
    <i name="e_wo_entrp">    378.23224178 </i>
    <i name="e_0_energy">    378.23224178 </i>
   </energy>
  </scstep>
  <scstep>
   <time name="dav">    0.86    0.86</time>
   <time name="total">    0.86    0.87</time>
   <energy>
    <i name="e_fr_energy">     29.47199624 </i>
    <i name="e_wo_entrp">     29.47199624 </i>
    <i name="e_0_energy">     29.47199624 </i>
   </energy>
  </scstep>
  <scstep>
   <time name="dav">    0.78    0.78</time>
   <time name="total">    0.78    0.80</time>
   <energy>
    <i name="e_fr_energy">    -14.45037347 </i>
    <i name="e_wo_entrp">    -14.45037347 </i>
    <i name="e_0_energy">    -14.45037347 </i>
   </energy>
  </scstep>
  <scstep>
   <time name="dav">    0.64    0.64</time>
   <time name="total">    0.70    0.71</time>
   <energy>
    <i name="e_fr_energy">    -15.52508471 </i>
    <i name="e_wo_entrp">    -15.52508471 </i>
    <i name="e_0_energy">    -15.52508471 </i>
   </energy>
  </scstep>
  <scstep>
   <time name="dav">    0.63    0.63</time>
   <time name="total">    0.92    1.00</time>
   <energy>
    <i name="e_fr_energy">     -3.99748963 </i>
    <i name="e_wo_entrp">     -3.99748963 </i>
    <i name="e_0_energy">     -3.99748963 </i>
   </energy>
  </scstep>
  <scstep>
   <time name="dav">    0.67    0.67</time>
   <time name="total">    0.96    0.96</time>
   <energy>
    <i name="e_fr_energy">      1.68701951 </i>
    <i name="e_wo_entrp">      1.68701951 </i>
    <i name="e_0_energy">      1.68701951 </i>
   </energy>
  </scstep>
  <scstep>
   <time name="dav">    0.67    0.67</time>
   <time name="total">    0.96    1.04</time>
   <energy>
    <i name="e_fr_energy">     -1.83404785 </i>
    <i name="e_wo_entrp">     -1.83404785 </i>
    <i name="e_0_energy">     -1.83404785 </i>
   </energy>
  </scstep>
  <scstep>
   <time name="dav">    0.68    0.68</time>
   <time name="total">    0.96    0.97</time>
   <energy>
    <i name="e_fr_energy">     -5.20922488 </i>
    <i name="e_wo_entrp">     -5.20922488 </i>
    <i name="e_0_energy">     -5.20922488 </i>
   </energy>
  </scstep>
  <scstep>
   <time name="dav">    0.63    0.63</time>
   <time name="total">    0.92    0.93</time>
   <energy>
    <i name="e_fr_energy">     -8.90714377 </i>
    <i name="e_wo_entrp">     -8.90714377 </i>
    <i name="e_0_energy">     -8.90714377 </i>
   </energy>
  </scstep>
  <scstep>
   <time name="dav">    0.63    0.63</time>
   <time name="total">    0.92    0.92</time>
   <energy>
    <i name="e_fr_energy">    -11.97573347 </i>
    <i name="e_wo_entrp">    -11.97573347 </i>
    <i name="e_0_energy">    -11.97573347 </i>
   </energy>
  </scstep>
  <scstep>
   <time name="dav">    0.63    0.63</time>
   <time name="total">    0.92    0.92</time>
   <energy>
    <i name="e_fr_energy">    -13.74325259 </i>
    <i name="e_wo_entrp">    -13.74325259 </i>
    <i name="e_0_energy">    -13.74325259 </i>
   </energy>
  </scstep>
  <scstep>
   <time name="dav">    0.63    0.63</time>
   <time name="total">    0.92    0.92</time>
   <energy>
    <i name="e_fr_energy">    -14.65484256 </i>
    <i name="e_wo_entrp">    -14.65484256 </i>
    <i name="e_0_energy">    -14.65484256 </i>
   </energy>
  </scstep>
  <scstep>
   <time name="dav">    0.66    0.65</time>
   <time name="total">    0.94    0.99</time>
   <energy>
    <i name="e_fr_energy">    -14.97884186 </i>
    <i name="e_wo_entrp">    -14.97884186 </i>
    <i name="e_0_energy">    -14.97884186 </i>
   </energy>
  </scstep>
  <scstep>
   <time name="dav">    0.65    0.65</time>
   <time name="total">    0.94    0.95</time>
   <energy>
    <i name="e_fr_energy">    -15.19262641 </i>
    <i name="e_wo_entrp">    -15.19262641 </i>
    <i name="e_0_energy">    -15.19262641 </i>
   </energy>
  </scstep>
  <scstep>
   <time name="dav">    0.64    0.64</time>
   <time name="total">    0.93    0.93</time>
   <energy>
    <i name="e_fr_energy">    -15.30705022 </i>
    <i name="e_wo_entrp">    -15.30705022 </i>
    <i name="e_0_energy">    -15.30705022 </i>
   </energy>
  </scstep>
  <scstep>
   <time name="dav">    0.58    0.58</time>
   <time name="total">    0.88    0.88</time>
   <energy>
    <i name="e_fr_energy">    -15.32438786 </i>
    <i name="e_wo_entrp">    -15.32438786 </i>
    <i name="e_0_energy">    -15.32438786 </i>
   </energy>
  </scstep>
  <scstep>
   <time name="dav">    0.53    0.53</time>
   <time name="total">    0.83    1.72</time>
   <energy>
    <i name="e_fr_energy">    -15.32972055 </i>
    <i name="e_wo_entrp">    -15.32972055 </i>
    <i name="e_0_energy">    -15.32972055 </i>
   </energy>
  </scstep>
  <scstep>
   <time name="dav">    0.55    0.55</time>
   <time name="total">    0.84    0.85</time>
   <energy>
    <i name="e_fr_energy">    -15.33082894 </i>
    <i name="e_wo_entrp">    -15.33082894 </i>
    <i name="e_0_energy">    -15.33082894 </i>
   </energy>
  </scstep>
  <scstep>
   <time name="dav">    0.51    0.51</time>
   <time name="total">    0.80    0.80</time>
   <energy>
    <i name="e_fr_energy">    -15.33187474 </i>
    <i name="e_wo_entrp">    -15.33187474 </i>
    <i name="e_0_energy">    -15.33187474 </i>
   </energy>
  </scstep>
  <scstep>
   <time name="dav">    0.51    0.51</time>
   <time name="total">    0.80    0.80</time>
   <energy>
    <i name="e_fr_energy">    -15.33278181 </i>
    <i name="e_wo_entrp">    -15.33278181 </i>
    <i name="e_0_energy">    -15.33278181 </i>
   </energy>
  </scstep>
  <scstep>
   <time name="dav">    0.52    0.52</time>
   <time name="total">    0.81    0.82</time>
   <energy>
    <i name="e_fr_energy">    -15.33318443 </i>
    <i name="e_wo_entrp">    -15.33318443 </i>
    <i name="e_0_energy">    -15.33318443 </i>
   </energy>
  </scstep>
  <scstep>
   <time name="dav">    0.48    0.47</time>
   <time name="total">    0.71    0.71</time>
   <energy>
    <i name="alphaZ">     12.13922547 </i>
    <i name="ewald">  10476.42348600 </i>
    <i name="hartreedc"> -20372.93015444 </i>
    <i name="XCdc">   -114.10354791 </i>
    <i name="pawpsdc">  10931.02475361 </i>
    <i name="pawaedc"> -10488.26716166 </i>
    <i name="eentropy">      0.00000000 </i>
    <i name="bandstr">   -831.60612718 </i>
    <i name="atom">  10371.98630086 </i>
    <i name="e_fr_energy">    -15.33322525 </i>
    <i name="e_wo_entrp">    -15.33322525 </i>
    <i name="e_0_energy">    -15.33322525 </i>
   </energy>
  </scstep>
  <structure>
   <crystal>
    <varray name="basis" >
     <v>      19.13555521       0.00000000       0.00000000 </v>
     <v>       0.00000000      19.13555521       0.00000000 </v>
     <v>       0.00000000       0.00000000      19.13555521 </v>
    </varray>
    <i name="volume">   7006.85617130 </i>
    <varray name="rec_basis" >
     <v>       0.05225874       0.00000000       0.00000000 </v>
     <v>       0.00000000       0.05225874       0.00000000 </v>
     <v>       0.00000000       0.00000000       0.05225874 </v>
    </varray>
   </crystal>
   <varray name="positions" >
    <v>       0.49756828       0.40072106       0.50218061 </v>
    <v>       0.39773990       0.30683637       0.46009685 </v>
    <v>       0.40143587       0.45679547       0.57731498 </v>
    <v>       0.58480133       0.39550008       0.40679007 </v>
    <v>       0.30979194       0.40130407       0.49854484 </v>
    <v>       0.31298466       0.50318011       0.40982783 </v>
    <v>       0.42223020       0.42328562       0.38897008 </v>
    <v>       0.43463534       0.53829484       0.47743538 </v>
    <v>       0.51925645       0.44344060       0.29997023 </v>
    <v>       0.51628191       0.55282940       0.37712520 </v>
   </varray>
  </structure>
  <varray name="forces" >
   <v>       0.06050727      -0.24616200       1.22351453 </v>
   <v>       0.33248452      -0.92631049      -0.02854930 </v>
   <v>      -0.19628079       0.13640018       1.80743448 </v>
   <v>       1.05423390      -0.28812841      -0.50360845 </v>
   <v>      -0.87098897      -0.29689749      -0.07641787 </v>
   <v>      -0.53809746       0.80194068      -0.44777467 </v>
   <v>      -0.45075190      -0.06172286      -0.16049808 </v>
   <v>      -0.48347108       0.57212667       0.52561835 </v>
   <v>       0.47383362      -0.18170976      -1.79478686 </v>
   <v>       0.61853089       0.49046348      -0.54493212 </v>
  </varray>
  <varray name="stress" >
   <v>       1.04988792      -0.28480875      -0.82871452 </v>
   <v>      -0.28480875       0.59548856      -0.12813301 </v>
   <v>      -0.82871452      -0.12813302       2.09589777 </v>
  </varray>
  <energy>
   <i name="e_fr_energy">    -15.33322525 </i>
   <i name="e_wo_entrp">    -15.33322525 </i>
   <i name="e_0_energy">      0.00000000 </i>
  </energy>
  <time name="totalsc">   21.27   22.51</time>
 </calculation>
 <calculation>
  <scstep>
   <time name="dav">    0.64    0.65</time>
   <time name="total">    0.93    0.94</time>
   <energy>
    <i name="alphaZ">     12.13922547 </i>
    <i name="ewald">  10385.52350697 </i>
    <i name="hartreedc"> -20283.13172713 </i>
    <i name="XCdc">   -114.30744505 </i>
    <i name="pawpsdc">  10931.14825543 </i>
    <i name="pawaedc"> -10488.39134413 </i>
    <i name="eentropy">      0.00000000 </i>
    <i name="bandstr">   -830.42990092 </i>
    <i name="atom">  10371.98630086 </i>
    <i name="e_fr_energy">    -15.46312850 </i>
    <i name="e_wo_entrp">    -15.46312850 </i>
    <i name="e_0_energy">    -15.46312850 </i>
   </energy>
  </scstep>
  <scstep>
   <time name="dav">    0.66    0.66</time>
   <time name="total">    0.94    0.95</time>
   <energy>
    <i name="e_fr_energy">    -15.46750067 </i>
    <i name="e_wo_entrp">    -15.46750067 </i>
    <i name="e_0_energy">    -15.46750067 </i>
   </energy>
  </scstep>
  <scstep>
   <time name="dav">    0.66    0.65</time>
   <time name="total">    0.94    0.94</time>
   <energy>
    <i name="e_fr_energy">    -15.46734869 </i>
    <i name="e_wo_entrp">    -15.46734869 </i>
    <i name="e_0_energy">    -15.46734869 </i>
   </energy>
  </scstep>
  <scstep>
   <time name="dav">    0.51    0.51</time>
   <time name="total">    0.74    0.74</time>
   <energy>
    <i name="alphaZ">     12.13922547 </i>
    <i name="ewald">  10385.52350697 </i>
    <i name="hartreedc"> -20284.70659308 </i>
    <i name="XCdc">   -114.27058915 </i>
    <i name="pawpsdc">  10898.22541303 </i>
    <i name="pawaedc"> -10454.97468390 </i>
    <i name="eentropy">      0.00000000 </i>
    <i name="bandstr">   -829.38987973 </i>
    <i name="atom">  10371.98630086 </i>
    <i name="e_fr_energy">    -15.46729952 </i>
    <i name="e_wo_entrp">    -15.46729952 </i>
    <i name="e_0_energy">    -15.46729952 </i>
   </energy>
  </scstep>
  <structure>
   <crystal>
    <varray name="basis" >
     <v>      19.13555521       0.00000000       0.00000000 </v>
     <v>       0.00000000      19.13555521       0.00000000 </v>
     <v>       0.00000000       0.00000000      19.13555521 </v>
    </varray>
    <i name="volume">   7006.85617130 </i>
    <varray name="rec_basis" >
     <v>       0.05225874       0.00000000       0.00000000 </v>
     <v>       0.00000000       0.05225874       0.00000000 </v>
     <v>       0.00000000       0.00000000       0.05225874 </v>
    </varray>
   </crystal>
   <varray name="positions" >
    <v>       0.49759879       0.40059694       0.50279753 </v>
    <v>       0.39790755       0.30636931       0.46008246 </v>
    <v>       0.40133691       0.45686424       0.57822632 </v>
    <v>       0.58533290       0.39535480       0.40653614 </v>
    <v>       0.30935277       0.40115437       0.49850631 </v>
    <v>       0.31271335       0.50358447       0.40960206 </v>
    <v>       0.42200292       0.42325449       0.38888915 </v>
    <v>       0.43439156       0.53858331       0.47770041 </v>
    <v>       0.51949536       0.44334898       0.29906527 </v>
    <v>       0.51659379       0.55307670       0.37685043 </v>
   </varray>
  </structure>
  <varray name="forces" >
   <v>       0.08748747      -0.22126465       1.05460833 </v>
   <v>       0.30768763      -0.83264279      -0.02020039 </v>
   <v>      -0.21873980       0.11860985       1.65365362 </v>
   <v>       0.88450462      -0.24686075      -0.44214834 </v>
   <v>      -0.73276558      -0.24761995      -0.08197519 </v>
   <v>      -0.49992582       0.74156944      -0.40379805 </v>
   <v>      -0.35157092      -0.03985195      -0.14078537 </v>
   <v>      -0.43438072       0.49730108       0.46285790 </v>
   <v>       0.42570815      -0.16452967      -1.59509893 </v>
   <v>       0.53199497       0.39528939      -0.48711358 </v>
  </varray>
  <varray name="stress" >
   <v>       0.80737180      -0.28676851      -0.75176086 </v>
   <v>      -0.28676851       0.42237481      -0.11217880 </v>
   <v>      -0.75176086      -0.11217881       1.80666312 </v>
  </varray>
  <energy>
   <i name="e_fr_energy">    -15.46729952 </i>
   <i name="e_wo_entrp">    -15.46729952 </i>
   <i name="e_0_energy">      0.00000000 </i>
  </energy>
  <time name="totalsc">    4.66    5.03</time>
 </calculation>
 <calculation>
  <scstep>
   <time name="dav">    0.63    0.63</time>
   <time name="total">    0.92    0.93</time>
   <energy>
    <i name="alphaZ">     12.13922547 </i>
    <i name="ewald">  10117.47402092 </i>
    <i name="hartreedc"> -20019.65083730 </i>
    <i name="XCdc">   -114.85733363 </i>
    <i name="pawpsdc">  10898.25016239 </i>
    <i name="pawaedc"> -10455.00001672 </i>
    <i name="eentropy">      0.00000000 </i>
    <i name="bandstr">   -826.08340698 </i>
    <i name="atom">  10371.98630086 </i>
    <i name="e_fr_energy">    -15.74188498 </i>
    <i name="e_wo_entrp">    -15.74188498 </i>
    <i name="e_0_energy">    -15.74188498 </i>
   </energy>
  </scstep>
  <scstep>
   <time name="dav">    0.65    0.65</time>
   <time name="total">    0.94    0.94</time>
   <energy>
    <i name="e_fr_energy">    -15.78056499 </i>
    <i name="e_wo_entrp">    -15.78056499 </i>
    <i name="e_0_energy">    -15.78056499 </i>
   </energy>
  </scstep>
  <scstep>
   <time name="dav">    0.66    0.66</time>
   <time name="total">    0.94    0.95</time>
   <energy>
    <i name="e_fr_energy">    -15.77974325 </i>
    <i name="e_wo_entrp">    -15.77974325 </i>
    <i name="e_0_energy">    -15.77974325 </i>
   </energy>
  </scstep>
  <scstep>
   <time name="dav">    0.66    0.65</time>
   <time name="total">    0.94    0.94</time>
   <energy>
    <i name="e_fr_energy">    -15.77937432 </i>
    <i name="e_wo_entrp">    -15.77937432 </i>
    <i name="e_0_energy">    -15.77937432 </i>
   </energy>
  </scstep>
  <scstep>
   <time name="dav">    0.52    0.52</time>
   <time name="total">    0.81    0.81</time>
   <energy>
    <i name="e_fr_energy">    -15.77952157 </i>
    <i name="e_wo_entrp">    -15.77952157 </i>
    <i name="e_0_energy">    -15.77952157 </i>
   </energy>
  </scstep>
  <scstep>
   <time name="dav">    0.51    0.51</time>
   <time name="total">    0.80    0.80</time>
   <energy>
    <i name="e_fr_energy">    -15.77966443 </i>
    <i name="e_wo_entrp">    -15.77966443 </i>
    <i name="e_0_energy">    -15.77966443 </i>
   </energy>
  </scstep>
  <scstep>
   <time name="dav">    0.48    0.48</time>
   <time name="total">    0.78    0.78</time>
   <energy>
    <i name="e_fr_energy">    -15.77982268 </i>
    <i name="e_wo_entrp">    -15.77982268 </i>
    <i name="e_0_energy">    -15.77982268 </i>
   </energy>
  </scstep>
  <scstep>
   <time name="dav">    0.50    0.50</time>
   <time name="total">    0.78    0.83</time>
   <energy>
    <i name="e_fr_energy">    -15.77998051 </i>
    <i name="e_wo_entrp">    -15.77998051 </i>
    <i name="e_0_energy">    -15.77998051 </i>
   </energy>
  </scstep>
  <scstep>
   <time name="dav">    0.51    0.51</time>
   <time name="total">    0.80    0.80</time>
   <energy>
    <i name="e_fr_energy">    -15.78008702 </i>
    <i name="e_wo_entrp">    -15.78008702 </i>
    <i name="e_0_energy">    -15.78008702 </i>
   </energy>
  </scstep>
  <scstep>
   <time name="dav">    0.48    0.48</time>
   <time name="total">    0.78    0.78</time>
   <energy>
    <i name="e_fr_energy">    -15.78019109 </i>
    <i name="e_wo_entrp">    -15.78019109 </i>
    <i name="e_0_energy">    -15.78019109 </i>
   </energy>
  </scstep>
  <scstep>
   <time name="dav">    0.50    0.50</time>
   <time name="total">    0.79    0.79</time>
   <energy>
    <i name="e_fr_energy">    -15.78030274 </i>
    <i name="e_wo_entrp">    -15.78030274 </i>
    <i name="e_0_energy">    -15.78030274 </i>
   </energy>
  </scstep>
  <scstep>
   <time name="dav">    0.50    0.50</time>
   <time name="total">    0.73    0.73</time>
   <energy>
    <i name="alphaZ">     12.13922547 </i>
    <i name="ewald">  10117.47402092 </i>
    <i name="hartreedc"> -20024.36860714 </i>
    <i name="XCdc">   -114.74088278 </i>
    <i name="pawpsdc">  10808.87367380 </i>
    <i name="pawaedc"> -10364.23915837 </i>
    <i name="eentropy">      0.00000000 </i>
    <i name="bandstr">   -822.90489359 </i>
    <i name="atom">  10371.98630086 </i>
    <i name="e_fr_energy">    -15.78032083 </i>
    <i name="e_wo_entrp">    -15.78032083 </i>
    <i name="e_0_energy">    -15.78032083 </i>
   </energy>
  </scstep>
  <structure>
   <crystal>
    <varray name="basis" >
     <v>      19.13555521       0.00000000       0.00000000 </v>
     <v>       0.00000000      19.13555521       0.00000000 </v>
     <v>       0.00000000       0.00000000      19.13555521 </v>
    </varray>
    <i name="volume">   7006.85617130 </i>
    <varray name="rec_basis" >
     <v>       0.05225874       0.00000000       0.00000000 </v>
     <v>       0.00000000       0.05225874       0.00000000 </v>
     <v>       0.00000000       0.00000000       0.05225874 </v>
    </varray>
   </crystal>
   <varray name="positions" >
    <v>       0.49769032       0.40022458       0.50464829 </v>
    <v>       0.39841048       0.30496811       0.46003927 </v>
    <v>       0.40104000       0.45707057       0.58096035 </v>
    <v>       0.58692760       0.39491896       0.40577435 </v>
    <v>       0.30803526       0.40070526       0.49839071 </v>
    <v>       0.31189939       0.50479753       0.40892473 </v>
    <v>       0.42132109       0.42316113       0.38864638 </v>
    <v>       0.43366024       0.53944875       0.47849549 </v>
    <v>       0.52021211       0.44307411       0.29635036 </v>
    <v>       0.51752942       0.55381860       0.37602613 </v>
   </varray>
  </structure>
  <varray name="forces" >
   <v>       0.13769810      -0.15198947       0.62856919 </v>
   <v>       0.24293544      -0.57664302       0.00232064 </v>
   <v>      -0.26987317       0.07232776       1.24583900 </v>
   <v>       0.44283601      -0.14123626      -0.29140722 </v>
   <v>      -0.37053685      -0.12017851      -0.09866345 </v>
   <v>      -0.38933993       0.57799766      -0.28385871 </v>
   <v>      -0.10659223       0.01734594      -0.07434274 </v>
   <v>      -0.30652752       0.28862561       0.30560125 </v>
   <v>       0.31312914      -0.11554707      -1.09671188 </v>
   <v>       0.30627102       0.14929736      -0.33734608 </v>
  </varray>
  <varray name="stress" >
   <v>       0.15684190      -0.29049681      -0.52998937 </v>
   <v>      -0.29049680      -0.04092160      -0.06330305 </v>
   <v>      -0.52998937      -0.06330304       1.02856992 </v>
  </varray>
  <energy>
   <i name="e_fr_energy">    -15.78032083 </i>
   <i name="e_wo_entrp">    -15.78032083 </i>
   <i name="e_0_energy">      0.00000000 </i>
  </energy>
  <time name="totalsc">   11.11   11.21</time>
 </calculation>
 <calculation>
  <scstep>
   <time name="dav">    0.64    0.63</time>
   <time name="total">    0.92    0.93</time>
   <energy>
    <i name="alphaZ">     12.13922547 </i>
    <i name="ewald">   9601.45430847 </i>
    <i name="hartreedc"> -19513.27952729 </i>
    <i name="XCdc">   -115.81229939 </i>
    <i name="pawpsdc">  10808.87966186 </i>
    <i name="pawaedc"> -10364.24501569 </i>
    <i name="eentropy">      0.00000000 </i>
    <i name="bandstr">   -817.04003535 </i>
    <i name="atom">  10371.98630086 </i>
    <i name="e_fr_energy">    -15.91738106 </i>
    <i name="e_wo_entrp">    -15.91738106 </i>
    <i name="e_0_energy">    -15.91738106 </i>
   </energy>
  </scstep>
  <scstep>
   <time name="dav">    0.66    0.66</time>
   <time name="total">    0.94    0.95</time>
   <energy>
    <i name="e_fr_energy">    -16.07635142 </i>
    <i name="e_wo_entrp">    -16.07635142 </i>
    <i name="e_0_energy">    -16.07635142 </i>
   </energy>
  </scstep>
  <scstep>
   <time name="dav">    0.66    0.66</time>
   <time name="total">    0.94    1.93</time>
   <energy>
    <i name="e_fr_energy">    -16.07644266 </i>
    <i name="e_wo_entrp">    -16.07644266 </i>
    <i name="e_0_energy">    -16.07644266 </i>
   </energy>
  </scstep>
  <scstep>
   <time name="dav">    0.66    0.66</time>
   <time name="total">    0.94    1.79</time>
   <energy>
    <i name="e_fr_energy">    -16.07334894 </i>
    <i name="e_wo_entrp">    -16.07334894 </i>
    <i name="e_0_energy">    -16.07334894 </i>
   </energy>
  </scstep>
  <scstep>
   <time name="dav">    0.66    0.66</time>
   <time name="total">    0.94    0.95</time>
   <energy>
    <i name="e_fr_energy">    -16.07375821 </i>
    <i name="e_wo_entrp">    -16.07375821 </i>
    <i name="e_0_energy">    -16.07375821 </i>
   </energy>
  </scstep>
  <scstep>
   <time name="dav">    0.52    0.52</time>
   <time name="total">    0.81    0.81</time>
   <energy>
    <i name="e_fr_energy">    -16.07394745 </i>
    <i name="e_wo_entrp">    -16.07394745 </i>
    <i name="e_0_energy">    -16.07394745 </i>
   </energy>
  </scstep>
  <scstep>
   <time name="dav">    0.50    0.50</time>
   <time name="total">    0.79    0.79</time>
   <energy>
    <i name="e_fr_energy">    -16.07431183 </i>
    <i name="e_wo_entrp">    -16.07431183 </i>
    <i name="e_0_energy">    -16.07431183 </i>
   </energy>
  </scstep>
  <scstep>
   <time name="dav">    0.51    0.51</time>
   <time name="total">    0.80    0.80</time>
   <energy>
    <i name="e_fr_energy">    -16.07466293 </i>
    <i name="e_wo_entrp">    -16.07466293 </i>
    <i name="e_0_energy">    -16.07466293 </i>
   </energy>
  </scstep>
  <scstep>
   <time name="dav">    0.51    0.51</time>
   <time name="total">    0.80    0.80</time>
   <energy>
    <i name="e_fr_energy">    -16.07484796 </i>
    <i name="e_wo_entrp">    -16.07484796 </i>
    <i name="e_0_energy">    -16.07484796 </i>
   </energy>
  </scstep>
  <scstep>
   <time name="dav">    0.48    0.48</time>
   <time name="total">    0.77    0.78</time>
   <energy>
    <i name="e_fr_energy">    -16.07503543 </i>
    <i name="e_wo_entrp">    -16.07503543 </i>
    <i name="e_0_energy">    -16.07503543 </i>
   </energy>
  </scstep>
  <scstep>
   <time name="dav">    0.50    0.50</time>
   <time name="total">    0.79    0.79</time>
   <energy>
    <i name="e_fr_energy">    -16.07527248 </i>
    <i name="e_wo_entrp">    -16.07527248 </i>
    <i name="e_0_energy">    -16.07527248 </i>
   </energy>
  </scstep>
  <scstep>
   <time name="dav">    0.48    0.49</time>
   <time name="total">    0.72    0.72</time>
   <energy>
    <i name="alphaZ">     12.13922547 </i>
    <i name="ewald">   9601.45430847 </i>
    <i name="hartreedc"> -19521.79666275 </i>
    <i name="XCdc">   -115.58745737 </i>
    <i name="pawpsdc">  10658.74784586 </i>
    <i name="pawaedc"> -10211.64384359 </i>
    <i name="eentropy">      0.00000000 </i>
    <i name="bandstr">   -811.37506807 </i>
    <i name="atom">  10371.98630086 </i>
    <i name="e_fr_energy">    -16.07535112 </i>
    <i name="e_wo_entrp">    -16.07535112 </i>
    <i name="e_0_energy">    -16.07535112 </i>
   </energy>
  </scstep>
  <structure>
   <crystal>
    <varray name="basis" >
     <v>      19.13555521       0.00000000       0.00000000 </v>
     <v>       0.00000000      19.13555521       0.00000000 </v>
     <v>       0.00000000       0.00000000      19.13555521 </v>
    </varray>
    <i name="volume">   7006.85617130 </i>
    <varray name="rec_basis" >
     <v>       0.05225874       0.00000000       0.00000000 </v>
     <v>       0.00000000       0.05225874       0.00000000 </v>
     <v>       0.00000000       0.00000000       0.05225874 </v>
    </varray>
   </crystal>
   <varray name="positions" >
    <v>       0.49787337       0.39947986       0.50834982 </v>
    <v>       0.39941635       0.30216573       0.45995290 </v>
    <v>       0.40044619       0.45748322       0.58642842 </v>
    <v>       0.59011699       0.39404728       0.40425077 </v>
    <v>       0.30540024       0.39980705       0.49815953 </v>
    <v>       0.31027147       0.50722366       0.40757007 </v>
    <v>       0.41995742       0.42297440       0.38816082 </v>
    <v>       0.43219758       0.54117961       0.48008566 </v>
    <v>       0.52164561       0.44252438       0.29092056 </v>
    <v>       0.51940067       0.55530241       0.37437754 </v>
   </varray>
  </structure>
  <varray name="forces" >
   <v>       0.12717089      -0.03955379       0.02154691 </v>
   <v>       0.14036780      -0.15181289       0.03176693 </v>
   <v>      -0.28451864       0.01802032       0.58414025 </v>
   <v>      -0.18028325       0.02227340      -0.10764345 </v>
   <v>       0.18350517       0.06836779      -0.14793799 </v>
   <v>      -0.19309596       0.29385388      -0.08376184 </v>
   <v>       0.20681394       0.09578425       0.06576363 </v>
   <v>      -0.12578543      -0.05154982       0.07537651 </v>
   <v>       0.16880099      -0.02406702      -0.32169980 </v>
   <v>      -0.04297552      -0.23131611      -0.11755116 </v>
  </varray>
  <varray name="stress" >
   <v>      -0.85039830      -0.27501321      -0.20154942 </v>
   <v>      -0.27501321      -0.80477623       0.01090663 </v>
   <v>      -0.20154942       0.01090664      -0.21187230 </v>
  </varray>
  <energy>
   <i name="e_fr_energy">    -16.07535112 </i>
   <i name="e_wo_entrp">    -16.07535112 </i>
   <i name="e_0_energy">      0.00000000 </i>
  </energy>
  <time name="totalsc">   11.29   13.76</time>
 </calculation>
 <calculation>
  <scstep>
   <time name="dav">    0.64    0.63</time>
   <time name="total">    0.92    0.93</time>
   <energy>
    <i name="alphaZ">     12.13922547 </i>
    <i name="ewald">   9456.07202356 </i>
    <i name="hartreedc"> -19377.50599527 </i>
    <i name="XCdc">   -115.87901460 </i>
    <i name="pawpsdc">  10658.76338871 </i>
    <i name="pawaedc"> -10211.65935051 </i>
    <i name="eentropy">      0.00000000 </i>
    <i name="bandstr">   -809.99868684 </i>
    <i name="atom">  10371.98630086 </i>
    <i name="e_fr_energy">    -16.08210861 </i>
    <i name="e_wo_entrp">    -16.08210861 </i>
    <i name="e_0_energy">    -16.08210861 </i>
   </energy>
  </scstep>
  <scstep>
   <time name="dav">    0.66    0.66</time>
   <time name="total">    0.95    0.95</time>
   <energy>
    <i name="e_fr_energy">    -16.09531338 </i>
    <i name="e_wo_entrp">    -16.09531338 </i>
    <i name="e_0_energy">    -16.09531338 </i>
   </energy>
  </scstep>
  <scstep>
   <time name="dav">    0.66    0.66</time>
   <time name="total">    0.94    1.65</time>
   <energy>
    <i name="e_fr_energy">    -16.09518664 </i>
    <i name="e_wo_entrp">    -16.09518664 </i>
    <i name="e_0_energy">    -16.09518664 </i>
   </energy>
  </scstep>
  <scstep>
   <time name="dav">    0.66    0.66</time>
   <time name="total">    0.95    0.95</time>
   <energy>
    <i name="e_fr_energy">    -16.09496294 </i>
    <i name="e_wo_entrp">    -16.09496294 </i>
    <i name="e_0_energy">    -16.09496294 </i>
   </energy>
  </scstep>
  <scstep>
   <time name="dav">    0.47    0.47</time>
   <time name="total">    0.71    0.71</time>
   <energy>
    <i name="alphaZ">     12.13922547 </i>
    <i name="ewald">   9456.07202356 </i>
    <i name="hartreedc"> -19379.84602318 </i>
    <i name="XCdc">   -115.81241090 </i>
    <i name="pawpsdc">  10620.67070376 </i>
    <i name="pawaedc"> -10172.91123511 </i>
    <i name="eentropy">      0.00000000 </i>
    <i name="bandstr">   -808.39358501 </i>
    <i name="atom">  10371.98630086 </i>
    <i name="e_fr_energy">    -16.09500055 </i>
    <i name="e_wo_entrp">    -16.09500055 </i>
    <i name="e_0_energy">    -16.09500055 </i>
   </energy>
  </scstep>
  <structure>
   <crystal>
    <varray name="basis" >
     <v>      19.13555521       0.00000000       0.00000000 </v>
     <v>       0.00000000      19.13555521       0.00000000 </v>
     <v>       0.00000000       0.00000000      19.13555521 </v>
    </varray>
    <i name="volume">   7006.85617130 </i>
    <varray name="rec_basis" >
     <v>       0.05225874       0.00000000       0.00000000 </v>
     <v>       0.00000000       0.05225874       0.00000000 </v>
     <v>       0.00000000       0.00000000       0.05225874 </v>
    </varray>
   </crystal>
   <varray name="positions" >
    <v>       0.49792665       0.39926310       0.50942721 </v>
    <v>       0.39970913       0.30135005       0.45992776 </v>
    <v>       0.40027335       0.45760333       0.58801999 </v>
    <v>       0.59104532       0.39379356       0.40380731 </v>
    <v>       0.30463327       0.39954562       0.49809223 </v>
    <v>       0.30979764       0.50792982       0.40717577 </v>
    <v>       0.41956050       0.42292004       0.38801949 </v>
    <v>       0.43177185       0.54168341       0.48054850 </v>
    <v>       0.52206285       0.44236437       0.28934013 </v>
    <v>       0.51994533       0.55573430       0.37389769 </v>
   </varray>
  </structure>
  <varray name="forces" >
   <v>       0.10623751      -0.01347078      -0.09716626 </v>
   <v>       0.11683092      -0.04659278       0.03990114 </v>
   <v>      -0.27617171       0.00770775       0.42165067 </v>
   <v>      -0.30512388       0.05623545      -0.07639695 </v>
   <v>       0.30575986       0.10933245      -0.16636495 </v>
   <v>      -0.14242214       0.22281668      -0.03255581 </v>
   <v>       0.26350174       0.11167973       0.10724061 </v>
   <v>      -0.08900269      -0.12950558       0.02628087 </v>
   <v>       0.14368702       0.00069439      -0.15173689 </v>
   <v>      -0.12329662      -0.31889733      -0.07085244 </v>
  </varray>
  <varray name="stress" >
   <v>      -1.08921485      -0.26618651      -0.13131828 </v>
   <v>      -0.26618651      -1.00007455       0.02717931 </v>
   <v>      -0.13131828       0.02717931      -0.51529354 </v>
  </varray>
  <energy>
   <i name="e_fr_energy">    -16.09500055 </i>
   <i name="e_wo_entrp">    -16.09500055 </i>
   <i name="e_0_energy">      0.00000000 </i>
  </energy>
  <time name="totalsc">    5.57    6.79</time>
 </calculation>
 <calculation>
  <scstep>
   <time name="dav">    0.63    0.63</time>
   <time name="total">    0.92    0.93</time>
   <energy>
    <i name="alphaZ">     12.13922547 </i>
    <i name="ewald">   9455.29155920 </i>
    <i name="hartreedc"> -19379.08462926 </i>
    <i name="XCdc">   -115.82040491 </i>
    <i name="pawpsdc">  10620.90634947 </i>
    <i name="pawaedc"> -10173.14868498 </i>
    <i name="eentropy">      0.00000000 </i>
    <i name="bandstr">   -808.38788238 </i>
    <i name="atom">  10371.98630086 </i>
    <i name="e_fr_energy">    -16.11816654 </i>
    <i name="e_wo_entrp">    -16.11816654 </i>
    <i name="e_0_energy">    -16.11816654 </i>
   </energy>
  </scstep>
  <scstep>
   <time name="dav">    0.66    0.66</time>
   <time name="total">    0.95    0.95</time>
   <energy>
    <i name="e_fr_energy">    -16.12091358 </i>
    <i name="e_wo_entrp">    -16.12091358 </i>
    <i name="e_0_energy">    -16.12091358 </i>
   </energy>
  </scstep>
  <scstep>
   <time name="dav">    0.68    0.68</time>
   <time name="total">    0.92    0.92</time>
   <energy>
    <i name="alphaZ">     12.13922547 </i>
    <i name="ewald">   9455.29155920 </i>
    <i name="hartreedc"> -19379.11907577 </i>
    <i name="XCdc">   -115.81988674 </i>
    <i name="pawpsdc">  10620.53054313 </i>
    <i name="pawaedc"> -10172.76195597 </i>
    <i name="eentropy">      0.00000000 </i>
    <i name="bandstr">   -808.36764592 </i>
    <i name="atom">  10371.98630086 </i>
    <i name="e_fr_energy">    -16.12093575 </i>
    <i name="e_wo_entrp">    -16.12093575 </i>
    <i name="e_0_energy">    -16.12093575 </i>
   </energy>
  </scstep>
  <structure>
   <crystal>
    <varray name="basis" >
     <v>      19.13555521       0.00000000       0.00000000 </v>
     <v>       0.00000000      19.13555521       0.00000000 </v>
     <v>       0.00000000       0.00000000      19.13555521 </v>
    </varray>
    <i name="volume">   7006.85617130 </i>
    <varray name="rec_basis" >
     <v>       0.05225874       0.00000000       0.00000000 </v>
     <v>       0.00000000       0.05225874       0.00000000 </v>
     <v>       0.00000000       0.00000000       0.05225874 </v>
    </varray>
   </crystal>
   <varray name="positions" >
    <v>       0.49809811       0.39923049       0.50932865 </v>
    <v>       0.39990980       0.30123386       0.45998982 </v>
    <v>       0.39982587       0.45762179       0.58877189 </v>
    <v>       0.59060883       0.39386973       0.40366305 </v>
    <v>       0.30507912       0.39970570       0.49782458 </v>
    <v>       0.30954697       0.50832018       0.40710367 </v>
    <v>       0.41995839       0.42309457       0.38818247 </v>
    <v>       0.43160850       0.54150383       0.48061418 </v>
    <v>       0.52231261       0.44235720       0.28901741 </v>
    <v>       0.51977772       0.55525026       0.37376036 </v>
   </varray>
  </structure>
  <varray name="forces" >
   <v>       0.04065640       0.02057337      -0.02553085 </v>
   <v>       0.11585789      -0.03751432       0.03147068 </v>
   <v>      -0.20843633       0.00001525       0.34717421 </v>
   <v>      -0.28465556       0.05195014      -0.08091928 </v>
   <v>       0.30707625       0.11549592      -0.16873846 </v>
   <v>      -0.11149317       0.19193938      -0.03520869 </v>
   <v>       0.23114621       0.12122919       0.09503338 </v>
   <v>      -0.09106537      -0.14723390       0.05255024 </v>
   <v>       0.12815680      -0.01076413      -0.16719860 </v>
   <v>      -0.12724312      -0.30569090      -0.04863263 </v>
  </varray>
  <varray name="stress" >
   <v>      -1.12300422      -0.24863268      -0.09380493 </v>
   <v>      -0.24863268      -1.01346870       0.03827086 </v>
   <v>      -0.09380493       0.03827086      -0.51095813 </v>
  </varray>
  <energy>
   <i name="e_fr_energy">    -16.12093575 </i>
   <i name="e_wo_entrp">    -16.12093575 </i>
   <i name="e_0_energy">      0.00000000 </i>
  </energy>
  <time name="totalsc">    3.89    3.91</time>
 </calculation>
 <calculation>
  <scstep>
   <time name="dav">    0.64    0.64</time>
   <time name="total">    0.92    0.94</time>
   <energy>
    <i name="alphaZ">     12.13922547 </i>
    <i name="ewald">   9453.39974075 </i>
    <i name="hartreedc"> -19377.47037605 </i>
    <i name="XCdc">   -115.83557829 </i>
    <i name="pawpsdc">  10619.95337739 </i>
    <i name="pawaedc"> -10172.17831063 </i>
    <i name="eentropy">      0.00000000 </i>
    <i name="bandstr">   -808.15351772 </i>
    <i name="atom">  10371.98630086 </i>
    <i name="e_fr_energy">    -16.15913822 </i>
    <i name="e_wo_entrp">    -16.15913822 </i>
    <i name="e_0_energy">    -16.15913822 </i>
   </energy>
  </scstep>
  <scstep>
   <time name="dav">    0.66    0.66</time>
   <time name="total">    0.94    0.95</time>
   <energy>
    <i name="e_fr_energy">    -16.18344373 </i>
    <i name="e_wo_entrp">    -16.18344373 </i>
    <i name="e_0_energy">    -16.18344373 </i>
   </energy>
  </scstep>
  <scstep>
   <time name="dav">    0.66    0.66</time>
   <time name="total">    0.95    0.95</time>
   <energy>
    <i name="e_fr_energy">    -16.18348786 </i>
    <i name="e_wo_entrp">    -16.18348786 </i>
    <i name="e_0_energy">    -16.18348786 </i>
   </energy>
  </scstep>
  <scstep>
   <time name="dav">    0.63    0.63</time>
   <time name="total">    0.92    0.92</time>
   <energy>
    <i name="e_fr_energy">    -16.18311045 </i>
    <i name="e_wo_entrp">    -16.18311045 </i>
    <i name="e_0_energy">    -16.18311045 </i>
   </energy>
  </scstep>
  <scstep>
   <time name="dav">    0.66    0.66</time>
   <time name="total">    0.95    0.95</time>
   <energy>
    <i name="e_fr_energy">    -16.18324194 </i>
    <i name="e_wo_entrp">    -16.18324194 </i>
    <i name="e_0_energy">    -16.18324194 </i>
   </energy>
  </scstep>
  <scstep>
   <time name="dav">    0.53    0.53</time>
   <time name="total">    0.76    0.89</time>
   <energy>
    <i name="alphaZ">     12.13922547 </i>
    <i name="ewald">   9453.39974075 </i>
    <i name="hartreedc"> -19377.70607516 </i>
    <i name="XCdc">   -115.83388384 </i>
    <i name="pawpsdc">  10614.87863258 </i>
    <i name="pawaedc"> -10167.02774987 </i>
    <i name="eentropy">      0.00000000 </i>
    <i name="bandstr">   -808.01952768 </i>
    <i name="atom">  10371.98630086 </i>
    <i name="e_fr_energy">    -16.18333689 </i>
    <i name="e_wo_entrp">    -16.18333689 </i>
    <i name="e_0_energy">    -16.18333689 </i>
   </energy>
  </scstep>
  <structure>
   <crystal>
    <varray name="basis" >
     <v>      19.13555521       0.00000000       0.00000000 </v>
     <v>       0.00000000      19.13555521       0.00000000 </v>
     <v>       0.00000000       0.00000000      19.13555521 </v>
    </varray>
    <i name="volume">   7006.85617130 </i>
    <varray name="rec_basis" >
     <v>       0.05225874       0.00000000       0.00000000 </v>
     <v>       0.00000000       0.05225874       0.00000000 </v>
     <v>       0.00000000       0.00000000       0.05225874 </v>
    </varray>
   </crystal>
   <varray name="positions" >
    <v>       0.49861247       0.39913268       0.50903300 </v>
    <v>       0.40051180       0.30088530       0.46017600 </v>
    <v>       0.39848341       0.45767715       0.59102758 </v>
    <v>       0.58929937       0.39409825       0.40323028 </v>
    <v>       0.30641665       0.40018596       0.49702161 </v>
    <v>       0.30879495       0.50949123       0.40688738 </v>
    <v>       0.42115205       0.42361816       0.38867140 </v>
    <v>       0.43111843       0.54096509       0.48081121 </v>
    <v>       0.52306186       0.44233567       0.28804926 </v>
    <v>       0.51927490       0.55379813       0.37334835 </v>
   </varray>
  </structure>
  <varray name="forces" >
   <v>      -0.12436275       0.10051275       0.17258664 </v>
   <v>       0.11487772      -0.01613091       0.00937990 </v>
   <v>      -0.04700774      -0.01277659       0.17591924 </v>
   <v>      -0.21500713       0.03883783      -0.10161821 </v>
   <v>       0.31658087       0.13692817      -0.18344522 </v>
   <v>      -0.03666504       0.11994725      -0.04108276 </v>
   <v>       0.14682262       0.13892203       0.05472098 </v>
   <v>      -0.10572417      -0.19005040       0.12723659 </v>
   <v>       0.08959940      -0.04277877      -0.22127634 </v>
   <v>      -0.13911378      -0.27341135       0.00757916 </v>
  </varray>
  <varray name="stress" >
   <v>      -1.20125730      -0.20446555      -0.01344149 </v>
   <v>      -0.20446554      -1.06263342       0.07132631 </v>
   <v>      -0.01344149       0.07132631      -0.53105558 </v>
  </varray>
  <energy>
   <i name="e_fr_energy">    -16.18333689 </i>
   <i name="e_wo_entrp">    -16.18333689 </i>
   <i name="e_0_energy">      0.00000000 </i>
  </energy>
  <time name="totalsc">    6.55    7.32</time>
 </calculation>
 <calculation>
  <scstep>
   <time name="dav">    0.64    0.64</time>
   <time name="total">    0.92    0.94</time>
   <energy>
    <i name="alphaZ">     12.13922547 </i>
    <i name="ewald">   9451.62658474 </i>
    <i name="hartreedc"> -19376.12341655 </i>
    <i name="XCdc">   -115.83958639 </i>
    <i name="pawpsdc">  10614.79898022 </i>
    <i name="pawaedc"> -10166.94578575 </i>
    <i name="eentropy">      0.00000000 </i>
    <i name="bandstr">   -807.81554167 </i>
    <i name="atom">  10371.98630086 </i>
    <i name="e_fr_energy">    -16.17323907 </i>
    <i name="e_wo_entrp">    -16.17323907 </i>
    <i name="e_0_energy">    -16.17323907 </i>
   </energy>
  </scstep>
  <scstep>
   <time name="dav">    0.63    0.63</time>
   <time name="total">    0.92    0.92</time>
   <energy>
    <i name="e_fr_energy">    -15.39340783 </i>
    <i name="e_wo_entrp">    -15.39340783 </i>
    <i name="e_0_energy">    -15.39340783 </i>
   </energy>
  </scstep>
  <scstep>
   <time name="dav">    0.65    0.65</time>
   <time name="total">    0.94    0.94</time>
   <energy>
    <i name="e_fr_energy">    -15.94041119 </i>
    <i name="e_wo_entrp">    -15.94041119 </i>
    <i name="e_0_energy">    -15.94041119 </i>
   </energy>
  </scstep>
  <scstep>
   <time name="dav">    0.66    0.66</time>
   <time name="total">    0.94    1.04</time>
   <energy>
    <i name="e_fr_energy">    -16.13595765 </i>
    <i name="e_wo_entrp">    -16.13595765 </i>
    <i name="e_0_energy">    -16.13595765 </i>
   </energy>
  </scstep>
  <scstep>
   <time name="dav">    0.66    0.66</time>
   <time name="total">    0.95    1.22</time>
   <energy>
    <i name="e_fr_energy">    -16.21891882 </i>
    <i name="e_wo_entrp">    -16.21891882 </i>
    <i name="e_0_energy">    -16.21891882 </i>
   </energy>
  </scstep>
  <scstep>
   <time name="dav">    0.67    0.67</time>
   <time name="total">    0.96    0.99</time>
   <energy>
    <i name="e_fr_energy">    -16.20888609 </i>
    <i name="e_wo_entrp">    -16.20888609 </i>
    <i name="e_0_energy">    -16.20888609 </i>
   </energy>
  </scstep>
  <scstep>
   <time name="dav">    0.64    0.65</time>
   <time name="total">    0.94    1.20</time>
   <energy>
    <i name="e_fr_energy">    -16.15002180 </i>
    <i name="e_wo_entrp">    -16.15002180 </i>
    <i name="e_0_energy">    -16.15002180 </i>
   </energy>
  </scstep>
  <scstep>
   <time name="dav">    0.63    0.63</time>
   <time name="total">    0.92    0.92</time>
   <energy>
    <i name="e_fr_energy">    -16.20220673 </i>
    <i name="e_wo_entrp">    -16.20220673 </i>
    <i name="e_0_energy">    -16.20220673 </i>
   </energy>
  </scstep>
  <scstep>
   <time name="dav">    0.66    0.66</time>
   <time name="total">    0.95    0.97</time>
   <energy>
    <i name="e_fr_energy">    -16.22989134 </i>
    <i name="e_wo_entrp">    -16.22989134 </i>
    <i name="e_0_energy">    -16.22989134 </i>
   </energy>
  </scstep>
  <scstep>
   <time name="dav">    0.62    0.62</time>
   <time name="total">    0.91    0.91</time>
   <energy>
    <i name="e_fr_energy">    -16.22289324 </i>
    <i name="e_wo_entrp">    -16.22289324 </i>
    <i name="e_0_energy">    -16.22289324 </i>
   </energy>
  </scstep>
  <scstep>
   <time name="dav">    0.67    0.67</time>
   <time name="total">    0.96    1.03</time>
   <energy>
    <i name="e_fr_energy">    -16.21928398 </i>
    <i name="e_wo_entrp">    -16.21928398 </i>
    <i name="e_0_energy">    -16.21928398 </i>
   </energy>
  </scstep>
  <scstep>
   <time name="dav">    0.51    0.51</time>
   <time name="total">    0.80    0.81</time>
   <energy>
    <i name="e_fr_energy">    -16.21869062 </i>
    <i name="e_wo_entrp">    -16.21869062 </i>
    <i name="e_0_energy">    -16.21869062 </i>
   </energy>
  </scstep>
  <scstep>
   <time name="dav">    0.64    0.64</time>
   <time name="total">    0.94    0.94</time>
   <energy>
    <i name="e_fr_energy">    -16.23144485 </i>
    <i name="e_wo_entrp">    -16.23144485 </i>
    <i name="e_0_energy">    -16.23144485 </i>
   </energy>
  </scstep>
  <scstep>
   <time name="dav">    0.66    0.66</time>
   <time name="total">    0.95    0.95</time>
   <energy>
    <i name="e_fr_energy">    -16.24752784 </i>
    <i name="e_wo_entrp">    -16.24752784 </i>
    <i name="e_0_energy">    -16.24752784 </i>
   </energy>
  </scstep>
  <scstep>
   <time name="dav">    0.68    0.68</time>
   <time name="total">    0.98    0.98</time>
   <energy>
    <i name="e_fr_energy">    -16.25271495 </i>
    <i name="e_wo_entrp">    -16.25271495 </i>
    <i name="e_0_energy">    -16.25271495 </i>
   </energy>
  </scstep>
  <scstep>
   <time name="dav">    0.63    0.63</time>
   <time name="total">    0.93    0.93</time>
   <energy>
    <i name="e_fr_energy">    -16.25394846 </i>
    <i name="e_wo_entrp">    -16.25394846 </i>
    <i name="e_0_energy">    -16.25394846 </i>
   </energy>
  </scstep>
  <scstep>
   <time name="dav">    0.66    0.66</time>
   <time name="total">    0.95    1.05</time>
   <energy>
    <i name="e_fr_energy">    -16.25579134 </i>
    <i name="e_wo_entrp">    -16.25579134 </i>
    <i name="e_0_energy">    -16.25579134 </i>
   </energy>
  </scstep>
  <scstep>
   <time name="dav">    0.50    0.50</time>
   <time name="total">    0.79    0.80</time>
   <energy>
    <i name="e_fr_energy">    -16.25538075 </i>
    <i name="e_wo_entrp">    -16.25538075 </i>
    <i name="e_0_energy">    -16.25538075 </i>
   </energy>
  </scstep>
  <scstep>
   <time name="dav">    0.52    0.52</time>
   <time name="total">    0.82    0.82</time>
   <energy>
    <i name="e_fr_energy">    -16.25511110 </i>
    <i name="e_wo_entrp">    -16.25511110 </i>
    <i name="e_0_energy">    -16.25511110 </i>
   </energy>
  </scstep>
  <scstep>
   <time name="dav">    0.64    0.64</time>
   <time name="total">    0.94    0.94</time>
   <energy>
    <i name="e_fr_energy">    -16.25531420 </i>
    <i name="e_wo_entrp">    -16.25531420 </i>
    <i name="e_0_energy">    -16.25531420 </i>
   </energy>
  </scstep>
  <scstep>
   <time name="dav">    0.66    0.66</time>
   <time name="total">    0.95    1.24</time>
   <energy>
    <i name="e_fr_energy">    -16.25625496 </i>
    <i name="e_wo_entrp">    -16.25625496 </i>
    <i name="e_0_energy">    -16.25625496 </i>
   </energy>
  </scstep>
  <scstep>
   <time name="dav">    0.66    0.66</time>
   <time name="total">    0.96    0.96</time>
   <energy>
    <i name="e_fr_energy">    -16.25548943 </i>
    <i name="e_wo_entrp">    -16.25548943 </i>
    <i name="e_0_energy">    -16.25548943 </i>
   </energy>
  </scstep>
  <scstep>
   <time name="dav">    0.67    0.67</time>
   <time name="total">    0.96    0.97</time>
   <energy>
    <i name="e_fr_energy">    -16.25555149 </i>
    <i name="e_wo_entrp">    -16.25555149 </i>
    <i name="e_0_energy">    -16.25555149 </i>
   </energy>
  </scstep>
  <scstep>
   <time name="dav">    0.54    0.54</time>
   <time name="total">    0.84    0.84</time>
   <energy>
    <i name="e_fr_energy">    -16.25541175 </i>
    <i name="e_wo_entrp">    -16.25541175 </i>
    <i name="e_0_energy">    -16.25541175 </i>
   </energy>
  </scstep>
  <scstep>
   <time name="dav">    0.66    0.66</time>
   <time name="total">    0.95    0.96</time>
   <energy>
    <i name="e_fr_energy">    -16.25512600 </i>
    <i name="e_wo_entrp">    -16.25512600 </i>
    <i name="e_0_energy">    -16.25512600 </i>
   </energy>
  </scstep>
  <scstep>
   <time name="dav">    0.66    0.66</time>
   <time name="total">    0.96    0.96</time>
   <energy>
    <i name="e_fr_energy">    -16.25626569 </i>
    <i name="e_wo_entrp">    -16.25626569 </i>
    <i name="e_0_energy">    -16.25626569 </i>
   </energy>
  </scstep>
  <scstep>
   <time name="dav">    0.64    0.64</time>
   <time name="total">    0.94    0.95</time>
   <energy>
    <i name="e_fr_energy">    -16.25735539 </i>
    <i name="e_wo_entrp">    -16.25735539 </i>
    <i name="e_0_energy">    -16.25735539 </i>
   </energy>
  </scstep>
  <scstep>
   <time name="dav">    0.66    0.66</time>
   <time name="total">    0.96    0.96</time>
   <energy>
    <i name="e_fr_energy">    -16.25819914 </i>
    <i name="e_wo_entrp">    -16.25819914 </i>
    <i name="e_0_energy">    -16.25819914 </i>
   </energy>
  </scstep>
  <scstep>
   <time name="dav">    0.66    0.66</time>
   <time name="total">    0.96    0.96</time>
   <energy>
    <i name="e_fr_energy">    -16.25728494 </i>
    <i name="e_wo_entrp">    -16.25728494 </i>
    <i name="e_0_energy">    -16.25728494 </i>
   </energy>
  </scstep>
  <scstep>
   <time name="dav">    0.66    0.66</time>
   <time name="total">    0.89    0.96</time>
   <energy>
    <i name="alphaZ">     12.13922547 </i>
    <i name="ewald">   9451.62658474 </i>
    <i name="hartreedc"> -19378.43162376 </i>
    <i name="XCdc">   -115.89746670 </i>
    <i name="pawpsdc">  10608.30463056 </i>
    <i name="pawaedc"> -10160.37456114 </i>
    <i name="eentropy">     -0.00004797 </i>
    <i name="bandstr">   -805.61035602 </i>
    <i name="atom">  10371.98630086 </i>
    <i name="e_fr_energy">    -16.25731395 </i>
    <i name="e_wo_entrp">    -16.25726598 </i>
    <i name="e_0_energy">    -16.25728997 </i>
   </energy>
  </scstep>
  <structure>
   <crystal>
    <varray name="basis" >
     <v>      19.13555521       0.00000000       0.00000000 </v>
     <v>       0.00000000      19.13555521       0.00000000 </v>
     <v>       0.00000000       0.00000000      19.13555521 </v>
    </varray>
    <i name="volume">   7006.85617130 </i>
    <varray name="rec_basis" >
     <v>       0.05225874       0.00000000       0.00000000 </v>
     <v>       0.00000000       0.05225874       0.00000000 </v>
     <v>       0.00000000       0.00000000       0.05225874 </v>
    </varray>
   </crystal>
   <varray name="positions" >
    <v>       0.49964120       0.39893704       0.50844169 </v>
    <v>       0.40171580       0.30018817       0.46054836 </v>
    <v>       0.39579851       0.45778787       0.59553895 </v>
    <v>       0.58668046       0.39455527       0.40236474 </v>
    <v>       0.30909171       0.40114648       0.49541566 </v>
    <v>       0.30729092       0.51183335       0.40645481 </v>
    <v>       0.42353937       0.42466532       0.38964927 </v>
    <v>       0.43013829       0.53988761       0.48120528 </v>
    <v>       0.52456038       0.44229262       0.28611297 </v>
    <v>       0.51826926       0.55089388       0.37252434 </v>
   </varray>
  </structure>
  <varray name="forces" >
   <v>      -0.39401011       0.21925437       0.55099398 </v>
   <v>       0.17514061       0.05266711      -0.08172615 </v>
   <v>       0.05758566      -0.04436936      -0.06474280 </v>
   <v>      -0.15957601       0.09030350      -0.20446152 </v>
   <v>       0.30981361       0.19524086      -0.03520538 </v>
   <v>       0.16369594      -0.00152345      -0.09970521 </v>
   <v>       0.01845041       0.13525744      -0.06869891 </v>
   <v>      -0.10453654      -0.25997190       0.28182163 </v>
   <v>       0.09830326      -0.10001032      -0.42638433 </v>
   <v>      -0.16486684      -0.28684826       0.14810870 </v>
  </varray>
  <varray name="stress" >
   <v>      -1.51272613      -0.07288043      -0.12583464 </v>
   <v>      -0.07288044      -1.39228832       0.20918212 </v>
   <v>      -0.12583464       0.20918211      -0.13268296 </v>
  </varray>
  <energy>
   <i name="e_fr_energy">    -16.25731395 </i>
   <i name="e_wo_entrp">    -16.25728997 </i>
   <i name="e_0_energy">     -0.00004797 </i>
  </energy>
  <time name="totalsc">   28.90   30.18</time>
 </calculation>
 <calculation>
  <scstep>
   <time name="dav">    0.64    0.64</time>
   <time name="total">    0.92    0.94</time>
   <energy>
    <i name="alphaZ">     12.13922547 </i>
    <i name="ewald">   9456.24369526 </i>
    <i name="hartreedc"> -19383.05514022 </i>
    <i name="XCdc">   -115.78699088 </i>
    <i name="pawpsdc">  10608.56162249 </i>
    <i name="pawaedc"> -10160.63365548 </i>
    <i name="eentropy">      0.00000000 </i>
    <i name="bandstr">   -805.33367581 </i>
    <i name="atom">  10371.98630086 </i>
    <i name="e_fr_energy">    -15.87861831 </i>
    <i name="e_wo_entrp">    -15.87861831 </i>
    <i name="e_0_energy">    -15.87861831 </i>
   </energy>
  </scstep>
  <scstep>
   <time name="dav">    0.63    0.63</time>
   <time name="total">    0.92    1.55</time>
   <energy>
    <i name="e_fr_energy">    -16.15885899 </i>
    <i name="e_wo_entrp">    -16.15885899 </i>
    <i name="e_0_energy">    -16.15885899 </i>
   </energy>
  </scstep>
  <scstep>
   <time name="dav">    0.67    0.67</time>
   <time name="total">    0.96    0.96</time>
   <energy>
    <i name="e_fr_energy">    -16.06230512 </i>
    <i name="e_wo_entrp">    -16.06230512 </i>
    <i name="e_0_energy">    -16.06230512 </i>
   </energy>
  </scstep>
  <scstep>
   <time name="dav">    0.64    0.65</time>
   <time name="total">    0.93    0.94</time>
   <energy>
    <i name="e_fr_energy">    -16.00629143 </i>
    <i name="e_wo_entrp">    -16.00629143 </i>
    <i name="e_0_energy">    -16.00629143 </i>
   </energy>
  </scstep>
  <scstep>
   <time name="dav">    0.63    0.63</time>
   <time name="total">    0.92    0.95</time>
   <energy>
    <i name="e_fr_energy">    -16.04438067 </i>
    <i name="e_wo_entrp">    -16.04438067 </i>
    <i name="e_0_energy">    -16.04438067 </i>
   </energy>
  </scstep>
  <scstep>
   <time name="dav">    0.67    0.67</time>
   <time name="total">    0.96    0.97</time>
   <energy>
    <i name="e_fr_energy">    -16.10372888 </i>
    <i name="e_wo_entrp">    -16.10372888 </i>
    <i name="e_0_energy">    -16.10372888 </i>
   </energy>
  </scstep>
  <scstep>
   <time name="dav">    0.63    0.63</time>
   <time name="total">    0.92    0.94</time>
   <energy>
    <i name="e_fr_energy">    -16.20044069 </i>
    <i name="e_wo_entrp">    -16.20044069 </i>
    <i name="e_0_energy">    -16.20044069 </i>
   </energy>
  </scstep>
  <scstep>
   <time name="dav">    0.59    0.59</time>
   <time name="total">    0.88    0.88</time>
   <energy>
    <i name="e_fr_energy">    -16.26833317 </i>
    <i name="e_wo_entrp">    -16.26833317 </i>
    <i name="e_0_energy">    -16.26833317 </i>
   </energy>
  </scstep>
  <scstep>
   <time name="dav">    0.56    0.56</time>
   <time name="total">    0.85    0.88</time>
   <energy>
    <i name="e_fr_energy">    -16.30143415 </i>
    <i name="e_wo_entrp">    -16.30143415 </i>
    <i name="e_0_energy">    -16.30143415 </i>
   </energy>
  </scstep>
  <scstep>
   <time name="dav">    0.57    0.57</time>
   <time name="total">    0.86    0.91</time>
   <energy>
    <i name="e_fr_energy">    -16.32675257 </i>
    <i name="e_wo_entrp">    -16.32675257 </i>
    <i name="e_0_energy">    -16.32675257 </i>
   </energy>
  </scstep>
  <scstep>
   <time name="dav">    0.55    0.55</time>
   <time name="total">    0.84    0.84</time>
   <energy>
    <i name="e_fr_energy">    -16.33063008 </i>
    <i name="e_wo_entrp">    -16.33063008 </i>
    <i name="e_0_energy">    -16.33063008 </i>
   </energy>
  </scstep>
  <scstep>
   <time name="dav">    0.52    0.52</time>
   <time name="total">    0.80    0.83</time>
   <energy>
    <i name="e_fr_energy">    -16.33174451 </i>
    <i name="e_wo_entrp">    -16.33174451 </i>
    <i name="e_0_energy">    -16.33174451 </i>
   </energy>
  </scstep>
  <scstep>
   <time name="dav">    0.48    0.49</time>
   <time name="total">    0.78    0.80</time>
   <energy>
    <i name="e_fr_energy">    -16.33141647 </i>
    <i name="e_wo_entrp">    -16.33141647 </i>
    <i name="e_0_energy">    -16.33141647 </i>
   </energy>
  </scstep>
  <scstep>
   <time name="dav">    0.56    0.56</time>
   <time name="total">    0.85    0.89</time>
   <energy>
    <i name="e_fr_energy">    -16.33256822 </i>
    <i name="e_wo_entrp">    -16.33256822 </i>
    <i name="e_0_energy">    -16.33256822 </i>
   </energy>
  </scstep>
  <scstep>
   <time name="dav">    0.51    0.51</time>
   <time name="total">    0.80    0.81</time>
   <energy>
    <i name="e_fr_energy">    -16.33391304 </i>
    <i name="e_wo_entrp">    -16.33391304 </i>
    <i name="e_0_energy">    -16.33391304 </i>
   </energy>
  </scstep>
  <scstep>
   <time name="dav">    0.50    0.50</time>
   <time name="total">    0.79    0.82</time>
   <energy>
    <i name="e_fr_energy">    -16.33415348 </i>
    <i name="e_wo_entrp">    -16.33415348 </i>
    <i name="e_0_energy">    -16.33415348 </i>
   </energy>
  </scstep>
  <scstep>
   <time name="dav">    0.51    0.51</time>
   <time name="total">    0.80    0.81</time>
   <energy>
    <i name="e_fr_energy">    -16.33394242 </i>
    <i name="e_wo_entrp">    -16.33394242 </i>
    <i name="e_0_energy">    -16.33394242 </i>
   </energy>
  </scstep>
  <scstep>
   <time name="dav">    0.50    0.50</time>
   <time name="total">    0.80    0.82</time>
   <energy>
    <i name="e_fr_energy">    -16.33414893 </i>
    <i name="e_wo_entrp">    -16.33414893 </i>
    <i name="e_0_energy">    -16.33414893 </i>
   </energy>
  </scstep>
  <scstep>
   <time name="dav">    0.49    0.49</time>
   <time name="total">    0.78    0.86</time>
   <energy>
    <i name="e_fr_energy">    -16.33459893 </i>
    <i name="e_wo_entrp">    -16.33459893 </i>
    <i name="e_0_energy">    -16.33459893 </i>
   </energy>
  </scstep>
  <scstep>
   <time name="dav">    0.50    0.50</time>
   <time name="total">    0.79    0.82</time>
   <energy>
    <i name="e_fr_energy">    -16.33481986 </i>
    <i name="e_wo_entrp">    -16.33481986 </i>
    <i name="e_0_energy">    -16.33481986 </i>
   </energy>
  </scstep>
  <scstep>
   <time name="dav">    0.49    0.49</time>
   <time name="total">    0.72    0.72</time>
   <energy>
    <i name="alphaZ">     12.13922547 </i>
    <i name="ewald">   9456.24369526 </i>
    <i name="hartreedc"> -19383.90017883 </i>
    <i name="XCdc">   -115.81953028 </i>
    <i name="pawpsdc">  10623.64230247 </i>
    <i name="pawaedc"> -10175.90468185 </i>
    <i name="eentropy">      0.00000000 </i>
    <i name="bandstr">   -804.72201493 </i>
    <i name="atom">  10371.98630086 </i>
    <i name="e_fr_energy">    -16.33488183 </i>
    <i name="e_wo_entrp">    -16.33488183 </i>
    <i name="e_0_energy">    -16.33488183 </i>
   </energy>
  </scstep>
  <structure>
   <crystal>
    <varray name="basis" >
     <v>      19.13555521       0.00000000       0.00000000 </v>
     <v>       0.00000000      19.13555521       0.00000000 </v>
     <v>       0.00000000       0.00000000      19.13555521 </v>
    </varray>
    <i name="volume">   7006.85617130 </i>
    <varray name="rec_basis" >
     <v>       0.05225874       0.00000000       0.00000000 </v>
     <v>       0.00000000       0.05225874       0.00000000 </v>
     <v>       0.00000000       0.00000000       0.05225874 </v>
    </varray>
   </crystal>
   <varray name="positions" >
    <v>       0.50169865       0.39854578       0.50725907 </v>
    <v>       0.40412380       0.29879392       0.46129307 </v>
    <v>       0.39042871       0.45800931       0.60456170 </v>
    <v>       0.58144263       0.39546933       0.40063366 </v>
    <v>       0.31444184       0.40306751       0.49220377 </v>
    <v>       0.30428287       0.51651758       0.40558965 </v>
    <v>       0.42831401       0.42675965       0.39160501 </v>
    <v>       0.42817801       0.53773264       0.48199343 </v>
    <v>       0.52755740       0.44220651       0.28224039 </v>
    <v>       0.51625798       0.54508538       0.37087632 </v>
   </varray>
  </structure>
  <varray name="forces" >
   <v>      -0.75103022       0.30582293       1.31890134 </v>
   <v>       0.29411618       0.20833485      -0.19195322 </v>
   <v>       0.07381375      -0.10066255      -0.39434886 </v>
   <v>      -0.05740682       0.18941223      -0.47745195 </v>
   <v>       0.35109187       0.31698010       0.30927271 </v>
   <v>       0.55432466      -0.18386986      -0.16713192 </v>
   <v>      -0.29966286      -0.03558057      -0.40401240 </v>
   <v>      -0.14986357      -0.29814710       0.58108964 </v>
   <v>       0.11912741      -0.21277453      -0.91549282 </v>
   <v>      -0.13451039      -0.18951551       0.34112749 </v>
  </varray>
  <varray name="stress" >
   <v>      -1.62421398      -0.01141460      -0.14370110 </v>
   <v>      -0.01141460      -1.37996640       0.25730899 </v>
   <v>      -0.14370110       0.25730899       0.15356363 </v>
  </varray>
  <energy>
   <i name="e_fr_energy">    -16.33488183 </i>
   <i name="e_wo_entrp">    -16.33488183 </i>
   <i name="e_0_energy">      0.00000000 </i>
  </energy>
  <time name="totalsc">   19.02   20.09</time>
 </calculation>
 <calculation>
  <scstep>
   <time name="dav">    0.64    0.63</time>
   <time name="total">    0.92    1.45</time>
   <energy>
    <i name="alphaZ">     12.13922547 </i>
    <i name="ewald">   9457.55965883 </i>
    <i name="hartreedc"> -19385.21654989 </i>
    <i name="XCdc">   -115.81484247 </i>
    <i name="pawpsdc">  10623.65253336 </i>
    <i name="pawaedc"> -10175.91517792 </i>
    <i name="eentropy">      0.00000000 </i>
    <i name="bandstr">   -804.74020142 </i>
    <i name="atom">  10371.98630086 </i>
    <i name="e_fr_energy">    -16.34905318 </i>
    <i name="e_wo_entrp">    -16.34905318 </i>
    <i name="e_0_energy">    -16.34905318 </i>
   </energy>
  </scstep>
  <scstep>
   <time name="dav">    0.65    0.65</time>
   <time name="total">    0.94    0.94</time>
   <energy>
    <i name="e_fr_energy">    -16.35067534 </i>
    <i name="e_wo_entrp">    -16.35067534 </i>
    <i name="e_0_energy">    -16.35067534 </i>
   </energy>
  </scstep>
  <scstep>
   <time name="dav">    0.55    0.55</time>
   <time name="total">    0.78    0.79</time>
   <energy>
    <i name="alphaZ">     12.13922547 </i>
    <i name="ewald">   9457.55965883 </i>
    <i name="hartreedc"> -19385.23918096 </i>
    <i name="XCdc">   -115.81502013 </i>
    <i name="pawpsdc">  10624.20106860 </i>
    <i name="pawaedc"> -10176.46829740 </i>
    <i name="eentropy">      0.00000000 </i>
    <i name="bandstr">   -804.71443308 </i>
    <i name="atom">  10371.98630086 </i>
    <i name="e_fr_energy">    -16.35067783 </i>
    <i name="e_wo_entrp">    -16.35067783 </i>
    <i name="e_0_energy">    -16.35067783 </i>
   </energy>
  </scstep>
  <structure>
   <crystal>
    <varray name="basis" >
     <v>      19.13555521       0.00000000       0.00000000 </v>
     <v>       0.00000000      19.13555521       0.00000000 </v>
     <v>       0.00000000       0.00000000      19.13555521 </v>
    </varray>
    <i name="volume">   7006.85617130 </i>
    <varray name="rec_basis" >
     <v>       0.05225874       0.00000000       0.00000000 </v>
     <v>       0.00000000       0.05225874       0.00000000 </v>
     <v>       0.00000000       0.00000000       0.05225874 </v>
    </varray>
   </crystal>
   <varray name="positions" >
    <v>       0.50168768       0.39857780       0.50742831 </v>
    <v>       0.40432641       0.29874615       0.46130378 </v>
    <v>       0.39011090       0.45800449       0.60504606 </v>
    <v>       0.58110887       0.39556052       0.40043916 </v>
    <v>       0.31483647       0.40324426       0.49206237 </v>
    <v>       0.30419905       0.51677287       0.40550557 </v>
    <v>       0.42855361       0.42688235       0.39165150 </v>
    <v>       0.42802953       0.53754491       0.48214878 </v>
    <v>       0.52776422       0.44216212       0.28183328 </v>
    <v>       0.51610916       0.54469214       0.37083727 </v>
   </varray>
  </structure>
  <varray name="forces" >
   <v>      -0.74428364       0.30656655       1.31042996 </v>
   <v>       0.28547352       0.21131051      -0.19634995 </v>
   <v>       0.08000079      -0.09817559      -0.40911432 </v>
   <v>      -0.04639295       0.18384984      -0.45728272 </v>
   <v>       0.34211581       0.31738828       0.31208273 </v>
   <v>       0.56169776      -0.19959650      -0.16180675 </v>
   <v>      -0.31758125      -0.05861860      -0.41854182 </v>
   <v>      -0.14482742      -0.28909755       0.58240424 </v>
   <v>       0.10954072      -0.21242456      -0.91066346 </v>
   <v>      -0.12574334      -0.16120237       0.34884208 </v>
  </varray>
  <varray name="stress" >
   <v>      -1.62994613      -0.00677602      -0.13271741 </v>
   <v>      -0.00677602      -1.37298584       0.26247088 </v>
   <v>      -0.13271741       0.26247088       0.14746022 </v>
  </varray>
  <energy>
   <i name="e_fr_energy">    -16.35067783 </i>
[...]
       <r>    -1.7428     0.0000    60.0000 </r>
       <r>    -1.7078     0.0000    60.0000 </r>
       <r>    -1.6728     0.0000    61.0000 </r>
       <r>    -1.6377     0.0000    61.0000 </r>
       <r>    -1.6027     0.0000    61.0000 </r>
       <r>    -1.5677     0.0000    61.0000 </r>
       <r>    -1.5326     0.0000    61.0000 </r>
       <r>    -1.4976     0.0000    61.0000 </r>
       <r>    -1.4626     0.0000    61.0000 </r>
       <r>    -1.4275     0.0000    61.0000 </r>
       <r>    -1.3925     0.0000    61.0000 </r>
       <r>    -1.3575     0.0000    61.0000 </r>
       <r>    -1.3224     0.0000    61.0000 </r>
       <r>    -1.2874     0.0000    61.0000 </r>
       <r>    -1.2524     0.0000    61.0000 </r>
       <r>    -1.2173     0.0000    61.0000 </r>
       <r>    -1.1823     0.0000    61.0000 </r>
       <r>    -1.1473     0.0000    61.0000 </r>
       <r>    -1.1122     0.0000    61.0000 </r>
       <r>    -1.0772     0.0000    61.0000 </r>
       <r>    -1.0422     0.0000    61.0000 </r>
       <r>    -1.0071     0.0000    61.0000 </r>
       <r>    -0.9721     0.0000    61.0000 </r>
       <r>    -0.9371     0.0000    61.0000 </r>
       <r>    -0.9020     0.0000    62.0000 </r>
       <r>    -0.8670     0.0000    62.0000 </r>
       <r>    -0.8319     0.0000    62.0000 </r>
       <r>    -0.7969     0.0000    62.0000 </r>
       <r>    -0.7619     0.0000    63.0000 </r>
       <r>    -0.7268     0.0000    63.0000 </r>
       <r>    -0.6918     0.0000    63.0000 </r>
       <r>    -0.6568     0.0000    64.0000 </r>
       <r>    -0.6217     0.0000    64.0000 </r>
       <r>    -0.5867     0.0000    65.0000 </r>
       <r>    -0.5517     0.0000    65.0000 </r>
       <r>    -0.5166     0.0000    65.0000 </r>
       <r>    -0.4816     0.0000    65.0000 </r>
       <r>    -0.4466     0.0000    66.0000 </r>
       <r>    -0.4115     0.0000    66.0000 </r>
       <r>    -0.3765     0.0000    66.0000 </r>
       <r>    -0.3415     0.0000    66.0000 </r>
       <r>    -0.3064     0.0000    66.0000 </r>
       <r>    -0.2714     0.0000    66.0000 </r>
       <r>    -0.2364    28.5434    67.0000 </r>
       <r>    -0.2013     0.0000    67.0000 </r>
       <r>    -0.1663     0.0000    67.0000 </r>
       <r>    -0.1313     0.0000    67.0000 </r>
       <r>    -0.0962     0.0000    68.0000 </r>
       <r>    -0.0612     0.0000    68.0000 </r>
       <r>    -0.0262     0.0000    68.0000 </r>
       <r>     0.0089     0.0000    68.0000 </r>
       <r>     0.0439     0.0000    68.0000 </r>
       <r>     0.0789     0.0000    68.0000 </r>
       <r>     0.1140     0.0000    68.0000 </r>
       <r>     0.1490     0.0000    68.0000 </r>
       <r>     0.1840     0.0000    68.0000 </r>
       <r>     0.2191     0.0000    68.0000 </r>
       <r>     0.2541     0.0000    70.0000 </r>
       <r>     0.2891     0.0000    70.0000 </r>
       <r>     0.3242     0.0000    70.0000 </r>
       <r>     0.3592     0.0000    70.0000 </r>
       <r>     0.3943     0.0000    71.0000 </r>
       <r>     0.4293     0.0000    71.0000 </r>
       <r>     0.4643     0.0000    71.0000 </r>
       <r>     0.4994     0.0000    71.0000 </r>
       <r>     0.5344     0.0000    72.0000 </r>
       <r>     0.5694     0.0000    72.0000 </r>
       <r>     0.6045     0.0000    72.0000 </r>
       <r>     0.6395     0.0000    72.0000 </r>
       <r>     0.6745     0.0000    72.0000 </r>
       <r>     0.7096     0.0000    72.0000 </r>
       <r>     0.7446     0.0000    72.0000 </r>
       <r>     0.7796     0.0000    72.0000 </r>
       <r>     0.8147     0.0000    72.0000 </r>
       <r>     0.8497     0.0000    72.0000 </r>
       <r>     0.8847     0.0000    72.0000 </r>
       <r>     0.9198     0.0000    72.0000 </r>
       <r>     0.9548     0.0000    72.0000 </r>
       <r>     0.9898     0.0000    72.0000 </r>
      </set>
      <set comment="spin 2">
       <r>    -9.5205     0.0000     0.0000 </r>
       <r>    -9.4854     0.0000     0.0000 </r>
       <r>    -9.4504     0.0000     0.0000 </r>
       <r>    -9.4154     0.0000     0.0000 </r>
       <r>    -9.3803     0.0000     0.0000 </r>
       <r>    -9.3453     0.0000     0.0000 </r>
       <r>    -9.3103     0.0000     0.0000 </r>
       <r>    -9.2752     0.0000     0.0000 </r>
       <r>    -9.2402     0.0000     0.0000 </r>
       <r>    -9.2052     0.0000     0.0000 </r>
       <r>    -9.1701     0.0000     0.0000 </r>
       <r>    -9.1351     0.0000     0.0000 </r>
       <r>    -9.1001     0.0000     0.0000 </r>
       <r>    -9.0650     0.0000     0.0000 </r>
       <r>    -9.0300     0.0000     1.0000 </r>
       <r>    -8.9949     0.0000     1.0000 </r>
       <r>    -8.9599     0.0000     1.0000 </r>
       <r>    -8.9249     0.0000     1.0000 </r>
       <r>    -8.8898     0.0000     1.0000 </r>
       <r>    -8.8548     0.0000     3.0000 </r>
       <r>    -8.8198     0.0000     3.0000 </r>
       <r>    -8.7847     0.0000     4.0000 </r>
       <r>    -8.7497     0.0000     4.0000 </r>
       <r>    -8.7147     0.0000     4.0000 </r>
       <r>    -8.6796     0.0000     4.0000 </r>
       <r>    -8.6446     0.0000     4.0000 </r>
       <r>    -8.6096     0.0000     6.0000 </r>
       <r>    -8.5745     0.0000     6.0000 </r>
       <r>    -8.5395     0.0000     7.0000 </r>
       <r>    -8.5045     0.0000     8.0000 </r>
       <r>    -8.4694     0.0000    10.0000 </r>
       <r>    -8.4344     0.0000    11.0000 </r>
       <r>    -8.3994     0.0000    12.0000 </r>
       <r>    -8.3643     0.0000    12.0000 </r>
       <r>    -8.3293     0.0000    12.0000 </r>
       <r>    -8.2943     0.0000    12.0000 </r>
       <r>    -8.2592     0.0000    12.0000 </r>
       <r>    -8.2242     0.0000    13.0000 </r>
       <r>    -8.1892     0.0000    13.0000 </r>
       <r>    -8.1541     0.0000    14.0000 </r>
       <r>    -8.1191     0.0000    14.0000 </r>
       <r>    -8.0841     0.0000    15.0000 </r>
       <r>    -8.0490     0.0000    17.0000 </r>
       <r>    -8.0140     0.0000    17.0000 </r>
       <r>    -7.9790     0.0000    17.0000 </r>
       <r>    -7.9439     0.0000    18.0000 </r>
       <r>    -7.9089     0.0000    19.0000 </r>
       <r>    -7.8738     0.0000    19.0000 </r>
       <r>    -7.8388     0.0000    19.0000 </r>
       <r>    -7.8038     0.0000    20.0000 </r>
       <r>    -7.7687     0.0000    20.0000 </r>
       <r>    -7.7337     0.0000    21.0000 </r>
       <r>    -7.6987     0.0000    21.0000 </r>
       <r>    -7.6636     0.0000    21.0000 </r>
       <r>    -7.6286     0.0000    22.0000 </r>
       <r>    -7.5936     0.0000    22.0000 </r>
       <r>    -7.5585     0.0000    22.0000 </r>
       <r>    -7.5235     0.0000    24.0000 </r>
       <r>    -7.4885     0.0000    24.0000 </r>
       <r>    -7.4534     0.0000    24.0000 </r>
       <r>    -7.4184     0.0000    24.0000 </r>
       <r>    -7.3834     0.0000    25.0000 </r>
       <r>    -7.3483     0.0000    26.0000 </r>
       <r>    -7.3133     0.0000    26.0000 </r>
       <r>    -7.2783     0.0000    28.0000 </r>
       <r>    -7.2432     0.0000    29.0000 </r>
       <r>    -7.2082     0.0000    29.0000 </r>
       <r>    -7.1732     0.0000    30.0000 </r>
       <r>    -7.1381     0.0000    31.0000 </r>
       <r>    -7.1031     0.0000    31.0000 </r>
       <r>    -7.0681     0.0000    32.0000 </r>
       <r>    -7.0330     0.0000    33.0000 </r>
       <r>    -6.9980     0.0000    34.0000 </r>
       <r>    -6.9630     0.0000    34.0000 </r>
       <r>    -6.9279     0.0000    36.0000 </r>
       <r>    -6.8929     0.0000    38.0000 </r>
       <r>    -6.8579     0.0000    40.0000 </r>
       <r>    -6.8228     0.0000    41.0000 </r>
       <r>    -6.7878     0.0000    42.0000 </r>
       <r>    -6.7528     0.0000    45.0000 </r>
       <r>    -6.7177     0.0000    45.0000 </r>
       <r>    -6.6827     0.0000    46.0000 </r>
       <r>    -6.6476     0.0000    47.0000 </r>
       <r>    -6.6126     0.0000    47.0000 </r>
       <r>    -6.5776     0.0000    48.0000 </r>
       <r>    -6.5425     0.0000    49.0000 </r>
       <r>    -6.5075     0.0000    49.0000 </r>
       <r>    -6.4725     0.0000    49.0000 </r>
       <r>    -6.4374     0.0000    50.0000 </r>
       <r>    -6.4024     0.0000    50.0000 </r>
       <r>    -6.3674     0.0000    51.0000 </r>
       <r>    -6.3323     0.0000    51.0000 </r>
       <r>    -6.2973     0.0000    51.0000 </r>
       <r>    -6.2623     0.0000    51.0000 </r>
       <r>    -6.2272     0.0000    51.0000 </r>
       <r>    -6.1922     0.0000    51.0000 </r>
       <r>    -6.1572     0.0000    51.0000 </r>
       <r>    -6.1221     0.0000    51.0000 </r>
       <r>    -6.0871     0.0000    51.0000 </r>
       <r>    -6.0521     0.0000    51.0000 </r>
       <r>    -6.0170     0.0000    51.0000 </r>
       <r>    -5.9820     0.0000    51.0000 </r>
       <r>    -5.9470     0.0000    51.0000 </r>
       <r>    -5.9119     0.0000    51.0000 </r>
       <r>    -5.8769     0.0000    51.0000 </r>
       <r>    -5.8419     0.0000    51.0000 </r>
       <r>    -5.8068     0.0000    51.0000 </r>
       <r>    -5.7718     0.0000    51.0000 </r>
       <r>    -5.7368     0.0000    51.0000 </r>
       <r>    -5.7017     0.0000    52.0000 </r>
       <r>    -5.6667     0.0000    52.0000 </r>
       <r>    -5.6317     0.0000    52.0000 </r>
       <r>    -5.5966     0.0000    52.0000 </r>
       <r>    -5.5616     0.0000    52.0000 </r>
       <r>    -5.5265     0.0000    52.0000 </r>
       <r>    -5.4915     0.0000    52.0000 </r>
       <r>    -5.4565     0.0000    52.0000 </r>
       <r>    -5.4214     0.0000    52.0000 </r>
       <r>    -5.3864     0.0000    52.0000 </r>
       <r>    -5.3514     0.0000    52.0000 </r>
       <r>    -5.3163     0.0000    52.0000 </r>
       <r>    -5.2813     0.0000    52.0000 </r>
       <r>    -5.2463     0.0000    52.0000 </r>
       <r>    -5.2112     0.0000    52.0000 </r>
       <r>    -5.1762     0.0000    53.0000 </r>
       <r>    -5.1412     0.0000    53.0000 </r>
       <r>    -5.1061     0.0000    53.0000 </r>
       <r>    -5.0711     0.0000    53.0000 </r>
       <r>    -5.0361     0.0000    53.0000 </r>
       <r>    -5.0010     0.0000    53.0000 </r>
       <r>    -4.9660     0.0000    53.0000 </r>
       <r>    -4.9310     0.0000    53.0000 </r>
       <r>    -4.8959     0.0000    53.0000 </r>
       <r>    -4.8609     0.0000    53.0000 </r>
       <r>    -4.8259     0.0000    53.0000 </r>
       <r>    -4.7908     0.0000    53.0000 </r>
       <r>    -4.7558     0.0000    53.0000 </r>
       <r>    -4.7208     0.0000    53.0000 </r>
       <r>    -4.6857     0.0000    53.0000 </r>
       <r>    -4.6507    24.1595    53.8464 </r>
       <r>    -4.6157     0.0000    54.0000 </r>
       <r>    -4.5806     0.0000    54.0000 </r>
       <r>    -4.5456     0.0000    54.0000 </r>
       <r>    -4.5106     0.0000    54.0000 </r>
       <r>    -4.4755     0.0000    54.0000 </r>
       <r>    -4.4405     0.0000    54.0000 </r>
       <r>    -4.4055     0.0000    54.0000 </r>
       <r>    -4.3704     0.0000    54.0000 </r>
       <r>    -4.3354     0.0000    54.0000 </r>
       <r>    -4.3003     0.0000    54.0000 </r>
       <r>    -4.2653     0.0000    54.0000 </r>
       <r>    -4.2303     0.0000    54.0000 </r>
       <r>    -4.1952     0.0000    54.0000 </r>
       <r>    -4.1602     0.0000    54.0000 </r>
       <r>    -4.1252     0.0000    54.0000 </r>
       <r>    -4.0901     0.0000    54.0000 </r>
       <r>    -4.0551     0.0000    54.0000 </r>
       <r>    -4.0201     0.0000    54.0000 </r>
       <r>    -3.9850     0.0000    55.0000 </r>
       <r>    -3.9500     0.0000    55.0000 </r>
       <r>    -3.9150     0.0000    55.0000 </r>
       <r>    -3.8799     0.0000    55.0000 </r>
       <r>    -3.8449     0.0000    55.0000 </r>
       <r>    -3.8099     0.0000    55.0000 </r>
       <r>    -3.7748     0.0000    55.0000 </r>
       <r>    -3.7398     0.0000    55.0000 </r>
       <r>    -3.7048     0.0000    55.0000 </r>
       <r>    -3.6697     0.0000    55.0000 </r>
       <r>    -3.6347     0.0000    55.0000 </r>
       <r>    -3.5997     0.0000    55.0000 </r>
       <r>    -3.5646     0.0000    55.0000 </r>
       <r>    -3.5296     0.0000    55.0000 </r>
       <r>    -3.4946     0.0000    55.0000 </r>
       <r>    -3.4595     0.0000    55.0000 </r>
       <r>    -3.4245     0.0000    55.0000 </r>
       <r>    -3.3895     0.0000    55.0000 </r>
       <r>    -3.3544     0.0000    55.0000 </r>
       <r>    -3.3194     0.0000    55.0000 </r>
       <r>    -3.2844     0.0000    55.0000 </r>
       <r>    -3.2493     0.0000    55.0000 </r>
       <r>    -3.2143     0.0000    55.0000 </r>
       <r>    -3.1792     0.0000    55.0000 </r>
       <r>    -3.1442     0.0000    55.0000 </r>
       <r>    -3.1092     0.0000    55.0000 </r>
       <r>    -3.0741     0.0000    55.0000 </r>
       <r>    -3.0391     0.0000    55.0000 </r>
       <r>    -3.0041     0.0000    55.0000 </r>
       <r>    -2.9690     0.0000    55.0000 </r>
       <r>    -2.9340     0.0000    55.0000 </r>
       <r>    -2.8990     0.0000    56.0000 </r>
       <r>    -2.8639     0.0000    56.0000 </r>
       <r>    -2.8289     0.0000    56.0000 </r>
       <r>    -2.7939     0.0000    56.0000 </r>
       <r>    -2.7588     0.0000    56.0000 </r>
       <r>    -2.7238     0.0000    56.0000 </r>
       <r>    -2.6888     0.0000    57.0000 </r>
       <r>    -2.6537     0.0000    57.0000 </r>
       <r>    -2.6187     0.0000    58.0000 </r>
       <r>    -2.5837     0.0000    58.0000 </r>
       <r>    -2.5486     0.0000    59.0000 </r>
       <r>    -2.5136     0.0000    59.0000 </r>
       <r>    -2.4786     0.0000    59.0000 </r>
       <r>    -2.4435     0.0000    59.0000 </r>
       <r>    -2.4085     0.0000    59.0000 </r>
       <r>    -2.3735     0.0000    59.0000 </r>
       <r>    -2.3384     0.0000    59.0000 </r>
       <r>    -2.3034     0.0000    59.0000 </r>
       <r>    -2.2684     0.0000    59.0000 </r>
       <r>    -2.2333     0.0000    59.0000 </r>
       <r>    -2.1983     0.0000    59.0000 </r>
       <r>    -2.1633     0.0000    59.0000 </r>
       <r>    -2.1282     0.0000    59.0000 </r>
       <r>    -2.0932     0.0000    59.0000 </r>
       <r>    -2.0582     0.0000    59.0000 </r>
       <r>    -2.0231     0.0000    59.0000 </r>
       <r>    -1.9881     0.0000    60.0000 </r>
       <r>    -1.9530     0.0000    60.0000 </r>
       <r>    -1.9180     0.0000    60.0000 </r>
       <r>    -1.8830     0.0000    60.0000 </r>
       <r>    -1.8479     0.0000    60.0000 </r>
       <r>    -1.8129     0.0000    60.0000 </r>
       <r>    -1.7779     0.0000    60.0000 </r>
       <r>    -1.7428     0.0000    60.0000 </r>
       <r>    -1.7078     0.0000    60.0000 </r>
       <r>    -1.6728     0.0000    61.0000 </r>
       <r>    -1.6377     0.0000    61.0000 </r>
       <r>    -1.6027     0.0000    61.0000 </r>
       <r>    -1.5677     0.0000    61.0000 </r>
       <r>    -1.5326     0.0000    61.0000 </r>
       <r>    -1.4976     0.0000    61.0000 </r>
       <r>    -1.4626     0.0000    61.0000 </r>
       <r>    -1.4275     0.0000    61.0000 </r>
       <r>    -1.3925     0.0000    61.0000 </r>
       <r>    -1.3575     0.0000    61.0000 </r>
       <r>    -1.3224     0.0000    61.0000 </r>
       <r>    -1.2874     0.0000    61.0000 </r>
       <r>    -1.2524     0.0000    61.0000 </r>
       <r>    -1.2173     0.0000    61.0000 </r>
       <r>    -1.1823     0.0000    61.0000 </r>
       <r>    -1.1473     0.0000    61.0000 </r>
       <r>    -1.1122     0.0000    61.0000 </r>
       <r>    -1.0772     0.0000    61.0000 </r>
       <r>    -1.0422     0.0000    61.0000 </r>
       <r>    -1.0071     0.0000    61.0000 </r>
       <r>    -0.9721     0.0000    61.0000 </r>
       <r>    -0.9371     0.0000    61.0000 </r>
       <r>    -0.9020     0.0000    62.0000 </r>
       <r>    -0.8670     0.0000    62.0000 </r>
       <r>    -0.8319     0.0000    62.0000 </r>
       <r>    -0.7969     0.0000    62.0000 </r>
       <r>    -0.7619     0.0000    63.0000 </r>
       <r>    -0.7268     0.0000    63.0000 </r>
       <r>    -0.6918     0.0000    63.0000 </r>
       <r>    -0.6568     0.0000    64.0000 </r>
       <r>    -0.6217     0.0000    64.0000 </r>
       <r>    -0.5867     0.0000    65.0000 </r>
       <r>    -0.5517     0.0000    65.0000 </r>
       <r>    -0.5166     0.0000    65.0000 </r>
       <r>    -0.4816     0.0000    65.0000 </r>
       <r>    -0.4466     0.0000    66.0000 </r>
       <r>    -0.4115     0.0000    66.0000 </r>
       <r>    -0.3765     0.0000    66.0000 </r>
       <r>    -0.3415     0.0000    66.0000 </r>
       <r>    -0.3064     0.0000    66.0000 </r>
       <r>    -0.2714     0.0000    66.0000 </r>
       <r>    -0.2364    28.5434    67.0000 </r>
       <r>    -0.2013     0.0000    67.0000 </r>
       <r>    -0.1663     0.0000    67.0000 </r>
       <r>    -0.1313     0.0000    67.0000 </r>
       <r>    -0.0962     0.0000    68.0000 </r>
       <r>    -0.0612     0.0000    68.0000 </r>
       <r>    -0.0262     0.0000    68.0000 </r>
       <r>     0.0089     0.0000    68.0000 </r>
       <r>     0.0439     0.0000    68.0000 </r>
       <r>     0.0789     0.0000    68.0000 </r>
       <r>     0.1140     0.0000    68.0000 </r>
       <r>     0.1490     0.0000    68.0000 </r>
       <r>     0.1840     0.0000    68.0000 </r>
       <r>     0.2191     0.0000    68.0000 </r>
       <r>     0.2541     0.0000    70.0000 </r>
       <r>     0.2891     0.0000    70.0000 </r>
       <r>     0.3242     0.0000    70.0000 </r>
       <r>     0.3592     0.0000    70.0000 </r>
       <r>     0.3943     0.0000    71.0000 </r>
       <r>     0.4293     0.0000    71.0000 </r>
       <r>     0.4643     0.0000    71.0000 </r>
       <r>     0.4994     0.0000    71.0000 </r>
       <r>     0.5344     0.0000    72.0000 </r>
       <r>     0.5694     0.0000    72.0000 </r>
       <r>     0.6045     0.0000    72.0000 </r>
       <r>     0.6395     0.0000    72.0000 </r>
       <r>     0.6745     0.0000    72.0000 </r>
       <r>     0.7096     0.0000    72.0000 </r>
       <r>     0.7446     0.0000    72.0000 </r>
       <r>     0.7796     0.0000    72.0000 </r>
       <r>     0.8147     0.0000    72.0000 </r>
       <r>     0.8497     0.0000    72.0000 </r>
       <r>     0.8847     0.0000    72.0000 </r>
       <r>     0.9198     0.0000    72.0000 </r>
       <r>     0.9548     0.0000    72.0000 </r>
       <r>     0.9898     0.0000    72.0000 </r>
      </set>
     </set>
    </array>
   </total>
  </dos>
 </calculation>
 <structure name="finalpos" >
  <crystal>
   <varray name="basis" >
    <v>      19.13555521       0.00000000       0.00000000 </v>
    <v>       0.00000000      19.13555521       0.00000000 </v>
    <v>       0.00000000       0.00000000      19.13555521 </v>
   </varray>
   <i name="volume">   7006.85617130 </i>
   <varray name="rec_basis" >
    <v>       0.05225874       0.00000000       0.00000000 </v>
    <v>       0.00000000       0.05225874       0.00000000 </v>
    <v>       0.00000000       0.00000000       0.05225874 </v>
   </varray>
  </crystal>
  <varray name="positions" >
   <v>       0.49363380       0.42648971       0.52226607 </v>
   <v>       0.43879317       0.30759506       0.45861914 </v>
   <v>       0.38249826       0.45247599       0.61937558 </v>
   <v>       0.54835212       0.38319440       0.39583821 </v>
   <v>       0.34778675       0.41770830       0.48399242 </v>
   <v>       0.34903086       0.52748263       0.38654191 </v>
   <v>       0.40787576       0.40074601       0.35040327 </v>
   <v>       0.41619870       0.54662635       0.51523789 </v>
   <v>       0.51830408       0.44400682       0.26843601 </v>
   <v>       0.49425239       0.51586235       0.39754557 </v>
  </varray>
 </structure>
</modeling>
