 running on   64 total cores
 distrk:  each k-point on   64 cores,    1 groups
 distr:  one band on   16 cores,    4 groups
 using from now: INCAR     
 vasp.5.3.5 31Mar14 (build Feb 01 2018 12:10:03) gamma-only                     
  
 POSCAR found type information on POSCAR  Ag
 POSCAR found :  1 types and      39 ions
 scaLAPACK will be used

 ----------------------------------------------------------------------------- 
|                                                                             |
|  ADVICE TO THIS USER RUNNING 'VASP/VAMP'   (HEAR YOUR MASTER'S VOICE ...):  |
|                                                                             |
|      You have a (more or less) 'large supercell' and for larger cells       |
|      it might be more efficient to use real space projection opertators     |
|      So try LREAL= Auto  in the INCAR   file.                               |
|      Mind: At the moment your POTCAR file does not contain real space       |
|       projectors, and has to be modified,  BUT if you                       |
|      want to do an extremely  accurate calculation you might also keep the  |
|      reciprocal projection scheme          (i.e. LREAL=.FALSE.)             |
|                                                                             |
 ----------------------------------------------------------------------------- 

 LDA part: xc-table for Pade appr. of Perdew
 POSCAR, INCAR and KPOINTS ok, starting setup
 WARNING: small aliasing (wrap around) errors must be expected
 FFT: planning ...
 WAVECAR not read
 entering main loop
       N       E                     dE             d eps       ncg     rms          rms(c)
DAV:   1     0.369723211119E+04    0.36972E+04   -0.84413E+04  1120   0.605E+02
DAV:   2     0.675265651927E+03   -0.30220E+04   -0.27076E+04  1848   0.157E+02
DAV:   3    -0.514016952219E+02   -0.72667E+03   -0.66671E+03  1432   0.850E+01
DAV:   4    -0.829516220625E+02   -0.31550E+02   -0.31244E+02  1232   0.193E+01
DAV:   5    -0.834114501478E+02   -0.45983E+00   -0.45925E+00  1264   0.273E+00    0.370E+01
DAV:   6    -0.381195039520E+02    0.45292E+02   -0.13580E+02  1136   0.159E+01    0.201E+01
DAV:   7    -0.299136649963E+02    0.82058E+01   -0.86814E+00  1176   0.457E+00    0.126E+01
DAV:   8    -0.227599100370E+02    0.71538E+01   -0.26791E+00  1200   0.358E+00    0.634E+00
DAV:   9    -0.310072319468E+02   -0.82473E+01   -0.15803E+00  1216   0.288E+00    0.459E+00
DAV:  10    -0.356485050532E+02   -0.46413E+01   -0.80363E-01  1184   0.156E+00    0.380E+00
DAV:  11    -0.521583041855E+02   -0.16510E+02   -0.75608E+00  1160   0.340E+00    0.230E+00
DAV:  12    -0.641318356991E+02   -0.11974E+02   -0.52972E+00  1176   0.247E+00    0.288E+00
DAV:  13    -0.649808054100E+02   -0.84897E+00   -0.17489E-01  1408   0.558E-01    0.257E+00
DAV:  14    -0.691380270393E+02   -0.41572E+01   -0.99378E-01  1144   0.124E+00    0.191E+00
DAV:  15    -0.756687758650E+02   -0.65307E+01   -0.24225E+00  1128   0.180E+00    0.167E+00
DAV:  16    -0.764677861656E+02   -0.79901E+00   -0.12086E-01  1272   0.574E-01    0.127E+00
DAV:  17    -0.777953553524E+02   -0.13276E+01   -0.15059E-01  1176   0.478E-01    0.973E-01
DAV:  18    -0.799116585450E+02   -0.21163E+01   -0.29586E-01  1144   0.765E-01    0.486E-01
DAV:  19    -0.808365291956E+02   -0.92487E+00   -0.52933E-02  1200   0.335E-01    0.358E-01
DAV:  20    -0.815077662940E+02   -0.67124E+00   -0.21245E-02  1184   0.230E-01    0.236E-01
DAV:  21    -0.819428652333E+02   -0.43510E+00   -0.19830E-02  1168   0.185E-01    0.115E-01
DAV:  22    -0.819983136717E+02   -0.55448E-01   -0.15053E-03  1184   0.670E-02    0.819E-02
DAV:  23    -0.820714752041E+02   -0.73162E-01   -0.19836E-03   992   0.522E-02    0.510E-02
DAV:  24    -0.820929850260E+02   -0.21510E-01   -0.82167E-04   808   0.287E-02    0.407E-02
DAV:  25    -0.820980802961E+02   -0.50953E-02   -0.22138E-04   800   0.207E-02    0.227E-02
DAV:  26    -0.821041070640E+02   -0.60268E-02   -0.16324E-04   792   0.144E-02    0.136E-02
DAV:  27    -0.821085658955E+02   -0.44588E-02   -0.86942E-05   776   0.104E-02    0.900E-03
DAV:  28    -0.821117331956E+02   -0.31673E-02   -0.35722E-05   792   0.664E-03    0.509E-03
DAV:  29    -0.821138018525E+02   -0.20687E-02   -0.25541E-05   776   0.501E-03    0.287E-03
DAV:  30    -0.821141344731E+02   -0.33262E-03   -0.37428E-06   752   0.291E-03    0.178E-03
DAV:  31    -0.821142488886E+02   -0.11442E-03   -0.22265E-06   744   0.193E-03    0.115E-03
DAV:  32    -0.821142748784E+02   -0.25990E-04   -0.18634E-06   752   0.180E-03
   1 F= -.82114275E+02 E0= -.82114275E+02  d E =-.821143E+02  mag=     1.0012
 curvature:   0.00 expect dE= 0.000E+00 dE for cont linesearch  0.000E+00
 trial: gam= 0.00000 g(F)=  0.561E-01 g(S)=  0.000E+00 ort = 0.000E+00 (trialstep = 0.100E+01)
 search vector abs. value=  0.561E-01
 bond charge predicted
       N       E                     dE             d eps       ncg     rms          rms(c)
DAV:   1    -0.821672612766E+02   -0.53012E-01   -0.37698E+00  1176   0.314E+00    0.163E-01
DAV:   2    -0.821690053742E+02   -0.17441E-02   -0.17370E-02  1192   0.303E-01    0.116E-01
DAV:   3    -0.821689463027E+02    0.59072E-04   -0.35056E-04   984   0.503E-02
   2 F= -.82168946E+02 E0= -.82168946E+02  d E =-.546714E-01  mag=     1.0007
 ZBRENT: can't locate minimum, use default step
 trial-energy change:   -0.054671  1 .order   -0.054230   -0.056069   -0.052391
 step:   4.0000(harm= 15.2420)  dis= 0.02110  next Energy=   -82.541579 (dE=-0.427E+00)
 bond charge predicted
       N       E                     dE             d eps       ncg     rms          rms(c)
DAV:   1    -0.823005880596E+02   -0.13158E+00   -0.34000E+01  1128   0.945E+00    0.467E-01
DAV:   2    -0.823160499106E+02   -0.15462E-01   -0.15633E-01  1184   0.910E-01    0.340E-01
DAV:   3    -0.823154804259E+02    0.56948E-03   -0.31127E-03  1192   0.147E-01    0.216E-01
DAV:   4    -0.823151493091E+02    0.33112E-03   -0.18275E-03  1208   0.781E-02    0.344E-02
DAV:   5    -0.823151509393E+02   -0.16301E-05   -0.80706E-05   752   0.193E-02
   3 F= -.82315151E+02 E0= -.82315151E+02  d E =-.200876E+00  mag=     1.0003
 curvature:  -2.87 expect dE=-0.105E+00 dE for cont linesearch -0.103E+00
 ZBRENT: increasing intervall
 opt :  10.0000  next Energy=   -82.537651 (dE=-0.423E+00)
 bond charge predicted
       N       E                     dE             d eps       ncg     rms          rms(c)
DAV:   1    -0.824765285889E+02   -0.16138E+00   -0.13611E+02  1120   0.189E+01    0.845E-01
DAV:   2    -0.825382985192E+02   -0.61770E-01   -0.62066E-01  1152   0.182E+00    0.658E-01
DAV:   3    -0.825364233971E+02    0.18751E-02   -0.11494E-02  1184   0.276E-01    0.446E-01
DAV:   4    -0.825349836397E+02    0.14398E-02   -0.82166E-03  1184   0.159E-01    0.764E-02
DAV:   5    -0.825349807047E+02    0.29350E-05   -0.26532E-04   792   0.372E-02
   4 F= -.82534981E+02 E0= -.82534981E+02  d E =-.420706E+00  mag=     1.0001
 curvature:  -6.23 expect dE=-0.124E+00 dE for cont linesearch -0.969E-01
 ZBRENT: increasing intervall
 opt :  22.0000  next Energy=   -82.706874 (dE=-0.593E+00)
 bond charge predicted
       N       E                     dE             d eps       ncg     rms          rms(c)
DAV:   1    -0.824830120888E+02    0.51972E-01   -0.54952E+02  1120   0.383E+01    0.143E+00
DAV:   2    -0.827361683571E+02   -0.25316E+00   -0.25119E+00  1160   0.371E+00    0.125E+00
DAV:   3    -0.827319839678E+02    0.41844E-02   -0.42444E-02  1168   0.507E-01    0.924E-01
DAV:   4    -0.827244734230E+02    0.75105E-02   -0.26422E-02  1192   0.279E-01    0.274E-01
DAV:   5    -0.827247846210E+02   -0.31120E-03   -0.14695E-03  1200   0.856E-02    0.100E-01
DAV:   6    -0.827248962633E+02   -0.11164E-03   -0.39593E-04  1080   0.349E-02    0.519E-02
DAV:   7    -0.827251324932E+02   -0.23623E-03   -0.99908E-05   784   0.187E-02    0.192E-02
DAV:   8    -0.827253923314E+02   -0.25984E-03   -0.33491E-05   768   0.112E-02    0.545E-03
DAV:   9    -0.827255258366E+02   -0.13351E-03   -0.51437E-06   760   0.452E-03    0.363E-03
DAV:  10    -0.827256480762E+02   -0.12224E-03   -0.18181E-06   720   0.218E-03    0.215E-03
DAV:  11    -0.827258271814E+02   -0.17911E-03   -0.33744E-06   776   0.192E-03    0.147E-03
DAV:  12    -0.827259307681E+02   -0.10359E-03   -0.18999E-06   752   0.123E-03    0.115E-03
DAV:  13    -0.827259850591E+02   -0.54291E-04   -0.73263E-07   744   0.839E-04
   5 F= -.82725985E+02 E0= -.82725985E+02  d E =-.611710E+00  mag=     1.0000
 curvature: -11.05 expect dE=-0.170E+00 dE for cont linesearch -0.248E-02
 ZBRENT: extrapolating
 opt :  23.6372  next Energy=   -82.728887 (dE=-0.615E+00)
 bond charge predicted
       N       E                     dE             d eps       ncg     rms          rms(c)
DAV:   1    -0.827247768537E+02    0.11539E-02   -0.10112E+01  1168   0.514E+00    0.191E-01
DAV:   2    -0.827294390624E+02   -0.46622E-02   -0.46880E-02  1176   0.498E-01    0.147E-01
DAV:   3    -0.827293188719E+02    0.12019E-03   -0.79072E-04  1200   0.703E-02    0.103E-01
DAV:   4    -0.827291842489E+02    0.13462E-03   -0.52150E-04  1176   0.394E-02    0.229E-02
DAV:   5    -0.827291811808E+02    0.30681E-05   -0.13691E-05   736   0.964E-03
   6 F= -.82729181E+02 E0= -.82729181E+02  d E =-.614906E+00  mag=     1.0000
 curvature: -12.95 expect dE=-0.218E+00 dE for cont linesearch -0.634E-04
 trial: gam= 0.29135 g(F)=  0.169E-01 g(S)=  0.000E+00 ort = 0.524E-03 (trialstep = 0.553E+01)
 search vector abs. value=  0.219E-01
 bond charge predicted
       N       E                     dE             d eps       ncg     rms          rms(c)
DAV:   1    -0.827873098898E+02   -0.58126E-01   -0.45124E+01  1120   0.109E+01    0.396E-01
DAV:   2    -0.828081467924E+02   -0.20837E-01   -0.20941E-01  1144   0.105E+00    0.325E-01
DAV:   3    -0.828077323439E+02    0.41445E-03   -0.36482E-03  1208   0.140E-01    0.221E-01
DAV:   4    -0.828071235965E+02    0.60875E-03   -0.18983E-03  1200   0.787E-02    0.639E-02
DAV:   5    -0.828071257454E+02   -0.21489E-05   -0.91632E-05   736   0.254E-02
   7 F= -.82807126E+02 E0= -.82807126E+02  d E =-.779446E-01  mag=     1.0000
 trial-energy change:   -0.077945  1 .order   -0.078856   -0.094035   -0.063678
 step:  17.1218(harm= 17.1218)  dis= 0.07528  next Energy=   -82.874823 (dE=-0.146E+00)
 bond charge predicted
       N       E                     dE             d eps       ncg     rms          rms(c)
DAV:   1    -0.827874643546E+02    0.19659E-01   -0.19930E+02  1120   0.229E+01    0.743E-01
DAV:   2    -0.828796119477E+02   -0.92148E-01   -0.92506E-01  1168   0.221E+00    0.650E-01
DAV:   3    -0.828783375991E+02    0.12743E-02   -0.15490E-02  1192   0.285E-01    0.464E-01
DAV:   4    -0.828756598770E+02    0.26777E-02   -0.69926E-03  1200   0.150E-01    0.177E-01
DAV:   5    -0.828757285502E+02   -0.68673E-04   -0.10289E-03  1208   0.664E-02    0.618E-02
DAV:   6    -0.828757748813E+02   -0.46331E-04   -0.14078E-04   776   0.204E-02
   8 F= -.82875775E+02 E0= -.82875775E+02  d E =-.146594E+00  mag=     1.0000
 curvature: -11.03 expect dE=-0.616E-01 dE for cont linesearch -0.251E-03
 trial: gam= 0.29531 g(F)=  0.559E-02 g(S)=  0.000E+00 ort = 0.707E-03 (trialstep = 0.785E+01)
 search vector abs. value=  0.792E-02
 bond charge predicted
       N       E                     dE             d eps       ncg     rms          rms(c)
DAV:   1    -0.829037546261E+02   -0.28026E-01   -0.32664E+01  1136   0.923E+00    0.220E-01
DAV:   2    -0.829191381131E+02   -0.15383E-01   -0.15180E-01  1160   0.902E-01    0.212E-01
DAV:   3    -0.829189785687E+02    0.15954E-03   -0.25934E-03  1232   0.121E-01    0.152E-01
DAV:   4    -0.829185056457E+02    0.47292E-03   -0.61642E-04  1168   0.430E-02    0.885E-02
DAV:   5    -0.829184660321E+02    0.39614E-04   -0.73000E-04  1192   0.458E-02
   9 F= -.82918466E+02 E0= -.82918466E+02  d E =-.426912E-01  mag=     1.0000
 ZBRENT: can't locate minimum, use default step
 trial-energy change:   -0.042691  1 .order   -0.042874   -0.045478   -0.040269
 step:  31.3853(harm= 68.4963)  dis= 0.12211  next Energy=   -83.074282 (dE=-0.199E+00)
 bond charge predicted
       N       E                     dE             d eps       ncg     rms          rms(c)
DAV:   1    -0.828663226032E+02    0.52183E-01   -0.29701E+02  1120   0.280E+01    0.779E-01
DAV:   2    -0.830070377400E+02   -0.14072E+00   -0.14174E+00  1160   0.276E+00    0.645E-01
DAV:   3    -0.830048985781E+02    0.21392E-02   -0.24706E-02  1216   0.386E-01    0.433E-01
DAV:   4    -0.830009218346E+02    0.39767E-02   -0.59001E-03  1192   0.133E-01    0.236E-01
DAV:   5    -0.830003881232E+02    0.53371E-03   -0.41771E-03  1200   0.112E-01    0.706E-02
DAV:   6    -0.830006112374E+02   -0.22311E-03   -0.16025E-04   808   0.219E-02    0.389E-02
DAV:   7    -0.830008679442E+02   -0.25671E-03   -0.59173E-05   792   0.138E-02    0.157E-02
DAV:   8    -0.830011629007E+02   -0.29496E-03   -0.20539E-05   784   0.801E-03    0.430E-03
DAV:   9    -0.830013806171E+02   -0.21772E-03   -0.46615E-06   792   0.376E-03    0.245E-03
DAV:  10    -0.830015276278E+02   -0.14701E-03   -0.16155E-06   776   0.172E-03    0.165E-03
DAV:  11    -0.830017814928E+02   -0.25386E-03   -0.44744E-06   776   0.181E-03    0.117E-03
DAV:  12    -0.830018972572E+02   -0.11576E-03   -0.17855E-06   776   0.113E-03    0.762E-04
DAV:  13    -0.830019801357E+02   -0.82878E-04   -0.96460E-07   784   0.863E-04
  10 F= -.83001980E+02 E0= -.83001980E+02  d E =-.126205E+00  mag=     1.0000
 curvature: -29.26 expect dE=-0.111E+00 dE for cont linesearch -0.133E-01
 ZBRENT: increasing intervall
 opt :  78.4632  next Energy=   -82.939190 (dE=-0.634E-01)
 bond charge predicted
       N       E                     dE             d eps       ncg     rms          rms(c)
DAV:   1    -0.822991625560E+02    0.70273E+00   -0.12290E+03  1120   0.577E+01    0.222E+00
DAV:   2    -0.829277588038E+02   -0.62860E+00   -0.63899E+00  1176   0.589E+00    0.139E+00
DAV:   3    -0.829181664377E+02    0.95924E-02   -0.11596E-01  1200   0.874E-01    0.846E-01
DAV:   4    -0.829055528830E+02    0.12614E-01   -0.21795E-02  1200   0.266E-01    0.475E-01
DAV:   5    -0.829037076863E+02    0.18452E-02   -0.11273E-02  1200   0.187E-01    0.121E-01
DAV:   6    -0.829039545472E+02   -0.24686E-03   -0.48096E-04  1216   0.377E-02    0.661E-02
DAV:   7    -0.829042495472E+02   -0.29500E-03   -0.47357E-05   776   0.131E-02    0.279E-02
DAV:   8    -0.829045212702E+02   -0.27172E-03   -0.13521E-05   784   0.619E-03    0.864E-03
DAV:   9    -0.829047448710E+02   -0.22360E-03   -0.56431E-06   760   0.322E-03    0.376E-03
DAV:  10    -0.829048899473E+02   -0.14508E-03   -0.26654E-06   776   0.187E-03    0.234E-03
DAV:  11    -0.829050837383E+02   -0.19379E-03   -0.37982E-06   752   0.167E-03    0.144E-03
DAV:  12    -0.829052493455E+02   -0.16561E-03   -0.43198E-06   808   0.154E-03    0.111E-03
DAV:  13    -0.829053357561E+02   -0.86411E-04   -0.16909E-06   752   0.102E-03
  11 F= -.82905336E+02 E0= -.82905336E+02  d E =-.295609E-01  mag=     1.0000
 curvature: 137.81 expect dE= 0.413E+01 dE for cont linesearch  0.762E+00
 ZBRENT: bracketing found
 ZBRENT: interpolating
 opt :  41.8844  next Energy=   -83.011950 (dE=-0.136E+00)
 bond charge predicted
       N       E                     dE             d eps       ncg     rms          rms(c)
DAV:   1    -0.826837006629E+02    0.22155E+00   -0.72925E+02  1120   0.441E+01    0.116E+00
DAV:   2    -0.830284380291E+02   -0.34474E+00   -0.34282E+00  1176   0.426E+00    0.110E+00
DAV:   3    -0.830248642319E+02    0.35738E-02   -0.56349E-02  1232   0.531E-01    0.818E-01
DAV:   4    -0.830148268931E+02    0.10037E-01   -0.13590E-02  1192   0.211E-01    0.493E-01
DAV:   5    -0.830128480598E+02    0.19788E-02   -0.12463E-02  1216   0.196E-01    0.152E-01
DAV:   6    -0.830129983777E+02   -0.15032E-03   -0.22196E-04   824   0.302E-02    0.861E-02
DAV:   7    -0.830131512857E+02   -0.15291E-03   -0.20481E-04   808   0.253E-02    0.311E-02
DAV:   8    -0.830132979990E+02   -0.14671E-03   -0.55321E-05   784   0.150E-02    0.113E-02
DAV:   9    -0.830134477466E+02   -0.14975E-03   -0.10726E-05   768   0.635E-03    0.417E-03
DAV:  10    -0.830135282639E+02   -0.80517E-04   -0.23503E-06   760   0.257E-03
  12 F= -.83013528E+02 E0= -.83013528E+02  d E =-.137753E+00  mag=     1.0000
 curvature:  -1.80 expect dE=-0.106E-01 dE for cont linesearch -0.230E-04
 trial: gam= 1.00655 g(F)=  0.585E-02 g(S)=  0.000E+00 ort = 0.318E-03 (trialstep = 0.799E+01)
 search vector abs. value=  0.145E-01
 bond charge predicted
       N       E                     dE             d eps       ncg     rms          rms(c)
DAV:   1    -0.830268171054E+02   -0.13369E-01   -0.62102E+01  1120   0.128E+01    0.293E-01
DAV:   2    -0.830553900351E+02   -0.28573E-01   -0.28511E-01  1168   0.123E+00    0.290E-01
DAV:   3    -0.830550589713E+02    0.33106E-03   -0.47753E-03  1224   0.166E-01    0.211E-01
DAV:   4    -0.830541930027E+02    0.86597E-03   -0.11398E-03  1192   0.581E-02    0.126E-01
DAV:   5    -0.830540346431E+02    0.15836E-03   -0.15753E-03  1168   0.673E-02    0.432E-02
DAV:   6    -0.830540480007E+02   -0.13358E-04   -0.44263E-05   760   0.119E-02
  13 F= -.83054048E+02 E0= -.83054048E+02  d E =-.405197E-01  mag=     1.0000
 trial-energy change:   -0.040520  1 .order   -0.040564   -0.049348   -0.031780
 step:  22.4515(harm= 22.4515)  dis= 0.10567  next Energy=   -83.082839 (dE=-0.693E-01)
 bond charge predicted
       N       E                     dE             d eps       ncg     rms          rms(c)
DAV:   1    -0.829898734264E+02    0.64161E-01   -0.20415E+02  1120   0.232E+01    0.585E-01
DAV:   2    -0.830851900631E+02   -0.95317E-01   -0.95229E-01  1168   0.226E+00    0.531E-01
DAV:   3    -0.830837960104E+02    0.13941E-02   -0.16100E-02  1216   0.308E-01    0.372E-01
DAV:   4    -0.830808908317E+02    0.29052E-02   -0.41084E-03  1208   0.110E-01    0.210E-01
DAV:   5    -0.830804398599E+02    0.45097E-03   -0.37898E-03  1192   0.105E-01    0.678E-02
DAV:   6    -0.830804870025E+02   -0.47143E-04   -0.12733E-04   776   0.198E-02
  14 F= -.83080487E+02 E0= -.83080487E+02  d E =-.669587E-01  mag=     1.0000
 curvature: -26.39 expect dE=-0.805E-01 dE for cont linesearch -0.220E-04
 trial: gam= 0.45795 g(F)=  0.305E-02 g(S)=  0.000E+00 ort =-0.110E-03 (trialstep = 0.109E+02)
 search vector abs. value=  0.599E-02
 bond charge predicted
       N       E                     dE             d eps       ncg     rms          rms(c)
DAV:   1    -0.830854843943E+02   -0.50445E-02   -0.47490E+01  1120   0.112E+01    0.267E-01
DAV:   2    -0.831072377000E+02   -0.21753E-01   -0.21674E-01  1168   0.107E+00    0.260E-01
DAV:   3    -0.831069253410E+02    0.31236E-03   -0.35536E-03  1248   0.140E-01    0.189E-01
DAV:   4    -0.831061469039E+02    0.77844E-03   -0.10713E-03  1192   0.565E-02    0.105E-01
DAV:   5    -0.831060597061E+02    0.87198E-04   -0.97026E-04  1200   0.536E-02
  15 F= -.83106060E+02 E0= -.83106060E+02  d E =-.255727E-01  mag=     1.0000
 trial-energy change:   -0.025573  1 .order   -0.026403   -0.032639   -0.020167
 step:  28.4848(harm= 28.4848)  dis= 0.05112  next Energy=   -83.123196 (dE=-0.427E-01)
 bond charge predicted
       N       E                     dE             d eps       ncg     rms          rms(c)
DAV:   1    -0.830645180848E+02    0.41629E-01   -0.12441E+02  1120   0.181E+01    0.454E-01
DAV:   2    -0.831215386353E+02   -0.57021E-01   -0.57056E-01  1152   0.174E+00    0.419E-01
DAV:   3    -0.831206761620E+02    0.86247E-03   -0.93929E-03  1224   0.229E-01    0.297E-01
DAV:   4    -0.831187984700E+02    0.18777E-02   -0.28487E-03  1176   0.927E-02    0.159E-01
DAV:   5    -0.831186441523E+02    0.15432E-03   -0.20706E-03  1176   0.788E-02    0.547E-02
DAV:   6    -0.831187648312E+02   -0.12068E-03   -0.75515E-05   784   0.153E-02    0.318E-02
DAV:   7    -0.831189391041E+02   -0.17427E-03   -0.47350E-05   768   0.121E-02    0.114E-02
DAV:   8    -0.831191302739E+02   -0.19117E-03   -0.14547E-05   792   0.714E-03    0.260E-03
DAV:   9    -0.831192614879E+02   -0.13121E-03   -0.39699E-06   768   0.364E-03    0.183E-03
DAV:  10    -0.831193600496E+02   -0.98562E-04   -0.11751E-06   744   0.170E-03
  16 F= -.83119360E+02 E0= -.83119360E+02  d E =-.388730E-01  mag=     1.0000
 curvature: -28.46 expect dE=-0.709E-01 dE for cont linesearch -0.388E-03
 trial: gam= 0.79790 g(F)=  0.249E-02 g(S)=  0.000E+00 ort =-0.286E-03 (trialstep = 0.144E+02)
 search vector abs. value=  0.585E-02
 bond charge predicted
       N       E                     dE             d eps       ncg     rms          rms(c)
DAV:   1    -0.831107121189E+02    0.85494E-02   -0.81075E+01  1120   0.146E+01    0.296E-01
DAV:   2    -0.831473470440E+02   -0.36635E-01   -0.36145E-01  1168   0.139E+00    0.307E-01
DAV:   3    -0.831468764428E+02    0.47060E-03   -0.58688E-03  1208   0.181E-01    0.232E-01
DAV:   4    -0.831457055440E+02    0.11709E-02   -0.10416E-03  1192   0.562E-02    0.151E-01
DAV:   5    -0.831451868959E+02    0.51865E-03   -0.26741E-03  1184   0.869E-02    0.468E-02
DAV:   6    -0.831452325647E+02   -0.45669E-04   -0.34695E-05   712   0.117E-02
  17 F= -.83145233E+02 E0= -.83145233E+02  d E =-.258725E-01  mag=     1.0000
 trial-energy change:   -0.025873  1 .order   -0.026383   -0.032589   -0.020176
 step:  37.8186(harm= 37.8186)  dis= 0.07609  next Energy=   -83.162141 (dE=-0.428E-01)
 bond charge predicted
       N       E                     dE             d eps       ncg     rms          rms(c)
DAV:   1    -0.830646085051E+02    0.80578E-01   -0.21482E+02  1120   0.238E+01    0.513E-01
DAV:   2    -0.831623893083E+02   -0.97781E-01   -0.96527E-01  1168   0.228E+00    0.501E-01
DAV:   3    -0.831610859837E+02    0.13033E-02   -0.15706E-02  1216   0.298E-01    0.369E-01
DAV:   4    -0.831581184831E+02    0.29675E-02   -0.29771E-03  1176   0.950E-02    0.233E-01
DAV:   5    -0.831570829195E+02    0.10356E-02   -0.57002E-03  1176   0.127E-01    0.697E-02
DAV:   6    -0.831571861826E+02   -0.10326E-03   -0.76383E-05   776   0.174E-02    0.429E-02
DAV:   7    -0.831573250573E+02   -0.13887E-03   -0.53085E-05   776   0.124E-02    0.180E-02
DAV:   8    -0.831574712143E+02   -0.14616E-03   -0.23067E-05   776   0.889E-03    0.468E-03
DAV:   9    -0.831575900728E+02   -0.11886E-03   -0.46076E-06   768   0.392E-03    0.211E-03
DAV:  10    -0.831576749455E+02   -0.84873E-04   -0.14032E-06   752   0.177E-03
  18 F= -.83157675E+02 E0= -.83157675E+02  d E =-.383149E-01  mag=     1.0000
 curvature: -48.89 expect dE=-0.121E+00 dE for cont linesearch -0.822E-03
 trial: gam= 0.87513 g(F)=  0.247E-02 g(S)=  0.000E+00 ort =-0.314E-03 (trialstep = 0.174E+02)
 search vector abs. value=  0.640E-02
 bond charge predicted
       N       E                     dE             d eps       ncg     rms          rms(c)
DAV:   1    -0.831257285451E+02    0.31862E-01   -0.13055E+02  1120   0.185E+01    0.389E-01
DAV:   2    -0.831860130920E+02   -0.60285E-01   -0.59913E-01  1176   0.179E+00    0.409E-01
DAV:   3    -0.831853597465E+02    0.65335E-03   -0.99291E-03  1232   0.235E-01    0.303E-01
DAV:   4    -0.831834759378E+02    0.18838E-02   -0.17954E-03  1216   0.740E-02    0.199E-01
DAV:   5    -0.831827592174E+02    0.71672E-03   -0.39617E-03  1184   0.106E-01    0.646E-02
DAV:   6    -0.831828076349E+02   -0.48417E-04   -0.58953E-05   760   0.147E-02
  19 F= -.83182808E+02 E0= -.83182808E+02  d E =-.251327E-01  mag=     1.0000
 trial-energy change:   -0.025133  1 .order   -0.025960   -0.038323   -0.013597
 step:  32.8577(harm= 27.0252)  dis= 0.07604  next Energy=   -83.188248 (dE=-0.306E-01)
 bond charge predicted
       N       E                     dE             d eps       ncg     rms          rms(c)
DAV:   1    -0.831375399756E+02    0.45219E-01   -0.10199E+02  1120   0.164E+01    0.344E-01
DAV:   2    -0.831843907078E+02   -0.46851E-01   -0.46759E-01  1176   0.158E+00    0.360E-01
DAV:   3    -0.831838999630E+02    0.49074E-03   -0.76887E-03  1208   0.206E-01    0.265E-01
DAV:   4    -0.831824623519E+02    0.14376E-02   -0.14532E-03  1192   0.665E-02    0.172E-01
DAV:   5    -0.831820233277E+02    0.43902E-03   -0.29762E-03  1168   0.925E-02    0.575E-02
DAV:   6    -0.831820847858E+02   -0.61458E-04   -0.47053E-05   744   0.130E-02
  20 F= -.83182085E+02 E0= -.83182085E+02  d E =-.244098E-01  mag=     1.0000
 curvature: -24.80 expect dE=-0.583E-01 dE for cont linesearch -0.181E-02
 ZBRENT: interpolating
 opt :  25.6507  next Energy=   -83.184550 (dE=-0.269E-01)
 bond charge predicted
       N       E                     dE             d eps       ncg     rms          rms(c)
DAV:   1    -0.831757317484E+02    0.62916E-02   -0.22259E+01  1120   0.764E+00    0.147E-01
DAV:   2    -0.831859558127E+02   -0.10224E-01   -0.10021E-01  1192   0.731E-01    0.167E-01
DAV:   3    -0.831858922656E+02    0.63547E-04   -0.16370E-03  1240   0.931E-02    0.130E-01
DAV:   4    -0.831856318966E+02    0.26037E-03   -0.24952E-04   768   0.288E-02    0.908E-02
DAV:   5    -0.831856088604E+02    0.23036E-04   -0.10744E-03  1184   0.569E-02    0.313E-02
DAV:   6    -0.831856290525E+02   -0.20192E-04   -0.16355E-05   744   0.793E-03
  21 F= -.83185629E+02 E0= -.83185629E+02  d E =-.279541E-01  mag=     1.0000
 curvature: -33.72 expect dE=-0.513E-01 dE for cont linesearch -0.111E-03
 trial: gam= 0.45695 g(F)=  0.152E-02 g(S)=  0.000E+00 ort =-0.145E-03 (trialstep = 0.191E+02)
 search vector abs. value=  0.273E-02
 bond charge predicted
       N       E                     dE             d eps       ncg     rms          rms(c)
DAV:   1    -0.831748176247E+02    0.10791E-01   -0.66410E+01  1120   0.132E+01    0.296E-01
DAV:   2    -0.832051077203E+02   -0.30290E-01   -0.30087E-01  1184   0.126E+00    0.294E-01
DAV:   3    -0.832047124722E+02    0.39525E-03   -0.46394E-03  1232   0.159E-01    0.218E-01
DAV:   4    -0.832036912328E+02    0.10212E-02   -0.12990E-03  1192   0.618E-02    0.126E-01
DAV:   5    -0.832034777342E+02    0.21350E-03   -0.15225E-03  1176   0.668E-02    0.432E-02
DAV:   6    -0.832034844623E+02   -0.67281E-05   -0.36983E-05   728   0.110E-02
  22 F= -.83203484E+02 E0= -.83203484E+02  d E =-.178554E-01  mag=     1.0000
 trial-energy change:   -0.017855  1 .order   -0.018028   -0.027767   -0.008288
 step:  27.1979(harm= 27.1979)  dis= 0.03052  next Energy=   -83.205420 (dE=-0.198E-01)
 bond charge predicted
       N       E                     dE             d eps       ncg     rms          rms(c)
DAV:   1    -0.831997089056E+02    0.37688E-02   -0.11998E+01  1120   0.562E+00    0.126E-01
DAV:   2    -0.832052040393E+02   -0.54951E-02   -0.54506E-02  1176   0.536E-01    0.124E-01
DAV:   3    -0.832051470048E+02    0.57035E-04   -0.85662E-04  1192   0.683E-02
  23 F= -.83205147E+02 E0= -.83205147E+02  d E =-.195180E-01  mag=     1.0000
 curvature: -25.47 expect dE=-0.242E-01 dE for cont linesearch -0.149E-04
 trial: gam= 0.63349 g(F)=  0.948E-03 g(S)=  0.000E+00 ort =-0.399E-04 (trialstep = 0.207E+02)
 search vector abs. value=  0.199E-02
 bond charge predicted
       N       E                     dE             d eps       ncg     rms          rms(c)
DAV:   1    -0.831919235445E+02    0.13280E-01   -0.57060E+01  1120   0.123E+01    0.254E-01
DAV:   2    -0.832176292985E+02   -0.25706E-01   -0.25344E-01  1160   0.115E+00    0.270E-01
DAV:   3    -0.832173250204E+02    0.30428E-03   -0.38908E-03  1224   0.138E-01    0.211E-01
DAV:   4    -0.832163459638E+02    0.97906E-03   -0.12614E-03  1192   0.617E-02    0.125E-01
DAV:   5    -0.832161899262E+02    0.15604E-03   -0.16448E-03  1192   0.694E-02    0.471E-02
DAV:   6    -0.832162125244E+02   -0.22598E-04   -0.29234E-05   728   0.102E-02
  24 F= -.83216213E+02 E0= -.83216213E+02  d E =-.110655E-01  mag=     1.0000
 trial-energy change:   -0.011066  1 .order   -0.011808   -0.019107   -0.004508
 step:  33.2298(harm= 27.0967)  dis= 0.03143  next Energy=   -83.217412 (dE=-0.123E-01)
 bond charge predicted
       N       E                     dE             d eps       ncg     rms          rms(c)
DAV:   1    -0.832066827454E+02    0.95072E-02   -0.20845E+01  1120   0.740E+00    0.154E-01
DAV:   2    -0.832162265521E+02   -0.95438E-02   -0.93535E-02  1192   0.698E-01    0.155E-01
DAV:   3    -0.832161299528E+02    0.96599E-04   -0.14403E-03  1224   0.853E-02    0.117E-01
DAV:   4    -0.832158420258E+02    0.28793E-03   -0.37417E-04  1048   0.340E-02    0.702E-02
DAV:   5    -0.832158111931E+02    0.30833E-04   -0.55796E-04  1192   0.410E-02
  25 F= -.83215811E+02 E0= -.83215811E+02  d E =-.106642E-01  mag=     1.0000
 curvature:  -2.33 expect dE=-0.197E-02 dE for cont linesearch -0.515E-04
 trial: gam= 0.00000 g(F)=  0.845E-03 g(S)=  0.000E+00 ort =-0.210E-03 (trialstep = 0.232E+02)
 search vector abs. value=  0.845E-03
 bond charge predicted
       N       E                     dE             d eps       ncg     rms          rms(c)
DAV:   1    -0.832038194452E+02    0.12023E-01   -0.30718E+01  1120   0.895E+00    0.319E-01
DAV:   2    -0.832176412147E+02   -0.13822E-01   -0.14124E-01  1160   0.840E-01    0.236E-01
DAV:   3    -0.832174291667E+02    0.21205E-03   -0.24507E-03  1216   0.108E-01    0.153E-01
DAV:   4    -0.832172397788E+02    0.18939E-03   -0.96503E-04  1176   0.579E-02    0.424E-02
DAV:   5    -0.832172607345E+02   -0.20956E-04   -0.39298E-05   744   0.211E-02
  26 F= -.83217261E+02 E0= -.83217261E+02  d E =-.144954E-02  mag=     1.0000
 trial-energy change:   -0.001450  1 .order   -0.001604   -0.019619    0.016410
 step:  12.6377(harm= 12.6377)  dis= 0.01232  next Energy=   -83.221153 (dE=-0.534E-02)
 bond charge predicted
       N       E                     dE             d eps       ncg     rms          rms(c)
DAV:   1    -0.832184105221E+02   -0.11707E-02   -0.63748E+00  1136   0.408E+00    0.144E-01
DAV:   2    -0.832212746007E+02   -0.28641E-02   -0.29075E-02  1168   0.381E-01    0.108E-01
DAV:   3    -0.832212249911E+02    0.49610E-04   -0.51057E-04  1216   0.484E-02
  27 F= -.83221225E+02 E0= -.83221225E+02  d E =-.541380E-02  mag=     1.0000
 curvature:  -6.32 expect dE=-0.150E-02 dE for cont linesearch -0.366E-06
 trial: gam= 0.27300 g(F)=  0.238E-03 g(S)=  0.000E+00 ort = 0.700E-05 (trialstep = 0.211E+02)
 search vector abs. value=  0.305E-03
 bond charge predicted
       N       E                     dE             d eps       ncg     rms          rms(c)
DAV:   1    -0.832205293247E+02    0.74528E-03   -0.90541E+00  1144   0.487E+00    0.115E-01
DAV:   2    -0.832247332860E+02   -0.42040E-02   -0.41489E-02  1168   0.465E-01    0.105E-01
DAV:   3    -0.832246759228E+02    0.57363E-04   -0.63245E-04  1208   0.578E-02
  28 F= -.83224676E+02 E0= -.83224676E+02  d E =-.345093E-02  mag=     1.0000
 trial-energy change:   -0.003451  1 .order   -0.003373   -0.005056   -0.001690
 step:  31.6824(harm= 31.6824)  dis= 0.01113  next Energy=   -83.225022 (dE=-0.380E-02)
 bond charge predicted
       N       E                     dE             d eps       ncg     rms          rms(c)
DAV:   1    -0.832240423769E+02    0.69091E-03   -0.22927E+00  1136   0.245E+00    0.799E-02
DAV:   2    -0.832250283577E+02   -0.98598E-03   -0.10019E-02  1192   0.229E-01    0.714E-02
DAV:   3    -0.832249886404E+02    0.39717E-04   -0.13857E-04   696   0.270E-02
  29 F= -.83224989E+02 E0= -.83224989E+02  d E =-.376365E-02  mag=     1.0000
 curvature: -20.13 expect dE=-0.467E-02 dE for cont linesearch -0.195E-03
 trial: gam= 0.00000 g(F)=  0.232E-03 g(S)=  0.000E+00 ort =-0.544E-04 (trialstep = 0.232E+02)
 search vector abs. value=  0.232E-03
 bond charge predicted
       N       E                     dE             d eps       ncg     rms          rms(c)
DAV:   1    -0.832222032914E+02    0.28251E-02   -0.84028E+00  1120   0.469E+00    0.153E-01
DAV:   2    -0.832259984775E+02   -0.37952E-02   -0.38522E-02  1160   0.438E-01    0.116E-01
DAV:   3    -0.832259428117E+02    0.55666E-04   -0.63867E-04  1216   0.525E-02
  30 F= -.83225943E+02 E0= -.83225943E+02  d E =-.954171E-03  mag=     1.0000
 trial-energy change:   -0.000954  1 .order   -0.001000   -0.005382    0.003381
 step:  14.2556(harm= 14.2556)  dis= 0.00551  next Energy=   -83.226641 (dE=-0.165E-02)
 bond charge predicted
       N       E                     dE             d eps       ncg     rms          rms(c)
DAV:   1    -0.832259574878E+02    0.40990E-04   -0.12448E+00  1176   0.180E+00    0.465E-02
DAV:   2    -0.832265272317E+02   -0.56974E-03   -0.56975E-03  1200   0.170E-01    0.383E-02
DAV:   3    -0.832265199212E+02    0.73105E-05   -0.82612E-05   696   0.208E-02
  31 F= -.83226520E+02 E0= -.83226520E+02  d E =-.153128E-02  mag=     1.0000
 curvature:  -7.13 expect dE=-0.706E-03 dE for cont linesearch -0.514E-04
 trial: gam= 0.25067 g(F)=  0.990E-04 g(S)=  0.000E+00 ort = 0.409E-04 (trialstep = 0.214E+02)
 search vector abs. value=  0.134E-03
 bond charge predicted
       N       E                     dE             d eps       ncg     rms          rms(c)
DAV:   1    -0.832262049202E+02    0.32231E-03   -0.41037E+00  1136   0.327E+00    0.705E-02
DAV:   2    -0.832281024742E+02   -0.18976E-02   -0.18574E-02  1176   0.311E-01    0.686E-02
DAV:   3    -0.832280754247E+02    0.27050E-04   -0.24674E-04   760   0.368E-02
  32 F= -.83228075E+02 E0= -.83228075E+02  d E =-.155550E-02  mag=     1.0000
 trial-energy change:   -0.001556  1 .order   -0.001181   -0.002340   -0.000023
 step:  21.6333(harm= 21.6333)  dis= 0.00634  next Energy=   -83.227701 (dE=-0.118E-02)
 bond charge predicted
       N       E                     dE             d eps       ncg     rms          rms(c)
DAV:   1    -0.832280195411E+02    0.82933E-04   -0.75725E-04  1176   0.463E-02    0.228E-02
DAV:   2    -0.832280172570E+02    0.22841E-05   -0.78274E-06   688   0.724E-03
  33 F= -.83228017E+02 E0= -.83228017E+02  d E =-.149734E-02  mag=     1.0000
 curvature: -13.27 expect dE=-0.134E-02 dE for cont linesearch -0.196E-03
 trial: gam= 0.00000 g(F)=  0.101E-03 g(S)=  0.000E+00 ort = 0.445E-04 (trialstep = 0.215E+02)
 search vector abs. value=  0.101E-03
 bond charge predicted
       N       E                     dE             d eps       ncg     rms          rms(c)
DAV:   1    -0.832279792508E+02    0.40290E-04   -0.31288E+00  1120   0.285E+00    0.777E-02
DAV:   2    -0.832294368419E+02   -0.14576E-02   -0.14457E-02  1168   0.271E-01    0.636E-02
DAV:   3    -0.832294148007E+02    0.22041E-04   -0.19854E-04   696   0.332E-02
  34 F= -.83229415E+02 E0= -.83229415E+02  d E =-.139754E-02  mag=     1.0000
 trial-energy change:   -0.001398  1 .order   -0.000910   -0.002172    0.000352
 step:  20.0243(harm= 18.4678)  dis= 0.00582  next Energy=   -83.229426 (dE=-0.141E-02)
 bond charge predicted
       N       E                     dE             d eps       ncg     rms          rms(c)
DAV:   1    -0.832293362251E+02    0.10062E-03   -0.13123E-02  1176   0.182E-01    0.110E-02
DAV:   2    -0.832293462585E+02   -0.10033E-04   -0.65717E-05   728   0.204E-02
  35 F= -.83229346E+02 E0= -.83229346E+02  d E =-.132900E-02  mag=     1.0000
 curvature:  -6.74 expect dE=-0.518E-03 dE for cont linesearch -0.106E-03
 trial: gam= 0.36443 g(F)=  0.769E-04 g(S)=  0.000E+00 ort = 0.400E-04 (trialstep = 0.179E+02)
 search vector abs. value=  0.119E-03
 bond charge predicted
       N       E                     dE             d eps       ncg     rms          rms(c)
DAV:   1    -0.832296302377E+02   -0.29401E-03   -0.25656E+00  1120   0.257E+00    0.475E-02
DAV:   2    -0.832308337177E+02   -0.12035E-02   -0.11666E-02  1168   0.246E-01    0.521E-02
DAV:   3    -0.832308191385E+02    0.14579E-04   -0.15141E-04   696   0.288E-02
  36 F= -.83230819E+02 E0= -.83230819E+02  d E =-.147288E-02  mag=     1.0000
 trial-energy change:   -0.001473  1 .order   -0.001173   -0.001640   -0.000705
 step:  31.4628(harm= 31.4628)  dis= 0.00697  next Energy=   -83.230784 (dE=-0.144E-02)
 bond charge predicted
       N       E                     dE             d eps       ncg     rms          rms(c)
DAV:   1    -0.832311327678E+02   -0.29905E-03   -0.14673E+00  1120   0.195E+00    0.446E-02
DAV:   2    -0.832317542101E+02   -0.62144E-03   -0.62969E-03  1192   0.182E-01    0.500E-02
DAV:   3    -0.832317409297E+02    0.13280E-04   -0.76251E-05   688   0.199E-02
  37 F= -.83231741E+02 E0= -.83231741E+02  d E =-.239467E-02  mag=     1.0000
 curvature: -20.55 expect dE=-0.105E-02 dE for cont linesearch -0.319E-03
 trial: gam= 0.22612 g(F)=  0.510E-04 g(S)=  0.000E+00 ort = 0.431E-04 (trialstep = 0.206E+02)
 search vector abs. value=  0.766E-04
 bond charge predicted
       N       E                     dE             d eps       ncg     rms          rms(c)
DAV:   1    -0.832318596745E+02   -0.10546E-03   -0.21935E+00  1120   0.238E+00    0.628E-02
DAV:   2    -0.832328234444E+02   -0.96377E-03   -0.97087E-03  1176   0.223E-01    0.593E-02
DAV:   3    -0.832327992879E+02    0.24156E-04   -0.12977E-04   704   0.255E-02
  38 F= -.83232799E+02 E0= -.83232799E+02  d E =-.105836E-02  mag=     1.0000
 trial-energy change:   -0.001058  1 .order   -0.000696   -0.001254   -0.000137
 step:  23.1745(harm= 23.1745)  dis= 0.00499  next Energy=   -83.232445 (dE=-0.704E-03)
 bond charge predicted
       N       E                     dE             d eps       ncg     rms          rms(c)
DAV:   1    -0.832328237063E+02   -0.26188E-06   -0.34384E-02  1160   0.301E-01    0.178E-02
DAV:   2    -0.832328367908E+02   -0.13085E-04   -0.12413E-04   704   0.268E-02
  39 F= -.83232837E+02 E0= -.83232837E+02  d E =-.109586E-02  mag=     1.0000
 curvature: -14.61 expect dE=-0.116E-02 dE for cont linesearch -0.533E-04
 trial: gam= 0.00000 g(F)=  0.794E-04 g(S)=  0.000E+00 ort = 0.167E-04 (trialstep = 0.204E+02)
 search vector abs. value=  0.794E-04
 bond charge predicted
       N       E                     dE             d eps       ncg     rms          rms(c)
DAV:   1    -0.832324482158E+02    0.37549E-03   -0.22253E+00  1120   0.240E+00    0.741E-02
DAV:   2    -0.832334463985E+02   -0.99818E-03   -0.10164E-02  1160   0.225E-01    0.568E-02
DAV:   3    -0.832334263834E+02    0.20015E-04   -0.15156E-04   688   0.274E-02
  40 F= -.83233426E+02 E0= -.83233426E+02  d E =-.589593E-03  mag=     1.0000
 trial-energy change:   -0.000590  1 .order   -0.000235   -0.001620    0.001151
 step:  11.9261(harm= 11.9261)  dis= 0.00231  next Energy=   -83.233310 (dE=-0.474E-03)
 bond charge predicted
       N       E                     dE             d eps       ncg     rms          rms(c)
DAV:   1    -0.832332706245E+02    0.17577E-03   -0.37888E-01  1160   0.988E-01    0.255E-02
DAV:   2    -0.832334501231E+02   -0.17950E-03   -0.17422E-03  1192   0.939E-02    0.220E-02
DAV:   3    -0.832334482899E+02    0.18332E-05   -0.25398E-05   704   0.113E-02
  41 F= -.83233448E+02 E0= -.83233448E+02  d E =-.611499E-03  mag=     1.0000
 curvature:  -5.96 expect dE=-0.377E-03 dE for cont linesearch -0.797E-04
 trial: gam= 0.38476 g(F)=  0.632E-04 g(S)=  0.000E+00 ort = 0.326E-04 (trialstep = 0.149E+02)
 search vector abs. value=  0.100E-03
 reached required accuracy - stopping structural energy minimisation
Application 91026080 resources: utime ~89798s, stime ~517s, Rss ~68344, inblocks ~984872, outblocks ~759936
