unknown system                          
           1
    22.755834    0.000000    0.000000
     0.000000   22.755834    0.000000
     0.000000    0.000000   22.755834
   Ag
  39
Direct configuration=     1
   0.56702368  0.69051384  0.46717728
   0.48119149  0.59591558  0.62963589
   0.67604188  0.65998294  0.50734048
   0.46486269  0.67864558  0.53693614
   0.59577336  0.56895190  0.66965803
   0.62442831  0.55895014  0.55102349
   0.65046452  0.64498081  0.39051130
   0.35972853  0.65356243  0.47373328
   0.39885214  0.51929248  0.66945403
   0.45972913  0.56491837  0.51275909
   0.69310113  0.54659158  0.44748140
   0.53222538  0.48571200  0.57577909
   0.34612591  0.47020440  0.57280761
   0.62511408  0.44579897  0.65075946
   0.36328139  0.59129668  0.57764653
   0.54374257  0.36172034  0.64587587
   0.51333714  0.48050962  0.69341071
   0.45893670  0.69316342  0.41679432
   0.43725272  0.41262765  0.62890897
   0.36201475  0.34805007  0.55752709
   0.57354407  0.65952142  0.58471911
   0.71230384  0.52230731  0.64822430
   0.48459578  0.33630085  0.54265722
   0.44132331  0.44919972  0.50326904
   0.32382483  0.53858926  0.47104469
   0.59573528  0.38713454  0.53773203
   0.55622507  0.52138371  0.46368362
   0.30711214  0.41771087  0.47242415
   0.68871732  0.64069478  0.62725860
   0.53725294  0.60846304  0.37915406
   0.42243057  0.57763652  0.40062440
   0.69208267  0.46279892  0.54251801
   0.40935633  0.34907140  0.44450057
   0.50104642  0.49097925  0.36232603
   0.62046284  0.52556318  0.35257001
   0.52368074  0.39355161  0.43610001
   0.75507504  0.57376408  0.54757098
   0.38981385  0.46269943  0.39822204
   0.63832867  0.43738050  0.43632025
Direct configuration=     2
   0.56702442  0.69057601  0.46719426
   0.48120300  0.59595406  0.62976817
   0.67616582  0.66007859  0.50733004
   0.46476990  0.67887737  0.53706073
   0.59577062  0.56892637  0.66972969
   0.62461740  0.55901231  0.55116715
   0.65054729  0.64500233  0.39041550
   0.35970141  0.65360530  0.47374926
   0.39877816  0.51934014  0.66957343
   0.45963209  0.56494567  0.51280857
   0.69312054  0.54659666  0.44744794
   0.53213870  0.48567714  0.57591265
   0.34593046  0.47024085  0.57293359
   0.62516406  0.44578048  0.65073608
   0.36323782  0.59145722  0.57779921
   0.54371715  0.36166033  0.64591541
   0.51334568  0.48051879  0.69356853
   0.45891456  0.69323983  0.41670760
   0.43716189  0.41250433  0.62892166
   0.36200490  0.34803218  0.55754432
   0.57352701  0.65973532  0.58479591
   0.71240215  0.52240020  0.64829997
   0.48460300  0.33624498  0.54263612
   0.44132901  0.44908574  0.50333656
   0.32389764  0.53855164  0.47099590
   0.59582366  0.38701050  0.53776087
   0.55633741  0.52122389  0.46350276
   0.30700198  0.41760025  0.47238576
   0.68875533  0.64070679  0.62725636
   0.53715842  0.60857910  0.37900595
   0.42227958  0.57767529  0.40037406
   0.69223079  0.46262663  0.54254742
   0.40928744  0.34891821  0.44439911
   0.50103712  0.49092896  0.36221349
   0.62047205  0.52553836  0.35255626
   0.52374945  0.39351102  0.43602100
   0.75515037  0.57383407  0.54758980
   0.38973252  0.46268524  0.39798987
   0.63841839  0.43725705  0.43618820
Direct configuration=     3
   0.56702663  0.69076251  0.46724518
   0.48123753  0.59606950  0.63016503
   0.67653765  0.66036553  0.50729871
   0.46449155  0.67957274  0.53743447
   0.59576241  0.56884979  0.66994469
   0.62518466  0.55919882  0.55159815
   0.65079562  0.64506690  0.39012809
   0.35962006  0.65373393  0.47379720
   0.39855622  0.51948311  0.66993165
   0.45934096  0.56502758  0.51295700
   0.69317876  0.54661189  0.44734754
   0.53187866  0.48557255  0.57631334
   0.34534410  0.47035020  0.57331152
   0.62531400  0.44572499  0.65066592
   0.36310710  0.59193884  0.57825728
   0.54364089  0.36148031  0.64603404
   0.51337130  0.48054631  0.69404200
   0.45884814  0.69346907  0.41644744
   0.43688939  0.41213438  0.62895976
   0.36197535  0.34797852  0.55759601
   0.57347581  0.66037703  0.58502631
   0.71269709  0.52267885  0.64852698
   0.48462468  0.33607736  0.54257282
   0.44134613  0.44874379  0.50353914
   0.32411607  0.53843877  0.47084954
   0.59608877  0.38663836  0.53784741
   0.55667445  0.52074442  0.46296018
   0.30667150  0.41726839  0.47227061
   0.68886938  0.64074285  0.62724964
   0.53687487  0.60892727  0.37856162
   0.42182661  0.57779162  0.39962304
   0.69267518  0.46210974  0.54263567
   0.40908078  0.34845863  0.44409475
   0.50100923  0.49077806  0.36187586
   0.62049968  0.52546393  0.35251502
   0.52395559  0.39338924  0.43578395
   0.75537637  0.57404402  0.54764626
   0.38948853  0.46264268  0.39729335
   0.63868753  0.43688671  0.43579204
Direct configuration=     4
   0.56703104  0.69113550  0.46734703
   0.48130659  0.59630038  0.63095873
   0.67728129  0.66093943  0.50723605
   0.46393484  0.68096347  0.53818196
   0.59574598  0.56869662  0.67037468
   0.62631918  0.55957184  0.55246014
   0.65129227  0.64519604  0.38955326
   0.35945736  0.65399118  0.47389308
   0.39811235  0.51976904  0.67064809
   0.45875870  0.56519141  0.51325387
   0.69329519  0.54664235  0.44714675
   0.53135858  0.48536336  0.57711471
   0.34417140  0.47056891  0.57406738
   0.62561387  0.44561402  0.65052561
   0.36284565  0.59290210  0.57917341
   0.54348836  0.36112026  0.64627130
   0.51342255  0.48060135  0.69498893
   0.45871530  0.69392755  0.41592712
   0.43634439  0.41139449  0.62903595
   0.36191625  0.34787120  0.55769937
   0.57337343  0.66166046  0.58548711
   0.71328696  0.52323617  0.64898100
   0.48466805  0.33574213  0.54244621
   0.44138035  0.44805989  0.50394428
   0.32455293  0.53821304  0.47055682
   0.59661901  0.38589408  0.53802048
   0.55734851  0.51978549  0.46187503
   0.30601054  0.41660466  0.47204030
   0.68909746  0.64081495  0.62723620
   0.53630776  0.60962361  0.37767296
   0.42092066  0.57802426  0.39812100
   0.69356394  0.46107596  0.54281217
   0.40866745  0.34753948  0.44348601
   0.50095344  0.49047628  0.36120059
   0.62055494  0.52531506  0.35243253
   0.52436787  0.39314567  0.43530987
   0.75582836  0.57446394  0.54775917
   0.38900055  0.46255755  0.39590031
   0.63922582  0.43614604  0.43499973
Direct configuration=     5
   0.56703988  0.69188148  0.46755072
   0.48144471  0.59676214  0.63254613
   0.67876858  0.66208721  0.50711073
   0.46282143  0.68374493  0.53967694
   0.59571312  0.56839029  0.67123467
   0.62858823  0.56031788  0.55418413
   0.65228558  0.64545431  0.38840362
   0.35913196  0.65450568  0.47408484
   0.39722460  0.52034091  0.67208096
   0.45759417  0.56551905  0.51384759
   0.69352807  0.54670327  0.44674518
   0.53031842  0.48494498  0.57871746
   0.34182598  0.47100633  0.57557910
   0.62621361  0.44539207  0.65024498
   0.36232276  0.59482861  0.58100567
   0.54318330  0.36040015  0.64674581
   0.51352504  0.48071143  0.69688279
   0.45844963  0.69484450  0.41488647
   0.43525440  0.40991470  0.62918834
   0.36179806  0.34765657  0.55790611
   0.57316867  0.66422732  0.58640870
   0.71446670  0.52435080  0.64988904
   0.48475477  0.33507166  0.54219300
   0.44144880  0.44669209  0.50475457
   0.32542666  0.53776157  0.46997138
   0.59767948  0.38440553  0.53836661
   0.55869664  0.51786761  0.45970473
   0.30468861  0.41527721  0.47157968
   0.68955363  0.64095916  0.62720932
   0.53517353  0.61101629  0.37589565
   0.41910876  0.57848955  0.39511692
   0.69534148  0.45900840  0.54316516
   0.40784080  0.34570119  0.44226855
   0.50084187  0.48987270  0.35985007
   0.62066546  0.52501731  0.35226756
   0.52519244  0.39265855  0.43436170
   0.75673235  0.57530376  0.54798499
   0.38802459  0.46238730  0.39311423
   0.64030240  0.43466470  0.43341511
Direct configuration=     6
   0.56704108  0.69198326  0.46757851
   0.48146356  0.59682514  0.63276271
   0.67897149  0.66224381  0.50709363
   0.46266952  0.68412441  0.53988090
   0.59570863  0.56834850  0.67135200
   0.62889781  0.56041966  0.55441934
   0.65242110  0.64548955  0.38824677
   0.35908757  0.65457588  0.47411101
   0.39710348  0.52041894  0.67227645
   0.45743529  0.56556375  0.51392860
   0.69355984  0.54671158  0.44669039
   0.53017651  0.48488790  0.57893613
   0.34150599  0.47106601  0.57578534
   0.62629544  0.44536179  0.65020670
   0.36225142  0.59509145  0.58125565
   0.54314168  0.36030191  0.64681055
   0.51353903  0.48072645  0.69714118
   0.45841339  0.69496960  0.41474449
   0.43510569  0.40971280  0.62920913
   0.36178193  0.34762728  0.55793431
   0.57314073  0.66457752  0.58653444
   0.71462766  0.52450287  0.65001293
   0.48476660  0.33498018  0.54215845
   0.44145814  0.44650548  0.50486512
   0.32554587  0.53769998  0.46989150
   0.59782416  0.38420244  0.53841383
   0.55888057  0.51760595  0.45940863
   0.30450826  0.41509610  0.47151683
   0.68961587  0.64097884  0.62720565
   0.53501879  0.61120630  0.37565316
   0.41886156  0.57855303  0.39470706
   0.69558399  0.45872631  0.54321332
   0.40772802  0.34545038  0.44210244
   0.50082665  0.48979036  0.35966581
   0.62068054  0.52497669  0.35224505
   0.52530494  0.39259209  0.43423234
   0.75685568  0.57541834  0.54801580
   0.38789143  0.46236407  0.39273411
   0.64044929  0.43446260  0.43319891
Direct configuration=     7
   0.56705608  0.69194175  0.46754237
   0.48151535  0.59713757  0.63304637
   0.67917691  0.66267523  0.50672519
   0.46237391  0.68458256  0.54030002
   0.59579247  0.56831183  0.67159807
   0.62899580  0.55997181  0.55435595
   0.65232058  0.64550477  0.38817084
   0.35935269  0.65444723  0.47421423
   0.39698684  0.52028193  0.67263395
   0.45744131  0.56564824  0.51346682
   0.69349273  0.54663318  0.44708943
   0.53029953  0.48520612  0.57881759
   0.34091619  0.47108909  0.57594356
   0.62652723  0.44550668  0.64994598
   0.36214111  0.59572023  0.58183548
   0.54308991  0.36032252  0.64686161
   0.51326710  0.48047416  0.69764416
   0.45820817  0.69520040  0.41473298
   0.43482717  0.40992950  0.62982317
   0.36150037  0.34769180  0.55754819
   0.57324324  0.66502168  0.58678225
   0.71484196  0.52453799  0.65030288
   0.48486749  0.33478368  0.54187749
   0.44069651  0.44609467  0.50443898
   0.32635507  0.53728296  0.46991558
   0.59805838  0.38389205  0.53836290
   0.55892407  0.51758767  0.46047658
   0.30461286  0.41485445  0.47138230
   0.68966613  0.64129585  0.62735227
   0.53503794  0.61120489  0.37514091
   0.41848799  0.57881713  0.39395115
   0.69604697  0.45851301  0.54325497
   0.40757534  0.34544022  0.44187722
   0.50052332  0.48986261  0.35900834
   0.62052420  0.52519958  0.35205828
   0.52524629  0.39232753  0.43415617
   0.75727593  0.57561423  0.54790555
   0.38755980  0.46182203  0.39252988
   0.64131423  0.43371035  0.43306952
Direct configuration=     8
   0.56708752  0.69185469  0.46746657
   0.48162399  0.59779293  0.63364139
   0.67960780  0.66358017  0.50595236
   0.46175382  0.68554358  0.54117917
   0.59596834  0.56823491  0.67211423
   0.62920135  0.55903237  0.55422298
   0.65210972  0.64553670  0.38801157
   0.35990881  0.65417736  0.47443075
   0.39674217  0.51999454  0.67338383
   0.45745394  0.56582546  0.51249818
   0.69335196  0.54646874  0.44792647
   0.53055759  0.48587363  0.57856896
   0.33967903  0.47113752  0.57627543
   0.62701345  0.44581060  0.64939909
   0.36190971  0.59703916  0.58305173
   0.54298131  0.36036575  0.64696872
   0.51269671  0.47994496  0.69869920
   0.45777772  0.69568451  0.41470883
   0.43424294  0.41038403  0.63111118
   0.36090976  0.34782712  0.55673825
   0.57345828  0.66595336  0.58730205
   0.71529149  0.52461166  0.65091108
   0.48507912  0.33437149  0.54128814
   0.43909891  0.44523295  0.50354511
   0.32805245  0.53640823  0.46996610
   0.59854969  0.38324097  0.53825607
   0.55901533  0.51754932  0.46271671
   0.30483228  0.41434757  0.47110010
   0.68977155  0.64196083  0.62765982
   0.53507810  0.61120195  0.37406641
   0.41770440  0.57937110  0.39236556
   0.69701812  0.45806560  0.54334233
   0.40725508  0.34541890  0.44140481
   0.49988706  0.49001418  0.35762922
   0.62019625  0.52566713  0.35166652
   0.52512328  0.39177259  0.43399640
   0.75815745  0.57602514  0.54767429
   0.38686416  0.46068505  0.39210147
   0.64312854  0.43213244  0.43279811
Direct configuration=     9
   0.56685483  0.69155041  0.46741675
   0.48156217  0.59798950  0.63364125
   0.67959578  0.66357556  0.50589914
   0.46170481  0.68548822  0.54148951
   0.59603196  0.56818222  0.67217120
   0.62943751  0.55910397  0.55456079
   0.65176008  0.64537284  0.38813594
   0.36035133  0.65374547  0.47462216
   0.39669943  0.51999855  0.67347255
   0.45710989  0.56605448  0.51204412
   0.69296003  0.54624485  0.44820912
   0.53032149  0.48606283  0.57862493
   0.33940252  0.47117421  0.57645899
   0.62693816  0.44599044  0.64894804
   0.36224313  0.59731859  0.58354905
   0.54289275  0.36079203  0.64672280
   0.51264053  0.47970968  0.69862753
   0.45783598  0.69564612  0.41490913
   0.43394551  0.41056921  0.63126837
   0.36092452  0.34808015  0.55655487
   0.57375966  0.66582242  0.58734040
   0.71546554  0.52479865  0.65092213
   0.48503437  0.33454136  0.54123948
   0.43817841  0.44539475  0.50342823
   0.32939400  0.53602197  0.47023726
   0.59861425  0.38313671  0.53810853
   0.55910106  0.51700294  0.46283891
   0.30497997  0.41429857  0.47090526
   0.68969188  0.64199765  0.62746693
   0.53492009  0.61098782  0.37386184
   0.41757002  0.57939214  0.39161149
   0.69749740  0.45816519  0.54339083
   0.40719550  0.34536195  0.44104882
   0.49980590  0.49042536  0.35779180
   0.61985861  0.52568813  0.35219061
   0.52519152  0.39197658  0.43399683
   0.75831172  0.57629325  0.54775487
   0.38687547  0.46022129  0.39180699
   0.64348144  0.43196316  0.43287177
Direct configuration=    10
   0.56615674  0.69063754  0.46726729
   0.48137670  0.59857920  0.63364082
   0.67955971  0.66356173  0.50573946
   0.46155775  0.68532213  0.54242052
   0.59622282  0.56802415  0.67234211
   0.63014601  0.55931874  0.55557424
   0.65071114  0.64488126  0.38850903
   0.36167888  0.65244978  0.47519637
   0.39657120  0.52001056  0.67373869
   0.45607772  0.56674151  0.51068192
   0.69178425  0.54557320  0.44905707
   0.52961320  0.48663044  0.57879283
   0.33857297  0.47128429  0.57700968
   0.62671229  0.44652995  0.64759491
   0.36324338  0.59815689  0.58504102
   0.54262709  0.36207087  0.64598503
   0.51247201  0.47900385  0.69841251
   0.45801076  0.69553095  0.41551005
   0.43305322  0.41112475  0.63173993
   0.36096879  0.34883924  0.55600475
   0.57466380  0.66542959  0.58745543
   0.71598771  0.52535962  0.65095526
   0.48490013  0.33505098  0.54109348
   0.43541688  0.44588012  0.50307758
   0.33341865  0.53486316  0.47105076
   0.59880791  0.38282390  0.53766591
   0.55935825  0.51536382  0.46320553
   0.30542303  0.41415155  0.47032072
   0.68945286  0.64210813  0.62688828
   0.53444606  0.61034543  0.37324813
   0.41716690  0.57945527  0.38934928
   0.69893524  0.45846398  0.54353631
   0.40701673  0.34519111  0.43998085
   0.49956242  0.49165887  0.35827955
   0.61884568  0.52575113  0.35376286
   0.52539624  0.39258858  0.43399813
   0.75877453  0.57709758  0.54799664
   0.38690940  0.45883000  0.39092355
   0.64454012  0.43145534  0.43309273
Direct configuration=    11
   0.56476056  0.68881181  0.46696836
   0.48100577  0.59975862  0.63363996
   0.67948757  0.66353407  0.50542010
   0.46126363  0.68498997  0.54428254
   0.59660456  0.56770802  0.67268394
   0.63156301  0.55974829  0.55760113
   0.64861327  0.64389809  0.38925522
   0.36433397  0.64985841  0.47634481
   0.39631474  0.52003460  0.67427099
   0.45401339  0.56811559  0.50795753
   0.68943268  0.54422989  0.45075296
   0.52819662  0.48776566  0.57912865
   0.33691388  0.47150446  0.57811105
   0.62626056  0.44760898  0.64488864
   0.36524388  0.59983347  0.58802495
   0.54209577  0.36462855  0.64450950
   0.51213496  0.47759220  0.69798247
   0.45836032  0.69530061  0.41671187
   0.43126865  0.41223584  0.63268305
   0.36105734  0.35035740  0.55490449
   0.57647209  0.66464392  0.58768549
   0.71703204  0.52648156  0.65102153
   0.48463165  0.33607022  0.54080148
   0.42989384  0.44685087  0.50237628
   0.34146796  0.53254556  0.47267775
   0.59919525  0.38219830  0.53678068
   0.55987263  0.51208556  0.46393875
   0.30630915  0.41385751  0.46915164
   0.68897483  0.64232907  0.62573098
   0.53349799  0.60906065  0.37202070
   0.41636064  0.57958152  0.38482488
   0.70181093  0.45906155  0.54382727
   0.40665921  0.34484941  0.43784490
   0.49907545  0.49412591  0.35925505
   0.61681982  0.52587713  0.35690736
   0.52580569  0.39381256  0.43400073
   0.75970015  0.57870625  0.54848017
   0.38697726  0.45604743  0.38915668
   0.64665750  0.43043969  0.43353466
Direct configuration=    12
   0.56584537  0.69023037  0.46720062
   0.48129398  0.59884223  0.63364063
   0.67954362  0.66355556  0.50566824
   0.46149216  0.68524806  0.54283578
   0.59630796  0.56795365  0.67241834
   0.63046202  0.55941454  0.55602627
   0.65024328  0.64466200  0.38867544
   0.36227100  0.65187187  0.47545249
   0.39651400  0.52001592  0.67385741
   0.45561734  0.56704795  0.51007434
   0.69125981  0.54527362  0.44943528
   0.52929728  0.48688361  0.57886773
   0.33820297  0.47133339  0.57725530
   0.62661155  0.44677059  0.64699137
   0.36368952  0.59853079  0.58570648
   0.54250860  0.36264127  0.64565597
   0.51239684  0.47868903  0.69831660
   0.45808871  0.69547958  0.41577807
   0.43265524  0.41137254  0.63195026
   0.36098854  0.34917781  0.55575937
   0.57506708  0.66525437  0.58750674
   0.71622061  0.52560983  0.65097004
   0.48484025  0.33527829  0.54102836
   0.43418516  0.44609661  0.50292118
   0.33521377  0.53434630  0.47141361
   0.59889430  0.38268438  0.53746849
   0.55947296  0.51463272  0.46336905
   0.30562065  0.41408597  0.47005999
   0.68934626  0.64215740  0.62663019
   0.53423462  0.61005890  0.37297439
   0.41698709  0.57948342  0.38834027
   0.69957657  0.45859724  0.54360120
   0.40693700  0.34511490  0.43950450
   0.49945382  0.49220906  0.35849710
   0.61839388  0.52577923  0.35446413
   0.52548756  0.39286154  0.43399871
   0.75898096  0.57745634  0.54810448
   0.38692453  0.45820945  0.39052951
   0.64501233  0.43122883  0.43319129
Direct configuration=    13
   0.56571039  0.68966338  0.46747853
   0.48146880  0.59880854  0.63365488
   0.67932889  0.66342723  0.50559319
   0.46186742  0.68518100  0.54326428
   0.59607815  0.56785124  0.67272302
   0.63051222  0.55896982  0.55624590
   0.64976815  0.64437577  0.38888044
   0.36277898  0.65153171  0.47561017
   0.39653355  0.52021072  0.67407684
   0.45570293  0.56708492  0.50942973
   0.69100680  0.54524630  0.44993295
   0.52855413  0.48716342  0.57858312
   0.33757481  0.47145388  0.57793018
   0.62677469  0.44734150  0.64622359
   0.36419500  0.59869797  0.58640996
   0.54220757  0.36335729  0.64528822
   0.51257642  0.47872093  0.69818104
   0.45807521  0.69521672  0.41584290
   0.43228140  0.41127866  0.63177523
   0.36120149  0.34932836  0.55574926
   0.57492089  0.66511769  0.58737915
   0.71640466  0.52568734  0.65101416
   0.48452088  0.33595263  0.54085672
   0.43362205  0.44633166  0.50299077
   0.33686687  0.53383177  0.47180809
   0.59903301  0.38292257  0.53720469
   0.55943970  0.51394759  0.46395357
   0.30557550  0.41407825  0.46975710
   0.68955987  0.64238900  0.62669512
   0.53369398  0.61036085  0.37289112
   0.41663236  0.57951106  0.38739381
   0.70001176  0.45874563  0.54368732
   0.40713986  0.34489806  0.43904900
   0.49914821  0.49218906  0.35874340
   0.61831063  0.52537333  0.35487781
   0.52525206  0.39341642  0.43418772
   0.75924570  0.57771816  0.54801553
   0.38727382  0.45780470  0.38941391
   0.64529041  0.43095408  0.43334676
Direct configuration=    14
   0.56546620  0.68863763  0.46798129
   0.48178507  0.59874758  0.63368066
   0.67894043  0.66319508  0.50545744
   0.46254629  0.68505968  0.54403947
   0.59566242  0.56766596  0.67327421
   0.63060302  0.55816529  0.55664322
   0.64890860  0.64385795  0.38925129
   0.36369794  0.65091634  0.47589543
   0.39656891  0.52056312  0.67447382
   0.45585775  0.56715180  0.50826357
   0.69054908  0.54519687  0.45083328
   0.52720971  0.48766961  0.57806825
   0.33643842  0.47167186  0.57915109
   0.62706982  0.44837431  0.64483462
   0.36510944  0.59900041  0.58768261
   0.54166298  0.36465263  0.64462295
   0.51290129  0.47877864  0.69793579
   0.45805077  0.69474118  0.41596018
   0.43160509  0.41110881  0.63145859
   0.36158674  0.34960072  0.55573098
   0.57465643  0.66487042  0.58714833
   0.71673760  0.52582757  0.65109397
   0.48394311  0.33717257  0.54054620
   0.43260333  0.44675689  0.50311667
   0.33985747  0.53290094  0.47252175
   0.59928396  0.38335346  0.53672746
   0.55937953  0.51270814  0.46501103
   0.30549381  0.41406427  0.46920913
   0.68994630  0.64280798  0.62681258
   0.53271590  0.61090710  0.37274048
   0.41599063  0.57956106  0.38568160
   0.70079905  0.45901407  0.54384313
   0.40750686  0.34450578  0.43822497
   0.49859535  0.49215288  0.35918898
   0.61816003  0.52463901  0.35562619
   0.52482603  0.39442024  0.43452966
   0.75972463  0.57819180  0.54785462
   0.38790571  0.45707249  0.38739570
   0.64579346  0.43045703  0.43362801
Direct configuration=    15
   0.56534916  0.68817864  0.46829043
   0.48214180  0.59832898  0.63390237
   0.67872250  0.66283218  0.50572072
   0.46283490  0.68506177  0.54408057
   0.59561988  0.56792676  0.67359947
   0.63032585  0.55778467  0.55723628
   0.64839418  0.64342856  0.38923831
   0.36383527  0.65087787  0.47613476
   0.39683567  0.52050559  0.67494052
   0.45671620  0.56747221  0.50789182
   0.69074547  0.54539899  0.45107387
   0.52623005  0.48761799  0.57824176
   0.33569883  0.47166853  0.57987072
   0.62689802  0.44879185  0.64409817
   0.36552131  0.59901447  0.58763077
   0.54168006  0.36537702  0.64435252
   0.51301574  0.47904986  0.69772589
   0.45779069  0.69464541  0.41590665
   0.43139582  0.41131955  0.63157651
   0.36144042  0.34952809  0.55547599
   0.57477096  0.66454789  0.58738386
   0.71704798  0.52612854  0.65113294
   0.48380368  0.33787091  0.54022446
   0.43235081  0.44661691  0.50292568
   0.34044936  0.53229608  0.47272265
   0.59925267  0.38396807  0.53672815
   0.55958480  0.51257218  0.46503402
   0.30574016  0.41416104  0.46898019
   0.69008535  0.64282476  0.62703206
   0.53266736  0.61082193  0.37255517
   0.41526363  0.57962941  0.38508479
   0.70125108  0.45890771  0.54373544
   0.40777245  0.34461733  0.43793370
   0.49895513  0.49198432  0.35919533
   0.61791300  0.52424665  0.35581630
   0.52436124  0.39489771  0.43463916
   0.75992578  0.57830169  0.54776538
   0.38780107  0.45666524  0.38662588
   0.64595087  0.43027183  0.43363590
Direct configuration=    16
   0.56515990  0.68743641  0.46879034
   0.48271864  0.59765209  0.63426089
   0.67837010  0.66224534  0.50614646
   0.46330159  0.68506516  0.54414702
   0.59555108  0.56834850  0.67412544
   0.62987763  0.55716918  0.55819529
   0.64756234  0.64273420  0.38921733
   0.36405733  0.65081567  0.47652179
   0.39726703  0.52041256  0.67569521
   0.45810437  0.56799034  0.50729067
   0.69106303  0.54572583  0.45146292
   0.52464587  0.48753450  0.57852233
   0.33450288  0.47166314  0.58103440
   0.62662020  0.44946702  0.64290728
   0.36618733  0.59903720  0.58754694
   0.54170769  0.36654841  0.64391524
   0.51320082  0.47948843  0.69738647
   0.45737014  0.69449055  0.41582009
   0.43105741  0.41166034  0.63176720
   0.36120383  0.34941066  0.55506366
   0.57495615  0.66402634  0.58776472
   0.71754988  0.52661521  0.65119596
   0.48357822  0.33900017  0.53970420
   0.43194246  0.44639056  0.50261684
   0.34140650  0.53131797  0.47304751
   0.59920206  0.38496192  0.53672927
   0.55991673  0.51235232  0.46507120
   0.30613853  0.41431751  0.46860998
   0.69031021  0.64285190  0.62738697
   0.53258887  0.61068420  0.37225552
   0.41408802  0.57973994  0.38411973
   0.70198203  0.45873573  0.54356131
   0.40820193  0.34479770  0.43746272
   0.49953691  0.49171175  0.35920560
   0.61751354  0.52361219  0.35612372
   0.52360965  0.39566981  0.43481623
   0.76025105  0.57847940  0.54762109
   0.38763186  0.45600669  0.38538105
   0.64620540  0.42997236  0.43364865
Direct configuration=    17
   0.56469989  0.68690290  0.46888253
   0.48285202  0.59722527  0.63456063
   0.67803357  0.66146509  0.50665095
   0.46345384  0.68509848  0.54415079
   0.59618007  0.56892462  0.67505994
   0.62970128  0.55635321  0.55878551
   0.64715704  0.64222069  0.38922017
   0.36380640  0.65048300  0.47678719
   0.39733921  0.52039226  0.67617461
   0.45920518  0.56859214  0.50672582
   0.69128527  0.54573338  0.45154677
   0.52353025  0.48713006  0.57821157
   0.33395579  0.47138849  0.58157877
   0.62670184  0.45063625  0.64223731
   0.36701287  0.59841956  0.58705943
   0.54162234  0.36705679  0.64372777
   0.51333643  0.47998034  0.69777688
   0.45726833  0.69422867  0.41561925
   0.43045790  0.41183528  0.63190957
   0.36082181  0.34941407  0.55477917
   0.57529512  0.66373084  0.58846336
   0.71786994  0.52680272  0.65123689
   0.48376009  0.33966366  0.53961805
   0.43111560  0.44684619  0.50244299
   0.34169723  0.53124486  0.47330777
   0.59894100  0.38623555  0.53664850
   0.56071083  0.51256141  0.46528595
   0.30657584  0.41423714  0.46845546
   0.69047760  0.64271827  0.62783347
   0.53194660  0.61014586  0.37193014
   0.41350735  0.57949556  0.38369305
   0.70268647  0.45870384  0.54325896
   0.40820968  0.34484261  0.43696310
   0.49937481  0.49170593  0.35889154
   0.61766103  0.52328783  0.35616607
   0.52354901  0.39609318  0.43451305
   0.76048322  0.57847811  0.54771860
   0.38746876  0.45586625  0.38479731
   0.64638770  0.42999882  0.43347026
Direct configuration=    18
   0.56395216  0.68603568  0.46903240
   0.48306881  0.59653148  0.63504785
   0.67748653  0.66019679  0.50747100
   0.46370131  0.68515265  0.54415693
   0.59720249  0.56986111  0.67657898
   0.62941462  0.55502686  0.55974491
   0.64649821  0.64138596  0.38922478
   0.36339851  0.64994226  0.47721860
   0.39745655  0.52035927  0.67695388
   0.46099455  0.56957036  0.50580767
   0.69164651  0.54574565  0.45168309
   0.52171683  0.48647263  0.57770644
   0.33306649  0.47094204  0.58246365
   0.62683454  0.45253682  0.64114828
   0.36835480  0.59741558  0.58626698
   0.54148361  0.36788317  0.64342305
   0.51355686  0.48077992  0.69841150
   0.45710284  0.69380300  0.41529279
   0.42948342  0.41211966  0.63214101
   0.36020085  0.34941961  0.55431673
   0.57584611  0.66325049  0.58959900
   0.71839020  0.52710752  0.65130342
   0.48405572  0.34074216  0.53947803
   0.42977154  0.44758681  0.50216039
   0.34216983  0.53112601  0.47373082
   0.59851665  0.38830584  0.53651720
   0.56200164  0.51290127  0.46563504
   0.30728668  0.41410651  0.46820428
   0.69074970  0.64250106  0.62855927
   0.53090258  0.60927079  0.37140124
   0.41256346  0.57909833  0.38299948
   0.70383154  0.45865198  0.54276750
   0.40822227  0.34491562  0.43615098
   0.49911132  0.49169648  0.35838105
   0.61790077  0.52276060  0.35623492
   0.52345045  0.39678138  0.43402024
   0.76086059  0.57847603  0.54787710
   0.38720363  0.45563798  0.38384845
   0.64668404  0.43004183  0.43318029
Direct configuration=    19
   0.56385536  0.68513642  0.46923999
   0.48355398  0.59650763  0.63533507
   0.67654656  0.65892839  0.50769034
   0.46374150  0.68513955  0.54462001
   0.59799042  0.57059086  0.67809650
   0.62964792  0.55437923  0.56052047
   0.64591530  0.64108776  0.38964245
   0.36330209  0.64992074  0.47680176
   0.39688787  0.52040945  0.67717810
   0.46179839  0.57020485  0.50450481
   0.69193936  0.54536186  0.45174542
   0.52086306  0.48558684  0.57746916
   0.33265941  0.47060765  0.58245954
   0.62591920  0.45362856  0.64119149
   0.36938487  0.59595046  0.58602091
   0.54148834  0.36889822  0.64370750
   0.51393498  0.48136186  0.69846388
   0.45652954  0.69293180  0.41517665
   0.42913689  0.41177830  0.63241321
   0.36033662  0.34933612  0.55442220
   0.57560210  0.66321450  0.58999993
   0.71932763  0.52703942  0.65160294
   0.48381910  0.34179691  0.53925184
   0.42892256  0.44788931  0.50178899
   0.34179879  0.53160301  0.47415803
   0.59818479  0.39007903  0.53619689
   0.56306283  0.51298728  0.46537645
   0.30733903  0.41409530  0.46785520
   0.69120667  0.64252131  0.62923923
   0.53044638  0.60862679  0.37094820
   0.41231463  0.57871575  0.38284253
   0.70483243  0.45876181  0.54233317
   0.40825182  0.34499775  0.43597024
   0.49861936  0.49169975  0.35805164
   0.61810897  0.52279047  0.35582480
   0.52353486  0.39726423  0.43354619
   0.76117563  0.57829962  0.54816193
   0.38699443  0.45592167  0.38359966
   0.64716554  0.43008876  0.43269186
Direct configuration=    20
   0.56376974  0.68434110  0.46942359
   0.48398308  0.59648654  0.63558909
   0.67571524  0.65780659  0.50788434
   0.46377704  0.68512796  0.54502957
   0.59868727  0.57123626  0.67943862
   0.62985426  0.55380645  0.56120639
   0.64539976  0.64082403  0.39001185
   0.36321681  0.64990171  0.47643310
   0.39638493  0.52045383  0.67737640
   0.46250933  0.57076600  0.50335254
   0.69219836  0.54502243  0.45180055
   0.52010797  0.48480343  0.57725932
   0.33229937  0.47031191  0.58245590
   0.62510965  0.45459411  0.64122972
   0.37029589  0.59465468  0.58580327
   0.54149252  0.36979595  0.64395908
   0.51426939  0.48187653  0.69851021
   0.45602250  0.69216130  0.41507393
   0.42883042  0.41147640  0.63265396
   0.36045670  0.34926227  0.55451548
   0.57538629  0.66318266  0.59035452
   0.72015671  0.52697920  0.65186784
   0.48360983  0.34272974  0.53905180
   0.42817171  0.44815686  0.50146051
   0.34147063  0.53202488  0.47453586
   0.59789128  0.39164727  0.53591359
   0.56400135  0.51306334  0.46514775
   0.30738534  0.41408539  0.46754648
   0.69161082  0.64253922  0.62984060