49
Energy = -106.18408721 eV
Ag 8.248646509174879 10.955031276330732 14.632902952201428
Ag 9.744886202157808 8.74992895618436 14.075571029441738
Ag 9.639543840562284 9.559691871729385 16.800912679022797
Ag 7.782072613300615 12.876189479653473 12.579887922490741
Ag 8.077307463209774 9.94314939606642 11.783116274786558
Ag 10.105523367521128 7.989422106265649 11.408284340647924
Ag 8.867838292317389 9.40563696687129 9.058527750704847
Ag 8.677329956361383 12.202375339528182 10.008477583401
Ag 11.996380458955256 8.343869525389744 15.845868227880558
Ag 9.767218772838635 13.361438126648464 14.605710193822286
Ag 8.948562626614887 14.957050088981301 11.022045492029573
Ag 11.275191300465146 11.051713537535832 15.132588634445089
Ag 12.239730227865993 10.729342906829856 17.65270668026243
Ag 12.275026367725557 9.529638456597205 12.765504238679858
Ag 8.137064113851295 15.448593432877997 13.698427163297412
Ag 11.301118959612644 13.346209873906211 17.016819359634418
Ag 10.212690952641239 11.388141574976842 12.571692476853991
Ag 14.152447496070737 7.936876132133976 13.981729048276417
Ag 11.188993175578618 10.370472377385605 10.127441322786385
Ag 11.399205716250947 7.6428092713538724 8.976108558829866
Ag 12.896912532835259 7.222492454518092 11.228457962971877
Ag 11.570773795611064 6.723845876491257 13.602943603870258
Ag 9.373021218393625 11.838703976971985 7.361674643669517
Ag 10.095234996537856 15.727664194695667 15.882470978939606
Ag 12.668037969770246 14.953394573277597 15.12115162024989
Ag 11.258887706610528 13.297175608105496 10.757055026393294
Ag 11.206192551457988 9.775880472345914 7.310091318765797
Ag 14.930486001675966 9.060823380252257 11.545990063828095
Ag 14.398446924961718 9.700940518821255 16.16614289475513
Ag 12.479322113930525 12.842130315801322 13.23740576356172
Ag 10.130125039312764 14.358811148361873 8.472386120634646
Ag 13.725917678619304 12.443056328867401 15.86843611009757
Ag 13.483157059754465 16.346986018162944 12.777783862905235
Ag 13.644425637672061 11.516539268901383 10.942808852951503
Ag 12.047472573286855 12.293129174899114 8.111945959717701
Ag 14.637267063629134 10.965910091788638 13.630596862669535
Ag 13.592287895509124 9.518628904918836 8.916275763345274
Ag 11.546887881160986 16.109813730794095 10.416922002632054
Ag 10.840894238382027 15.492772526947164 13.037378682065713
Ag 13.826008534804082 14.342262632231982 10.934285262966021
Ag 14.98988748343226 13.939873173533956 13.574700922348876
Ag 16.156580900423887 10.52520838178013 9.586860814361392
Ag 13.036200370750672 14.930170571394138 8.302464471231454
Ag 14.746339351350544 12.643633136972095 8.541329663796095
Ag 16.204369655567913 12.928492644564688 11.096633762315044
Ag 14.178507030630863 17.042326960486154 10.018957848513805
Ag 16.176671655938097 15.757275967278382 11.750010526330335
Ag 15.933368315812018 15.05025564998397 8.979446746187046
Ag 16.906903764549686 17.51181238794372 9.696063990853887
