<?xml version="1.0" encoding="ISO-8859-1"?>
<modeling>
 <generator>
  <i name="program" type="string">vasp </i>
  <i name="version" type="string">5.3.5  </i>
  <i name="subversion" type="string">31Mar14 (build Feb 01 2018 12:10:03) gamma-only                       parallel </i>
  <i name="platform" type="string">LinuxIFC </i>
  <i name="date" type="string">2019 03 25 </i>
  <i name="time" type="string">03:19:09 </i>
 </generator>
 <incar>
  <i type="string" name="PREC">normal</i>
  <i type="int" name="ISPIN">     2</i>
  <i type="int" name="IBRION">     2</i>
  <i type="int" name="NSW">  1000</i>
  <i type="int" name="ISIF">     2</i>
  <i name="POTIM">      0.10000000</i>
  <i type="logical" name="LPLANE"> T  </i>
  <i type="int" name="ISMEAR">     0</i>
  <i name="SIGMA">      0.00010000</i>
  <i type="logical" name="LWAVE"> F  </i>
  <i type="logical" name="LCHARG"> F  </i>
  <i type="logical" name="LVTOT"> F  </i>
  <i type="string" name="GGA"> PE</i>
 </incar>
 <kpoints>
  <varray name="kpointlist" >
   <v>       0.00000000       0.00000000       0.00000000 </v>
  </varray>
  <varray name="weights" >
   <v>       1.00000000 </v>
  </varray>
 </kpoints>
 <parameters>
  <separator name="general" >
   <i type="string" name="SYSTEM">unknown system</i>
   <i type="logical" name="LCOMPAT"> F  </i>
  </separator>
  <separator name="electronic" >
   <i type="string" name="PREC">normal</i>
   <i name="ENMAX">    249.84400000</i>
   <i name="ENAUG">    412.49600000</i>
   <i name="EDIFF">      0.00010000</i>
   <i type="int" name="IALGO">    38</i>
   <i type="int" name="IWAVPR">    11</i>
   <i type="int" name="NBANDS">   372</i>
   <i name="NELECT">    572.00000000</i>
   <i type="int" name="TURBO">     0</i>
   <i type="int" name="IRESTART">     0</i>
   <i type="int" name="NREBOOT">     0</i>
   <i type="int" name="NMIN">     0</i>
   <i name="EREF">      0.00000000</i>
   <separator name="electronic smearing" >
    <i type="int" name="ISMEAR">     0</i>
    <i name="SIGMA">      0.00010000</i>
    <i name="KSPACING">      0.50000000</i>
    <i type="logical" name="KGAMMA"> T  </i>
   </separator>
   <separator name="electronic projectors" >
    <i type="logical" name="LREAL"> F  </i>
    <v name="ROPT">      0.00000000</v>
    <i type="int" name="LMAXPAW">  -100</i>
    <i type="int" name="LMAXMIX">     2</i>
    <i type="logical" name="NLSPLINE"> F  </i>
   </separator>
   <separator name="electronic startup" >
    <i type="int" name="ISTART">     0</i>
    <i type="int" name="ICHARG">     2</i>
    <i type="int" name="INIWAV">     1</i>
   </separator>
   <separator name="electronic spin" >
    <i type="int" name="ISPIN">     2</i>
    <i type="logical" name="LNONCOLLINEAR"> F  </i>
    <v name="MAGMOM">      1.00000000      1.00000000      1.00000000      1.00000000      1.00000000      1.00000000      1.00000000      1.00000000      1.00000000      1.00000000      1.00000000      1.00000000      1.00000000      1.00000000      1.00000000      1.00000000      1.00000000      1.00000000      1.00000000      1.00000000
      1.00000000      1.00000000      1.00000000      1.00000000      1.00000000      1.00000000      1.00000000      1.00000000      1.00000000      1.00000000      1.00000000      1.00000000      1.00000000      1.00000000      1.00000000      1.00000000      1.00000000      1.00000000      1.00000000      1.00000000
      1.00000000      1.00000000      1.00000000      1.00000000      1.00000000      1.00000000      1.00000000      1.00000000      1.00000000      1.00000000      1.00000000      1.00000000</v>
    <i name="NUPDOWN">     -1.00000000</i>
    <i type="logical" name="LSORBIT"> F  </i>
    <v name="SAXIS">      0.00000000      0.00000000      1.00000000</v>
    <i type="logical" name="LSPIRAL"> F  </i>
    <v name="QSPIRAL">      0.00000000      0.00000000      0.00000000</v>
    <i type="logical" name="LZEROZ"> F  </i>
   </separator>
   <separator name="electronic exchange-correlation" >
    <i type="logical" name="LASPH"> F  </i>
    <i type="logical" name="LMETAGGA"> F  </i>
   </separator>
   <separator name="electronic convergence" >
    <i type="int" name="NELM">    60</i>
    <i type="int" name="NELMDL">    -5</i>
    <i type="int" name="NELMIN">     2</i>
    <i name="ENINI">    249.84400000</i>
    <separator name="electronic convergence detail" >
     <i type="logical" name="LDIAG"> T  </i>
     <i type="logical" name="LSUBROT"> F  </i>
     <i name="WEIMIN">      0.00100000</i>
     <i name="EBREAK">      0.00000007</i>
     <i name="DEPER">      0.30000000</i>
     <i type="int" name="NRMM">     4</i>
     <i name="TIME">      0.40000000</i>
    </separator>
   </separator>
   <separator name="electronic mixer" >
    <i name="AMIX">      0.40000000</i>
    <i name="BMIX">      1.00000000</i>
    <i name="AMIN">      0.10000000</i>
    <i name="AMIX_MAG">      1.60000000</i>
    <i name="BMIX_MAG">      1.00000000</i>
    <separator name="electronic mixer details" >
     <i type="int" name="IMIX">     4</i>
     <i type="int" name="MAXMIX">   -45</i>
     <i name="WC">    100.00000000</i>
     <i type="int" name="INIMIX">     1</i>
     <i type="int" name="MIXPRE">     1</i>
     <i type="int" name="MREMOVE">     5</i>
    </separator>
   </separator>
   <separator name="electronic dipolcorrection" >
    <i type="logical" name="LDIPOL"> F  </i>
    <i type="logical" name="LMONO"> F  </i>
    <i type="int" name="IDIPOL">     0</i>
    <i name="EPSILON">      1.00000000</i>
    <v name="DIPOL">   -100.00000000   -100.00000000   -100.00000000</v>
    <i name="EFIELD">      0.00000000</i>
   </separator>
  </separator>
  <separator name="grids" >
   <i type="int" name="NGX">   100</i>
   <i type="int" name="NGY">   100</i>
   <i type="int" name="NGZ">   100</i>
   <i type="int" name="NGXF">   200</i>
   <i type="int" name="NGYF">   200</i>
   <i type="int" name="NGZF">   200</i>
   <i type="logical" name="ADDGRID"> F  </i>
  </separator>
  <separator name="ionic" >
   <i type="int" name="NSW">  1000</i>
   <i type="int" name="IBRION">     2</i>
   <i type="int" name="ISIF">     2</i>
   <i name="PSTRESS">      0.00000000</i>
   <i name="EDIFFG">      0.00100000</i>
   <i type="int" name="NFREE">     1</i>
   <i name="POTIM">      0.10000000</i>
   <i name="SMASS">     -3.00000000</i>
   <i name="SCALEE">      1.00000000</i>
  </separator>
  <separator name="ionic md" >
   <i name="TEBEG">      0.00010000</i>
   <i name="TEEND">      0.00010000</i>
   <i type="int" name="NBLOCK">     1</i>
   <i type="int" name="KBLOCK">  1000</i>
   <i type="int" name="NPACO">   256</i>
   <i name="APACO">     16.00000000</i>
  </separator>
  <separator name="symmetry" >
   <i type="int" name="ISYM">     2</i>
   <i name="SYMPREC">      0.00001000</i>
  </separator>
  <separator name="dos" >
   <i type="logical" name="LORBIT"> F  </i>
   <v name="RWIGS">     -1.00000000</v>
   <i type="int" name="NEDOS">   301</i>
   <i name="EMIN">     10.00000000</i>
   <i name="EMAX">    -10.00000000</i>
   <i name="EFERMI">      0.00000000</i>
  </separator>
  <separator name="writing" >
   <i type="int" name="NWRITE">     2</i>
   <i type="logical" name="LWAVE"> F  </i>
   <i type="logical" name="LCHARG"> F  </i>
   <i type="logical" name="LPARD"> F  </i>
   <i type="logical" name="LVTOT"> F  </i>
   <i type="logical" name="LVHAR"> F  </i>
   <i type="logical" name="LELF"> F  </i>
   <i type="logical" name="LOPTICS"> F  </i>
   <v name="STM">      0.00000000      0.00000000      0.00000000      0.00000000      0.00000000      0.00000000      0.00000000</v>
  </separator>
  <separator name="performance" >
   <i type="int" name="NPAR">     4</i>
   <i type="int" name="NSIM">     4</i>
   <i type="int" name="NBLK">    -1</i>
   <i type="logical" name="LPLANE"> T  </i>
   <i type="logical" name="LSCALAPACK"> T  </i>
   <i type="logical" name="LSCAAWARE"> F  </i>
   <i type="logical" name="LSCALU"> F  </i>
   <i type="logical" name="LASYNC"> F  </i>
   <i type="logical" name="LORBITALREAL"> F  </i>
  </separator>
  <separator name="miscellaneous" >
   <i type="int" name="IDIOT">     3</i>
   <i type="logical" name="LMUSIC"> F  </i>
   <v name="POMASS">    107.86800000</v>
   <v name="DARWINR">      0.00000000</v>
   <v name="DARWINV">      1.00000000</v>
   <i type="logical" name="LCORR"> T  </i>
  </separator>
  <i type="logical" name="GGA_COMPAT"> T  </i>
  <i type="logical" name="LBERRY"> F  </i>
  <i type="int" name="ICORELEVEL">     0</i>
  <i type="logical" name="LDAU"> F  </i>
  <i type="int" name="I_CONSTRAINED_M">     0</i>
  <separator name="electronic exchange-correlation" >
   <i type="string" name="GGA">PE</i>
   <i type="int" name="VOSKOWN">     0</i>
   <i type="logical" name="LHFCALC"> F  </i>
   <i type="string" name="PRECFOCK"></i>
   <i type="logical" name="LSYMGRAD"> F  </i>
   <i type="logical" name="LHFONE"> F  </i>
   <i type="logical" name="LRHFCALC"> F  </i>
   <i type="logical" name="LTHOMAS"> F  </i>
   <i type="logical" name="LMODELHF"> F  </i>
   <i name="ENCUT4O">     -1.00000000</i>
   <i type="int" name="EXXOEP">     0</i>
   <i type="int" name="FOURORBIT">     0</i>
   <i name="AEXX">      0.00000000</i>
   <i name="HFALPHA">      0.00000000</i>
   <i name="MCALPHA">      0.00000000</i>
   <i name="ALDAX">      1.00000000</i>
   <i name="AGGAX">      1.00000000</i>
   <i name="ALDAC">      1.00000000</i>
   <i name="AGGAC">      1.00000000</i>
   <i type="int" name="NKREDX">     1</i>
   <i type="int" name="NKREDY">     1</i>
   <i type="int" name="NKREDZ">     1</i>
   <i type="logical" name="SHIFTRED"> F  </i>
   <i type="logical" name="ODDONLY"> F  </i>
   <i type="logical" name="EVENONLY"> F  </i>
   <i type="int" name="LMAXFOCK">     0</i>
   <i type="int" name="NMAXFOCKAE">     0</i>
   <i type="logical" name="LFOCKAEDFT"> F  </i>
   <i name="HFSCREEN">      0.00000000</i>
   <i name="HFSCREENC">      0.00000000</i>
   <i type="int" name="NBANDSGWLOW">     0</i>
  </separator>
  <separator name="vdW DFT" >
   <i type="logical" name="LUSE_VDW"> F  </i>
   <i name="Zab_VDW">     -0.84910000</i>
   <i name="PARAM1">      0.12340000</i>
   <i name="PARAM2">      1.00000000</i>
   <i name="PARAM3">      0.00000000</i>
  </separator>
  <separator name="model GW" >
   <i type="int" name="MODEL_GW">     0</i>
   <i name="MODEL_EPS0">    199.13400926</i>
   <i name="MODEL_ALPHA">      1.00000000</i>
  </separator>
  <separator name="linear response parameters" >
   <i type="logical" name="LEPSILON"> F  </i>
   <i type="logical" name="LRPA"> F  </i>
   <i type="logical" name="LNABLA"> F  </i>
   <i type="logical" name="LVEL"> F  </i>
   <i type="int" name="KINTER">     0</i>
   <i name="CSHIFT">      0.10000000</i>
   <i name="OMEGAMAX">     -1.00000000</i>
   <i name="DEG_THRESHOLD">      0.00200000</i>
  </separator>
  <separator name="orbital magnetization" >
   <i type="logical" name="NUCIND"> F  </i>
   <v name="MAGPOS">      0.00000000      0.00000000      0.00000000</v>
   <i type="logical" name="LNICSALL"> T  </i>
   <i type="logical" name="ORBITALMAG"> F  </i>
   <i type="logical" name="LMAGBLOCH"> F  </i>
   <i type="logical" name="LCHIMAG"> F  </i>
   <i type="logical" name="LGAUGE"> T  </i>
   <i type="int" name="MAGATOM">     0</i>
   <v name="MAGDIPOL">      0.00000000      0.00000000      0.00000000</v>
   <v name="AVECCONST">      0.00000000      0.00000000      0.00000000</v>
  </separator>
  <separator name="response functions" >
   <i type="logical" name="LADDER"> F  </i>
   <i type="logical" name="LFXC"> F  </i>
   <i type="logical" name="LHARTREE"> T  </i>
   <i type="int" name="IBSE">     0</i>
   <i type="logical" name="LTCTE"> F  </i>
   <i type="logical" name="LTETE"> F  </i>
   <i type="logical" name="LTRIPLET"> F  </i>
   <i type="logical" name="LFXCEPS"> F  </i>
   <i type="logical" name="LFXHEG"> F  </i>
   <i type="logical" name="L2ORDER"> F  </i>
   <i type="logical" name="LUSEW"> F  </i>
   <i name="ENCUTGW">     -2.00000000</i>
   <i name="ENCUTGWSOFT">     -2.00000000</i>
   <i name="ENCUTLF">     -1.00000000</i>
   <i type="int" name="LMAXMP2">    -1</i>
   <i name="SCISSOR">      0.00000000</i>
   <i type="int" name="NOMEGA">     0</i>
   <i type="int" name="NOMEGAR">     0</i>
   <i type="int" name="NBANDSGW">    -1</i>
   <i type="int" name="NBANDSO">    -1</i>
   <i type="int" name="NBANDSV">    -1</i>
   <i type="int" name="NELM">     1</i>
   <i type="int" name="DIM">     3</i>
   <i type="int" name="ANTIRES">     0</i>
   <i name="OMEGAMAX">    -30.00000000</i>
   <i name="OMEGAMIN">    -30.00000000</i>
   <i name="OMEGATL">   -200.00000000</i>
   <i type="int" name="OMEGAGRID">     0</i>
   <i name="CSHIFT">     -0.10000000</i>
   <i type="logical" name="SELFENERGY"> F  </i>
   <i type="logical" name="LSPECTRAL"> F  </i>
   <i type="logical" name="ODDONLYGW"> F  </i>
   <i type="logical" name="EVENONLYGW"> F  </i>
   <i type="int" name="NKREDLFX">     1</i>
   <i type="int" name="NKREDLFY">     1</i>
   <i type="int" name="NKREDLFZ">     1</i>
   <i type="int" name="MAXMEM">  1800</i>
   <i type="int" name="TELESCOPE">     0</i>
   <i type="int" name="TAUPAR">     1</i>
  </separator>
  <separator name="External order field" >
   <i name="OFIELD_KAPPA">      0.00000000</i>
   <v name="OFIELD_K">      0.00000000      0.00000000      0.00000000</v>
   <i name="OFIELD_Q6_NEAR">      0.00000000</i>
   <i name="OFIELD_Q6_FAR">      0.00000000</i>
   <i name="OFIELD_A">      0.00000000</i>
  </separator>
 </parameters>
 <atominfo>
  <atoms>      52 </atoms>
  <types>       1 </types>
  <array name="atoms" >
   <dimension dim="1">ion</dimension>
   <field type="string">element</field>
   <field type="int">atomtype</field>
   <set>
    <rc><c>Ag</c><c>   1</c></rc>
    <rc><c>Ag</c><c>   1</c></rc>
    <rc><c>Ag</c><c>   1</c></rc>
    <rc><c>Ag</c><c>   1</c></rc>
    <rc><c>Ag</c><c>   1</c></rc>
    <rc><c>Ag</c><c>   1</c></rc>
    <rc><c>Ag</c><c>   1</c></rc>
    <rc><c>Ag</c><c>   1</c></rc>
    <rc><c>Ag</c><c>   1</c></rc>
    <rc><c>Ag</c><c>   1</c></rc>
    <rc><c>Ag</c><c>   1</c></rc>
    <rc><c>Ag</c><c>   1</c></rc>
    <rc><c>Ag</c><c>   1</c></rc>
    <rc><c>Ag</c><c>   1</c></rc>
    <rc><c>Ag</c><c>   1</c></rc>
    <rc><c>Ag</c><c>   1</c></rc>
    <rc><c>Ag</c><c>   1</c></rc>
    <rc><c>Ag</c><c>   1</c></rc>
    <rc><c>Ag</c><c>   1</c></rc>
    <rc><c>Ag</c><c>   1</c></rc>
    <rc><c>Ag</c><c>   1</c></rc>
    <rc><c>Ag</c><c>   1</c></rc>
    <rc><c>Ag</c><c>   1</c></rc>
    <rc><c>Ag</c><c>   1</c></rc>
    <rc><c>Ag</c><c>   1</c></rc>
    <rc><c>Ag</c><c>   1</c></rc>
    <rc><c>Ag</c><c>   1</c></rc>
    <rc><c>Ag</c><c>   1</c></rc>
    <rc><c>Ag</c><c>   1</c></rc>
    <rc><c>Ag</c><c>   1</c></rc>
    <rc><c>Ag</c><c>   1</c></rc>
    <rc><c>Ag</c><c>   1</c></rc>
    <rc><c>Ag</c><c>   1</c></rc>
    <rc><c>Ag</c><c>   1</c></rc>
    <rc><c>Ag</c><c>   1</c></rc>
    <rc><c>Ag</c><c>   1</c></rc>
    <rc><c>Ag</c><c>   1</c></rc>
    <rc><c>Ag</c><c>   1</c></rc>
    <rc><c>Ag</c><c>   1</c></rc>
    <rc><c>Ag</c><c>   1</c></rc>
    <rc><c>Ag</c><c>   1</c></rc>
    <rc><c>Ag</c><c>   1</c></rc>
    <rc><c>Ag</c><c>   1</c></rc>
    <rc><c>Ag</c><c>   1</c></rc>
    <rc><c>Ag</c><c>   1</c></rc>
    <rc><c>Ag</c><c>   1</c></rc>
    <rc><c>Ag</c><c>   1</c></rc>
    <rc><c>Ag</c><c>   1</c></rc>
    <rc><c>Ag</c><c>   1</c></rc>
    <rc><c>Ag</c><c>   1</c></rc>
    <rc><c>Ag</c><c>   1</c></rc>
    <rc><c>Ag</c><c>   1</c></rc>
   </set>
  </array>
  <array name="atomtypes" >
   <dimension dim="1">type</dimension>
   <field type="int">atomspertype</field>
   <field type="string">element</field>
   <field>mass</field>
   <field>valence</field>
   <field type="string">pseudopotential</field>
   <set>
    <rc><c>  52</c><c>Ag</c><c>    107.86800000</c><c>     11.00000000</c><c>  PAW_PBE Ag 02Apr2005                  </c></rc>
   </set>
  </array>
 </atominfo>
 <structure name="initialpos" >
  <crystal>
   <varray name="basis" >
    <v>      25.84238012       0.00000000       0.00000000 </v>
    <v>       0.00000000      25.84238012       0.00000000 </v>
    <v>       0.00000000       0.00000000      25.84238012 </v>
   </varray>
   <i name="volume">  17258.28080240 </i>
   <varray name="rec_basis" >
    <v>       0.03869613       0.00000000       0.00000000 </v>
    <v>       0.00000000       0.03869613       0.00000000 </v>
    <v>       0.00000000       0.00000000       0.03869613 </v>
   </varray>
  </crystal>
  <varray name="positions" >
   <v>       0.74901342       0.43625871       0.62493638 </v>
   <v>       0.70345212       0.50394721       0.55510187 </v>
   <v>       0.70616517       0.39721613       0.53495268 </v>
   <v>       0.67098580       0.49935626       0.65955898 </v>
   <v>       0.66454043       0.57037148       0.48543323 </v>
   <v>       0.65225431       0.45013206       0.45383459 </v>
   <v>       0.64826384       0.39149121       0.63488549 </v>
   <v>       0.63607234       0.53147810       0.38926060 </v>
   <v>       0.62467613       0.33554978       0.54239343 </v>
   <v>       0.61197760       0.55218743       0.58500701 </v>
   <v>       0.62356636       0.64334574       0.42086238 </v>
   <v>       0.61437398       0.60996400       0.31449465 </v>
   <v>       0.55423224       0.39240868       0.47718827 </v>
   <v>       0.60724707       0.44759887       0.55211632 </v>
   <v>       0.59713429       0.56467205       0.69404786 </v>
   <v>       0.54083340       0.36884405       0.60572642 </v>
   <v>       0.55312376       0.45380917       0.38922540 </v>
   <v>       0.56676861       0.51808658       0.48145302 </v>
   <v>       0.57611408       0.62595784       0.51969547 </v>
   <v>       0.49751147       0.52688555       0.70585004 </v>
   <v>       0.56212164       0.51551963       0.30575211 </v>
   <v>       0.54520497       0.68494020       0.35226194 </v>
   <v>       0.56706716       0.46655013       0.64894862 </v>
   <v>       0.53914675       0.57842710       0.39533148 </v>
   <v>       0.55977780       0.64049729       0.62790428 </v>
   <v>       0.53468923       0.29031807       0.52827486 </v>
   <v>       0.47642979       0.57518385       0.48665049 </v>
   <v>       0.50312123       0.60407604       0.29098949 </v>
   <v>       0.50393751       0.55481495       0.59197483 </v>
   <v>       0.45850244       0.61917848       0.66616187 </v>
   <v>       0.49723999       0.45756235       0.55729828 </v>
   <v>       0.47136222       0.42560700       0.66703908 </v>
   <v>       0.48133720       0.66233724       0.55661819 </v>
   <v>       0.45920339       0.51872088       0.34462329 </v>
   <v>       0.46409466       0.37945229       0.40686440 </v>
   <v>       0.51111552       0.67681194       0.45115763 </v>
   <v>       0.46711953       0.47615380       0.45037238 </v>
   <v>       0.39834332       0.50345835       0.52874003 </v>
   <v>       0.41422916       0.51231691       0.63869353 </v>
   <v>       0.46041205       0.36083348       0.51723785 </v>
   <v>       0.40221385       0.65519526       0.47634359 </v>
   <v>       0.38478809       0.45255375       0.37507563 </v>
   <v>       0.44542220       0.62926830       0.38045531 </v>
   <v>       0.39489089       0.60229622       0.58133062 </v>
   <v>       0.39910405       0.41197889       0.59023876 </v>
   <v>       0.32167223       0.58383393       0.50673956 </v>
   <v>       0.37790642       0.40493953       0.47288350 </v>
   <v>       0.38990350       0.55251006       0.42618847 </v>
   <v>       0.30615417       0.43445383       0.54621640 </v>
   <v>       0.31663431       0.52875893       0.60184869 </v>
   <v>       0.30943188       0.48517654       0.44946225 </v>
   <v>       0.23893682       0.51633923       0.52663695 </v>
  </varray>
 </structure>
 <calculation>
  <scstep>
   <time name="dav">    9.64    9.66</time>
   <time name="total">    9.98   10.00</time>
   <energy>
    <i name="alphaZ">    133.26721966 </i>
    <i name="ewald"> 179317.75800219 </i>
    <i name="hartreedc">-231049.01099386 </i>
    <i name="XCdc">   -565.34606191 </i>
    <i name="pawpsdc">  52175.35325962 </i>
    <i name="pawaedc"> -49777.75966170 </i>
    <i name="eentropy">     -0.00000000 </i>
    <i name="bandstr">    830.69677545 </i>
    <i name="atom">  53934.32876449 </i>
    <i name="e_fr_energy">   4999.28730393 </i>
    <i name="e_wo_entrp">   4999.28730393 </i>
    <i name="e_0_energy">   4999.28730393 </i>
   </energy>
  </scstep>
  <scstep>
   <time name="dav">   14.64   14.66</time>
   <time name="total">   14.64   14.67</time>
   <energy>
    <i name="e_fr_energy">    988.03064089 </i>
    <i name="e_wo_entrp">    988.03064089 </i>
    <i name="e_0_energy">    988.03064089 </i>
   </energy>
  </scstep>
  <scstep>
   <time name="dav">   11.55   11.56</time>
   <time name="total">   11.56   11.57</time>
   <energy>
    <i name="e_fr_energy">    -61.71180867 </i>
    <i name="e_wo_entrp">    -61.71180867 </i>
    <i name="e_0_energy">    -61.71180867 </i>
   </energy>
  </scstep>
  <scstep>
   <time name="dav">   10.22   10.24</time>
   <time name="total">   10.22   10.24</time>
   <energy>
    <i name="e_fr_energy">   -113.17174632 </i>
    <i name="e_wo_entrp">   -113.17174632 </i>
    <i name="e_0_energy">   -113.17174632 </i>
   </energy>
  </scstep>
  <scstep>
   <time name="dav">   10.53   10.54</time>
   <time name="total">   10.74   10.76</time>
   <energy>
    <i name="e_fr_energy">   -113.92288003 </i>
    <i name="e_wo_entrp">   -113.92288003 </i>
    <i name="e_0_energy">   -113.92288003 </i>
   </energy>
  </scstep>
  <scstep>
   <time name="dav">    9.73    9.74</time>
   <time name="total">   10.28   10.30</time>
   <energy>
    <i name="e_fr_energy">    -58.58948041 </i>
    <i name="e_wo_entrp">    -58.58948041 </i>
    <i name="e_0_energy">    -58.58948041 </i>
   </energy>
  </scstep>
  <scstep>
   <time name="dav">   10.01   10.02</time>
   <time name="total">   10.58   10.59</time>
   <energy>
    <i name="e_fr_energy">    -43.33515326 </i>
    <i name="e_wo_entrp">    -43.33515326 </i>
    <i name="e_0_energy">    -43.33515326 </i>
   </energy>
  </scstep>
  <scstep>
   <time name="dav">   10.14   10.15</time>
   <time name="total">   10.67   10.69</time>
   <energy>
    <i name="e_fr_energy">    -38.09989957 </i>
    <i name="e_wo_entrp">    -38.09989957 </i>
    <i name="e_0_energy">    -38.09989957 </i>
   </energy>
  </scstep>
  <scstep>
   <time name="dav">   10.46   10.47</time>
   <time name="total">   11.00   11.02</time>
   <energy>
    <i name="e_fr_energy">    -40.76429306 </i>
    <i name="e_wo_entrp">    -40.76429306 </i>
    <i name="e_0_energy">    -40.76429306 </i>
   </energy>
  </scstep>
  <scstep>
   <time name="dav">    9.96    9.97</time>
   <time name="total">   10.49   10.51</time>
   <energy>
    <i name="e_fr_energy">    -55.57071519 </i>
    <i name="e_wo_entrp">    -55.57071519 </i>
    <i name="e_0_energy">    -55.57071519 </i>
   </energy>
  </scstep>
  <scstep>
   <time name="dav">   10.10   10.11</time>
   <time name="total">   10.63   10.65</time>
   <energy>
    <i name="e_fr_energy">    -67.44062138 </i>
    <i name="e_wo_entrp">    -67.44062138 </i>
    <i name="e_0_energy">    -67.44062138 </i>
   </energy>
  </scstep>
  <scstep>
   <time name="dav">   10.01   10.03</time>
   <time name="total">   10.56   10.67</time>
   <energy>
    <i name="e_fr_energy">    -76.74273538 </i>
    <i name="e_wo_entrp">    -76.74273538 </i>
    <i name="e_0_energy">    -76.74273538 </i>
   </energy>
  </scstep>
  <scstep>
   <time name="dav">    9.91    9.92</time>
   <time name="total">   10.46   10.48</time>
   <energy>
    <i name="e_fr_energy">    -89.74588849 </i>
    <i name="e_wo_entrp">    -89.74588849 </i>
    <i name="e_0_energy">    -89.74588849 </i>
   </energy>
  </scstep>
  <scstep>
   <time name="dav">   10.31   10.32</time>
   <time name="total">   10.84   10.91</time>
   <energy>
    <i name="e_fr_energy">    -93.29707398 </i>
    <i name="e_wo_entrp">    -93.29707398 </i>
    <i name="e_0_energy">    -93.29707398 </i>
   </energy>
  </scstep>
  <scstep>
   <time name="dav">   10.01   10.02</time>
   <time name="total">   10.54   10.76</time>
   <energy>
    <i name="e_fr_energy">    -98.99770745 </i>
    <i name="e_wo_entrp">    -98.99770745 </i>
    <i name="e_0_energy">    -98.99770745 </i>
   </energy>
  </scstep>
  <scstep>
   <time name="dav">   10.27   10.28</time>
   <time name="total">   10.80   10.90</time>
   <energy>
    <i name="e_fr_energy">   -101.20018317 </i>
    <i name="e_wo_entrp">   -101.20018317 </i>
    <i name="e_0_energy">   -101.20018317 </i>
   </energy>
  </scstep>
  <scstep>
   <time name="dav">    9.72    9.72</time>
   <time name="total">   10.29   10.53</time>
   <energy>
    <i name="e_fr_energy">   -104.74041987 </i>
    <i name="e_wo_entrp">   -104.74041987 </i>
    <i name="e_0_energy">   -104.74041987 </i>
   </energy>
  </scstep>
  <scstep>
   <time name="dav">    9.85    9.86</time>
   <time name="total">   10.39   10.40</time>
   <energy>
    <i name="e_fr_energy">   -107.42639216 </i>
    <i name="e_wo_entrp">   -107.42639216 </i>
    <i name="e_0_energy">   -107.42639216 </i>
   </energy>
  </scstep>
  <scstep>
   <time name="dav">   10.26   10.28</time>
   <time name="total">   10.80   10.81</time>
   <energy>
    <i name="e_fr_energy">   -108.80808182 </i>
    <i name="e_wo_entrp">   -108.80808182 </i>
    <i name="e_0_energy">   -108.80808182 </i>
   </energy>
  </scstep>
  <scstep>
   <time name="dav">    9.91    9.92</time>
   <time name="total">   10.50   10.51</time>
   <energy>
    <i name="e_fr_energy">   -110.50894472 </i>
    <i name="e_wo_entrp">   -110.50894472 </i>
    <i name="e_0_energy">   -110.50894472 </i>
   </energy>
  </scstep>
  <scstep>
   <time name="dav">   10.21   10.23</time>
   <time name="total">   10.78   10.81</time>
   <energy>
    <i name="e_fr_energy">   -111.14501485 </i>
    <i name="e_wo_entrp">   -111.14501485 </i>
    <i name="e_0_energy">   -111.14501485 </i>
   </energy>
  </scstep>
  <scstep>
   <time name="dav">   10.20   10.21</time>
   <time name="total">   10.74   10.76</time>
   <energy>
    <i name="e_fr_energy">   -111.34188276 </i>
    <i name="e_wo_entrp">   -111.34188276 </i>
    <i name="e_0_energy">   -111.34188276 </i>
   </energy>
  </scstep>
  <scstep>
   <time name="dav">    9.74    9.76</time>
   <time name="total">   10.33   10.43</time>
   <energy>
    <i name="e_fr_energy">   -111.59057363 </i>
    <i name="e_wo_entrp">   -111.59057363 </i>
    <i name="e_0_energy">   -111.59057363 </i>
   </energy>
  </scstep>
  <scstep>
   <time name="dav">    7.84    7.85</time>
   <time name="total">    8.38    8.67</time>
   <energy>
    <i name="e_fr_energy">   -111.69243707 </i>
    <i name="e_wo_entrp">   -111.69243707 </i>
    <i name="e_0_energy">   -111.69243707 </i>
   </energy>
  </scstep>
  <scstep>
   <time name="dav">    7.58    7.59</time>
   <time name="total">    8.16    8.19</time>
   <energy>
    <i name="e_fr_energy">   -111.74378208 </i>
    <i name="e_wo_entrp">   -111.74378208 </i>
    <i name="e_0_energy">   -111.74378208 </i>
   </energy>
  </scstep>
  <scstep>
   <time name="dav">    7.38    7.39</time>
   <time name="total">    7.92    7.99</time>
   <energy>
    <i name="e_fr_energy">   -111.79556593 </i>
    <i name="e_wo_entrp">   -111.79556593 </i>
    <i name="e_0_energy">   -111.79556593 </i>
   </energy>
  </scstep>
  <scstep>
   <time name="dav">    7.60    7.61</time>
   <time name="total">    8.18    8.21</time>
   <energy>
    <i name="e_fr_energy">   -111.81301598 </i>
    <i name="e_wo_entrp">   -111.81301598 </i>
    <i name="e_0_energy">   -111.81301598 </i>
   </energy>
  </scstep>
  <scstep>
   <time name="dav">    7.52    7.53</time>
   <time name="total">    8.08    8.26</time>
   <energy>
    <i name="e_fr_energy">   -111.82603922 </i>
    <i name="e_wo_entrp">   -111.82603922 </i>
    <i name="e_0_energy">   -111.82603922 </i>
   </energy>
  </scstep>
  <scstep>
   <time name="dav">    7.59    7.60</time>
   <time name="total">    8.16    8.18</time>
   <energy>
    <i name="e_fr_energy">   -111.83225700 </i>
    <i name="e_wo_entrp">   -111.83225700 </i>
    <i name="e_0_energy">   -111.83225700 </i>
   </energy>
  </scstep>
  <scstep>
   <time name="dav">    7.12    7.13</time>
   <time name="total">    7.66    7.67</time>
   <energy>
    <i name="e_fr_energy">   -111.83564402 </i>
    <i name="e_wo_entrp">   -111.83564402 </i>
    <i name="e_0_energy">   -111.83564402 </i>
   </energy>
  </scstep>
  <scstep>
   <time name="dav">    7.07    7.08</time>
   <time name="total">    7.62    8.19</time>
   <energy>
    <i name="e_fr_energy">   -111.83790564 </i>
    <i name="e_wo_entrp">   -111.83790564 </i>
    <i name="e_0_energy">   -111.83790564 </i>
   </energy>
  </scstep>
  <scstep>
   <time name="dav">    7.17    7.18</time>
   <time name="total">    7.81    9.58</time>
   <energy>
    <i name="e_fr_energy">   -111.83861719 </i>
    <i name="e_wo_entrp">   -111.83861719 </i>
    <i name="e_0_energy">   -111.83861719 </i>
   </energy>
  </scstep>
  <scstep>
   <time name="dav">    7.00    7.02</time>
   <time name="total">    7.55    7.57</time>
   <energy>
    <i name="e_fr_energy">   -111.83890230 </i>
    <i name="e_wo_entrp">   -111.83890230 </i>
    <i name="e_0_energy">   -111.83890230 </i>
   </energy>
  </scstep>
  <scstep>
   <time name="dav">    7.18    7.19</time>
   <time name="total">    7.72    7.79</time>
   <energy>
    <i name="e_fr_energy">   -111.83902660 </i>
    <i name="e_wo_entrp">   -111.83902660 </i>
    <i name="e_0_energy">   -111.83902660 </i>
   </energy>
  </scstep>
  <scstep>
   <time name="dav">    7.38    7.40</time>
   <time name="total">    7.70    7.72</time>
   <energy>
    <i name="alphaZ">    133.26721966 </i>
    <i name="ewald"> 179317.75800219 </i>
    <i name="hartreedc">-230948.60281001 </i>
    <i name="XCdc">   -586.51291758 </i>
    <i name="pawpsdc">  56494.64635829 </i>
    <i name="pawaedc"> -54197.77018381 </i>
    <i name="eentropy">      0.00000000 </i>
    <i name="bandstr">  -4258.95354898 </i>
    <i name="atom">  53934.32876449 </i>
    <i name="e_fr_energy">   -111.83911574 </i>
    <i name="e_wo_entrp">   -111.83911574 </i>
    <i name="e_0_energy">   -111.83911574 </i>
   </energy>
  </scstep>
  <structure>
   <crystal>
    <varray name="basis" >
     <v>      25.84238012       0.00000000       0.00000000 </v>
     <v>       0.00000000      25.84238012       0.00000000 </v>
     <v>       0.00000000       0.00000000      25.84238012 </v>
    </varray>
    <i name="volume">  17258.28080240 </i>
    <varray name="rec_basis" >
     <v>       0.03869613       0.00000000       0.00000000 </v>
     <v>       0.00000000       0.03869613       0.00000000 </v>
     <v>       0.00000000       0.00000000       0.03869613 </v>
    </varray>
   </crystal>
   <varray name="positions" >
    <v>       0.74901342       0.43625871       0.62493638 </v>
    <v>       0.70345212       0.50394721       0.55510187 </v>
    <v>       0.70616517       0.39721613       0.53495268 </v>
    <v>       0.67098580       0.49935626       0.65955898 </v>
    <v>       0.66454043       0.57037148       0.48543323 </v>
    <v>       0.65225431       0.45013206       0.45383459 </v>
    <v>       0.64826384       0.39149121       0.63488549 </v>
    <v>       0.63607234       0.53147810       0.38926060 </v>
    <v>       0.62467613       0.33554978       0.54239343 </v>
    <v>       0.61197760       0.55218743       0.58500701 </v>
    <v>       0.62356636       0.64334574       0.42086238 </v>
    <v>       0.61437398       0.60996400       0.31449465 </v>
    <v>       0.55423224       0.39240868       0.47718827 </v>
    <v>       0.60724707       0.44759887       0.55211632 </v>
    <v>       0.59713429       0.56467205       0.69404786 </v>
    <v>       0.54083340       0.36884405       0.60572642 </v>
    <v>       0.55312376       0.45380917       0.38922540 </v>
    <v>       0.56676861       0.51808658       0.48145302 </v>
    <v>       0.57611408       0.62595784       0.51969547 </v>
    <v>       0.49751147       0.52688555       0.70585004 </v>
    <v>       0.56212164       0.51551963       0.30575211 </v>
    <v>       0.54520497       0.68494020       0.35226194 </v>
    <v>       0.56706716       0.46655013       0.64894862 </v>
    <v>       0.53914675       0.57842710       0.39533148 </v>
    <v>       0.55977780       0.64049729       0.62790428 </v>
    <v>       0.53468923       0.29031807       0.52827486 </v>
    <v>       0.47642979       0.57518385       0.48665049 </v>
    <v>       0.50312123       0.60407604       0.29098949 </v>
    <v>       0.50393751       0.55481495       0.59197483 </v>
    <v>       0.45850244       0.61917848       0.66616187 </v>
    <v>       0.49723999       0.45756235       0.55729828 </v>
    <v>       0.47136222       0.42560700       0.66703908 </v>
    <v>       0.48133720       0.66233724       0.55661819 </v>
    <v>       0.45920339       0.51872088       0.34462329 </v>
    <v>       0.46409466       0.37945229       0.40686440 </v>
    <v>       0.51111552       0.67681194       0.45115763 </v>
    <v>       0.46711953       0.47615380       0.45037238 </v>
    <v>       0.39834332       0.50345835       0.52874003 </v>
    <v>       0.41422916       0.51231691       0.63869353 </v>
    <v>       0.46041205       0.36083348       0.51723785 </v>
    <v>       0.40221385       0.65519526       0.47634359 </v>
    <v>       0.38478809       0.45255375       0.37507563 </v>
    <v>       0.44542220       0.62926830       0.38045531 </v>
    <v>       0.39489089       0.60229622       0.58133062 </v>
    <v>       0.39910405       0.41197889       0.59023876 </v>
    <v>       0.32167223       0.58383393       0.50673956 </v>
    <v>       0.37790642       0.40493953       0.47288350 </v>
    <v>       0.38990350       0.55251006       0.42618847 </v>
    <v>       0.30615417       0.43445383       0.54621640 </v>
    <v>       0.31663431       0.52875893       0.60184869 </v>
    <v>       0.30943188       0.48517654       0.44946225 </v>
    <v>       0.23893682       0.51633923       0.52663695 </v>
   </varray>
  </structure>
  <varray name="forces" >
   <v>      -0.03836541      -0.06367037       0.15487598 </v>
   <v>       0.25756428      -0.24672841      -0.11938866 </v>
   <v>       0.29584949       0.27019461      -0.11752214 </v>
   <v>       0.18039483      -0.28429032       0.08802273 </v>
   <v>       0.00671925      -0.05907225       0.09453901 </v>
   <v>      -0.04321341      -0.11503075       0.20662830 </v>
   <v>       0.16655859      -0.02550311       0.03069202 </v>
   <v>       0.12089197       0.14488784      -0.36875027 </v>
   <v>       0.04258971       0.03745837       0.00763069 </v>
   <v>       0.11429478       0.10076668       0.07241205 </v>
   <v>      -0.28589993      -0.02720207      -0.15371020 </v>
   <v>       0.09015809       0.05733440       0.17829855 </v>
   <v>      -0.00875846      -0.15379580      -0.17844993 </v>
   <v>       0.31380057      -0.12550293      -0.01240224 </v>
   <v>      -0.17237853      -0.01211097       0.03173913 </v>
   <v>      -0.04228057      -0.14275366      -0.18587263 </v>
   <v>       0.11858995      -0.07027282       0.17794918 </v>
   <v>       0.08370668      -0.21858410       0.20490954 </v>
   <v>       0.11170263       0.09817227      -0.23568578 </v>
   <v>      -0.00471782      -0.12136966       0.03870391 </v>
   <v>       0.01550515       0.03691262      -0.27645272 </v>
   <v>      -0.03180626      -0.13920305      -0.16194916 </v>
   <v>       0.05783671       0.25002923       0.28585825 </v>
   <v>      -0.03814205       0.02943740      -0.19036500 </v>
   <v>       0.02251155       0.10352326       0.06151789 </v>
   <v>      -0.15939229      -0.29734099      -0.05739300 </v>
   <v>      -0.06006845       0.40266733       0.24173383 </v>
   <v>      -0.07664002       0.01033701      -0.01009910 </v>
   <v>       0.09260420       0.39714424       0.05656761 </v>
   <v>       0.06676946       0.11235060      -0.05610724 </v>
   <v>      -0.11405523      -0.07352218      -0.09180716 </v>
   <v>      -0.02431385      -0.09733562       0.23149971 </v>
   <v>      -0.15408162       0.08034159       0.17965854 </v>
   <v>       0.25330655       0.24260908      -0.00168593 </v>
   <v>       0.06090247       0.03883919       0.06574303 </v>
   <v>      -0.02312967       0.10753524       0.25681535 </v>
   <v>       0.08855897      -0.28654169      -0.18420197 </v>
   <v>      -0.16908542      -0.00584136       0.07431430 </v>
   <v>       0.07524356      -0.08716077       0.26934122 </v>
   <v>      -0.06085176      -0.00082543       0.15517750 </v>
   <v>      -0.07899999      -0.26743589       0.09354151 </v>
   <v>      -0.15347038      -0.10629020       0.23206141 </v>
   <v>      -0.15092346       0.22590000      -0.37097194 </v>
   <v>       0.09930819       0.17386312      -0.18830212 </v>
   <v>       0.08065490      -0.02979252      -0.05807302 </v>
   <v>      -0.10768888      -0.03953139      -0.27700796 </v>
   <v>       0.02141626       0.01520464      -0.12193255 </v>
   <v>      -0.37886439      -0.00506073      -0.19276507 </v>
   <v>      -0.22963096       0.15912686       0.11424381 </v>
   <v>      -0.22764736      -0.11404596      -0.20048540 </v>
   <v>      -0.02821668       0.12796000       0.01112506 </v>
   <v>       0.02518406      -0.00678059       0.19578107 </v>
  </varray>
  <varray name="stress" >
   <v>      -0.71661345      -0.27324153       0.12769880 </v>
   <v>      -0.27324154      -1.13132159      -0.18450112 </v>
   <v>       0.12769880      -0.18450112      -1.12070036 </v>
  </varray>
  <energy>
   <i name="e_fr_energy">   -111.83911574 </i>
   <i name="e_wo_entrp">   -111.83911574 </i>
   <i name="e_0_energy">      0.00000000 </i>
  </energy>
  <time name="totalsc">  361.45  365.69</time>
 </calculation>
 <calculation>
  <scstep>
   <time name="dav">    9.88    9.89</time>
   <time name="total">   10.45   10.47</time>
   <energy>
    <i name="alphaZ">    133.26721966 </i>
    <i name="ewald"> 179252.31791987 </i>
    <i name="hartreedc">-230883.47040200 </i>
    <i name="XCdc">   -586.55563396 </i>
    <i name="pawpsdc">  56494.63581081 </i>
    <i name="pawaedc"> -54197.75938827 </i>
    <i name="eentropy">      0.00000000 </i>
    <i name="bandstr">  -4258.63901213 </i>
    <i name="atom">  53934.32876449 </i>
    <i name="e_fr_energy">   -111.87472154 </i>
    <i name="e_wo_entrp">   -111.87472154 </i>
    <i name="e_0_energy">   -111.87472154 </i>
   </energy>
  </scstep>
  <scstep>
   <time name="dav">   10.02   10.03</time>
   <time name="total">   10.56   10.96</time>
   <energy>
    <i name="e_fr_energy">   -111.87589405 </i>
    <i name="e_wo_entrp">   -111.87589405 </i>
    <i name="e_0_energy">   -111.87589405 </i>
   </energy>
  </scstep>
  <scstep>
   <time name="dav">    7.30    7.30</time>
   <time name="total">    7.61    7.62</time>
   <energy>
    <i name="alphaZ">    133.26721966 </i>
    <i name="ewald"> 179252.31791987 </i>
    <i name="hartreedc">-230883.78805869 </i>
    <i name="XCdc">   -586.55095118 </i>
    <i name="pawpsdc">  56491.26597707 </i>
    <i name="pawaedc"> -54194.33167600 </i>
    <i name="eentropy">      0.00000000 </i>
    <i name="bandstr">  -4258.38507093 </i>
    <i name="atom">  53934.32876449 </i>
    <i name="e_fr_energy">   -111.87587572 </i>
    <i name="e_wo_entrp">   -111.87587572 </i>
    <i name="e_0_energy">   -111.87587572 </i>
   </energy>
  </scstep>
  <structure>
   <crystal>
    <varray name="basis" >
     <v>      25.84238012       0.00000000       0.00000000 </v>
     <v>       0.00000000      25.84238012       0.00000000 </v>
     <v>       0.00000000       0.00000000      25.84238012 </v>
    </varray>
    <i name="volume">  17258.28080240 </i>
    <varray name="rec_basis" >
     <v>       0.03869613       0.00000000       0.00000000 </v>
     <v>       0.00000000       0.03869613       0.00000000 </v>
     <v>       0.00000000       0.00000000       0.03869613 </v>
    </varray>
   </crystal>
   <varray name="positions" >
    <v>       0.74899910       0.43623493       0.62499420 </v>
    <v>       0.70354829       0.50385509       0.55505730 </v>
    <v>       0.70627563       0.39731701       0.53490880 </v>
    <v>       0.67105315       0.49925012       0.65959184 </v>
    <v>       0.66454294       0.57034942       0.48546853 </v>
    <v>       0.65223817       0.45008912       0.45391174 </v>
    <v>       0.64832603       0.39148169       0.63489695 </v>
    <v>       0.63611748       0.53153219       0.38912292 </v>
    <v>       0.62469203       0.33556377       0.54239628 </v>
    <v>       0.61202027       0.55222506       0.58503404 </v>
    <v>       0.62345962       0.64333559       0.42080499 </v>
    <v>       0.61440764       0.60998541       0.31456122 </v>
    <v>       0.55422897       0.39235126       0.47712164 </v>
    <v>       0.60736423       0.44755201       0.55211169 </v>
    <v>       0.59706993       0.56466752       0.69405971 </v>
    <v>       0.54081761       0.36879076       0.60565703 </v>
    <v>       0.55316804       0.45378293       0.38929184 </v>
    <v>       0.56679986       0.51800497       0.48152953 </v>
    <v>       0.57615579       0.62599449       0.51960748 </v>
    <v>       0.49750971       0.52684023       0.70586449 </v>
    <v>       0.56212743       0.51553341       0.30564889 </v>
    <v>       0.54519310       0.68488823       0.35220148 </v>
    <v>       0.56708876       0.46664348       0.64905535 </v>
    <v>       0.53913251       0.57843809       0.39526040 </v>
    <v>       0.55978621       0.64053594       0.62792725 </v>
    <v>       0.53462972       0.29020706       0.52825343 </v>
    <v>       0.47640737       0.57533419       0.48674074 </v>
    <v>       0.50309262       0.60407990       0.29098571 </v>
    <v>       0.50397208       0.55496323       0.59199595 </v>
    <v>       0.45852737       0.61922043       0.66614092 </v>
    <v>       0.49719741       0.45753490       0.55726401 </v>
    <v>       0.47135314       0.42557066       0.66712552 </v>
    <v>       0.48127967       0.66236724       0.55668527 </v>
    <v>       0.45929797       0.51881146       0.34462266 </v>
    <v>       0.46411740       0.37946679       0.40688895 </v>
    <v>       0.51110689       0.67685209       0.45125351 </v>
    <v>       0.46715260       0.47604681       0.45030361 </v>
    <v>       0.39828019       0.50345617       0.52876777 </v>
    <v>       0.41425725       0.51228437       0.63879409 </v>
    <v>       0.46038933       0.36083317       0.51729579 </v>
    <v>       0.40218435       0.65509541       0.47637851 </v>
    <v>       0.38473079       0.45251407       0.37516227 </v>
    <v>       0.44536585       0.62935264       0.38031680 </v>
    <v>       0.39492797       0.60236114       0.58126031 </v>
    <v>       0.39913416       0.41196777       0.59021708 </v>
    <v>       0.32163203       0.58381917       0.50663614 </v>
    <v>       0.37791441       0.40494521       0.47283797 </v>
    <v>       0.38976205       0.55250817       0.42611650 </v>
    <v>       0.30606844       0.43451324       0.54625906 </v>
    <v>       0.31654932       0.52871635       0.60177384 </v>
    <v>       0.30942134       0.48522432       0.44946640 </v>
    <v>       0.23894622       0.51633670       0.52671005 </v>
   </varray>
  </structure>
  <varray name="forces" >
   <v>      -0.02686968      -0.06727932       0.15745749 </v>
   <v>       0.24466281      -0.22705543      -0.11427315 </v>
   <v>       0.28217612       0.24340654      -0.11732260 </v>
   <v>       0.16047321      -0.25986394       0.08655772 </v>
   <v>       0.00277040      -0.05759605       0.08245209 </v>
   <v>      -0.04186438      -0.09856611       0.18199127 </v>
   <v>       0.15401333      -0.02734643       0.02875915 </v>
   <v>       0.11846373       0.12611474      -0.33826640 </v>
   <v>       0.03971754       0.03805617       0.00416089 </v>
   <v>       0.11661045       0.09258709       0.06846007 </v>
   <v>      -0.27147475      -0.02857786      -0.13981244 </v>
   <v>       0.09018953       0.05500359       0.16348000 </v>
   <v>      -0.00685022      -0.15325475      -0.16014886 </v>
   <v>       0.28548308      -0.12141919       0.00586418 </v>
   <v>      -0.15535291      -0.01558059       0.02850548 </v>
   <v>      -0.03956464      -0.12487555      -0.17846460 </v>
   <v>       0.12393136      -0.05483911       0.15512898 </v>
   <v>       0.06659398      -0.19643304       0.18933733 </v>
   <v>       0.10591935       0.09143991      -0.21525881 </v>
   <v>      -0.00962926      -0.11155827       0.04264605 </v>
   <v>       0.01665331       0.02961034      -0.26115743 </v>
   <v>      -0.03808566      -0.13186423      -0.14673038 </v>
   <v>       0.05606817       0.22326239       0.25535973 </v>
   <v>      -0.04154339       0.02115200      -0.16908528 </v>
   <v>       0.02735847       0.10508688       0.05614719 </v>
   <v>      -0.14668118      -0.27898201      -0.05459493 </v>
   <v>      -0.05625488       0.35372829       0.21101157 </v>
   <v>      -0.07244410       0.01108456      -0.01908757 </v>
   <v>       0.08709296       0.36335266       0.04857966 </v>
   <v>       0.06186364       0.10706420      -0.04997523 </v>
   <v>      -0.10006702      -0.05206796      -0.07738001 </v>
   <v>      -0.01695945      -0.09853241       0.21590429 </v>
   <v>      -0.13738504       0.08560758       0.17436242 </v>
   <v>       0.22554105       0.21937099       0.00878677 </v>
   <v>       0.05868172       0.02598118       0.05862902 </v>
   <v>      -0.02779765       0.10351898       0.22803749 </v>
   <v>       0.07635523      -0.23810442      -0.15950555 </v>
   <v>      -0.15369999      -0.00431251       0.06466586 </v>
   <v>       0.06105092      -0.07401287       0.24382255 </v>
   <v>      -0.05363459      -0.00675364       0.14649748 </v>
   <v>      -0.07716190      -0.25763283       0.08125368 </v>
   <v>      -0.13697350      -0.09015993       0.21730942 </v>
   <v>      -0.14938495       0.21613561      -0.33903384 </v>
   <v>       0.08479406       0.14996464      -0.17737429 </v>
   <v>       0.07150462      -0.02534153      -0.05378696 </v>
   <v>      -0.10382634      -0.03591437      -0.26102663 </v>
   <v>       0.01391383       0.01584326      -0.10429206 </v>
   <v>      -0.33783134       0.00294426      -0.19023473 </v>
   <v>      -0.21000422       0.14221029       0.10636554 </v>
   <v>      -0.19921846      -0.09988847      -0.18388884 </v>
   <v>      -0.03411439       0.11866840       0.01430710 </v>
   <v>       0.01279101      -0.00338176       0.18486013 </v>
  </varray>
  <varray name="stress" >
   <v>      -0.74698392      -0.27387506       0.12656669 </v>
   <v>      -0.27387506      -1.15116116      -0.18023963 </v>
   <v>       0.12656669      -0.18023963      -1.14262989 </v>
  </varray>
  <energy>
   <i name="e_fr_energy">   -111.87587572 </i>
   <i name="e_wo_entrp">   -111.87587572 </i>
   <i name="e_0_energy">      0.00000000 </i>
  </energy>
  <time name="totalsc">   47.23   47.98</time>
 </calculation>
 <calculation>
  <scstep>
   <time name="dav">    9.61    9.62</time>
   <time name="total">   10.17   10.20</time>
   <energy>
    <i name="alphaZ">    133.26721966 </i>
    <i name="ewald"> 179056.54822149 </i>
    <i name="hartreedc">-230688.84146679 </i>
    <i name="XCdc">   -586.67132130 </i>
    <i name="pawpsdc">  56488.38771284 </i>
    <i name="pawaedc"> -54191.41506539 </i>
    <i name="eentropy">      0.00000000 </i>
    <i name="bandstr">  -4257.56522335 </i>
    <i name="atom">  53934.32876449 </i>
    <i name="e_fr_energy">   -111.96115835 </i>
    <i name="e_wo_entrp">   -111.96115835 </i>
    <i name="e_0_energy">   -111.96115835 </i>
   </energy>
  </scstep>
  <scstep>
   <time name="dav">   10.10   10.12</time>
   <time name="total">   10.63   14.83</time>
   <energy>
    <i name="e_fr_energy">   -111.97168993 </i>
    <i name="e_wo_entrp">   -111.97168993 </i>
    <i name="e_0_energy">   -111.97168993 </i>
   </energy>
  </scstep>
  <scstep>
   <time name="dav">   10.19   10.20</time>
   <time name="total">   10.78   10.79</time>
   <energy>
    <i name="e_fr_energy">   -111.97150062 </i>
    <i name="e_wo_entrp">   -111.97150062 </i>
    <i name="e_0_energy">   -111.97150062 </i>
   </energy>
  </scstep>
  <scstep>
   <time name="dav">   10.20   10.21</time>
   <time name="total">   10.75   10.80</time>
   <energy>
    <i name="e_fr_energy">   -111.97128632 </i>
    <i name="e_wo_entrp">   -111.97128632 </i>
    <i name="e_0_energy">   -111.97128632 </i>
   </energy>
  </scstep>
  <scstep>
   <time name="dav">    7.18    7.19</time>
   <time name="total">    7.50    7.53</time>
   <energy>
    <i name="alphaZ">    133.26721966 </i>
    <i name="ewald"> 179056.54822149 </i>
    <i name="hartreedc">-230689.97413717 </i>
    <i name="XCdc">   -586.65211964 </i>
    <i name="pawpsdc">  56469.47579394 </i>
    <i name="pawaedc"> -54172.21129956 </i>
    <i name="eentropy">      0.00000000 </i>
    <i name="bandstr">  -4256.75373134 </i>
    <i name="atom">  53934.32876449 </i>
    <i name="e_fr_energy">   -111.97128813 </i>
    <i name="e_wo_entrp">   -111.97128813 </i>
    <i name="e_0_energy">   -111.97128813 </i>
   </energy>
  </scstep>
  <structure>
   <crystal>
    <varray name="basis" >
     <v>      25.84238012       0.00000000       0.00000000 </v>
     <v>       0.00000000      25.84238012       0.00000000 </v>
     <v>       0.00000000       0.00000000      25.84238012 </v>
    </varray>
    <i name="volume">  17258.28080240 </i>
    <varray name="rec_basis" >
     <v>       0.03869613       0.00000000       0.00000000 </v>
     <v>       0.00000000       0.03869613       0.00000000 </v>
     <v>       0.00000000       0.00000000       0.03869613 </v>
    </varray>
   </crystal>
   <varray name="positions" >
    <v>       0.74895613       0.43616362       0.62516768 </v>
    <v>       0.70383678       0.50357874       0.55492357 </v>
    <v>       0.70660701       0.39761965       0.53477717 </v>
    <v>       0.67125521       0.49893169       0.65969043 </v>
    <v>       0.66455046       0.57028326       0.48557442 </v>
    <v>       0.65218977       0.44996027       0.45414318 </v>
    <v>       0.64851259       0.39145312       0.63493133 </v>
    <v>       0.63625288       0.53169448       0.38870989 </v>
    <v>       0.62473974       0.33560572       0.54240483 </v>
    <v>       0.61214829       0.55233792       0.58511515 </v>
    <v>       0.62313939       0.64330512       0.42063282 </v>
    <v>       0.61450863       0.61004962       0.31476093 </v>
    <v>       0.55421916       0.39217900       0.47692176 </v>
    <v>       0.60771571       0.44741144       0.55209780 </v>
    <v>       0.59687685       0.56465396       0.69409526 </v>
    <v>       0.54077025       0.36863086       0.60544883 </v>
    <v>       0.55330087       0.45370422       0.38949116 </v>
    <v>       0.56689362       0.51776014       0.48175904 </v>
    <v>       0.57628090       0.62610446       0.51934349 </v>
    <v>       0.49750442       0.52670429       0.70590785 </v>
    <v>       0.56214480       0.51557476       0.30533924 </v>
    <v>       0.54515747       0.68473231       0.35202008 </v>
    <v>       0.56715354       0.46692354       0.64937554 </v>
    <v>       0.53908978       0.57847106       0.39504718 </v>
    <v>       0.55981142       0.64065189       0.62799615 </v>
    <v>       0.53445118       0.28987401       0.52818914 </v>
    <v>       0.47634008       0.57578521       0.48701150 </v>
    <v>       0.50300677       0.60409148       0.29097440 </v>
    <v>       0.50407581       0.55540807       0.59205931 </v>
    <v>       0.45860215       0.61934627       0.66607808 </v>
    <v>       0.49706966       0.45745255       0.55716118 </v>
    <v>       0.47132591       0.42546164       0.66738481 </v>
    <v>       0.48110709       0.66245723       0.55688650 </v>
    <v>       0.45958169       0.51908320       0.34462077 </v>
    <v>       0.46418561       0.37951030       0.40696258 </v>
    <v>       0.51108098       0.67697254       0.45154117 </v>
    <v>       0.46725179       0.47572586       0.45009728 </v>
    <v>       0.39809080       0.50344963       0.52885101 </v>
    <v>       0.41434153       0.51218674       0.63909578 </v>
    <v>       0.46032117       0.36083224       0.51746960 </v>
    <v>       0.40209586       0.65479586       0.47648329 </v>
    <v>       0.38455889       0.45239502       0.37542220 </v>
    <v>       0.44519680       0.62960567       0.37990128 </v>
    <v>       0.39503920       0.60255588       0.58104940 </v>
    <v>       0.39922450       0.41193440       0.59015203 </v>
    <v>       0.32151141       0.58377490       0.50632586 </v>
    <v>       0.37793840       0.40496224       0.47270140 </v>
    <v>       0.38933769       0.55250250       0.42590059 </v>
    <v>       0.30581123       0.43469148       0.54638702 </v>
    <v>       0.31629433       0.52858861       0.60154928 </v>
    <v>       0.30938974       0.48536764       0.44947886 </v>
    <v>       0.23897443       0.51632910       0.52692934 </v>
   </varray>
  </structure>
  <varray name="forces" >
   <v>       0.00383551      -0.08189813       0.17831193 </v>
   <v>       0.22616082      -0.18654481      -0.11492882 </v>
   <v>       0.26190286       0.18511770      -0.12401430 </v>
   <v>       0.11564178      -0.20903409       0.08847646 </v>
   <v>      -0.00725758      -0.05723877       0.05628227 </v>
   <v>      -0.03985249      -0.06132749       0.12791658 </v>
   <v>       0.13093595      -0.03394547       0.02678339 </v>
   <v>       0.11960076       0.08369918      -0.27717758 </v>
   <v>       0.03461821       0.04306952      -0.00419439 </v>
   <v>       0.12863395       0.07676849       0.06211282 </v>
   <v>      -0.24996217      -0.03321820      -0.11004720 </v>
   <v>       0.09703672       0.05174269       0.13474093 </v>
   <v>      -0.00181509      -0.16224161      -0.12116213 </v>
   <v>       0.22705331      -0.11818117       0.05662311 </v>
   <v>      -0.12011943      -0.02545930       0.02227069 </v>
   <v>      -0.03606133      -0.08613072      -0.17266117 </v>
   <v>       0.14857887      -0.01717259       0.10368473 </v>
   <v>       0.02348861      -0.14882568       0.15884032 </v>
   <v>       0.09779365       0.07877719      -0.17276474 </v>
   <v>      -0.02381290      -0.09225790       0.05678477 </v>
   <v>       0.02153416       0.01377134      -0.23784169 </v>
   <v>      -0.05873260      -0.12112060      -0.11518941 </v>
   <v>       0.05612201       0.16606984       0.19014683 </v>
   <v>      -0.05318011       0.00070971      -0.12792222 </v>
   <v>       0.04202305       0.11588390       0.04624552 </v>
   <v>      -0.12386177      -0.24589028      -0.05017316 </v>
   <v>      -0.04734630       0.24446318       0.14378208 </v>
   <v>      -0.06667249       0.01387816      -0.04448438 </v>
   <v>       0.07829808       0.29956432       0.03001013 </v>
   <v>       0.05270390       0.10044349      -0.03661015 </v>
   <v>      -0.07074123       0.00130737      -0.04539097 </v>
   <v>       0.00138024      -0.10827265       0.18664022 </v>
   <v>      -0.10061934       0.10617680       0.17187454 </v>
   <v>       0.16413432       0.17130634       0.03744797 </v>
   <v>       0.05732849      -0.00926407       0.04244532 </v>
   <v>      -0.04151711       0.09899851       0.16456565 </v>
   <v>       0.04843280      -0.12555720      -0.10131866 </v>
   <v>      -0.12277853      -0.00095504       0.04381679 </v>
   <v>       0.02742743      -0.04399660       0.19060577 </v>
   <v>      -0.03629285      -0.02382404       0.13293828 </v>
   <v>      -0.07796055      -0.26186847       0.05344670 </v>
   <v>      -0.10529363      -0.05236198       0.19099515 </v>
   <v>      -0.15584886       0.20088906      -0.27191513 </v>
   <v>       0.05867075       0.09826400      -0.16067896 </v>
   <v>       0.05167687      -0.01588298      -0.04460220 </v>
   <v>      -0.09966396      -0.02849896      -0.23659609 </v>
   <v>      -0.00442453       0.02519552      -0.06247292 </v>
   <v>      -0.24743164       0.02575765      -0.19912450 </v>
   <v>      -0.17245436       0.10737772       0.09294405 </v>
   <v>      -0.13766084      -0.06751767      -0.14931856 </v>
   <v>      -0.05202803       0.10313447       0.02357668 </v>
   <v>      -0.02162336       0.00612029       0.16627964 </v>
  </varray>
  <varray name="stress" >
   <v>      -0.81586295      -0.27483369       0.12213180 </v>
   <v>      -0.27483369      -1.19255216      -0.16887679 </v>
   <v>       0.12213181      -0.16887679      -1.19027389 </v>
  </varray>
  <energy>
   <i name="e_fr_energy">   -111.97128813 </i>
   <i name="e_wo_entrp">   -111.97128813 </i>
   <i name="e_0_energy">      0.00000000 </i>
  </energy>
  <time name="totalsc">   68.55   74.77</time>
 </calculation>
 <calculation>
  <scstep>
   <time name="dav">    9.68    9.70</time>
   <time name="total">   10.22   10.24</time>
   <energy>
    <i name="alphaZ">    133.26721966 </i>
    <i name="ewald"> 178667.47090648 </i>
    <i name="hartreedc">-230302.11005646 </i>
    <i name="XCdc">   -586.86464019 </i>
    <i name="pawpsdc">  56469.48016330 </i>
    <i name="pawaedc"> -54172.21675261 </i>
    <i name="eentropy">      0.00000000 </i>
    <i name="bandstr">  -4255.41316670 </i>
    <i name="atom">  53934.32876449 </i>
    <i name="e_fr_energy">   -112.05756203 </i>
    <i name="e_wo_entrp">   -112.05756203 </i>
    <i name="e_0_energy">   -112.05756203 </i>
   </energy>
  </scstep>
  <scstep>
   <time name="dav">    9.77    9.78</time>
   <time name="total">   10.31   10.32</time>
   <energy>
    <i name="e_fr_energy">   -112.09955007 </i>
    <i name="e_wo_entrp">   -112.09955007 </i>
    <i name="e_0_energy">   -112.09955007 </i>
   </energy>
  </scstep>
  <scstep>
   <time name="dav">   10.11   10.12</time>
   <time name="total">   10.63   10.65</time>
   <energy>
    <i name="e_fr_energy">   -112.09892341 </i>
    <i name="e_wo_entrp">   -112.09892341 </i>
    <i name="e_0_energy">   -112.09892341 </i>
   </energy>
  </scstep>
  <scstep>
   <time name="dav">   10.08   10.10</time>
   <time name="total">   10.63   10.66</time>
   <energy>
    <i name="e_fr_energy">   -112.09807383 </i>
    <i name="e_wo_entrp">   -112.09807383 </i>
    <i name="e_0_energy">   -112.09807383 </i>
   </energy>
  </scstep>
  <scstep>
   <time name="dav">    7.15    7.16</time>
   <time name="total">    7.46    7.47</time>
   <energy>
    <i name="alphaZ">    133.26721966 </i>
    <i name="ewald"> 178667.47090648 </i>
    <i name="hartreedc">-230304.23125416 </i>
    <i name="XCdc">   -586.82939800 </i>
    <i name="pawpsdc">  56440.41199343 </i>
    <i name="pawaedc"> -54142.66795737 </i>
    <i name="eentropy">      0.00000000 </i>
    <i name="bandstr">  -4253.84837823 </i>
    <i name="atom">  53934.32876449 </i>
    <i name="e_fr_energy">   -112.09810370 </i>
    <i name="e_wo_entrp">   -112.09810370 </i>
    <i name="e_0_energy">   -112.09810370 </i>
   </energy>
  </scstep>
  <structure>
   <crystal>
    <varray name="basis" >
     <v>      25.84238012       0.00000000       0.00000000 </v>
     <v>       0.00000000      25.84238012       0.00000000 </v>
     <v>       0.00000000       0.00000000      25.84238012 </v>
    </varray>
    <i name="volume">  17258.28080240 </i>
    <varray name="rec_basis" >
     <v>       0.03869613       0.00000000       0.00000000 </v>
     <v>       0.00000000       0.03869613       0.00000000 </v>
     <v>       0.00000000       0.00000000       0.03869613 </v>
    </varray>
   </crystal>
   <varray name="positions" >
    <v>       0.74887018       0.43602098       0.62551463 </v>
    <v>       0.70441376       0.50302603       0.55465612 </v>
    <v>       0.70726976       0.39822493       0.53451390 </v>
    <v>       0.67165933       0.49829484       0.65988762 </v>
    <v>       0.66456551       0.57015093       0.48578620 </v>
    <v>       0.65209296       0.44970258       0.45460606 </v>
    <v>       0.64888571       0.39139599       0.63500009 </v>
    <v>       0.63652370       0.53201905       0.38788383 </v>
    <v>       0.62483514       0.33568964       0.54242192 </v>
    <v>       0.61240433       0.55256366       0.58527736 </v>
    <v>       0.62249892       0.64324418       0.42028848 </v>
    <v>       0.61471059       0.61017806       0.31516035 </v>
    <v>       0.55419954       0.39183447       0.47652201 </v>
    <v>       0.60841867       0.44713029       0.55207002 </v>
    <v>       0.59649070       0.56462683       0.69416636 </v>
    <v>       0.54067554       0.36831107       0.60503245 </v>
    <v>       0.55356653       0.45354680       0.38988979 </v>
    <v>       0.56708114       0.51727047       0.48221808 </v>
    <v>       0.57653113       0.62632438       0.51881552 </v>
    <v>       0.49749385       0.52643240       0.70599455 </v>
    <v>       0.56217953       0.51565745       0.30471994 </v>
    <v>       0.54508622       0.68442047       0.35165729 </v>
    <v>       0.56728310       0.46748364       0.65001591 </v>
    <v>       0.53900434       0.57853701       0.39462073 </v>
    <v>       0.55986185       0.64088380       0.62813396 </v>
    <v>       0.53409412       0.28920792       0.52806057 </v>
    <v>       0.47620552       0.57668725       0.48755303 </v>
    <v>       0.50283509       0.60411463       0.29095178 </v>
    <v>       0.50428326       0.55629774       0.59218603 </v>
    <v>       0.45875173       0.61959795       0.66595239 </v>
    <v>       0.49681416       0.45728785       0.55695551 </v>
    <v>       0.47127144       0.42524359       0.66790341 </v>
    <v>       0.48076192       0.66263721       0.55728896 </v>
    <v>       0.46014914       0.51962669       0.34461699 </v>
    <v>       0.46432205       0.37959730       0.40710986 </v>
    <v>       0.51102917       0.67721344       0.45211647 </v>
    <v>       0.46745018       0.47508396       0.44968464 </v>
    <v>       0.39771202       0.50343654       0.52901749 </v>
    <v>       0.41451009       0.51199149       0.63969915 </v>
    <v>       0.46018485       0.36083040       0.51781723 </v>
    <v>       0.40191889       0.65419676       0.47669284 </v>
    <v>       0.38421509       0.45215691       0.37594205 </v>
    <v>       0.44485871       0.63011172       0.37907024 </v>
    <v>       0.39526167       0.60294536       0.58062757 </v>
    <v>       0.39940518       0.41186766       0.59002194 </v>
    <v>       0.32127016       0.58368634       0.50570532 </v>
    <v>       0.37798638       0.40499630       0.47242825 </v>
    <v>       0.38848897       0.55249116       0.42546876 </v>
    <v>       0.30529682       0.43504795       0.54664295 </v>
    <v>       0.31578437       0.52833313       0.60110016 </v>
    <v>       0.30932653       0.48565429       0.44950379 </v>
    <v>       0.23903085       0.51631391       0.52736792 </v>
   </varray>
  </structure>
  <varray name="forces" >
   <v>       0.07104659      -0.11150519       0.18617851 </v>
   <v>       0.19605450      -0.08446932      -0.10072745 </v>
   <v>       0.21373806       0.04723197      -0.12778268 </v>
   <v>       0.01912588      -0.09503717       0.09153603 </v>
   <v>      -0.02555984      -0.05544843       0.00309399 </v>
   <v>      -0.03120875       0.01155394       0.01393660 </v>
   <v>       0.07843860      -0.04983154       0.02698428 </v>
   <v>       0.11659144      -0.00632245      -0.14299524 </v>
   <v>       0.02414175       0.04973942      -0.02046455 </v>
   <v>       0.14749853       0.04278060       0.04753834 </v>
   <v>      -0.19035776      -0.03724347      -0.04568088 </v>
   <v>       0.10848625       0.04601130       0.07003705 </v>
   <v>       0.00899460      -0.17661414      -0.03630547 </v>
   <v>       0.10220266      -0.10749333       0.15918623 </v>
   <v>      -0.04680192      -0.03675234       0.01295049 </v>
   <v>      -0.02762447      -0.00960176      -0.16221552 </v>
   <v>       0.19606409       0.05949825      -0.00505747 </v>
   <v>      -0.06223824      -0.04829188       0.09351715 </v>
   <v>       0.07986094       0.04793630      -0.07893039 </v>
   <v>      -0.05340458      -0.04882493       0.08658849 </v>
   <v>       0.03265678      -0.01604949      -0.18236156 </v>
   <v>      -0.09858397      -0.08703285      -0.04903532 </v>
   <v>       0.05768560       0.04167348       0.05863542 </v>
   <v>      -0.07262563      -0.03862072      -0.03920608 </v>
   <v>       0.07321854       0.13677044       0.02597482 </v>
   <v>      -0.07397256      -0.17311219      -0.04014484 </v>
   <v>      -0.01938658       0.01252330       0.00801679 </v>
   <v>      -0.04987387       0.02155477      -0.09784823 </v>
   <v>       0.05930964       0.14169835      -0.00623785 </v>
   <v>       0.03006957       0.08414112      -0.00445982 </v>
   <v>      -0.01026525       0.10347920       0.01685985 </v>
   <v>       0.03759372      -0.12354067       0.11947059 </v>
   <v>      -0.02137810       0.15199232       0.15953147 </v>
   <v>       0.03161581       0.06333799       0.09222662 </v>
   <v>       0.05185500      -0.08751024       0.00556095 </v>
   <v>      -0.06835309       0.08976243       0.03086888 </v>
   <v>      -0.00830823       0.09364006       0.01734315 </v>
   <v>      -0.05633953       0.00716269       0.00342484 </v>
   <v>      -0.03952503       0.01470878       0.07926513 </v>
   <v>       0.00059058      -0.05963924       0.09734157 </v>
   <v>      -0.07968332      -0.22924378      -0.00731815 </v>
   <v>      -0.04321287       0.02328016       0.12964525 </v>
   <v>      -0.17511429       0.16465460      -0.12950237 </v>
   <v>      -0.01241063      -0.00960797      -0.11783730 </v>
   <v>       0.00791918       0.00612752      -0.02119662 </v>
   <v>      -0.09097097      -0.01075445      -0.18455354 </v>
   <v>      -0.04001318       0.03220814       0.02915559 </v>
   <v>      -0.05851882       0.07231418      -0.21878117 </v>
   <v>      -0.08765512       0.04112112       0.06199967 </v>
   <v>      -0.01269806       0.00572346      -0.06535711 </v>
   <v>      -0.09068311       0.06194454       0.04320152 </v>
   <v>      -0.09799058       0.02797713       0.11393037 </v>
  </varray>
  <varray name="stress" >
   <v>      -0.93859104      -0.27614430       0.11251147 </v>
   <v>      -0.27614430      -1.25325179      -0.14485327 </v>
   <v>       0.11251146      -0.14485326      -1.27486783 </v>
  </varray>
  <energy>
   <i name="e_fr_energy">   -112.09810370 </i>
   <i name="e_wo_entrp">   -112.09810370 </i>
   <i name="e_0_energy">      0.00000000 </i>
  </energy>
  <time name="totalsc">   67.83   68.48</time>
 </calculation>
 <calculation>
  <scstep>
   <time name="dav">    9.66    9.67</time>
   <time name="total">   10.21   10.23</time>
   <energy>
    <i name="alphaZ">    133.26721966 </i>
    <i name="ewald"> 177899.03855087 </i>
    <i name="hartreedc">-229537.33580532 </i>
    <i name="XCdc">   -587.13575242 </i>
    <i name="pawpsdc">  56440.27683789 </i>
    <i name="pawaedc"> -54142.53344560 </i>
    <i name="eentropy">      0.00000000 </i>
    <i name="bandstr">  -4251.84749664 </i>
    <i name="atom">  53934.32876449 </i>
    <i name="e_fr_energy">   -111.94112708 </i>
    <i name="e_wo_entrp">   -111.94112708 </i>
    <i name="e_0_energy">   -111.94112708 </i>
   </energy>
  </scstep>
  <scstep>
   <time name="dav">    9.85    9.86</time>
   <time name="total">   10.38   10.39</time>
   <energy>
    <i name="e_fr_energy">   -112.11185766 </i>
    <i name="e_wo_entrp">   -112.11185766 </i>
    <i name="e_0_energy">   -112.11185766 </i>
   </energy>
  </scstep>
  <scstep>
   <time name="dav">   10.32   10.33</time>
   <time name="total">   10.89   11.37</time>
   <energy>
    <i name="e_fr_energy">   -112.10951032 </i>
    <i name="e_wo_entrp">   -112.10951032 </i>
    <i name="e_0_energy">   -112.10951032 </i>
   </energy>
  </scstep>
  <scstep>
   <time name="dav">   10.06   10.08</time>
   <time name="total">   10.59   10.61</time>
   <energy>
    <i name="e_fr_energy">   -112.10609765 </i>
    <i name="e_wo_entrp">   -112.10609765 </i>
    <i name="e_0_energy">   -112.10609765 </i>
   </energy>
  </scstep>
  <scstep>
   <time name="dav">   10.29   10.30</time>
   <time name="total">   10.83   10.84</time>
   <energy>
    <i name="e_fr_energy">   -112.10624679 </i>
    <i name="e_wo_entrp">   -112.10624679 </i>
    <i name="e_0_energy">   -112.10624679 </i>
   </energy>
  </scstep>
  <scstep>
   <time name="dav">    7.33    7.34</time>
   <time name="total">    7.65   11.50</time>
   <energy>
    <i name="alphaZ">    133.26721966 </i>
    <i name="ewald"> 177899.03855087 </i>
    <i name="hartreedc">-229540.77669169 </i>
    <i name="XCdc">   -587.07463635 </i>
    <i name="pawpsdc">  56411.33661249 </i>
    <i name="pawaedc"> -54112.98600594 </i>
    <i name="eentropy">      0.00000000 </i>
    <i name="bandstr">  -4249.24005174 </i>
    <i name="atom">  53934.32876449 </i>
    <i name="e_fr_energy">   -112.10623821 </i>
    <i name="e_wo_entrp">   -112.10623821 </i>
    <i name="e_0_energy">   -112.10623821 </i>
   </energy>
  </scstep>
  <structure>
   <crystal>
    <varray name="basis" >
     <v>      25.84238012       0.00000000       0.00000000 </v>
     <v>       0.00000000      25.84238012       0.00000000 </v>
     <v>       0.00000000       0.00000000      25.84238012 </v>
    </varray>
    <i name="volume">  17258.28080240 </i>
    <varray name="rec_basis" >
     <v>       0.03869613       0.00000000       0.00000000 </v>
     <v>       0.00000000       0.03869613       0.00000000 </v>
     <v>       0.00000000       0.00000000       0.03869613 </v>
    </varray>
   </crystal>
   <varray name="positions" >
    <v>       0.74869829       0.43573572       0.62620852 </v>
    <v>       0.70556774       0.50192060       0.55412122 </v>
    <v>       0.70859526       0.39943549       0.53398736 </v>
    <v>       0.67246755       0.49702112       0.66028199 </v>
    <v>       0.66459562       0.56988626       0.48620977 </v>
    <v>       0.65189935       0.44918721       0.45553182 </v>
    <v>       0.64963194       0.39128173       0.63513760 </v>
    <v>       0.63706534       0.53266820       0.38623171 </v>
    <v>       0.62502596       0.33585746       0.54245611 </v>
    <v>       0.61291641       0.55301513       0.58560179 </v>
    <v>       0.62121800       0.64312231       0.41959981 </v>
    <v>       0.61511453       0.61043494       0.31595919 </v>
    <v>       0.55416030       0.39114541       0.47572249 </v>
    <v>       0.60982460       0.44656800       0.55201445 </v>
    <v>       0.59571838       0.56457257       0.69430857 </v>
    <v>       0.54048611       0.36767148       0.60419968 </v>
    <v>       0.55409785       0.45323195       0.39068707 </v>
    <v>       0.56745617       0.51629114       0.48313614 </v>
    <v>       0.57703160       0.62676422       0.51775957 </v>
    <v>       0.49747272       0.52588862       0.70616796 </v>
    <v>       0.56224900       0.51582283       0.30348135 </v>
    <v>       0.54494372       0.68379680       0.35093170 </v>
    <v>       0.56754223       0.46860386       0.65129665 </v>
    <v>       0.53883345       0.57866890       0.39376783 </v>
    <v>       0.55996271       0.64134762       0.62840958 </v>
    <v>       0.53337999       0.28787573       0.52780343 </v>
    <v>       0.47593639       0.57849133       0.48863607 </v>
    <v>       0.50249172       0.60416095       0.29090653 </v>
    <v>       0.50469815       0.55807707       0.59243947 </v>
    <v>       0.45905088       0.62010132       0.66570101 </v>
    <v>       0.49630315       0.45695844       0.55654419 </v>
    <v>       0.47116251       0.42480749       0.66894061 </v>
    <v>       0.48007158       0.66299716       0.55809389 </v>
    <v>       0.46128404       0.52071366       0.34460944 </v>
    <v>       0.46459491       0.37977132       0.40740441 </v>
    <v>       0.51092554       0.67769523       0.45326709 </v>
    <v>       0.46784695       0.47380016       0.44885936 </v>
    <v>       0.39695446       0.50341037       0.52935044 </v>
    <v>       0.41484720       0.51160098       0.64090588 </v>
    <v>       0.45991221       0.36082670       0.51851247 </v>
    <v>       0.40156495       0.65299856       0.47711193 </v>
    <v>       0.38352749       0.45168069       0.37698177 </v>
    <v>       0.44418252       0.63112383       0.37740816 </v>
    <v>       0.39570660       0.60372432       0.57978391 </v>
    <v>       0.39976654       0.41173418       0.58976176 </v>
    <v>       0.32078768       0.58350923       0.50446423 </v>
    <v>       0.37808233       0.40506442       0.47188195 </v>
    <v>       0.38679153       0.55246849       0.42460511 </v>
    <v>       0.30426800       0.43576089       0.54715480 </v>
    <v>       0.31476443       0.52782216       0.60020192 </v>
    <v>       0.30920011       0.48622760       0.44955363 </v>
    <v>       0.23914368       0.51628353       0.52824508 </v>
   </varray>
  </structure>
  <varray name="forces" >
   <v>       0.21867470      -0.18521204       0.18168734 </v>
   <v>       0.14054986       0.16972235      -0.05963531 </v>
   <v>       0.13602994      -0.25550260      -0.12788776 </v>
   <v>      -0.17420312       0.13277328       0.10449617 </v>
   <v>      -0.05558114      -0.05366546      -0.08811069 </v>
   <v>      -0.00155615       0.13306906      -0.19258109 </v>
   <v>      -0.02512832      -0.09036381       0.02668753 </v>
   <v>       0.09932059      -0.18149396       0.10421000 </v>
   <v>       0.01018625       0.05885183      -0.04857209 </v>
   <v>       0.17500915      -0.01778858       0.01969632 </v>
   <v>      -0.05324086      -0.02854420       0.08545425 </v>
   <v>       0.13548182       0.04568270      -0.09161071 </v>
   <v>       0.03030538      -0.21184376       0.12538582 </v>
   <v>      -0.12016987      -0.08938515       0.36409946 </v>
   <v>       0.08376804      -0.02809495       0.00767428 </v>
   <v>      -0.01509343       0.11808857      -0.13925265 </v>
   <v>       0.29689409       0.20347120      -0.21697072 </v>
   <v>      -0.21840299       0.12937145      -0.01625267 </v>
   <v>       0.04917619      -0.02091509       0.11553656 </v>
   <v>      -0.11684280       0.03621579       0.15583770 </v>
   <v>       0.05861738      -0.05697698      -0.06975627 </v>
   <v>      -0.18650785      -0.00917068       0.07101488 </v>
   <v>       0.07202261      -0.20720111      -0.18146991 </v>
   <v>      -0.09938193      -0.10416508       0.14075335 </v>
   <v>       0.14119061       0.18660215      -0.00547896 </v>
   <v>       0.01612228      -0.02508436      -0.01951555 </v>
   <v>       0.05686298      -0.43045935      -0.22189767 </v>
   <v>      -0.00946414       0.04554585      -0.21399677 </v>
   <v>       0.03158421      -0.18557709      -0.07386560 </v>
   <v>      -0.02258299       0.05691107       0.07040849 </v>
   <v>       0.09696080       0.27759380       0.11789035 </v>
   <v>       0.10039620      -0.14509358      -0.01148693 </v>
   <v>       0.13448797       0.26781980       0.13591616 </v>
   <v>      -0.22162654      -0.14636986       0.18537283 </v>
   <v>       0.03856802      -0.26853971      -0.07949018 </v>
   <v>      -0.12391093       0.08599263      -0.21138238 </v>
   <v>      -0.11551442       0.48317745       0.24002263 </v>
   <v>       0.06277749       0.02584877      -0.06039212 </v>
   <v>      -0.15953391       0.11572540      -0.12656541 </v>
   <v>       0.07497526      -0.13620194       0.01668870 </v>
   <v>      -0.10006501      -0.10187620      -0.13677804 </v>
   <v>       0.06177984       0.16155542      -0.03552248 </v>
   <v>      -0.19075966       0.10662793       0.12198143 </v>
   <v>      -0.16765896      -0.20805099      -0.02084574 </v>
   <v>      -0.08198630       0.05305323       0.03684074 </v>
   <v>      -0.08190426       0.02859353      -0.10534515 </v>
   <v>      -0.10250482       0.02216821       0.22371268 </v>
   <v>       0.28484516       0.16714645      -0.29540882 </v>
   <v>       0.07196236      -0.13749715       0.00046259 </v>
   <v>       0.22081961       0.16395427       0.13290931 </v>
   <v>      -0.17922604      -0.03125864       0.08645249 </v>
   <v>      -0.27652236       0.08077010      -0.02112039 </v>
  </varray>
  <varray name="stress" >
   <v>      -1.08564512      -0.27478844       0.09192578 </v>
   <v>      -0.27478843      -1.26074355      -0.09407470 </v>
   <v>       0.09192579      -0.09407470      -1.36259152 </v>
  </varray>
  <energy>
   <i name="e_fr_energy">   -112.10623821 </i>
   <i name="e_wo_entrp">   -112.10623821 </i>
   <i name="e_0_energy">      0.00000000 </i>
  </energy>
  <time name="totalsc">   79.12   83.56</time>
 </calculation>
 <calculation>
  <scstep>
   <time name="dav">    9.72    9.73</time>
   <time name="total">   10.27   10.30</time>
   <energy>
    <i name="alphaZ">    133.26721966 </i>
    <i name="ewald"> 178255.20084573 </i>
    <i name="hartreedc">-229896.75693610 </i>
    <i name="XCdc">   -586.93907175 </i>
    <i name="pawpsdc">  56410.24851288 </i>
    <i name="pawaedc"> -54111.89466388 </i>
    <i name="eentropy">      0.00000000 </i>
    <i name="bandstr">  -4249.56153171 </i>
    <i name="atom">  53934.32876449 </i>
    <i name="e_fr_energy">   -112.10686068 </i>
    <i name="e_wo_entrp">   -112.10686068 </i>
    <i name="e_0_energy">   -112.10686068 </i>
   </energy>
  </scstep>
  <scstep>
   <time name="dav">   10.04   10.05</time>
   <time name="total">   10.58   10.59</time>
   <energy>
    <i name="e_fr_energy">   -112.14352224 </i>
    <i name="e_wo_entrp">   -112.14352224 </i>
    <i name="e_0_energy">   -112.14352224 </i>
   </energy>
  </scstep>
  <scstep>
   <time name="dav">   10.28   10.29</time>
   <time name="total">   10.83   10.85</time>
   <energy>
    <i name="e_fr_energy">   -112.14305921 </i>
    <i name="e_wo_entrp">   -112.14305921 </i>
    <i name="e_0_energy">   -112.14305921 </i>
   </energy>
  </scstep>
  <scstep>
   <time name="dav">   10.16   10.17</time>
   <time name="total">   10.69   10.80</time>
   <energy>
    <i name="e_fr_energy">   -112.14255479 </i>
    <i name="e_wo_entrp">   -112.14255479 </i>
    <i name="e_0_energy">   -112.14255479 </i>
   </energy>
  </scstep>
  <scstep>
   <time name="dav">    7.42    7.43</time>
   <time name="total">    7.96    8.36</time>
   <energy>
    <i name="e_fr_energy">   -112.14268359 </i>
    <i name="e_wo_entrp">   -112.14268359 </i>
    <i name="e_0_energy">   -112.14268359 </i>
   </energy>
  </scstep>
  <scstep>
   <time name="dav">    7.31    7.32</time>
   <time name="total">    7.63    8.96</time>
   <energy>
    <i name="alphaZ">    133.26721966 </i>
    <i name="ewald"> 178255.20084573 </i>
    <i name="hartreedc">-229895.31148978 </i>
    <i name="XCdc">   -586.97615546 </i>
    <i name="pawpsdc">  56418.91546911 </i>
    <i name="pawaedc"> -54120.78819128 </i>
    <i name="eentropy">      0.00000000 </i>
    <i name="bandstr">  -4250.77917969 </i>
    <i name="atom">  53934.32876449 </i>
    <i name="e_fr_energy">   -112.14271722 </i>
    <i name="e_wo_entrp">   -112.14271722 </i>
    <i name="e_0_energy">   -112.14271722 </i>
   </energy>
  </scstep>
[...]
       <r>     0.8797     0.0000   349.0000 </r>
       <r>     0.9209     0.0000   352.0000 </r>
       <r>     0.9620     0.0000   353.0000 </r>
       <r>     1.0031     0.0000   356.0000 </r>
       <r>     1.0442     0.0000   357.0000 </r>
       <r>     1.0854     0.0000   360.0000 </r>
       <r>     1.1265     0.0000   363.0000 </r>
       <r>     1.1676     0.0000   366.0000 </r>
       <r>     1.2087     0.0000   368.0000 </r>
       <r>     1.2499     0.0000   369.0000 </r>
       <r>     1.2910     0.0000   371.0000 </r>
       <r>     1.3321     0.0000   372.0000 </r>
       <r>     1.3733     0.0000   372.0000 </r>
       <r>     1.4144     0.0000   372.0000 </r>
       <r>     1.4555     0.0000   372.0000 </r>
       <r>     1.4966     0.0000   372.0000 </r>
       <r>     1.5378     0.0000   372.0000 </r>
       <r>     1.5789     0.0000   372.0000 </r>
       <r>     1.6200     0.0000   372.0000 </r>
       <r>     1.6611     0.0000   372.0000 </r>
       <r>     1.7023     0.0000   372.0000 </r>
       <r>     1.7434     0.0000   372.0000 </r>
       <r>     1.7845     0.0000   372.0000 </r>
       <r>     1.8257     0.0000   372.0000 </r>
       <r>     1.8668     0.0000   372.0000 </r>
      </set>
      <set comment="spin 2">
       <r>   -10.4714     0.0000     0.0000 </r>
       <r>   -10.4303     0.0000     0.0000 </r>
       <r>   -10.3892     0.0000     0.0000 </r>
       <r>   -10.3481     0.0000     0.0000 </r>
       <r>   -10.3069     0.0000     0.0000 </r>
       <r>   -10.2658     0.0000     0.0000 </r>
       <r>   -10.2247     0.0000     0.0000 </r>
       <r>   -10.1836     0.0000     0.0000 </r>
       <r>   -10.1424     0.0000     0.0000 </r>
       <r>   -10.1013     0.0000     0.0000 </r>
       <r>   -10.0602     0.0000     0.0000 </r>
       <r>   -10.0190     0.0000     0.0000 </r>
       <r>    -9.9779     0.0000     0.0000 </r>
       <r>    -9.9368     0.0000     0.0000 </r>
       <r>    -9.8957     0.0000     1.0000 </r>
       <r>    -9.8545     0.0000     1.0000 </r>
       <r>    -9.8134     0.0000     1.0000 </r>
       <r>    -9.7723     0.0000     1.0000 </r>
       <r>    -9.7311     0.0000     1.0000 </r>
       <r>    -9.6900     0.0000     1.0000 </r>
       <r>    -9.6489     0.0000     1.0000 </r>
       <r>    -9.6078     0.0000     1.0000 </r>
       <r>    -9.5666     0.0000     1.0000 </r>
       <r>    -9.5255     0.0000     1.0000 </r>
       <r>    -9.4844     0.0000     1.0000 </r>
       <r>    -9.4433     0.0000     1.0000 </r>
       <r>    -9.4021     0.0000     1.0000 </r>
       <r>    -9.3610     0.0000     1.0000 </r>
       <r>    -9.3199     0.0000     3.0000 </r>
       <r>    -9.2787     0.0000     3.0000 </r>
       <r>    -9.2376     0.0000     4.0000 </r>
       <r>    -9.1965     0.0000     6.0000 </r>
       <r>    -9.1554     0.0000     8.0000 </r>
       <r>    -9.1142     0.0000     8.0000 </r>
       <r>    -9.0731     0.0000    11.0000 </r>
       <r>    -9.0320     0.0000    13.0000 </r>
       <r>    -8.9909     0.0000    15.0000 </r>
       <r>    -8.9497     0.0000    16.0000 </r>
       <r>    -8.9086     0.0000    19.0000 </r>
       <r>    -8.8675     0.0000    21.0000 </r>
       <r>    -8.8263     0.0000    25.0000 </r>
       <r>    -8.7852     0.0000    29.0000 </r>
       <r>    -8.7441     0.0000    32.0000 </r>
       <r>    -8.7030     0.0000    34.0000 </r>
       <r>    -8.6618     0.0000    37.0000 </r>
       <r>    -8.6207     0.0000    40.0000 </r>
       <r>    -8.5796     0.0000    43.0000 </r>
       <r>    -8.5385     0.0000    48.0000 </r>
       <r>    -8.4973     0.0000    50.0000 </r>
       <r>    -8.4562     0.0000    53.0000 </r>
       <r>    -8.4151     0.0000    58.0000 </r>
       <r>    -8.3739     0.0000    62.0000 </r>
       <r>    -8.3328     0.0000    66.0000 </r>
       <r>    -8.2917    24.3147    69.0000 </r>
       <r>    -8.2506     0.0000    72.0000 </r>
       <r>    -8.2094     0.0000    75.0000 </r>
       <r>    -8.1683     0.0000    79.0000 </r>
       <r>    -8.1272     0.0000    83.0000 </r>
       <r>    -8.0861     0.0000    86.0000 </r>
       <r>    -8.0449     0.0000    89.0000 </r>
       <r>    -8.0038     0.0000    93.0000 </r>
       <r>    -7.9627     0.0000    96.0000 </r>
       <r>    -7.9215     0.0000    98.0000 </r>
       <r>    -7.8804     0.0000   102.0000 </r>
       <r>    -7.8393     0.0000   106.0000 </r>
       <r>    -7.7982     0.0000   108.0000 </r>
       <r>    -7.7570     0.0000   112.0000 </r>
       <r>    -7.7159     0.0000   116.0000 </r>
       <r>    -7.6748     0.0000   118.0000 </r>
       <r>    -7.6337     0.0000   121.0000 </r>
       <r>    -7.5925     0.0000   125.0000 </r>
       <r>    -7.5514     0.0000   128.0000 </r>
       <r>    -7.5103     0.0000   131.0000 </r>
       <r>    -7.4691    24.3147   135.0000 </r>
       <r>    -7.4280     0.0000   137.0000 </r>
       <r>    -7.3869     0.0000   141.0000 </r>
       <r>    -7.3458     0.0000   144.0000 </r>
       <r>    -7.3046    24.3147   149.0000 </r>
       <r>    -7.2635     0.0000   152.0000 </r>
       <r>    -7.2224     0.0000   156.0000 </r>
       <r>    -7.1813     0.0000   159.0000 </r>
       <r>    -7.1401     0.0000   164.0000 </r>
       <r>    -7.0990    24.3147   168.0000 </r>
       <r>    -7.0579     0.0000   172.0000 </r>
       <r>    -7.0167     0.0000   178.0000 </r>
       <r>    -6.9756     0.0000   182.0000 </r>
       <r>    -6.9345     0.0000   187.0000 </r>
       <r>    -6.8934     4.9929   192.2053 </r>
       <r>    -6.8522     0.0000   197.0000 </r>
       <r>    -6.8111     0.0000   202.0000 </r>
       <r>    -6.7700     0.0000   207.0000 </r>
       <r>    -6.7288     0.0000   213.0000 </r>
       <r>    -6.6877     0.0924   218.0038 </r>
       <r>    -6.6466     0.0000   222.0000 </r>
       <r>    -6.6055     0.0000   227.0000 </r>
       <r>    -6.5643     0.0000   233.0000 </r>
       <r>    -6.5232     0.0000   237.0000 </r>
       <r>    -6.4821     0.0000   244.0000 </r>
       <r>    -6.4410     0.0000   248.0000 </r>
       <r>    -6.3998     0.0000   252.0000 </r>
       <r>    -6.3587     0.0000   256.0000 </r>
       <r>    -6.3176     0.0000   259.0000 </r>
       <r>    -6.2764     0.0000   262.0000 </r>
       <r>    -6.2353     0.0000   263.0000 </r>
       <r>    -6.1942     0.0000   266.0000 </r>
       <r>    -6.1531     0.0000   267.0000 </r>
       <r>    -6.1119     0.0000   268.0000 </r>
       <r>    -6.0708     0.0000   268.0000 </r>
       <r>    -6.0297     0.0000   268.0000 </r>
       <r>    -5.9886     0.0000   268.0000 </r>
       <r>    -5.9474     0.0000   268.0000 </r>
       <r>    -5.9063     0.0000   269.0000 </r>
       <r>    -5.8652     0.0000   269.0000 </r>
       <r>    -5.8240     0.0000   269.0000 </r>
       <r>    -5.7829     0.0000   269.0000 </r>
       <r>    -5.7418     0.0000   270.0000 </r>
       <r>    -5.7007     0.0000   270.0000 </r>
       <r>    -5.6595     0.0000   271.0000 </r>
       <r>    -5.6184     0.0000   271.0000 </r>
       <r>    -5.5773     0.0000   271.0000 </r>
       <r>    -5.5362     0.0000   271.0000 </r>
       <r>    -5.4950     0.0000   271.0000 </r>
       <r>    -5.4539     0.0000   271.0000 </r>
       <r>    -5.4128     0.0000   271.0000 </r>
       <r>    -5.3716     0.0000   272.0000 </r>
       <r>    -5.3305     0.0000   272.0000 </r>
       <r>    -5.2894     0.0000   272.0000 </r>
       <r>    -5.2483     0.0000   273.0000 </r>
       <r>    -5.2071     0.0000   273.0000 </r>
       <r>    -5.1660     0.0000   273.0000 </r>
       <r>    -5.1249     0.0000   274.0000 </r>
       <r>    -5.0838     0.0000   274.0000 </r>
       <r>    -5.0426     0.0000   275.0000 </r>
       <r>    -5.0015     0.0000   275.0000 </r>
       <r>    -4.9604     0.0000   275.0000 </r>
       <r>    -4.9192     0.0000   276.0000 </r>
       <r>    -4.8781     0.0000   276.0000 </r>
       <r>    -4.8370     0.0000   276.0000 </r>
       <r>    -4.7959     0.0000   276.0000 </r>
       <r>    -4.7547     0.0000   276.0000 </r>
       <r>    -4.7136     0.0000   277.0000 </r>
       <r>    -4.6725     0.0000   277.0000 </r>
       <r>    -4.6314     0.0000   277.0000 </r>
       <r>    -4.5902     0.0000   278.0000 </r>
       <r>    -4.5491     0.0000   278.0000 </r>
       <r>    -4.5080     0.0000   278.0000 </r>
       <r>    -4.4668     0.0000   278.0000 </r>
       <r>    -4.4257     0.0000   279.0000 </r>
       <r>    -4.3846     0.0000   279.0000 </r>
       <r>    -4.3435     0.0000   279.0000 </r>
       <r>    -4.3023     0.0000   279.0000 </r>
       <r>    -4.2612     0.0000   279.0000 </r>
       <r>    -4.2201     0.0000   279.0000 </r>
       <r>    -4.1789     0.0000   279.0000 </r>
       <r>    -4.1378     0.0000   280.0000 </r>
       <r>    -4.0967     0.0000   281.0000 </r>
       <r>    -4.0556     0.0000   281.0000 </r>
       <r>    -4.0144     0.0000   281.0000 </r>
       <r>    -3.9733     0.0000   281.0000 </r>
       <r>    -3.9322     0.0000   282.0000 </r>
       <r>    -3.8911     0.0000   282.0000 </r>
       <r>    -3.8499     0.0000   282.0000 </r>
       <r>    -3.8088     0.0000   282.0000 </r>
       <r>    -3.7677     0.0000   283.0000 </r>
       <r>    -3.7265     0.0000   283.0000 </r>
       <r>    -3.6854     0.0000   283.0000 </r>
       <r>    -3.6443     0.0000   284.0000 </r>
       <r>    -3.6032     0.0000   285.0000 </r>
       <r>    -3.5620     0.0000   285.0000 </r>
       <r>    -3.5209     0.0000   286.0000 </r>
       <r>    -3.4798     0.0000   286.0000 </r>
       <r>    -3.4387     0.0000   286.0000 </r>
       <r>    -3.3975     0.0000   286.0000 </r>
       <r>    -3.3564     0.0000   287.0000 </r>
       <r>    -3.3153     0.0000   287.0000 </r>
       <r>    -3.2741     0.0000   287.0000 </r>
       <r>    -3.2330     0.0000   288.0000 </r>
       <r>    -3.1919     0.0000   288.0000 </r>
       <r>    -3.1508     0.0000   288.0000 </r>
       <r>    -3.1096     0.0000   289.0000 </r>
       <r>    -3.0685     0.0000   290.0000 </r>
       <r>    -3.0274     0.0000   290.0000 </r>
       <r>    -2.9863     0.0000   290.0000 </r>
       <r>    -2.9451     0.0000   291.0000 </r>
       <r>    -2.9040     0.0000   291.0000 </r>
       <r>    -2.8629     0.0000   292.0000 </r>
       <r>    -2.8217     0.0000   292.0000 </r>
       <r>    -2.7806     0.0000   292.0000 </r>
       <r>    -2.7395     0.0000   292.0000 </r>
       <r>    -2.6984     0.0000   293.0000 </r>
       <r>    -2.6572     0.0000   294.0000 </r>
       <r>    -2.6161     0.0000   294.0000 </r>
       <r>    -2.5750     0.0000   294.0000 </r>
       <r>    -2.5339     0.0000   294.0000 </r>
       <r>    -2.4927     0.0000   295.0000 </r>
       <r>    -2.4516     0.0000   295.0000 </r>
       <r>    -2.4105     0.0000   296.0000 </r>
       <r>    -2.3693     0.0000   296.0000 </r>
       <r>    -2.3282     0.0000   296.0000 </r>
       <r>    -2.2871     0.0000   297.0000 </r>
       <r>    -2.2460     0.0000   298.0000 </r>
       <r>    -2.2048     0.0000   298.0000 </r>
       <r>    -2.1637     0.0000   299.0000 </r>
       <r>    -2.1226     0.0000   299.0000 </r>
       <r>    -2.0815     0.0000   300.0000 </r>
       <r>    -2.0403     0.0000   301.0000 </r>
       <r>    -1.9992     0.0000   301.0000 </r>
       <r>    -1.9581     0.0000   301.0000 </r>
       <r>    -1.9169     0.0000   301.0000 </r>
       <r>    -1.8758     0.0000   302.0000 </r>
       <r>    -1.8347     0.0000   302.0000 </r>
       <r>    -1.7936     0.0000   303.0000 </r>
       <r>    -1.7524     0.0000   304.0000 </r>
       <r>    -1.7113     0.0000   305.0000 </r>
       <r>    -1.6702     0.0000   305.0000 </r>
       <r>    -1.6290     0.0000   306.0000 </r>
       <r>    -1.5879     0.0000   307.0000 </r>
       <r>    -1.5468     0.0000   307.0000 </r>
       <r>    -1.5057     0.0000   307.0000 </r>
       <r>    -1.4645     0.0000   308.0000 </r>
       <r>    -1.4234     0.0000   309.0000 </r>
       <r>    -1.3823     0.0000   309.0000 </r>
       <r>    -1.3412     0.0000   310.0000 </r>
       <r>    -1.3000     0.0000   311.0000 </r>
       <r>    -1.2589     0.0000   311.0000 </r>
       <r>    -1.2178     0.0000   311.0000 </r>
       <r>    -1.1766     0.0000   311.0000 </r>
       <r>    -1.1355     0.0000   311.0000 </r>
       <r>    -1.0944     0.0000   311.0000 </r>
       <r>    -1.0533     0.0000   313.0000 </r>
       <r>    -1.0121     0.0000   313.0000 </r>
       <r>    -0.9710     0.0000   314.0000 </r>
       <r>    -0.9299     0.0000   314.0000 </r>
       <r>    -0.8888     0.0000   315.0000 </r>
       <r>    -0.8476     0.0000   315.0000 </r>
       <r>    -0.8065     0.0000   315.0000 </r>
       <r>    -0.7654     0.0000   317.0000 </r>
       <r>    -0.7242     0.0000   317.0000 </r>
       <r>    -0.6831     0.0000   317.0000 </r>
       <r>    -0.6420     0.0000   317.0000 </r>
       <r>    -0.6009     0.0000   318.0000 </r>
       <r>    -0.5597     0.0000   318.0000 </r>
       <r>    -0.5186     0.0000   319.0000 </r>
       <r>    -0.4775     0.0000   320.0000 </r>
       <r>    -0.4364    24.3147   321.0000 </r>
       <r>    -0.3952     0.0000   321.0000 </r>
       <r>    -0.3541     0.0000   321.0000 </r>
       <r>    -0.3130     0.0000   321.0000 </r>
       <r>    -0.2718     0.0000   323.0000 </r>
       <r>    -0.2307     0.0000   323.0000 </r>
       <r>    -0.1896     0.0000   324.0000 </r>
       <r>    -0.1485     0.0000   325.0000 </r>
       <r>    -0.1073     0.0000   325.0000 </r>
       <r>    -0.0662     0.0000   326.0000 </r>
       <r>    -0.0251     0.0000   327.0000 </r>
       <r>     0.0160     0.0000   328.0000 </r>
       <r>     0.0572     0.0000   328.0000 </r>
       <r>     0.0983     0.0000   330.0000 </r>
       <r>     0.1394     0.0000   330.0000 </r>
       <r>     0.1806     0.0000   330.0000 </r>
       <r>     0.2217     0.0000   331.0000 </r>
       <r>     0.2628     0.0000   331.0000 </r>
       <r>     0.3039     0.0000   331.0000 </r>
       <r>     0.3451     0.0000   332.0000 </r>
       <r>     0.3862     0.0000   332.0000 </r>
       <r>     0.4273     0.0000   334.0000 </r>
       <r>     0.4684    15.6412   335.6433 </r>
       <r>     0.5096     0.0000   336.0000 </r>
       <r>     0.5507     0.0000   337.0000 </r>
       <r>     0.5918     0.0000   337.0000 </r>
       <r>     0.6330     0.0000   339.0000 </r>
       <r>     0.6741     0.0000   341.0000 </r>
       <r>     0.7152     0.0000   342.0000 </r>
       <r>     0.7563     0.0000   343.0000 </r>
       <r>     0.7975     0.0000   346.0000 </r>
       <r>     0.8386     0.0000   347.0000 </r>
       <r>     0.8797     0.0000   349.0000 </r>
       <r>     0.9209     0.0000   352.0000 </r>
       <r>     0.9620     0.0000   353.0000 </r>
       <r>     1.0031     0.0000   356.0000 </r>
       <r>     1.0442     0.0000   357.0000 </r>
       <r>     1.0854     0.0000   360.0000 </r>
       <r>     1.1265     0.0000   363.0000 </r>
       <r>     1.1676     0.0000   366.0000 </r>
       <r>     1.2087     0.0000   368.0000 </r>
       <r>     1.2499     0.0000   369.0000 </r>
       <r>     1.2910     0.0000   371.0000 </r>
       <r>     1.3321     0.0000   372.0000 </r>
       <r>     1.3733     0.0000   372.0000 </r>
       <r>     1.4144     0.0000   372.0000 </r>
       <r>     1.4555     0.0000   372.0000 </r>
       <r>     1.4966     0.0000   372.0000 </r>
       <r>     1.5378     0.0000   372.0000 </r>
       <r>     1.5789     0.0000   372.0000 </r>
       <r>     1.6200     0.0000   372.0000 </r>
       <r>     1.6611     0.0000   372.0000 </r>
       <r>     1.7023     0.0000   372.0000 </r>
       <r>     1.7434     0.0000   372.0000 </r>
       <r>     1.7845     0.0000   372.0000 </r>
       <r>     1.8257     0.0000   372.0000 </r>
       <r>     1.8668     0.0000   372.0000 </r>
      </set>
     </set>
    </array>
   </total>
  </dos>
 </calculation>
 <structure name="finalpos" >
  <crystal>
   <varray name="basis" >
    <v>      25.84238012       0.00000000       0.00000000 </v>
    <v>       0.00000000      25.84238012       0.00000000 </v>
    <v>       0.00000000       0.00000000      25.84238012 </v>
   </varray>
   <i name="volume">  17258.28080240 </i>
   <varray name="rec_basis" >
    <v>       0.03869613       0.00000000       0.00000000 </v>
    <v>       0.00000000       0.03869613       0.00000000 </v>
    <v>       0.00000000       0.00000000       0.03869613 </v>
   </varray>
  </crystal>
  <varray name="positions" >
   <v>       0.72298843       0.39896478       0.61207102 </v>
   <v>       0.71042293       0.49026604       0.55717315 </v>
   <v>       0.73779279       0.39884915       0.50559725 </v>
   <v>       0.67225605       0.48041601       0.66177472 </v>
   <v>       0.66762192       0.56002610       0.48856894 </v>
   <v>       0.65199149       0.44992554       0.46817951 </v>
   <v>       0.63125331       0.37223817       0.65745317 </v>
   <v>       0.63350143       0.52455183       0.38974984 </v>
   <v>       0.64238945       0.36433719       0.54726179 </v>
   <v>       0.64668355       0.56792547       0.59578581 </v>
   <v>       0.60941531       0.62750863       0.42381961 </v>
   <v>       0.60134175       0.59805983       0.31910870 </v>
   <v>       0.55697070       0.40031141       0.48791581 </v>
   <v>       0.60116199       0.46506963       0.57712577 </v>
   <v>       0.59829405       0.55622685       0.69172108 </v>
   <v>       0.54085174       0.37316899       0.59904601 </v>
   <v>       0.55868424       0.44805537       0.39317424 </v>
   <v>       0.56605543       0.51627576       0.48428807 </v>
   <v>       0.58147218       0.62110475       0.52682124 </v>
   <v>       0.49394232       0.52769619       0.70818088 </v>
   <v>       0.54256729       0.50888235       0.30620754 </v>
   <v>       0.53846458       0.67888418       0.35249319 </v>
   <v>       0.57123490       0.45220881       0.69002979 </v>
   <v>       0.52108003       0.56973017       0.39315354 </v>
   <v>       0.57216898       0.64700741       0.63257636 </v>
   <v>       0.55831022       0.29911943       0.52094892 </v>
   <v>       0.47551671       0.57200140       0.50521004 </v>
   <v>       0.49739567       0.60681181       0.28167441 </v>
   <v>       0.53288632       0.55104721       0.60225443 </v>
   <v>       0.46695652       0.61969918       0.65790675 </v>
   <v>       0.49064605       0.46647148       0.54949671 </v>
   <v>       0.47307835       0.43247556       0.65760717 </v>
   <v>       0.48805462       0.66567270       0.56197338 </v>
   <v>       0.43747227       0.53194271       0.32865647 </v>
   <v>       0.47054064       0.38235901       0.41373160 </v>
   <v>       0.50910836       0.66326930       0.45474973 </v>
   <v>       0.46432801       0.48686957       0.43707121 </v>
   <v>       0.38855116       0.50943838       0.51856095 </v>
   <v>       0.42452282       0.52247018       0.62359044 </v>
   <v>       0.46390734       0.35478459       0.52064163 </v>
   <v>       0.40208961       0.65055597       0.47111722 </v>
   <v>       0.38208847       0.45324245       0.37622710 </v>
   <v>       0.43723394       0.63983705       0.36840279 </v>
   <v>       0.39233263       0.61279720       0.57280398 </v>
   <v>       0.39874385       0.41834077       0.58191873 </v>
   <v>       0.31454228       0.58964781       0.49862615 </v>
   <v>       0.38221437       0.40831563       0.47316865 </v>
   <v>       0.38019567       0.55989381       0.41483066 </v>
   <v>       0.30212257       0.43907385       0.54041405 </v>
   <v>       0.31760614       0.53345943       0.59720130 </v>
   <v>       0.30393737       0.49134664       0.44629915 </v>
   <v>       0.23483159       0.52099166       0.52797783 </v>
  </varray>
 </structure>
</modeling>
