<?xml version="1.0" encoding="ISO-8859-1"?>
<modeling>
 <generator>
  <i name="program" type="string">vasp </i>
  <i name="version" type="string">5.3.5  </i>
  <i name="subversion" type="string">31Mar14 (build Feb 01 2018 12:10:03) gamma-only                       parallel </i>
  <i name="platform" type="string">LinuxIFC </i>
  <i name="date" type="string">2019 03 23 </i>
  <i name="time" type="string">10:53:11 </i>
 </generator>
 <incar>
  <i type="string" name="PREC">normal</i>
  <i type="int" name="ISPIN">     2</i>
  <i type="int" name="IBRION">     2</i>
  <i type="int" name="NSW">  1000</i>
  <i type="int" name="ISIF">     2</i>
  <i name="POTIM">      0.10000000</i>
  <i type="logical" name="LPLANE"> T  </i>
  <i type="int" name="ISMEAR">     0</i>
  <i name="SIGMA">      0.00010000</i>
  <i type="logical" name="LWAVE"> F  </i>
  <i type="logical" name="LCHARG"> F  </i>
  <i type="logical" name="LVTOT"> F  </i>
  <i type="string" name="GGA"> PE</i>
 </incar>
 <kpoints>
  <varray name="kpointlist" >
   <v>       0.00000000       0.00000000       0.00000000 </v>
  </varray>
  <varray name="weights" >
   <v>       1.00000000 </v>
  </varray>
 </kpoints>
 <parameters>
  <separator name="general" >
   <i type="string" name="SYSTEM">unknown system</i>
   <i type="logical" name="LCOMPAT"> F  </i>
  </separator>
  <separator name="electronic" >
   <i type="string" name="PREC">normal</i>
   <i name="ENMAX">    249.84400000</i>
   <i name="ENAUG">    412.49600000</i>
   <i name="EDIFF">      0.00010000</i>
   <i type="int" name="IALGO">    38</i>
   <i type="int" name="IWAVPR">    11</i>
   <i type="int" name="NBANDS">   292</i>
   <i name="NELECT">    451.00000000</i>
   <i type="int" name="TURBO">     0</i>
   <i type="int" name="IRESTART">     0</i>
   <i type="int" name="NREBOOT">     0</i>
   <i type="int" name="NMIN">     0</i>
   <i name="EREF">      0.00000000</i>
   <separator name="electronic smearing" >
    <i type="int" name="ISMEAR">     0</i>
    <i name="SIGMA">      0.00010000</i>
    <i name="KSPACING">      0.50000000</i>
    <i type="logical" name="KGAMMA"> T  </i>
   </separator>
   <separator name="electronic projectors" >
    <i type="logical" name="LREAL"> F  </i>
    <v name="ROPT">      0.00000000</v>
    <i type="int" name="LMAXPAW">  -100</i>
    <i type="int" name="LMAXMIX">     2</i>
    <i type="logical" name="NLSPLINE"> F  </i>
   </separator>
   <separator name="electronic startup" >
    <i type="int" name="ISTART">     0</i>
    <i type="int" name="ICHARG">     2</i>
    <i type="int" name="INIWAV">     1</i>
   </separator>
   <separator name="electronic spin" >
    <i type="int" name="ISPIN">     2</i>
    <i type="logical" name="LNONCOLLINEAR"> F  </i>
    <v name="MAGMOM">      1.00000000      1.00000000      1.00000000      1.00000000      1.00000000      1.00000000      1.00000000      1.00000000      1.00000000      1.00000000      1.00000000      1.00000000      1.00000000      1.00000000      1.00000000      1.00000000      1.00000000      1.00000000      1.00000000      1.00000000
      1.00000000      1.00000000      1.00000000      1.00000000      1.00000000      1.00000000      1.00000000      1.00000000      1.00000000      1.00000000      1.00000000      1.00000000      1.00000000      1.00000000      1.00000000      1.00000000      1.00000000      1.00000000      1.00000000      1.00000000
      1.00000000</v>
    <i name="NUPDOWN">     -1.00000000</i>
    <i type="logical" name="LSORBIT"> F  </i>
    <v name="SAXIS">      0.00000000      0.00000000      1.00000000</v>
    <i type="logical" name="LSPIRAL"> F  </i>
    <v name="QSPIRAL">      0.00000000      0.00000000      0.00000000</v>
    <i type="logical" name="LZEROZ"> F  </i>
   </separator>
   <separator name="electronic exchange-correlation" >
    <i type="logical" name="LASPH"> F  </i>
    <i type="logical" name="LMETAGGA"> F  </i>
   </separator>
   <separator name="electronic convergence" >
    <i type="int" name="NELM">    60</i>
    <i type="int" name="NELMDL">    -5</i>
    <i type="int" name="NELMIN">     2</i>
    <i name="ENINI">    249.84400000</i>
    <separator name="electronic convergence detail" >
     <i type="logical" name="LDIAG"> T  </i>
     <i type="logical" name="LSUBROT"> F  </i>
     <i name="WEIMIN">      0.00100000</i>
     <i name="EBREAK">      0.00000009</i>
     <i name="DEPER">      0.30000000</i>
     <i type="int" name="NRMM">     4</i>
     <i name="TIME">      0.40000000</i>
    </separator>
   </separator>
   <separator name="electronic mixer" >
    <i name="AMIX">      0.40000000</i>
    <i name="BMIX">      1.00000000</i>
    <i name="AMIN">      0.10000000</i>
    <i name="AMIX_MAG">      1.60000000</i>
    <i name="BMIX_MAG">      1.00000000</i>
    <separator name="electronic mixer details" >
     <i type="int" name="IMIX">     4</i>
     <i type="int" name="MAXMIX">   -45</i>
     <i name="WC">    100.00000000</i>
     <i type="int" name="INIMIX">     1</i>
     <i type="int" name="MIXPRE">     1</i>
     <i type="int" name="MREMOVE">     5</i>
    </separator>
   </separator>
   <separator name="electronic dipolcorrection" >
    <i type="logical" name="LDIPOL"> F  </i>
    <i type="logical" name="LMONO"> F  </i>
    <i type="int" name="IDIPOL">     0</i>
    <i name="EPSILON">      1.00000000</i>
    <v name="DIPOL">   -100.00000000   -100.00000000   -100.00000000</v>
    <i name="EFIELD">      0.00000000</i>
   </separator>
  </separator>
  <separator name="grids" >
   <i type="int" name="NGX">    96</i>
   <i type="int" name="NGY">    96</i>
   <i type="int" name="NGZ">    96</i>
   <i type="int" name="NGXF">   192</i>
   <i type="int" name="NGYF">   192</i>
   <i type="int" name="NGZF">   192</i>
   <i type="logical" name="ADDGRID"> F  </i>
  </separator>
  <separator name="ionic" >
   <i type="int" name="NSW">  1000</i>
   <i type="int" name="IBRION">     2</i>
   <i type="int" name="ISIF">     2</i>
   <i name="PSTRESS">      0.00000000</i>
   <i name="EDIFFG">      0.00100000</i>
   <i type="int" name="NFREE">     1</i>
   <i name="POTIM">      0.10000000</i>
   <i name="SMASS">     -3.00000000</i>
   <i name="SCALEE">      1.00000000</i>
  </separator>
  <separator name="ionic md" >
   <i name="TEBEG">      0.00010000</i>
   <i name="TEEND">      0.00010000</i>
   <i type="int" name="NBLOCK">     1</i>
   <i type="int" name="KBLOCK">  1000</i>
   <i type="int" name="NPACO">   256</i>
   <i name="APACO">     16.00000000</i>
  </separator>
  <separator name="symmetry" >
   <i type="int" name="ISYM">     2</i>
   <i name="SYMPREC">      0.00001000</i>
  </separator>
  <separator name="dos" >
   <i type="logical" name="LORBIT"> F  </i>
   <v name="RWIGS">     -1.00000000</v>
   <i type="int" name="NEDOS">   301</i>
   <i name="EMIN">     10.00000000</i>
   <i name="EMAX">    -10.00000000</i>
   <i name="EFERMI">      0.00000000</i>
  </separator>
  <separator name="writing" >
   <i type="int" name="NWRITE">     2</i>
   <i type="logical" name="LWAVE"> F  </i>
   <i type="logical" name="LCHARG"> F  </i>
   <i type="logical" name="LPARD"> F  </i>
   <i type="logical" name="LVTOT"> F  </i>
   <i type="logical" name="LVHAR"> F  </i>
   <i type="logical" name="LELF"> F  </i>
   <i type="logical" name="LOPTICS"> F  </i>
   <v name="STM">      0.00000000      0.00000000      0.00000000      0.00000000      0.00000000      0.00000000      0.00000000</v>
  </separator>
  <separator name="performance" >
   <i type="int" name="NPAR">     4</i>
   <i type="int" name="NSIM">     4</i>
   <i type="int" name="NBLK">    -1</i>
   <i type="logical" name="LPLANE"> T  </i>
   <i type="logical" name="LSCALAPACK"> T  </i>
   <i type="logical" name="LSCAAWARE"> F  </i>
   <i type="logical" name="LSCALU"> F  </i>
   <i type="logical" name="LASYNC"> F  </i>
   <i type="logical" name="LORBITALREAL"> F  </i>
  </separator>
  <separator name="miscellaneous" >
   <i type="int" name="IDIOT">     3</i>
   <i type="logical" name="LMUSIC"> F  </i>
   <v name="POMASS">    107.86800000</v>
   <v name="DARWINR">      0.00000000</v>
   <v name="DARWINV">      1.00000000</v>
   <i type="logical" name="LCORR"> T  </i>
  </separator>
  <i type="logical" name="GGA_COMPAT"> T  </i>
  <i type="logical" name="LBERRY"> F  </i>
  <i type="int" name="ICORELEVEL">     0</i>
  <i type="logical" name="LDAU"> F  </i>
  <i type="int" name="I_CONSTRAINED_M">     0</i>
  <separator name="electronic exchange-correlation" >
   <i type="string" name="GGA">PE</i>
   <i type="int" name="VOSKOWN">     0</i>
   <i type="logical" name="LHFCALC"> F  </i>
   <i type="string" name="PRECFOCK"></i>
   <i type="logical" name="LSYMGRAD"> F  </i>
   <i type="logical" name="LHFONE"> F  </i>
   <i type="logical" name="LRHFCALC"> F  </i>
   <i type="logical" name="LTHOMAS"> F  </i>
   <i type="logical" name="LMODELHF"> F  </i>
   <i name="ENCUT4O">     -1.00000000</i>
   <i type="int" name="EXXOEP">     0</i>
   <i type="int" name="FOURORBIT">     0</i>
   <i name="AEXX">      0.00000000</i>
   <i name="HFALPHA">      0.00000000</i>
   <i name="MCALPHA">      0.00000000</i>
   <i name="ALDAX">      1.00000000</i>
   <i name="AGGAX">      1.00000000</i>
   <i name="ALDAC">      1.00000000</i>
   <i name="AGGAC">      1.00000000</i>
   <i type="int" name="NKREDX">     1</i>
   <i type="int" name="NKREDY">     1</i>
   <i type="int" name="NKREDZ">     1</i>
   <i type="logical" name="SHIFTRED"> F  </i>
   <i type="logical" name="ODDONLY"> F  </i>
   <i type="logical" name="EVENONLY"> F  </i>
   <i type="int" name="LMAXFOCK">     0</i>
   <i type="int" name="NMAXFOCKAE">     0</i>
   <i type="logical" name="LFOCKAEDFT"> F  </i>
   <i name="HFSCREEN">      0.00000000</i>
   <i name="HFSCREENC">      0.00000000</i>
   <i type="int" name="NBANDSGWLOW">     0</i>
  </separator>
  <separator name="vdW DFT" >
   <i type="logical" name="LUSE_VDW"> F  </i>
   <i name="Zab_VDW">     -0.84910000</i>
   <i name="PARAM1">      0.12340000</i>
   <i name="PARAM2">      1.00000000</i>
   <i name="PARAM3">      0.00000000</i>
  </separator>
  <separator name="model GW" >
   <i type="int" name="MODEL_GW">     0</i>
   <i name="MODEL_EPS0">    191.42715675</i>
   <i name="MODEL_ALPHA">      1.00000000</i>
  </separator>
  <separator name="linear response parameters" >
   <i type="logical" name="LEPSILON"> F  </i>
   <i type="logical" name="LRPA"> F  </i>
   <i type="logical" name="LNABLA"> F  </i>
   <i type="logical" name="LVEL"> F  </i>
   <i type="int" name="KINTER">     0</i>
   <i name="CSHIFT">      0.10000000</i>
   <i name="OMEGAMAX">     -1.00000000</i>
   <i name="DEG_THRESHOLD">      0.00200000</i>
  </separator>
  <separator name="orbital magnetization" >
   <i type="logical" name="NUCIND"> F  </i>
   <v name="MAGPOS">      0.00000000      0.00000000      0.00000000</v>
   <i type="logical" name="LNICSALL"> T  </i>
   <i type="logical" name="ORBITALMAG"> F  </i>
   <i type="logical" name="LMAGBLOCH"> F  </i>
   <i type="logical" name="LCHIMAG"> F  </i>
   <i type="logical" name="LGAUGE"> T  </i>
   <i type="int" name="MAGATOM">     0</i>
   <v name="MAGDIPOL">      0.00000000      0.00000000      0.00000000</v>
   <v name="AVECCONST">      0.00000000      0.00000000      0.00000000</v>
  </separator>
  <separator name="response functions" >
   <i type="logical" name="LADDER"> F  </i>
   <i type="logical" name="LFXC"> F  </i>
   <i type="logical" name="LHARTREE"> T  </i>
   <i type="int" name="IBSE">     0</i>
   <i type="logical" name="LTCTE"> F  </i>
   <i type="logical" name="LTETE"> F  </i>
   <i type="logical" name="LTRIPLET"> F  </i>
   <i type="logical" name="LFXCEPS"> F  </i>
   <i type="logical" name="LFXHEG"> F  </i>
   <i type="logical" name="L2ORDER"> F  </i>
   <i type="logical" name="LUSEW"> F  </i>
   <i name="ENCUTGW">     -2.00000000</i>
   <i name="ENCUTGWSOFT">     -2.00000000</i>
   <i name="ENCUTLF">     -1.00000000</i>
   <i type="int" name="LMAXMP2">    -1</i>
   <i name="SCISSOR">      0.00000000</i>
   <i type="int" name="NOMEGA">     0</i>
   <i type="int" name="NOMEGAR">     0</i>
   <i type="int" name="NBANDSGW">    -1</i>
   <i type="int" name="NBANDSO">    -1</i>
   <i type="int" name="NBANDSV">    -1</i>
   <i type="int" name="NELM">     1</i>
   <i type="int" name="DIM">     3</i>
   <i type="int" name="ANTIRES">     0</i>
   <i name="OMEGAMAX">    -30.00000000</i>
   <i name="OMEGAMIN">    -30.00000000</i>
   <i name="OMEGATL">   -200.00000000</i>
   <i type="int" name="OMEGAGRID">     0</i>
   <i name="CSHIFT">     -0.10000000</i>
   <i type="logical" name="SELFENERGY"> F  </i>
   <i type="logical" name="LSPECTRAL"> F  </i>
   <i type="logical" name="ODDONLYGW"> F  </i>
   <i type="logical" name="EVENONLYGW"> F  </i>
   <i type="int" name="NKREDLFX">     1</i>
   <i type="int" name="NKREDLFY">     1</i>
   <i type="int" name="NKREDLFZ">     1</i>
   <i type="int" name="MAXMEM">  1800</i>
   <i type="int" name="TELESCOPE">     0</i>
   <i type="int" name="TAUPAR">     1</i>
  </separator>
  <separator name="External order field" >
   <i name="OFIELD_KAPPA">      0.00000000</i>
   <v name="OFIELD_K">      0.00000000      0.00000000      0.00000000</v>
   <i name="OFIELD_Q6_NEAR">      0.00000000</i>
   <i name="OFIELD_Q6_FAR">      0.00000000</i>
   <i name="OFIELD_A">      0.00000000</i>
  </separator>
 </parameters>
 <atominfo>
  <atoms>      41 </atoms>
  <types>       1 </types>
  <array name="atoms" >
   <dimension dim="1">ion</dimension>
   <field type="string">element</field>
   <field type="int">atomtype</field>
   <set>
    <rc><c>Ag</c><c>   1</c></rc>
    <rc><c>Ag</c><c>   1</c></rc>
    <rc><c>Ag</c><c>   1</c></rc>
    <rc><c>Ag</c><c>   1</c></rc>
    <rc><c>Ag</c><c>   1</c></rc>
    <rc><c>Ag</c><c>   1</c></rc>
    <rc><c>Ag</c><c>   1</c></rc>
    <rc><c>Ag</c><c>   1</c></rc>
    <rc><c>Ag</c><c>   1</c></rc>
    <rc><c>Ag</c><c>   1</c></rc>
    <rc><c>Ag</c><c>   1</c></rc>
    <rc><c>Ag</c><c>   1</c></rc>
    <rc><c>Ag</c><c>   1</c></rc>
    <rc><c>Ag</c><c>   1</c></rc>
    <rc><c>Ag</c><c>   1</c></rc>
    <rc><c>Ag</c><c>   1</c></rc>
    <rc><c>Ag</c><c>   1</c></rc>
    <rc><c>Ag</c><c>   1</c></rc>
    <rc><c>Ag</c><c>   1</c></rc>
    <rc><c>Ag</c><c>   1</c></rc>
    <rc><c>Ag</c><c>   1</c></rc>
    <rc><c>Ag</c><c>   1</c></rc>
    <rc><c>Ag</c><c>   1</c></rc>
    <rc><c>Ag</c><c>   1</c></rc>
    <rc><c>Ag</c><c>   1</c></rc>
    <rc><c>Ag</c><c>   1</c></rc>
    <rc><c>Ag</c><c>   1</c></rc>
    <rc><c>Ag</c><c>   1</c></rc>
    <rc><c>Ag</c><c>   1</c></rc>
    <rc><c>Ag</c><c>   1</c></rc>
    <rc><c>Ag</c><c>   1</c></rc>
    <rc><c>Ag</c><c>   1</c></rc>
    <rc><c>Ag</c><c>   1</c></rc>
    <rc><c>Ag</c><c>   1</c></rc>
    <rc><c>Ag</c><c>   1</c></rc>
    <rc><c>Ag</c><c>   1</c></rc>
    <rc><c>Ag</c><c>   1</c></rc>
    <rc><c>Ag</c><c>   1</c></rc>
    <rc><c>Ag</c><c>   1</c></rc>
    <rc><c>Ag</c><c>   1</c></rc>
    <rc><c>Ag</c><c>   1</c></rc>
   </set>
  </array>
  <array name="atomtypes" >
   <dimension dim="1">type</dimension>
   <field type="int">atomspertype</field>
   <field type="string">element</field>
   <field>mass</field>
   <field>valence</field>
   <field type="string">pseudopotential</field>
   <set>
    <rc><c>  41</c><c>Ag</c><c>    107.86800000</c><c>     11.00000000</c><c>  PAW_PBE Ag 02Apr2005                  </c></rc>
   </set>
  </array>
 </atominfo>
 <structure name="initialpos" >
  <crystal>
   <varray name="basis" >
    <v>      23.56199458       0.00000000       0.00000000 </v>
    <v>       0.00000000      23.56199458       0.00000000 </v>
    <v>       0.00000000       0.00000000      23.56199458 </v>
   </varray>
   <i name="volume">  13080.85571136 </i>
   <varray name="rec_basis" >
    <v>       0.04244123       0.00000000       0.00000000 </v>
    <v>       0.00000000       0.04244123       0.00000000 </v>
    <v>       0.00000000       0.00000000       0.04244123 </v>
   </varray>
  </crystal>
  <varray name="positions" >
   <v>       0.74723957       0.47383420       0.44114713 </v>
   <v>       0.69303076       0.54456083       0.51104996 </v>
   <v>       0.67634986       0.51809112       0.62937157 </v>
   <v>       0.70991584       0.40893357       0.64891688 </v>
   <v>       0.72104919       0.43579913       0.54302556 </v>
   <v>       0.63873355       0.47473963       0.41524493 </v>
   <v>       0.56884545       0.53440241       0.35050941 </v>
   <v>       0.64923679       0.64157638       0.46701348 </v>
   <v>       0.54053417       0.66154118       0.51040348 </v>
   <v>       0.56853770       0.55570053       0.46983650 </v>
   <v>       0.61981937       0.40441044       0.50319669 </v>
   <v>       0.56288259       0.64395404       0.39056677 </v>
   <v>       0.60585355       0.43857801       0.67926470 </v>
   <v>       0.58174932       0.49156380       0.56939613 </v>
   <v>       0.57292841       0.55785848       0.66852184 </v>
   <v>       0.53237277       0.42597879       0.43045706 </v>
   <v>       0.61914759       0.60633267       0.57589360 </v>
   <v>       0.53936042       0.38637639       0.58345384 </v>
   <v>       0.48324894       0.48948778       0.51174883 </v>
   <v>       0.46169972       0.51428918       0.38044906 </v>
   <v>       0.48448529       0.60566171       0.31278106 </v>
   <v>       0.42110807       0.53278687       0.59865440 </v>
   <v>       0.57729449       0.39458342       0.78116746 </v>
   <v>       0.53665175       0.49835588       0.76168478 </v>
   <v>       0.47623130       0.71071363       0.42932897 </v>
   <v>       0.34988779       0.51629468       0.40688336 </v>
   <v>       0.45948991       0.30813644       0.60936611 </v>
   <v>       0.49740158       0.62588001       0.60923511 </v>
   <v>       0.49650863       0.71856959       0.31805063 </v>
   <v>       0.41294050       0.41805265       0.42151861 </v>
   <v>       0.39149964       0.58336717       0.49879732 </v>
   <v>       0.51792285       0.35485349       0.69491560 </v>
   <v>       0.46443184       0.35565911       0.50109968 </v>
   <v>       0.36472976       0.47142484       0.51198463 </v>
   <v>       0.43115455       0.68207399       0.53113273 </v>
   <v>       0.46336464       0.56843821       0.70337007 </v>
   <v>       0.40019340       0.61854714       0.38713103 </v>
   <v>       0.46960723       0.45572483       0.68284747 </v>
   <v>       0.34019218       0.68333222       0.45889761 </v>
   <v>       0.38700006       0.72786147       0.36261892 </v>
   <v>       0.41802755       0.41433268       0.59172561 </v>
  </varray>
 </structure>
 <calculation>
  <scstep>
   <time name="dav">    4.67    4.67</time>
   <time name="total">    4.92    4.95</time>
   <energy>
    <i name="alphaZ">    109.30643725 </i>
    <i name="ewald"> 107939.20905919 </i>
    <i name="hartreedc">-148741.30546716 </i>
    <i name="XCdc">   -447.16641110 </i>
    <i name="pawpsdc">  41138.25930085 </i>
    <i name="pawaedc"> -39247.84896403 </i>
    <i name="eentropy">      0.00000000 </i>
    <i name="bandstr">    633.02028513 </i>
    <i name="atom">  42525.14383354 </i>
    <i name="e_fr_energy">   3908.61807367 </i>
    <i name="e_wo_entrp">   3908.61807367 </i>
    <i name="e_0_energy">   3908.61807367 </i>
   </energy>
  </scstep>
  <scstep>
   <time name="dav">    7.08    7.09</time>
   <time name="total">    7.08    7.10</time>
   <energy>
    <i name="e_fr_energy">    761.78052742 </i>
    <i name="e_wo_entrp">    761.78052742 </i>
    <i name="e_0_energy">    761.78052742 </i>
   </energy>
  </scstep>
  <scstep>
   <time name="dav">    5.68    5.69</time>
   <time name="total">    5.68    5.85</time>
   <energy>
    <i name="e_fr_energy">    -45.58876159 </i>
    <i name="e_wo_entrp">    -45.58876159 </i>
    <i name="e_0_energy">    -45.58876159 </i>
   </energy>
  </scstep>
  <scstep>
   <time name="dav">    4.99    5.00</time>
   <time name="total">    4.99    5.00</time>
   <energy>
    <i name="e_fr_energy">    -83.97578775 </i>
    <i name="e_wo_entrp">    -83.97578775 </i>
    <i name="e_0_energy">    -83.97578775 </i>
   </energy>
  </scstep>
  <scstep>
   <time name="dav">    5.12    5.13</time>
   <time name="total">    5.27    5.28</time>
   <energy>
    <i name="e_fr_energy">    -84.54583689 </i>
    <i name="e_wo_entrp">    -84.54583689 </i>
    <i name="e_0_energy">    -84.54583689 </i>
   </energy>
  </scstep>
  <scstep>
   <time name="dav">    4.72    4.72</time>
   <time name="total">    5.10    7.18</time>
   <energy>
    <i name="e_fr_energy">    -28.75105627 </i>
    <i name="e_wo_entrp">    -28.75105627 </i>
    <i name="e_0_energy">    -28.75105627 </i>
   </energy>
  </scstep>
  <scstep>
   <time name="dav">    4.81    4.81</time>
   <time name="total">    5.19    5.22</time>
   <energy>
    <i name="e_fr_energy">    -25.66053403 </i>
    <i name="e_wo_entrp">    -25.66053403 </i>
    <i name="e_0_energy">    -25.66053403 </i>
   </energy>
  </scstep>
  <scstep>
   <time name="dav">    4.89    4.90</time>
   <time name="total">    5.28    5.33</time>
   <energy>
    <i name="e_fr_energy">    -26.13677098 </i>
    <i name="e_wo_entrp">    -26.13677098 </i>
    <i name="e_0_energy">    -26.13677098 </i>
   </energy>
  </scstep>
  <scstep>
   <time name="dav">    4.97    4.98</time>
   <time name="total">    5.36    5.39</time>
   <energy>
    <i name="e_fr_energy">    -27.32756781 </i>
    <i name="e_wo_entrp">    -27.32756781 </i>
    <i name="e_0_energy">    -27.32756781 </i>
   </energy>
  </scstep>
  <scstep>
   <time name="dav">    4.86    4.87</time>
   <time name="total">    5.25    5.26</time>
   <energy>
    <i name="e_fr_energy">    -36.35336415 </i>
    <i name="e_wo_entrp">    -36.35336415 </i>
    <i name="e_0_energy">    -36.35336415 </i>
   </energy>
  </scstep>
  <scstep>
   <time name="dav">    4.92    4.93</time>
   <time name="total">    5.32    5.99</time>
   <energy>
    <i name="e_fr_energy">    -41.98455990 </i>
    <i name="e_wo_entrp">    -41.98455990 </i>
    <i name="e_0_energy">    -41.98455990 </i>
   </energy>
  </scstep>
  <scstep>
   <time name="dav">    4.81    4.81</time>
   <time name="total">    5.19    5.58</time>
   <energy>
    <i name="e_fr_energy">    -48.15768065 </i>
    <i name="e_wo_entrp">    -48.15768065 </i>
    <i name="e_0_energy">    -48.15768065 </i>
   </energy>
  </scstep>
  <scstep>
   <time name="dav">    4.78    4.79</time>
   <time name="total">    5.17    5.23</time>
   <energy>
    <i name="e_fr_energy">    -61.59073122 </i>
    <i name="e_wo_entrp">    -61.59073122 </i>
    <i name="e_0_energy">    -61.59073122 </i>
   </energy>
  </scstep>
  <scstep>
   <time name="dav">    5.04    5.04</time>
   <time name="total">    5.42    5.43</time>
   <energy>
    <i name="e_fr_energy">    -65.55429046 </i>
    <i name="e_wo_entrp">    -65.55429046 </i>
    <i name="e_0_energy">    -65.55429046 </i>
   </energy>
  </scstep>
  <scstep>
   <time name="dav">    4.79    4.79</time>
   <time name="total">    5.18    5.19</time>
   <energy>
    <i name="e_fr_energy">    -71.29294403 </i>
    <i name="e_wo_entrp">    -71.29294403 </i>
    <i name="e_0_energy">    -71.29294403 </i>
   </energy>
  </scstep>
  <scstep>
   <time name="dav">    5.01    5.01</time>
   <time name="total">    5.39    5.40</time>
   <energy>
    <i name="e_fr_energy">    -73.04191091 </i>
    <i name="e_wo_entrp">    -73.04191091 </i>
    <i name="e_0_energy">    -73.04191091 </i>
   </energy>
  </scstep>
  <scstep>
   <time name="dav">    4.74    4.75</time>
   <time name="total">    5.14    5.14</time>
   <energy>
    <i name="e_fr_energy">    -76.89613679 </i>
    <i name="e_wo_entrp">    -76.89613679 </i>
    <i name="e_0_energy">    -76.89613679 </i>
   </energy>
  </scstep>
  <scstep>
   <time name="dav">    4.80    4.80</time>
   <time name="total">    5.19    5.20</time>
   <energy>
    <i name="e_fr_energy">    -79.70648449 </i>
    <i name="e_wo_entrp">    -79.70648449 </i>
    <i name="e_0_energy">    -79.70648449 </i>
   </energy>
  </scstep>
  <scstep>
   <time name="dav">    4.90    4.90</time>
   <time name="total">    5.29    5.65</time>
   <energy>
    <i name="e_fr_energy">    -81.08535923 </i>
    <i name="e_wo_entrp">    -81.08535923 </i>
    <i name="e_0_energy">    -81.08535923 </i>
   </energy>
  </scstep>
  <scstep>
   <time name="dav">    4.82    4.83</time>
   <time name="total">    5.21    5.29</time>
   <energy>
    <i name="e_fr_energy">    -82.47024901 </i>
    <i name="e_wo_entrp">    -82.47024901 </i>
    <i name="e_0_energy">    -82.47024901 </i>
   </energy>
  </scstep>
  <scstep>
   <time name="dav">    4.94    4.94</time>
   <time name="total">    5.33    5.34</time>
   <energy>
    <i name="e_fr_energy">    -82.96650694 </i>
    <i name="e_wo_entrp">    -82.96650694 </i>
    <i name="e_0_energy">    -82.96650694 </i>
   </energy>
  </scstep>
  <scstep>
   <time name="dav">    4.74    4.74</time>
   <time name="total">    5.13    6.07</time>
   <energy>
    <i name="e_fr_energy">    -83.12950523 </i>
    <i name="e_wo_entrp">    -83.12950523 </i>
    <i name="e_0_energy">    -83.12950523 </i>
   </energy>
  </scstep>
  <scstep>
   <time name="dav">    4.84    4.84</time>
   <time name="total">    5.23    5.24</time>
   <energy>
    <i name="e_fr_energy">    -83.28939214 </i>
    <i name="e_wo_entrp">    -83.28939214 </i>
    <i name="e_0_energy">    -83.28939214 </i>
   </energy>
  </scstep>
  <scstep>
   <time name="dav">    3.78    3.79</time>
   <time name="total">    4.18    4.40</time>
   <energy>
    <i name="e_fr_energy">    -83.31556947 </i>
    <i name="e_wo_entrp">    -83.31556947 </i>
    <i name="e_0_energy">    -83.31556947 </i>
   </energy>
  </scstep>
  <scstep>
   <time name="dav">    3.68    3.68</time>
   <time name="total">    4.07    4.08</time>
   <energy>
    <i name="e_fr_energy">    -83.32591167 </i>
    <i name="e_wo_entrp">    -83.32591167 </i>
    <i name="e_0_energy">    -83.32591167 </i>
   </energy>
  </scstep>
  <scstep>
   <time name="dav">    3.67    3.68</time>
   <time name="total">    4.06    4.23</time>
   <energy>
    <i name="e_fr_energy">    -83.33224249 </i>
    <i name="e_wo_entrp">    -83.33224249 </i>
    <i name="e_0_energy">    -83.33224249 </i>
   </energy>
  </scstep>
  <scstep>
   <time name="dav">    3.66    3.67</time>
   <time name="total">    4.05    4.11</time>
   <energy>
    <i name="e_fr_energy">    -83.33637398 </i>
    <i name="e_wo_entrp">    -83.33637398 </i>
    <i name="e_0_energy">    -83.33637398 </i>
   </energy>
  </scstep>
  <scstep>
   <time name="dav">    3.62    3.63</time>
   <time name="total">    4.02    4.02</time>
   <energy>
    <i name="e_fr_energy">    -83.33985150 </i>
    <i name="e_wo_entrp">    -83.33985150 </i>
    <i name="e_0_energy">    -83.33985150 </i>
   </energy>
  </scstep>
  <scstep>
   <time name="dav">    3.60    3.60</time>
   <time name="total">    3.99    4.00</time>
   <energy>
    <i name="e_fr_energy">    -83.34223483 </i>
    <i name="e_wo_entrp">    -83.34223483 </i>
    <i name="e_0_energy">    -83.34223483 </i>
   </energy>
  </scstep>
  <scstep>
   <time name="dav">    3.56    3.56</time>
   <time name="total">    3.95    6.07</time>
   <energy>
    <i name="e_fr_energy">    -83.34347057 </i>
    <i name="e_wo_entrp">    -83.34347057 </i>
    <i name="e_0_energy">    -83.34347057 </i>
   </energy>
  </scstep>
  <scstep>
   <time name="dav">    3.50    3.51</time>
   <time name="total">    3.90    3.92</time>
   <energy>
    <i name="e_fr_energy">    -83.34384104 </i>
    <i name="e_wo_entrp">    -83.34384104 </i>
    <i name="e_0_energy">    -83.34384104 </i>
   </energy>
  </scstep>
  <scstep>
   <time name="dav">    3.43    3.43</time>
   <time name="total">    3.83    3.85</time>
   <energy>
    <i name="e_fr_energy">    -83.34405073 </i>
    <i name="e_wo_entrp">    -83.34405073 </i>
    <i name="e_0_energy">    -83.34405073 </i>
   </energy>
  </scstep>
  <scstep>
   <time name="dav">    3.52    3.52</time>
   <time name="total">    3.76    3.77</time>
   <energy>
    <i name="alphaZ">    109.30643725 </i>
    <i name="ewald"> 107939.20905919 </i>
    <i name="hartreedc">-148692.56978123 </i>
    <i name="XCdc">   -462.83262015 </i>
    <i name="pawpsdc">  44843.00360034 </i>
    <i name="pawaedc"> -43036.22602039 </i>
    <i name="eentropy">      0.00000000 </i>
    <i name="bandstr">  -3308.37862794 </i>
    <i name="atom">  42525.14383354 </i>
    <i name="e_fr_energy">    -83.34411938 </i>
    <i name="e_wo_entrp">    -83.34411938 </i>
    <i name="e_0_energy">    -83.34411938 </i>
   </energy>
  </scstep>
  <structure>
   <crystal>
    <varray name="basis" >
     <v>      23.56199458       0.00000000       0.00000000 </v>
     <v>       0.00000000      23.56199458       0.00000000 </v>
     <v>       0.00000000       0.00000000      23.56199458 </v>
    </varray>
    <i name="volume">  13080.85571136 </i>
    <varray name="rec_basis" >
     <v>       0.04244123       0.00000000       0.00000000 </v>
     <v>       0.00000000       0.04244123       0.00000000 </v>
     <v>       0.00000000       0.00000000       0.04244123 </v>
    </varray>
   </crystal>
   <varray name="positions" >
    <v>       0.74723957       0.47383420       0.44114713 </v>
    <v>       0.69303076       0.54456083       0.51104996 </v>
    <v>       0.67634986       0.51809112       0.62937157 </v>
    <v>       0.70991584       0.40893357       0.64891688 </v>
    <v>       0.72104919       0.43579913       0.54302556 </v>
    <v>       0.63873355       0.47473963       0.41524493 </v>
    <v>       0.56884545       0.53440241       0.35050941 </v>
    <v>       0.64923679       0.64157638       0.46701348 </v>
    <v>       0.54053417       0.66154118       0.51040348 </v>
    <v>       0.56853770       0.55570053       0.46983650 </v>
    <v>       0.61981937       0.40441044       0.50319669 </v>
    <v>       0.56288259       0.64395404       0.39056677 </v>
    <v>       0.60585355       0.43857801       0.67926470 </v>
    <v>       0.58174932       0.49156380       0.56939613 </v>
    <v>       0.57292841       0.55785848       0.66852184 </v>
    <v>       0.53237277       0.42597879       0.43045706 </v>
    <v>       0.61914759       0.60633267       0.57589360 </v>
    <v>       0.53936042       0.38637639       0.58345384 </v>
    <v>       0.48324894       0.48948778       0.51174883 </v>
    <v>       0.46169972       0.51428918       0.38044906 </v>
    <v>       0.48448529       0.60566171       0.31278106 </v>
    <v>       0.42110807       0.53278687       0.59865440 </v>
    <v>       0.57729449       0.39458342       0.78116746 </v>
    <v>       0.53665175       0.49835588       0.76168478 </v>
    <v>       0.47623130       0.71071363       0.42932897 </v>
    <v>       0.34988779       0.51629468       0.40688336 </v>
    <v>       0.45948991       0.30813644       0.60936611 </v>
    <v>       0.49740158       0.62588001       0.60923511 </v>
    <v>       0.49650863       0.71856959       0.31805063 </v>
    <v>       0.41294050       0.41805265       0.42151861 </v>
    <v>       0.39149964       0.58336717       0.49879732 </v>
    <v>       0.51792285       0.35485349       0.69491560 </v>
    <v>       0.46443184       0.35565911       0.50109968 </v>
    <v>       0.36472976       0.47142484       0.51198463 </v>
    <v>       0.43115455       0.68207399       0.53113273 </v>
    <v>       0.46336464       0.56843821       0.70337007 </v>
    <v>       0.40019340       0.61854714       0.38713103 </v>
    <v>       0.46960723       0.45572483       0.68284747 </v>
    <v>       0.34019218       0.68333222       0.45889761 </v>
    <v>       0.38700006       0.72786147       0.36261892 </v>
    <v>       0.41802755       0.41433268       0.59172561 </v>
   </varray>
  </structure>
  <varray name="forces" >
   <v>       0.61373759      -0.11520437      -0.52730361 </v>
   <v>      -0.03361771      -0.01199107       0.13380394 </v>
   <v>       0.62053048       0.09394444      -0.11750200 </v>
   <v>       0.36092035      -0.51643723       0.44426968 </v>
   <v>       0.31029799       0.22720987       0.19080043 </v>
   <v>       0.15122670       0.04352582      -0.11796660 </v>
   <v>       0.17449943      -0.19663192      -0.24683153 </v>
   <v>       0.26716938       0.25915850      -0.06273742 </v>
   <v>       0.42730129       0.30506019      -0.24520594 </v>
   <v>      -0.06435646      -0.25442923      -0.26097730 </v>
   <v>      -0.07066738      -0.57015202      -0.08050112 </v>
   <v>      -0.03380246       0.31625589      -0.19846897 </v>
   <v>      -0.72404278       0.02382064      -0.15941076 </v>
   <v>       0.11323794       0.19454691       0.31380997 </v>
   <v>      -0.03854663      -0.09530231       0.32641334 </v>
   <v>       0.02647863       0.17602954      -0.48307839 </v>
   <v>      -0.03982767       0.25672115      -0.03702458 </v>
   <v>       0.03179704       0.09509437       0.34898649 </v>
   <v>      -0.55024964      -0.20214751      -0.17803172 </v>
   <v>       0.03149248       0.01197831       0.28668925 </v>
   <v>       0.04777797      -0.15120237      -0.57549414 </v>
   <v>      -0.07354349       0.12434582       0.62296736 </v>
   <v>       0.29596273      -0.13854768       0.52015612 </v>
   <v>       0.25303162       0.26587883       0.50953683 </v>
   <v>      -0.08750479       0.15787252       0.24838572 </v>
   <v>      -0.38841649       0.03964179      -0.06505455 </v>
   <v>      -0.31627564      -0.58453863      -0.02608792 </v>
   <v>      -0.04509677      -0.06427542       0.03400270 </v>
   <v>       0.17139473       0.28280058      -0.18053550 </v>
   <v>      -0.01293443      -0.12218443      -0.33755866 </v>
   <v>      -0.08186946      -0.27612031      -0.09849697 </v>
   <v>       0.08819334      -0.43537099      -0.01678501 </v>
   <v>       0.11054337      -0.23078408      -0.10000907 </v>
   <v>      -0.47706344       0.06709127      -0.01658440 </v>
   <v>      -0.22919445       0.40208033       0.50968659 </v>
   <v>      -0.41404519       0.32343228       0.32827350 </v>
   <v>       0.06960581      -0.21733223      -0.19812126 </v>
   <v>      -0.03258401       0.18388613      -0.29750507 </v>
   <v>      -0.12884504       0.15743705       0.14346126 </v>
   <v>      -0.39173154       0.49309541      -0.54421364 </v>
   <v>       0.06901660      -0.31825583       0.21024291 </v>
  </varray>
  <varray name="stress" >
   <v>       0.11489868      -0.23578640       0.03250557 </v>
   <v>      -0.23578640       0.22926477      -0.43685656 </v>
   <v>       0.03250556      -0.43685657       0.70200392 </v>
  </varray>
  <energy>
   <i name="e_fr_energy">    -83.34411938 </i>
   <i name="e_wo_entrp">    -83.34411938 </i>
   <i name="e_0_energy">      0.00000000 </i>
  </energy>
  <time name="totalsc">  170.99  179.11</time>
 </calculation>
 <calculation>
  <scstep>
   <time name="dav">    4.82    4.82</time>
   <time name="total">    5.21    5.23</time>
   <energy>
    <i name="alphaZ">    109.30643725 </i>
    <i name="ewald"> 107773.03492276 </i>
    <i name="hartreedc">-148527.42744436 </i>
    <i name="XCdc">   -463.04140271 </i>
    <i name="pawpsdc">  44843.03299239 </i>
    <i name="pawaedc"> -43036.25565329 </i>
    <i name="eentropy">      0.00000000 </i>
    <i name="bandstr">  -3307.22814638 </i>
    <i name="atom">  42525.14383354 </i>
    <i name="e_fr_energy">    -83.43446080 </i>
    <i name="e_wo_entrp">    -83.43446080 </i>
    <i name="e_0_energy">    -83.43446080 </i>
   </energy>
  </scstep>
  <scstep>
   <time name="dav">    4.82    4.83</time>
   <time name="total">    5.21    5.22</time>
   <energy>
    <i name="e_fr_energy">    -83.43739426 </i>
    <i name="e_wo_entrp">    -83.43739426 </i>
    <i name="e_0_energy">    -83.43739426 </i>
   </energy>
  </scstep>
  <scstep>
   <time name="dav">    4.82    4.82</time>
   <time name="total">    5.06    5.07</time>
   <energy>
    <i name="alphaZ">    109.30643725 </i>
    <i name="ewald"> 107773.03492276 </i>
    <i name="hartreedc">-148528.49353977 </i>
    <i name="XCdc">   -463.01222975 </i>
    <i name="pawpsdc">  44824.21458215 </i>
    <i name="pawaedc"> -43017.14390011 </i>
    <i name="eentropy">      0.00000000 </i>
    <i name="bandstr">  -3306.48742627 </i>
    <i name="atom">  42525.14383354 </i>
    <i name="e_fr_energy">    -83.43732019 </i>
    <i name="e_wo_entrp">    -83.43732019 </i>
    <i name="e_0_energy">    -83.43732019 </i>
   </energy>
  </scstep>
  <structure>
   <crystal>
    <varray name="basis" >
     <v>      23.56199458       0.00000000       0.00000000 </v>
     <v>       0.00000000      23.56199458       0.00000000 </v>
     <v>       0.00000000       0.00000000      23.56199458 </v>
    </varray>
    <i name="volume">  13080.85571136 </i>
    <varray name="rec_basis" >
     <v>       0.04244123       0.00000000       0.00000000 </v>
     <v>       0.00000000       0.04244123       0.00000000 </v>
     <v>       0.00000000       0.00000000       0.04244123 </v>
    </varray>
   </crystal>
   <varray name="positions" >
    <v>       0.74749090       0.47378703       0.44093120 </v>
    <v>       0.69301699       0.54455592       0.51110475 </v>
    <v>       0.67660396       0.51812959       0.62932345 </v>
    <v>       0.71006363       0.40872209       0.64909881 </v>
    <v>       0.72117626       0.43589217       0.54310369 </v>
    <v>       0.63879548       0.47475745       0.41519662 </v>
    <v>       0.56891691       0.53432189       0.35040833 </v>
    <v>       0.64934619       0.64168250       0.46698779 </v>
    <v>       0.54070915       0.66166610       0.51030307 </v>
    <v>       0.56851135       0.55559634       0.46972963 </v>
    <v>       0.61979043       0.40417697       0.50316372 </v>
    <v>       0.56286874       0.64408355       0.39048550 </v>
    <v>       0.60555706       0.43858777       0.67919942 </v>
    <v>       0.58179569       0.49164346       0.56952464 </v>
    <v>       0.57291263       0.55781945       0.66865551 </v>
    <v>       0.53238361       0.42605087       0.43025924 </v>
    <v>       0.61913128       0.60643780       0.57587844 </v>
    <v>       0.53937344       0.38641533       0.58359675 </v>
    <v>       0.48302362       0.48940501       0.51167593 </v>
    <v>       0.46171261       0.51429408       0.38056646 </v>
    <v>       0.48450485       0.60559979       0.31254540 </v>
    <v>       0.42107796       0.53283779       0.59890951 </v>
    <v>       0.57741569       0.39452669       0.78138046 </v>
    <v>       0.53675537       0.49846476       0.76189343 </v>
    <v>       0.47619547       0.71077827       0.42943068 </v>
    <v>       0.34972874       0.51631092       0.40685672 </v>
    <v>       0.45936039       0.30789707       0.60935543 </v>
    <v>       0.49738311       0.62585369       0.60924903 </v>
    <v>       0.49657881       0.71868540       0.31797670 </v>
    <v>       0.41293521       0.41800262       0.42138038 </v>
    <v>       0.39146611       0.58325410       0.49875698 </v>
    <v>       0.51795896       0.35467520       0.69490872 </v>
    <v>       0.46447711       0.35556461       0.50105873 </v>
    <v>       0.36453441       0.47145232       0.51197784 </v>
    <v>       0.43106070       0.68223864       0.53134145 </v>
    <v>       0.46319509       0.56857065       0.70350449 </v>
    <v>       0.40022190       0.61845814       0.38704990 </v>
    <v>       0.46959389       0.45580013       0.68272564 </v>
    <v>       0.34013942       0.68339669       0.45895635 </v>
    <v>       0.38683965       0.72806339       0.36239606 </v>
    <v>       0.41805581       0.41420235       0.59181171 </v>
   </varray>
  </structure>
  <varray name="forces" >
   <v>       0.57322347      -0.10539976      -0.48453216 </v>
   <v>      -0.02495073      -0.02374566       0.10761076 </v>
   <v>       0.58418990       0.07347839      -0.10397363 </v>
   <v>       0.31706796      -0.48140552       0.42824220 </v>
   <v>       0.29033003       0.22318452       0.17777342 </v>
   <v>       0.16934102       0.03130666      -0.09633219 </v>
   <v>       0.15852039      -0.17936577      -0.24409663 </v>
   <v>       0.25418018       0.24031312      -0.06531346 </v>
   <v>       0.38816260       0.29624559      -0.22261145 </v>
   <v>      -0.06547147      -0.23780740      -0.25037272 </v>
   <v>      -0.06681224      -0.53579605      -0.07371541 </v>
   <v>      -0.03514549       0.29538500      -0.19630792 </v>
   <v>      -0.67209797       0.02116444      -0.15931079 </v>
   <v>       0.09787561       0.17986862       0.27814922 </v>
   <v>      -0.03241158      -0.08654238       0.30841713 </v>
   <v>       0.02928299       0.17426658      -0.46219405 </v>
   <v>      -0.04098419       0.23762361      -0.02440897 </v>
   <v>       0.01357001       0.08460552       0.33285370 </v>
   <v>      -0.51970354      -0.19759366      -0.16103755 </v>
   <v>       0.03363321       0.02804559       0.27881913 </v>
   <v>       0.05200950      -0.14294677      -0.55118199 </v>
   <v>      -0.07893701       0.10780929       0.57811300 </v>
   <v>       0.27777257      -0.12688347       0.47915919 </v>
   <v>       0.22966504       0.24397560       0.48338983 </v>
   <v>      -0.11714756       0.15689654       0.21457849 </v>
   <v>      -0.37413170       0.03280873      -0.06499703 </v>
   <v>      -0.29507988      -0.55878958      -0.02978529 </v>
   <v>      -0.03338792      -0.06184064       0.01931287 </v>
   <v>       0.15544251       0.26157597      -0.15611788 </v>
   <v>      -0.01710578      -0.11710371      -0.31454755 </v>
   <v>      -0.06444373      -0.23532236      -0.08425462 </v>
   <v>       0.08352354      -0.40715922      -0.00150441 </v>
   <v>       0.11501840      -0.21382035      -0.09354257 </v>
   <v>      -0.45057413       0.04583059       0.00225736 </v>
   <v>      -0.21272850       0.36530291       0.48256934 </v>
   <v>      -0.38951059       0.30855387       0.32968127 </v>
   <v>       0.06453280      -0.16936320      -0.19397680 </v>
   <v>       0.00894198       0.18501455      -0.25698393 </v>
   <v>      -0.10029686       0.14669402       0.11981422 </v>
   <v>      -0.35906920       0.44460576      -0.50466182 </v>
   <v>       0.05370635      -0.30366998       0.17501968 </v>
  </varray>
  <varray name="stress" >
   <v>      -0.02033695      -0.22808354       0.03475760 </v>
   <v>      -0.22808354       0.10731137      -0.42545955 </v>
   <v>       0.03475761      -0.42545957       0.57689374 </v>
  </varray>
  <energy>
   <i name="e_fr_energy">    -83.43732019 </i>
   <i name="e_wo_entrp">    -83.43732019 </i>
   <i name="e_0_energy">      0.00000000 </i>
  </energy>
  <time name="totalsc">   24.33   24.45</time>
 </calculation>
 <calculation>
  <scstep>
   <time name="dav">    4.67    4.67</time>
   <time name="total">    5.06    5.08</time>
   <energy>
    <i name="alphaZ">    109.30643725 </i>
    <i name="ewald"> 107276.21159853 </i>
    <i name="hartreedc">-148035.23436931 </i>
    <i name="XCdc">   -463.61870301 </i>
    <i name="pawpsdc">  44813.08294334 </i>
    <i name="pawaedc"> -43005.83181187 </i>
    <i name="eentropy">     -0.00000000 </i>
    <i name="bandstr">  -3302.71638018 </i>
    <i name="atom">  42525.14383354 </i>
    <i name="e_fr_energy">    -83.65645170 </i>
    <i name="e_wo_entrp">    -83.65645170 </i>
    <i name="e_0_energy">    -83.65645170 </i>
   </energy>
  </scstep>
  <scstep>
   <time name="dav">    4.83    4.84</time>
   <time name="total">    5.22    5.23</time>
   <energy>
    <i name="e_fr_energy">    -83.68261225 </i>
    <i name="e_wo_entrp">    -83.68261225 </i>
    <i name="e_0_energy">    -83.68261225 </i>
   </energy>
  </scstep>
  <scstep>
   <time name="dav">    4.88    4.88</time>
   <time name="total">    5.26    5.27</time>
   <energy>
    <i name="e_fr_energy">    -83.68200478 </i>
    <i name="e_wo_entrp">    -83.68200478 </i>
    <i name="e_0_energy">    -83.68200478 </i>
   </energy>
  </scstep>
  <scstep>
   <time name="dav">    4.91    4.91</time>
   <time name="total">    5.29    5.30</time>
   <energy>
    <i name="e_fr_energy">    -83.68153730 </i>
    <i name="e_wo_entrp">    -83.68153730 </i>
    <i name="e_0_energy">    -83.68153730 </i>
   </energy>
  </scstep>
  <scstep>
   <time name="dav">    3.56    3.56</time>
   <time name="total">    3.81    3.96</time>
   <energy>
    <i name="alphaZ">    109.30643725 </i>
    <i name="ewald"> 107276.21159853 </i>
    <i name="hartreedc">-148039.80072765 </i>
    <i name="XCdc">   -463.50415830 </i>
    <i name="pawpsdc">  44720.70777976 </i>
    <i name="pawaedc"> -42911.96231863 </i>
    <i name="eentropy">      0.00000000 </i>
    <i name="bandstr">  -3299.78397338 </i>
    <i name="atom">  42525.14383354 </i>
    <i name="e_fr_energy">    -83.68152887 </i>
    <i name="e_wo_entrp">    -83.68152887 </i>
    <i name="e_0_energy">    -83.68152887 </i>
   </energy>
  </scstep>
  <structure>
   <crystal>
    <varray name="basis" >
     <v>      23.56199458       0.00000000       0.00000000 </v>
     <v>       0.00000000      23.56199458       0.00000000 </v>
     <v>       0.00000000       0.00000000      23.56199458 </v>
    </varray>
    <i name="volume">  13080.85571136 </i>
    <varray name="rec_basis" >
     <v>       0.04244123       0.00000000       0.00000000 </v>
     <v>       0.00000000       0.04244123       0.00000000 </v>
     <v>       0.00000000       0.00000000       0.04244123 </v>
    </varray>
   </crystal>
   <varray name="positions" >
    <v>       0.74824487       0.47364550       0.44028342 </v>
    <v>       0.69297570       0.54454119       0.51126912 </v>
    <v>       0.67736628       0.51824500       0.62917910 </v>
    <v>       0.71050702       0.40808766       0.64964459 </v>
    <v>       0.72155746       0.43617129       0.54333809 </v>
    <v>       0.63898126       0.47481092       0.41505170 </v>
    <v>       0.56913128       0.53408033       0.35010510 </v>
    <v>       0.64967441       0.64200088       0.46691072 </v>
    <v>       0.54123408       0.66204086       0.51000184 </v>
    <v>       0.56843229       0.55528378       0.46940903 </v>
    <v>       0.61970362       0.40347654       0.50306483 </v>
    <v>       0.56282722       0.64447206       0.39024168 </v>
    <v>       0.60466758       0.43861703       0.67900359 </v>
    <v>       0.58193480       0.49188246       0.56991015 </v>
    <v>       0.57286528       0.55770238       0.66905650 </v>
    <v>       0.53241614       0.42626712       0.42966579 </v>
    <v>       0.61908235       0.60675318       0.57583295 </v>
    <v>       0.53941250       0.38653216       0.58402547 </v>
    <v>       0.48234764       0.48915667       0.51145722 </v>
    <v>       0.46175130       0.51430880       0.38091865 </v>
    <v>       0.48456355       0.60541404       0.31183841 </v>
    <v>       0.42098761       0.53299055       0.59967481 </v>
    <v>       0.57777927       0.39435648       0.78201947 </v>
    <v>       0.53706622       0.49879138       0.76251939 </v>
    <v>       0.47608797       0.71097222       0.42973582 </v>
    <v>       0.34925158       0.51635962       0.40677680 </v>
    <v>       0.45897185       0.30717897       0.60932338 </v>
    <v>       0.49732771       0.62577473       0.60929081 </v>
    <v>       0.49678937       0.71903281       0.31775492 </v>
    <v>       0.41291932       0.41785251       0.42096569 </v>
    <v>       0.39136554       0.58291489       0.49863598 </v>
    <v>       0.51806730       0.35414036       0.69488810 </v>
    <v>       0.46461291       0.35528109       0.50093587 </v>
    <v>       0.36394834       0.47153474       0.51195747 </v>
    <v>       0.43077913       0.68273259       0.53196759 </v>
    <v>       0.46268644       0.56896798       0.70390777 </v>
    <v>       0.40030741       0.61819115       0.38680651 </v>
    <v>       0.46955386       0.45602604       0.68236016 </v>
    <v>       0.33998113       0.68359010       0.45913259 </v>
    <v>       0.38635841       0.72866915       0.36172750 </v>
    <v>       0.41814060       0.41381138       0.59206999 </v>
   </varray>
  </structure>
  <varray name="forces" >
   <v>       0.47014709      -0.08115200      -0.37714437 </v>
   <v>      -0.00240052      -0.05422629       0.03802343 </v>
   <v>       0.48938514       0.01859097      -0.07004546 </v>
   <v>       0.20628979      -0.38928515       0.38826117 </v>
   <v>       0.24002726       0.21239397       0.14614219 </v>
   <v>       0.22190603      -0.00284715      -0.03882149 </v>
   <v>       0.11496347      -0.13354724      -0.24039986 </v>
   <v>       0.22218568       0.19395890      -0.07216587 </v>
   <v>       0.28279829       0.27245219      -0.16087974 </v>
   <v>      -0.07066313      -0.19670493      -0.22333050 </v>
   <v>      -0.05880237      -0.45022311      -0.05818194 </v>
   <v>      -0.03951397       0.24265051      -0.19246967 </v>
   <v>      -0.53480360       0.01291777      -0.15396686 </v>
   <v>       0.05836112       0.14365917       0.18610132 </v>
   <v>      -0.01752911      -0.06162601       0.26269852 </v>
   <v>       0.03782838       0.17090347      -0.40915907 </v>
   <v>      -0.04524772       0.18898008       0.01011146 </v>
   <v>      -0.03532864       0.05606808       0.28887369 </v>
   <v>      -0.44672632      -0.18575500      -0.11804040 </v>
   <v>       0.04107225       0.07290984       0.25999141 </v>
   <v>       0.06376974      -0.12226729      -0.48739410 </v>
   <v>      -0.09563716       0.06332726       0.45881960 </v>
   <v>       0.23122863      -0.09470677       0.37358614 </v>
   <v>       0.17152649       0.18684881       0.41899284 </v>
   <v>      -0.19749763       0.15584661       0.12493870 </v>
   <v>      -0.33877667       0.01433749      -0.06490462 </v>
   <v>      -0.24000550      -0.49496671      -0.03979971 </v>
   <v>      -0.00187305      -0.05316533      -0.01996579 </v>
   <v>       0.11270791       0.20608292      -0.09205723 </v>
   <v>      -0.02869332      -0.10498819      -0.25539712 </v>
   <v>      -0.01823895      -0.12562074      -0.04593136 </v>
   <v>       0.07219528      -0.33623936       0.03970541 </v>
   <v>       0.12910806      -0.16944005      -0.07518324 </v>
   <v>      -0.38675016      -0.01290338       0.05327140 </v>
   <v>      -0.17084894       0.26846589       0.41006567 </v>
   <v>      -0.32566283       0.27110956       0.33579558 </v>
   <v>       0.05186749      -0.04357373      -0.18517600 </v>
   <v>       0.12241928       0.19130590      -0.14958711 </v>
   <v>      -0.02377463       0.12048261       0.05852238 </v>
   <v>      -0.27144323       0.31816957      -0.40208100 </v>
   <v>       0.01043007      -0.26822316       0.07818160 </v>
  </varray>
  <varray name="stress" >
   <v>      -0.35772189      -0.20929409       0.03858108 </v>
   <v>      -0.20929409      -0.20138595      -0.40097086 </v>
   <v>       0.03858108      -0.40097086       0.25659433 </v>
  </varray>
  <energy>
   <i name="e_fr_energy">    -83.68152887 </i>
   <i name="e_wo_entrp">    -83.68152887 </i>
   <i name="e_0_energy">      0.00000000 </i>
  </energy>
  <time name="totalsc">   33.48   37.67</time>
 </calculation>
 <calculation>
  <scstep>
   <time name="dav">    4.72    4.72</time>
   <time name="total">    5.10    5.21</time>
   <energy>
    <i name="alphaZ">    109.30643725 </i>
    <i name="ewald"> 106290.18414769 </i>
    <i name="hartreedc">-147059.31107275 </i>
    <i name="XCdc">   -464.67670314 </i>
    <i name="pawpsdc">  44721.61307823 </i>
    <i name="pawaedc"> -42912.87757696 </i>
    <i name="eentropy">      0.00000000 </i>
    <i name="bandstr">  -3293.30516048 </i>
    <i name="atom">  42525.14383354 </i>
    <i name="e_fr_energy">    -83.92301662 </i>
    <i name="e_wo_entrp">    -83.92301662 </i>
    <i name="e_0_energy">    -83.92301662 </i>
   </energy>
  </scstep>
  <scstep>
   <time name="dav">    4.76    4.76</time>
   <time name="total">    5.14    5.15</time>
   <energy>
    <i name="e_fr_energy">    -84.02732038 </i>
    <i name="e_wo_entrp">    -84.02732038 </i>
    <i name="e_0_energy">    -84.02732038 </i>
   </energy>
  </scstep>
  <scstep>
   <time name="dav">    4.81    4.81</time>
   <time name="total">    5.19    5.20</time>
   <energy>
    <i name="e_fr_energy">    -84.02568732 </i>
    <i name="e_wo_entrp">    -84.02568732 </i>
    <i name="e_0_energy">    -84.02568732 </i>
   </energy>
  </scstep>
  <scstep>
   <time name="dav">    4.83    4.83</time>
   <time name="total">    5.22    5.23</time>
   <energy>
    <i name="e_fr_energy">    -84.02316125 </i>
    <i name="e_wo_entrp">    -84.02316125 </i>
    <i name="e_0_energy">    -84.02316125 </i>
   </energy>
  </scstep>
  <scstep>
   <time name="dav">    4.92    4.92</time>
   <time name="total">    5.31    8.97</time>
   <energy>
    <i name="e_fr_energy">    -84.02326613 </i>
    <i name="e_wo_entrp">    -84.02326613 </i>
    <i name="e_0_energy">    -84.02326613 </i>
   </energy>
  </scstep>
  <scstep>
   <time name="dav">    3.58    3.58</time>
   <time name="total">    3.82    6.36</time>
   <energy>
    <i name="alphaZ">    109.30643725 </i>
    <i name="ewald"> 106290.18414769 </i>
    <i name="hartreedc">-147068.12523538 </i>
    <i name="XCdc">   -464.45408071 </i>
    <i name="pawpsdc">  44556.29082108 </i>
    <i name="pawaedc"> -42744.80556823 </i>
    <i name="eentropy">      0.00000000 </i>
    <i name="bandstr">  -3287.56352468 </i>
    <i name="atom">  42525.14383354 </i>
    <i name="e_fr_energy">    -84.02316944 </i>
    <i name="e_wo_entrp">    -84.02316944 </i>
    <i name="e_0_energy">    -84.02316944 </i>
   </energy>
  </scstep>
  <structure>
   <crystal>
    <varray name="basis" >
     <v>      23.56199458       0.00000000       0.00000000 </v>
     <v>       0.00000000      23.56199458       0.00000000 </v>
     <v>       0.00000000       0.00000000      23.56199458 </v>
    </varray>
    <i name="volume">  13080.85571136 </i>
    <varray name="rec_basis" >
     <v>       0.04244123       0.00000000       0.00000000 </v>
     <v>       0.00000000       0.04244123       0.00000000 </v>
     <v>       0.00000000       0.00000000       0.04244123 </v>
    </varray>
   </crystal>
   <varray name="positions" >
    <v>       0.74975280       0.47336245       0.43898784 </v>
    <v>       0.69289310       0.54451173       0.51159788 </v>
    <v>       0.67889090       0.51847582       0.62889041 </v>
    <v>       0.71139379       0.40681878       0.65073615 </v>
    <v>       0.72231985       0.43672954       0.54380688 </v>
    <v>       0.63935282       0.47491786       0.41476186 </v>
    <v>       0.56956002       0.53359721       0.34949865 </v>
    <v>       0.65033084       0.64263762       0.46675658 </v>
    <v>       0.54228395       0.66279038       0.50939937 </v>
    <v>       0.56827417       0.55465865       0.46876781 </v>
    <v>       0.61952999       0.40207570       0.50286704 </v>
    <v>       0.56274417       0.64524909       0.38975405 </v>
    <v>       0.60288863       0.43867556       0.67861192 </v>
    <v>       0.58221302       0.49236046       0.57068117 </v>
    <v>       0.57277057       0.55746822       0.66985849 </v>
    <v>       0.53248120       0.42669962       0.42847888 </v>
    <v>       0.61898450       0.60738393       0.57574199 </v>
    <v>       0.53949063       0.38676580       0.58488292 </v>
    <v>       0.48099570       0.48866000       0.51101980 </v>
    <v>       0.46182868       0.51433823       0.38162304 </v>
    <v>       0.48468094       0.60504254       0.31042444 </v>
    <v>       0.42080692       0.53329607       0.60120543 </v>
    <v>       0.57850644       0.39401608       0.78329748 </v>
    <v>       0.53768791       0.49944464       0.76377131 </v>
    <v>       0.47587297       0.71136011       0.43034610 </v>
    <v>       0.34829725       0.51645701       0.40661697 </v>
    <v>       0.45819477       0.30574278       0.60925928 </v>
    <v>       0.49721691       0.62561680       0.60937435 </v>
    <v>       0.49721048       0.71972765       0.31731134 </v>
    <v>       0.41288754       0.41755231       0.42013632 </v>
    <v>       0.39116439       0.58223647       0.49839397 </v>
    <v>       0.51828399       0.35307066       0.69484686 </v>
    <v>       0.46488451       0.35471406       0.50069015 </v>
    <v>       0.36277621       0.47169958       0.51191672 </v>
    <v>       0.43021601       0.68372049       0.53321988 </v>
    <v>       0.46166914       0.56976265       0.70471433 </v>
    <v>       0.40047843       0.61765717       0.38631973 </v>
    <v>       0.46947380       0.45647784       0.68162920 </v>
    <v>       0.33966457       0.68397692       0.45948507 </v>
    <v>       0.38539593       0.72988067       0.36039039 </v>
    <v>       0.41831017       0.41302944       0.59258655 </v>
   </varray>
  </structure>
  <varray name="forces" >
   <v>       0.26281463      -0.03821200      -0.17114013 </v>
   <v>       0.03203062      -0.09862930      -0.09412373 </v>
   <v>       0.31395279      -0.07834856      -0.00638924 </v>
   <v>       0.01265024      -0.20765099       0.28767587 </v>
   <v>       0.14836479       0.17710709       0.09070499 </v>
   <v>       0.32107620      -0.06874889       0.07038252 </v>
   <v>       0.02751576      -0.04426102      -0.22982932 </v>
   <v>       0.15993332       0.10289601      -0.08420860 </v>
   <v>       0.08557928       0.22027394      -0.04661554 </v>
   <v>      -0.08254040      -0.11475428      -0.16198946 </v>
   <v>      -0.04744385      -0.28569529      -0.03409894 </v>
   <v>      -0.05023760       0.13927160      -0.18308017 </v>
   <v>      -0.27814166      -0.00369698      -0.10787963 </v>
   <v>      -0.00672271       0.08245226       0.01239927 </v>
   <v>       0.00443552      -0.00625656       0.17354228 </v>
   <v>       0.05849597       0.15595859      -0.29489203 </v>
   <v>      -0.05100522       0.09277308       0.07267655 </v>
   <v>      -0.12555162       0.00164196       0.18661945 </v>
   <v>      -0.30956723      -0.16430696      -0.03603294 </v>
   <v>       0.05359790       0.16171686       0.21922771 </v>
   <v>       0.08366215      -0.08367663      -0.36005119 </v>
   <v>      -0.13218667      -0.01614475       0.21796569 </v>
   <v>       0.14719721      -0.02635619       0.17522199 </v>
   <v>       0.07229497       0.07145016       0.29616207 </v>
   <v>      -0.33871053       0.14838909      -0.03755512 </v>
   <v>      -0.26439378      -0.02063456      -0.06488333 </v>
   <v>      -0.13124044      -0.36117394      -0.05635185 </v>
   <v>       0.05863356      -0.03670207      -0.09108660 </v>
   <v>       0.02722336       0.10037741       0.02653810 </v>
   <v>      -0.05036470      -0.08107693      -0.14501592 </v>
   <v>       0.06579247       0.08105048       0.02403340 </v>
   <v>       0.04502919      -0.21074807       0.11407576 </v>
   <v>       0.15413331      -0.07871549      -0.03749608 </v>
   <v>      -0.27512864      -0.12492205       0.14273203 </v>
   <v>      -0.09335148       0.08648147       0.27274618 </v>
   <v>      -0.19818017       0.19900281       0.34381123 </v>
   <v>       0.03051688       0.18002084      -0.16579952 </v>
   <v>       0.32532496       0.20182428       0.05896384 </v>
   <v>       0.11831426       0.06867916      -0.05307776 </v>
   <v>      -0.10351011       0.08746107      -0.21706778 </v>
   <v>      -0.07029253      -0.20811664      -0.10681405 </v>
  </varray>
  <varray name="stress" >
   <v>      -0.97705553      -0.17299804       0.05159013 </v>
   <v>      -0.17299803      -0.76157316      -0.34272202 </v>
   <v>       0.05159013      -0.34272202      -0.33423396 </v>
  </varray>
  <energy>
   <i name="e_fr_energy">    -84.02316944 </i>
   <i name="e_wo_entrp">    -84.02316944 </i>
   <i name="e_0_energy">      0.00000000 </i>
  </energy>
  <time name="totalsc">   38.63   47.82</time>
 </calculation>
 <calculation>
  <scstep>
   <time name="dav">    4.70    4.70</time>
   <time name="total">    5.08    5.11</time>
   <energy>
    <i name="alphaZ">    109.30643725 </i>
    <i name="ewald"> 104348.34475112 </i>
    <i name="hartreedc">-145136.01695585 </i>
    <i name="XCdc">   -466.58734072 </i>
    <i name="pawpsdc">  44557.40636124 </i>
    <i name="pawaedc"> -42745.93054161 </i>
    <i name="eentropy">      0.00000000 </i>
    <i name="bandstr">  -3275.46093655 </i>
    <i name="atom">  42525.14383354 </i>
    <i name="e_fr_energy">    -83.79439159 </i>
    <i name="e_wo_entrp">    -83.79439159 </i>
    <i name="e_0_energy">    -83.79439159 </i>
   </energy>
  </scstep>
  <scstep>
   <time name="dav">    4.83    4.83</time>
   <time name="total">    5.21    5.22</time>
   <energy>
    <i name="e_fr_energy">    -84.22238967 </i>
    <i name="e_wo_entrp">    -84.22238967 </i>
    <i name="e_0_energy">    -84.22238967 </i>
   </energy>
  </scstep>
  <scstep>
   <time name="dav">    4.92    4.92</time>
   <time name="total">    5.30    7.79</time>
   <energy>
    <i name="e_fr_energy">    -84.22032909 </i>
    <i name="e_wo_entrp">    -84.22032909 </i>
    <i name="e_0_energy">    -84.22032909 </i>
   </energy>
  </scstep>
  <scstep>
   <time name="dav">    4.80    4.80</time>
   <time name="total">    5.18    5.20</time>
   <energy>
    <i name="e_fr_energy">    -84.20851332 </i>
    <i name="e_wo_entrp">    -84.20851332 </i>
    <i name="e_0_energy">    -84.20851332 </i>
   </energy>
  </scstep>
  <scstep>
   <time name="dav">    4.99    4.99</time>
   <time name="total">    5.38    5.38</time>
   <energy>
    <i name="e_fr_energy">    -84.20852812 </i>
    <i name="e_wo_entrp">    -84.20852812 </i>
    <i name="e_0_energy">    -84.20852812 </i>
   </energy>
  </scstep>
  <scstep>
   <time name="dav">    4.85    4.85</time>
   <time name="total">    5.23    5.24</time>
   <energy>
    <i name="e_fr_energy">    -84.20827656 </i>
    <i name="e_wo_entrp">    -84.20827656 </i>
    <i name="e_0_energy">    -84.20827656 </i>
   </energy>
  </scstep>
  <scstep>
   <time name="dav">    3.75    3.75</time>
   <time name="total">    4.00    4.00</time>
   <energy>
    <i name="alphaZ">    109.30643725 </i>
    <i name="ewald"> 104348.34475112 </i>
    <i name="hartreedc">-145151.96783114 </i>
    <i name="XCdc">   -466.16271283 </i>
    <i name="pawpsdc">  44280.06370309 </i>
    <i name="pawaedc"> -42463.73700817 </i>
    <i name="eentropy">      0.00000000 </i>
    <i name="bandstr">  -3265.19945048 </i>
    <i name="atom">  42525.14383354 </i>
    <i name="e_fr_energy">    -84.20827761 </i>
    <i name="e_wo_entrp">    -84.20827761 </i>
    <i name="e_0_energy">    -84.20827761 </i>
   </energy>
  </scstep>
  <structure>
   <crystal>
    <varray name="basis" >
     <v>      23.56199458       0.00000000       0.00000000 </v>
     <v>       0.00000000      23.56199458       0.00000000 </v>
     <v>       0.00000000       0.00000000      23.56199458 </v>
    </varray>
    <i name="volume">  13080.85571136 </i>
    <varray name="rec_basis" >
     <v>       0.04244123       0.00000000       0.00000000 </v>
     <v>       0.00000000       0.04244123       0.00000000 </v>
     <v>       0.00000000       0.00000000       0.04244123 </v>
    </varray>
   </crystal>
   <varray name="positions" >
    <v>       0.75276868       0.47279634       0.43639670 </v>
    <v>       0.69272790       0.54445281       0.51225538 </v>
    <v>       0.68194016       0.51893746       0.62831301 </v>
    <v>       0.71316733       0.40428104       0.65291926 </v>
    <v>       0.72384464       0.43784604       0.54474446 </v>
    <v>       0.64009594       0.47513175       0.41418218 </v>
    <v>       0.57041750       0.53263097       0.34828573 </v>
    <v>       0.65164369       0.64391111       0.46644829 </v>
    <v>       0.54438368       0.66428943       0.50819445 </v>
    <v>       0.56795792       0.55340840       0.46748539 </v>
    <v>       0.61918273       0.39927400       0.50247146 </v>
    <v>       0.56257806       0.64680316       0.38877878 </v>
    <v>       0.59933072       0.43879261       0.67782858 </v>
    <v>       0.58276947       0.49331645       0.57222321 </v>
    <v>       0.57258115       0.55699991       0.67146247 </v>
    <v>       0.53261131       0.42756462       0.42610505 </v>
    <v>       0.61878878       0.60864545       0.57556005 </v>
    <v>       0.53964688       0.38723309       0.58659782 </v>
    <v>       0.47829180       0.48766666       0.51014496 </v>
    <v>       0.46198343       0.51439709       0.38303182 </v>
    <v>       0.48491572       0.60429954       0.30759649 </v>
    <v>       0.42044553       0.53390709       0.60426665 </v>
    <v>       0.57996079       0.39333526       0.78585350 </v>
    <v>       0.53893129       0.50075116       0.76627514 </v>
    <v>       0.47544298       0.71213588       0.43156665 </v>
    <v>       0.34638859       0.51665181       0.40629729 </v>
    <v>       0.45664061       0.30287039       0.60913108 </v>
    <v>       0.49699531       0.62530096       0.60954144 </v>
    <v>       0.49805271       0.72111731       0.31642420 </v>
    <v>       0.41282398       0.41695190       0.41847758 </v>
    <v>       0.39076208       0.58087963       0.49790997 </v>
    <v>       0.51871737       0.35093127       0.69476438 </v>
    <v>       0.46542771       0.35358000       0.50019871 </v>
    <v>       0.36043195       0.47202926       0.51183522 </v>
    <v>       0.42908976       0.68569629       0.53572445 </v>
    <v>       0.45963455       0.57135197       0.70632745 </v>
    <v>       0.40082047       0.61658921       0.38534618 </v>
    <v>       0.46931369       0.45738144       0.68016728 </v>
    <v>       0.33903143       0.68475055       0.46019004 </v>
    <v>       0.38347099       0.73230371       0.35771615 </v>
    <v>       0.41864931       0.41146554       0.59361967 </v>
   </varray>
  </structure>
  <varray name="forces" >
   <v>      -0.07131415       0.02153997       0.15785376 </v>
   <v>       0.06622728      -0.13328503      -0.31629971 </v>
   <v>       0.05060931      -0.21792948       0.09999105 </v>
   <v>      -0.23355863       0.08932780       0.08019881 </v>
   <v>       0.01818918       0.07303670       0.01335215 </v>
   <v>       0.49457240      -0.18845987       0.24862515 </v>
   <v>      -0.13435182       0.10603773      -0.21242218 </v>
   <v>       0.06223045      -0.04979226      -0.10574928 </v>
   <v>      -0.21139372       0.13559593       0.13048639 </v>
   <v>      -0.11459533       0.02147295      -0.04849513 </v>
   <v>      -0.05138382      -0.00958256      -0.00578300 </v>
   <v>      -0.07115905      -0.03760285      -0.16679949 </v>
   <v>       0.09775284      -0.03361492       0.09811170 </v>
   <v>      -0.08876609       0.00192245      -0.28447901 </v>
   <v>       0.02151514       0.11005758       0.02430683 </v>
   <v>       0.10339814       0.10919941      -0.07217290 </v>
   <v>      -0.05189648      -0.07099835       0.17508671 </v>
   <v>      -0.27633214      -0.10343143      -0.05342023 </v>
   <v>      -0.07896591      -0.14072189       0.08747455 </v>
   <v>       0.07349672       0.32505342       0.13203775 </v>
   <v>       0.11934421      -0.01796793      -0.13777524 </v>
   <v>      -0.22679746      -0.12481196      -0.24175184 </v>
   <v>       0.00810479       0.09221557      -0.13920160 </v>
   <v>      -0.05619289      -0.12506982       0.11966918 </v>
   <v>      -0.54418300       0.13082842      -0.28637406 </v>
   <v>      -0.13161529      -0.08196814      -0.06485854 </v>
   <v>       0.04498838      -0.12930844      -0.07929664 </v>
   <v>       0.16073908      -0.00662917      -0.19650875 </v>
   <v>      -0.12164706      -0.06499616       0.21259585 </v>
   <v>      -0.08280482      -0.04610751       0.02748476 </v>
   <v>       0.19629846       0.41890741       0.12884945 </v>
   <v>      -0.01087486      -0.06193757       0.22970856 </v>
   <v>       0.19134938       0.08088337       0.03476442 </v>
   <v>      -0.13035833      -0.32310592       0.27521895 </v>
   <v>       0.01323003      -0.17723863       0.05622580 </v>
   <v>       0.02251205       0.09067863       0.36635474 </v>
   <v>      -0.00084638       0.51116340      -0.13215279 </v>
   <v>       0.64547113       0.21970506       0.42171064 </v>
   <v>       0.35642387      -0.01946045      -0.21895281 </v>
   <v>       0.15422653      -0.23914504       0.06892664 </v>
   <v>      -0.21164214      -0.13446045      -0.42654067 </v>
  </varray>
  <varray name="stress" >
   <v>      -1.97511794      -0.11588707       0.09383817 </v>
   <v>      -0.11588707      -1.65964063      -0.23670957 </v>
   <v>       0.09383816      -0.23670958      -1.31751313 </v>
  </varray>
  <energy>
   <i name="e_fr_energy">    -84.20827761 </i>
   <i name="e_wo_entrp">    -84.20827761 </i>
   <i name="e_0_energy">      0.00000000 </i>
  </energy>
  <time name="totalsc">   44.22   47.00</time>
 </calculation>
 <calculation>
  <scstep>
   <time name="dav">    4.69    4.69</time>
   <time name="total">    5.08    5.10</time>
   <energy>
    <i name="alphaZ">    109.30643725 </i>
    <i name="ewald"> 104700.34157258 </i>
    <i name="hartreedc">-145503.01094241 </i>
    <i name="XCdc">   -465.77974526 </i>
    <i name="pawpsdc">  44281.68349206 </i>
    <i name="pawaedc"> -42465.35456672 </i>
    <i name="eentropy">      0.00000000 </i>
    <i name="bandstr">  -3266.53469080 </i>
    <i name="atom">  42525.14383354 </i>
    <i name="e_fr_energy">    -84.20460977 </i>
    <i name="e_wo_entrp">    -84.20460977 </i>
    <i name="e_0_energy">    -84.20460977 </i>
   </energy>
  </scstep>
  <scstep>
   <time name="dav">    4.89    4.90</time>
   <time name="total">    5.28    5.30</time>
   <energy>
    <i name="e_fr_energy">    -84.21900779 </i>
    <i name="e_wo_entrp">    -84.21900779 </i>
    <i name="e_0_energy">    -84.21900779 </i>
   </energy>
  </scstep>
  <scstep>
   <time name="dav">    5.02    5.02</time>
   <time name="total">    5.40    5.43</time>
   <energy>
    <i name="e_fr_energy">    -84.21884005 </i>
    <i name="e_wo_entrp">    -84.21884005 </i>
    <i name="e_0_energy">    -84.21884005 </i>
   </energy>
  </scstep>
  <scstep>
   <time name="dav">    4.89    4.89</time>
   <time name="total">    5.27    5.28</time>
   <energy>
    <i name="e_fr_energy">    -84.21873155 </i>
    <i name="e_wo_entrp">    -84.21873155 </i>
    <i name="e_0_energy">    -84.21873155 </i>
   </energy>
  </scstep>
  <scstep>
   <time name="dav">    3.62    3.62</time>
   <time name="total">    3.86    3.89</time>
   <energy>
    <i name="alphaZ">    109.30643725 </i>
    <i name="ewald"> 104700.34157258 </i>
    <i name="hartreedc">-145500.91780691 </i>
    <i name="XCdc">   -465.86087395 </i>
    <i name="pawpsdc">  44327.72582832 </i>
    <i name="pawaedc"> -42512.21312046 </i>
    <i name="eentropy">      0.00000000 </i>
    <i name="bandstr">  -3267.74468882 </i>
    <i name="atom">  42525.14383354 </i>
    <i name="e_fr_energy">    -84.21881846 </i>
    <i name="e_wo_entrp">    -84.21881846 </i>
    <i name="e_0_energy">    -84.21881846 </i>
   </energy>
  </scstep>
  <structure>
   <crystal>
    <varray name="basis" >
     <v>      23.56199458       0.00000000       0.00000000 </v>
     <v>       0.00000000      23.56199458       0.00000000 </v>
     <v>       0.00000000       0.00000000      23.56199458 </v>
    </varray>
    <i name="volume">  13080.85571136 </i>
    <varray name="rec_basis" >
     <v>       0.04244123       0.00000000       0.00000000 </v>
     <v>       0.00000000       0.04244123       0.00000000 </v>
     <v>       0.00000000       0.00000000       0.04244123 </v>
    </varray>
   </crystal>
   <varray name="positions" >
    <v>       0.75221735       0.47289983       0.43687039 </v>
    <v>       0.69275810       0.54446358       0.51213518 </v>
    <v>       0.68138273       0.51885307       0.62841856 </v>
    <v>       0.71284311       0.40474496       0.65252017 </v>
    <v>       0.72356589       0.43764193       0.54457306 </v>
    <v>       0.63996009       0.47509265       0.41428815 </v>
    <v>       0.57026074       0.53280761       0.34850746 </v>
    <v>       0.65140369       0.64367831       0.46650465 </v>
    <v>       0.54399983       0.66401539       0.50841472 </v>
    <v>       0.56801573       0.55363696       0.46771982 </v>
    <v>       0.61924621       0.39978617       0.50254377 </v>
    <v>       0.56260843       0.64651906       0.38895707 </v>
    <v>       0.59998114       0.43877121       0.67797178 </v>
    <v>       0.58266775       0.49314169       0.57194132 </v>
    <v>       0.57261578       0.55708552       0.67116925 </v>
    <v>       0.53258753       0.42740649       0.42653901 </v>
    <v>       0.61882456       0.60841483       0.57559331 </v>
    <v>       0.53961831       0.38714766       0.58628433 </v>
    <v>       0.47878609       0.48784825       0.51030489 </v>
    <v>       0.46195514       0.51438633       0.38277428 </v>
    <v>       0.48487280       0.60443537       0.30811346 </v>
    <v>       0.42051159       0.53379539       0.60370704 </v>
    <v>       0.57969492       0.39345972       0.78538624 </v>
    <v>       0.53870399       0.50051231       0.76581742 </v>
    <v>       0.47552159       0.71199407       0.43134352 </v>
    <v>       0.34673751       0.51661620       0.40635573 </v>
    <v>       0.45692473       0.30339548       0.60915452 </v>
    <v>       0.49703582       0.62535870       0.60951089 </v>
    <v>       0.49789874       0.72086327       0.31658638 </v>
    <v>       0.41283560       0.41706166       0.41878081 </v>
    <v>       0.39083563       0.58112767       0.49799845 </v>
    <v>       0.51863815       0.35132237       0.69477946 </v>
    <v>       0.46532841       0.35378732       0.50028855 </v>
    <v>       0.36086050       0.47196899       0.51185012 </v>
    <v>       0.42929565       0.68533510       0.53526659 </v>
    <v>       0.46000649       0.57106143       0.70603256 </v>
    <v>       0.40075794       0.61678444       0.38552415 </v>
    <v>       0.46934296       0.45721626       0.68043453 </v>
    <v>       0.33914717       0.68460913       0.46006116 </v>
    <v>       0.38382288       0.73186076       0.35820502 </v>
    <v>       0.41858731       0.41175144       0.59343081 </v>
   </varray>
  </structure>
  <varray name="forces" >
   <v>      -0.01678894       0.01276761       0.10447992 </v>
   <v>       0.06271077      -0.13152364      -0.27958105 </v>
   <v>       0.09637913      -0.19731054       0.08124851 </v>
   <v>      -0.19781967       0.04198451       0.11849493 </v>
   <v>       0.03916294       0.09520000       0.02510471 </v>
   <v>       0.46643714      -0.16757955       0.21919319 </v>
   <v>      -0.10517816       0.07980724      -0.21596600 </v>
   <v>       0.07916528      -0.02364713      -0.10261386 </v>
   <v>      -0.16349192       0.15053425       0.10129226 </v>
   <v>      -0.10884702      -0.00164686      -0.06892843 </v>
   <v>      -0.04843121      -0.05644545      -0.00964131 </v>
   <v>      -0.06786779      -0.00795735      -0.17123803 </v>
   <v>       0.03243596      -0.02926166       0.04925626 </v>
   <v>      -0.07731839       0.01382883      -0.23319574 </v>
   <v>       0.02050490       0.08794044       0.05069918 </v>
   <v>       0.09574267       0.12045480      -0.11334539 </v>
   <v>      -0.05286590      -0.04177532       0.15781447 </v>
   <v>      -0.25108927      -0.08363938      -0.00424067 </v>
   <v>      -0.12058124      -0.14573277       0.06745954 </v>
   <v>       0.07092014       0.29712674       0.14986460 </v>
   <v>       0.11325881      -0.02922220      -0.17901749 </v>
   <v>      -0.20758897      -0.10906259      -0.15449891 </v>
   <v>       0.03073650       0.07116095      -0.08641002 </v>
   <v>      -0.03662125      -0.09160635       0.15113905 </v>
   <v>      -0.51431074       0.13476068      -0.24657886 </v>
   <v>      -0.15557263      -0.07207682      -0.06580244 </v>
   <v>       0.01705134      -0.17101934      -0.07673609 </v>
   <v>       0.14372633      -0.01265641      -0.18182078 </v>
   <v>      -0.09583885      -0.03757981       0.18242377 </v>
   <v>      -0.07856280      -0.05180708      -0.00188479 </v>
   <v>       0.17573907       0.36255444       0.11252698 </v>
   <v>      -0.00057191      -0.08371947       0.21114810 </v>
   <v>       0.18697657       0.05316717       0.02118890 </v>
   <v>      -0.15367277      -0.28898954       0.25483660 </v>
   <v>      -0.00398299      -0.13505649       0.09583971 </v>
   <v>      -0.01749346       0.10944402       0.36373905 </v>
   <v>       0.00416875       0.45972391      -0.13860987 </v>
   <v>       0.59462336       0.21848422       0.35742845 </v>
   <v>       0.31727091      -0.00477159      -0.19416216 </v>
   <v>       0.11417802      -0.18927902       0.02140607 </v>
   <v>      -0.18669274      -0.14557349      -0.37231234 </v>
  </varray>
  <varray name="stress" >
   <v>      -1.80933563      -0.12523658       0.08568411 </v>
   <v>      -0.12523658      -1.50803549      -0.25323551 </v>
   <v>       0.08568410      -0.25323551      -1.15157429 </v>
  </varray>
  <energy>
   <i name="e_fr_energy">    -84.21881846 </i>
   <i name="e_wo_entrp">    -84.21881846 </i>
   <i name="e_0_energy">      0.00000000 </i>
  </energy>
  <time name="totalsc">   33.73   35.40</time>
 </calculation>
 <calculation>
  <scstep>
   <time name="dav">    4.70    4.70</time>
   <time name="total">    5.09    5.10</time>
   <energy>
    <i name="alphaZ">    109.30643725 </i>
    <i name="ewald"> 104327.27000733 </i>
    <i name="hartreedc">-145129.86014618 </i>
    <i name="XCdc">   -466.26065358 </i>
    <i name="pawpsdc">  44327.11586177 </i>
    <i name="pawaedc"> -42511.59744880 </i>
    <i name="eentropy">      0.00000000 </i>
    <i name="bandstr">  -3265.44409675 </i>
    <i name="atom">  42525.14383354 </i>
    <i name="e_fr_energy">    -84.32620542 </i>
    <i name="e_wo_entrp">    -84.32620542 </i>
    <i name="e_0_energy">    -84.32620542 </i>
   </energy>
  </scstep>
  <scstep>
   <time name="dav">    4.86    4.86</time>
   <time name="total">    5.24    6.32</time>
   <energy>
    <i name="e_fr_energy">    -84.35751343 </i>
    <i name="e_wo_entrp">    -84.35751343 </i>
    <i name="e_0_energy">    -84.35751343 </i>
   </energy>
  </scstep>
  <scstep>
   <time name="dav">    5.07    5.08</time>
   <time name="total">    5.46    5.59</time>
   <energy>
    <i name="e_fr_energy">    -84.35687367 </i>
    <i name="e_wo_entrp">    -84.35687367 </i>
    <i name="e_0_energy">    -84.35687367 </i>
   </energy>
  </scstep>
  <scstep>
   <time name="dav">    4.84    4.84</time>
   <time name="total">    5.22    5.25</time>
   <energy>
    <i name="e_fr_energy">    -84.35611732 </i>
    <i name="e_wo_entrp">    -84.35611732 </i>
    <i name="e_0_energy">    -84.35611732 </i>
   </energy>
  </scstep>
  <scstep>
   <time name="dav">    3.60    3.61</time>
   <time name="total">    3.85    3.87</time>
   <energy>
    <i name="alphaZ">    109.30643725 </i>
    <i name="ewald"> 104327.27000733 </i>
    <i name="hartreedc">-145133.47822740 </i>
    <i name="XCdc">   -466.18541611 </i>
    <i name="pawpsdc">  44269.32469718 </i>
    <i name="pawaedc"> -42452.84152423 </i>
    <i name="eentropy">      0.00000000 </i>
    <i name="bandstr">  -3262.89595466 </i>
    <i name="atom">  42525.14383354 </i>
    <i name="e_fr_energy">    -84.35614710 </i>
    <i name="e_wo_entrp">    -84.35614710 </i>
    <i name="e_0_energy">    -84.35614710 </i>
   </energy>
  </scstep>
[...]
       <r>     0.2690     0.0000   262.0000 </r>
       <r>     0.3097     0.0000   263.0000 </r>
       <r>     0.3503     0.0000   263.0000 </r>
       <r>     0.3909     0.0000   263.0000 </r>
       <r>     0.4316     0.0000   264.0000 </r>
       <r>     0.4722     0.0000   264.0000 </r>
       <r>     0.5128     0.0000   266.0000 </r>
       <r>     0.5534     0.0000   267.0000 </r>
       <r>     0.5941     0.0000   267.0000 </r>
       <r>     0.6347     0.0000   268.0000 </r>
       <r>     0.6753     0.0000   269.0000 </r>
       <r>     0.7160     0.0000   270.0000 </r>
       <r>     0.7566     0.0000   272.0000 </r>
       <r>     0.7972     0.0000   273.0000 </r>
       <r>     0.8379     0.0000   274.0000 </r>
       <r>     0.8785     0.0000   275.0000 </r>
       <r>     0.9191     0.0000   277.0000 </r>
       <r>     0.9598     0.0000   279.0000 </r>
       <r>     1.0004     0.0000   281.0000 </r>
       <r>     1.0410     0.0000   283.0000 </r>
       <r>     1.0816     0.0000   285.0000 </r>
       <r>     1.1223     5.6324   287.2288 </r>
       <r>     1.1629     0.0000   288.0000 </r>
       <r>     1.2035     0.0000   289.0000 </r>
       <r>     1.2442     0.0000   291.0000 </r>
       <r>     1.2848     0.0000   292.0000 </r>
       <r>     1.3254     0.0000   292.0000 </r>
       <r>     1.3661     0.0000   292.0000 </r>
       <r>     1.4067     0.0000   292.0000 </r>
       <r>     1.4473     0.0000   292.0000 </r>
       <r>     1.4880     0.0000   292.0000 </r>
       <r>     1.5286     0.0000   292.0000 </r>
       <r>     1.5692     0.0000   292.0000 </r>
       <r>     1.6098     0.0000   292.0000 </r>
       <r>     1.6505     0.0000   292.0000 </r>
       <r>     1.6911     0.0000   292.0000 </r>
       <r>     1.7317     0.0000   292.0000 </r>
       <r>     1.7724     0.0000   292.0000 </r>
       <r>     1.8130     0.0000   292.0000 </r>
      </set>
      <set comment="spin 2">
       <r>   -10.3762     0.0000     0.0000 </r>
       <r>   -10.3356     0.0000     0.0000 </r>
       <r>   -10.2949     0.0000     0.0000 </r>
       <r>   -10.2543     0.0000     0.0000 </r>
       <r>   -10.2137     0.0000     0.0000 </r>
       <r>   -10.1731     0.0000     0.0000 </r>
       <r>   -10.1324     0.0000     0.0000 </r>
       <r>   -10.0918     0.0000     0.0000 </r>
       <r>   -10.0512     0.0000     0.0000 </r>
       <r>   -10.0105     0.0000     0.0000 </r>
       <r>    -9.9699     0.0000     0.0000 </r>
       <r>    -9.9293     0.0000     0.0000 </r>
       <r>    -9.8886     0.0000     0.0000 </r>
       <r>    -9.8480     0.0000     0.0000 </r>
       <r>    -9.8074    24.6119     1.0000 </r>
       <r>    -9.7667     0.0000     1.0000 </r>
       <r>    -9.7261     0.0000     1.0000 </r>
       <r>    -9.6855     0.0000     1.0000 </r>
       <r>    -9.6449     0.0000     1.0000 </r>
       <r>    -9.6042     0.0000     1.0000 </r>
       <r>    -9.5636     0.0000     1.0000 </r>
       <r>    -9.5230     0.0000     1.0000 </r>
       <r>    -9.4823     0.0000     1.0000 </r>
       <r>    -9.4417     0.0000     1.0000 </r>
       <r>    -9.4011     0.0000     1.0000 </r>
       <r>    -9.3604     0.0000     1.0000 </r>
       <r>    -9.3198     0.0000     1.0000 </r>
       <r>    -9.2792     0.0000     2.0000 </r>
       <r>    -9.2385     0.0000     3.0000 </r>
       <r>    -9.1979     0.0000     4.0000 </r>
       <r>    -9.1573     0.0000     5.0000 </r>
       <r>    -9.1167     0.0000     6.0000 </r>
       <r>    -9.0760     0.0000     7.0000 </r>
       <r>    -9.0354     0.0000     8.0000 </r>
       <r>    -8.9948     0.0000     9.0000 </r>
       <r>    -8.9541    24.6119    12.0000 </r>
       <r>    -8.9135     0.0000    14.0000 </r>
       <r>    -8.8729     0.0000    14.0000 </r>
       <r>    -8.8322     0.0000    16.0000 </r>
       <r>    -8.7916     0.0000    18.0000 </r>
       <r>    -8.7510    24.6119    20.0000 </r>
       <r>    -8.7103    19.1340    21.7774 </r>
       <r>    -8.6697    19.8678    23.8072 </r>
       <r>    -8.6291     0.0000    25.0000 </r>
       <r>    -8.5885     0.0000    27.0000 </r>
       <r>    -8.5478     0.0000    29.0000 </r>
       <r>    -8.5072     0.0000    32.0000 </r>
       <r>    -8.4666     0.0000    36.0000 </r>
       <r>    -8.4259     0.0000    37.0000 </r>
       <r>    -8.3853     0.0000    40.0000 </r>
       <r>    -8.3447     0.0000    42.0000 </r>
       <r>    -8.3040     0.0000    44.0000 </r>
       <r>    -8.2634     0.0000    47.0000 </r>
       <r>    -8.2228     0.0000    49.0000 </r>
       <r>    -8.1821     0.0000    51.0000 </r>
       <r>    -8.1415     0.0000    54.0000 </r>
       <r>    -8.1009     0.0000    57.0000 </r>
       <r>    -8.0603     0.0000    59.0000 </r>
       <r>    -8.0196     0.0000    61.0000 </r>
       <r>    -7.9790     0.0000    64.0000 </r>
       <r>    -7.9384     0.0000    66.0000 </r>
       <r>    -7.8977     0.0000    68.0000 </r>
       <r>    -7.8571     0.0000    70.0000 </r>
       <r>    -7.8165     0.0000    72.0000 </r>
       <r>    -7.7758     0.0000    75.0000 </r>
       <r>    -7.7352     0.0000    78.0000 </r>
       <r>    -7.6946     0.0000    81.0000 </r>
       <r>    -7.6540     0.0000    83.0000 </r>
       <r>    -7.6133     0.0000    86.0000 </r>
       <r>    -7.5727     0.0000    89.0000 </r>
       <r>    -7.5321     0.0000    94.0000 </r>
       <r>    -7.4914     0.0000    95.0000 </r>
       <r>    -7.4508     0.0000    99.0000 </r>
       <r>    -7.4102     0.0000   101.0000 </r>
       <r>    -7.3695     0.0000   103.0000 </r>
       <r>    -7.3289     0.0000   107.0000 </r>
       <r>    -7.2883     0.0000   110.0000 </r>
       <r>    -7.2476     0.0000   111.0000 </r>
       <r>    -7.2070     0.0000   114.0000 </r>
       <r>    -7.1664     0.0000   116.0000 </r>
       <r>    -7.1258     0.0000   119.0000 </r>
       <r>    -7.0851     0.0000   123.0000 </r>
       <r>    -7.0445     0.0000   127.0000 </r>
       <r>    -7.0039     0.0000   130.0000 </r>
       <r>    -6.9632     0.0000   134.0000 </r>
       <r>    -6.9226     0.0000   137.0000 </r>
       <r>    -6.8820     0.0000   142.0000 </r>
       <r>    -6.8413     0.0000   147.0000 </r>
       <r>    -6.8007     0.0000   151.0000 </r>
       <r>    -6.7601     0.0000   155.0000 </r>
       <r>    -6.7194     0.0000   159.0000 </r>
       <r>    -6.6788     0.0000   163.0000 </r>
       <r>    -6.6382     0.0000   168.0000 </r>
       <r>    -6.5976     0.0000   173.0000 </r>
       <r>    -6.5569     0.0000   176.0000 </r>
       <r>    -6.5163     0.0000   181.0000 </r>
       <r>    -6.4757     0.0000   185.0000 </r>
       <r>    -6.4350     0.0000   188.0000 </r>
       <r>    -6.3944     0.0000   192.0000 </r>
       <r>    -6.3538     0.0000   195.0000 </r>
       <r>    -6.3131    17.9914   199.7310 </r>
       <r>    -6.2725     0.0000   202.0000 </r>
       <r>    -6.2319     0.0000   205.0000 </r>
       <r>    -6.1912     0.0000   206.0000 </r>
       <r>    -6.1506     0.0000   209.0000 </r>
       <r>    -6.1100     0.0000   210.0000 </r>
       <r>    -6.0694     0.0000   211.0000 </r>
       <r>    -6.0287     0.0000   211.0000 </r>
       <r>    -5.9881     0.0000   211.0000 </r>
       <r>    -5.9475     0.0000   211.0000 </r>
       <r>    -5.9068     0.0000   211.0000 </r>
       <r>    -5.8662     0.0000   212.0000 </r>
       <r>    -5.8256     0.0000   212.0000 </r>
       <r>    -5.7849     0.0000   212.0000 </r>
       <r>    -5.7443     0.0000   212.0000 </r>
       <r>    -5.7037     0.0000   212.0000 </r>
       <r>    -5.6630     0.0000   213.0000 </r>
       <r>    -5.6224     0.0000   213.0000 </r>
       <r>    -5.5818     0.0000   213.0000 </r>
       <r>    -5.5412     0.0000   213.0000 </r>
       <r>    -5.5005     0.0000   213.0000 </r>
       <r>    -5.4599     0.0000   214.0000 </r>
       <r>    -5.4193     0.0000   214.0000 </r>
       <r>    -5.3786     0.0000   214.0000 </r>
       <r>    -5.3380     0.0000   215.0000 </r>
       <r>    -5.2974     0.0000   215.0000 </r>
       <r>    -5.2567     0.0000   215.0000 </r>
       <r>    -5.2161     0.0000   215.0000 </r>
       <r>    -5.1755     0.0000   215.0000 </r>
       <r>    -5.1348     0.0000   216.0000 </r>
       <r>    -5.0942     0.0000   216.0000 </r>
       <r>    -5.0536     0.0000   216.0000 </r>
       <r>    -5.0130     0.0000   216.0000 </r>
       <r>    -4.9723     0.0000   216.0000 </r>
       <r>    -4.9317     0.0000   216.0000 </r>
       <r>    -4.8911     0.0000   216.0000 </r>
       <r>    -4.8504     0.0000   216.0000 </r>
       <r>    -4.8098     0.0000   216.0000 </r>
       <r>    -4.7692     0.0000   216.0000 </r>
       <r>    -4.7285     0.0000   217.0000 </r>
       <r>    -4.6879     0.0000   218.0000 </r>
       <r>    -4.6473     0.0000   218.0000 </r>
       <r>    -4.6066     0.0000   218.0000 </r>
       <r>    -4.5660     0.0000   218.0000 </r>
       <r>    -4.5254     0.0000   218.0000 </r>
       <r>    -4.4848     0.0000   219.0000 </r>
       <r>    -4.4441     0.0000   219.0000 </r>
       <r>    -4.4035     0.0000   219.0000 </r>
       <r>    -4.3629     0.0000   219.0000 </r>
       <r>    -4.3222     0.0000   219.0000 </r>
       <r>    -4.2816     0.0000   220.0000 </r>
       <r>    -4.2410     0.0000   220.0000 </r>
       <r>    -4.2003     0.0000   220.0000 </r>
       <r>    -4.1597     0.0000   220.0000 </r>
       <r>    -4.1191     0.0000   220.0000 </r>
       <r>    -4.0784     0.0000   220.0000 </r>
       <r>    -4.0378     0.0000   221.0000 </r>
       <r>    -3.9972     0.0000   221.0000 </r>
       <r>    -3.9566     0.0000   221.0000 </r>
       <r>    -3.9159     0.0000   222.0000 </r>
       <r>    -3.8753     0.0000   222.0000 </r>
       <r>    -3.8347     0.0000   223.0000 </r>
       <r>    -3.7940     0.0000   224.0000 </r>
       <r>    -3.7534     0.0000   224.0000 </r>
       <r>    -3.7128     0.0000   224.0000 </r>
       <r>    -3.6721     0.0000   224.0000 </r>
       <r>    -3.6315     0.0000   224.0000 </r>
       <r>    -3.5909     0.0000   224.0000 </r>
       <r>    -3.5503     0.0000   225.0000 </r>
       <r>    -3.5096     0.0000   225.0000 </r>
       <r>    -3.4690     0.0000   225.0000 </r>
       <r>    -3.4284     0.0000   225.0000 </r>
       <r>    -3.3877     0.0000   225.0000 </r>
       <r>    -3.3471     0.0000   226.0000 </r>
       <r>    -3.3065     0.0000   226.0000 </r>
       <r>    -3.2658     0.0000   226.0000 </r>
       <r>    -3.2252     0.0000   226.0000 </r>
       <r>    -3.1846     0.0000   226.0000 </r>
       <r>    -3.1439     0.0000   226.0000 </r>
       <r>    -3.1033     0.0000   227.0000 </r>
       <r>    -3.0627     0.0000   227.0000 </r>
       <r>    -3.0221     0.0000   227.0000 </r>
       <r>    -2.9814     0.0000   227.0000 </r>
       <r>    -2.9408     0.0000   228.0000 </r>
       <r>    -2.9002     0.0000   228.0000 </r>
       <r>    -2.8595     0.0000   229.0000 </r>
       <r>    -2.8189     0.0000   229.0000 </r>
       <r>    -2.7783     0.0000   229.0000 </r>
       <r>    -2.7376     0.0000   229.0000 </r>
       <r>    -2.6970     0.0000   229.0000 </r>
       <r>    -2.6564     4.7471   229.1929 </r>
       <r>    -2.6157     0.0000   230.0000 </r>
       <r>    -2.5751     0.0000   231.0000 </r>
       <r>    -2.5345     0.0000   231.0000 </r>
       <r>    -2.4939     0.0000   232.0000 </r>
       <r>    -2.4532     0.0000   232.0000 </r>
       <r>    -2.4126     0.0000   232.0000 </r>
       <r>    -2.3720     0.0000   233.0000 </r>
       <r>    -2.3313     0.0000   233.0000 </r>
       <r>    -2.2907     0.0000   234.0000 </r>
       <r>    -2.2501     0.0000   234.0000 </r>
       <r>    -2.2094     0.0000   235.0000 </r>
       <r>    -2.1688     0.0000   235.0000 </r>
       <r>    -2.1282     0.0000   235.0000 </r>
       <r>    -2.0875     0.0000   236.0000 </r>
       <r>    -2.0469     0.0000   236.0000 </r>
       <r>    -2.0063     0.0000   237.0000 </r>
       <r>    -1.9657     0.0000   237.0000 </r>
       <r>    -1.9250     0.0000   237.0000 </r>
       <r>    -1.8844     0.0000   237.0000 </r>
       <r>    -1.8438     0.0000   238.0000 </r>
       <r>    -1.8031     0.0000   238.0000 </r>
       <r>    -1.7625     0.0000   238.0000 </r>
       <r>    -1.7219     0.0000   239.0000 </r>
       <r>    -1.6812     0.0000   239.0000 </r>
       <r>    -1.6406     0.0000   240.0000 </r>
       <r>    -1.6000     0.0000   241.0000 </r>
       <r>    -1.5593     0.0000   241.0000 </r>
       <r>    -1.5187     0.0000   241.0000 </r>
       <r>    -1.4781     0.0000   242.0000 </r>
       <r>    -1.4375     0.0000   242.0000 </r>
       <r>    -1.3968     0.0000   243.0000 </r>
       <r>    -1.3562     0.0000   243.0000 </r>
       <r>    -1.3156     0.0000   243.0000 </r>
       <r>    -1.2749     0.0000   243.0000 </r>
       <r>    -1.2343     0.0000   243.0000 </r>
       <r>    -1.1937     0.0000   244.0000 </r>
       <r>    -1.1530     0.0000   245.0000 </r>
       <r>    -1.1124     0.1624   245.0066 </r>
       <r>    -1.0718     0.0000   246.0000 </r>
       <r>    -1.0311     0.0000   247.0000 </r>
       <r>    -0.9905     0.0000   247.0000 </r>
       <r>    -0.9499     0.0000   247.0000 </r>
       <r>    -0.9093     0.0000   247.0000 </r>
       <r>    -0.8686     0.0000   248.0000 </r>
       <r>    -0.8280     0.0000   249.0000 </r>
       <r>    -0.7874     0.0000   250.0000 </r>
       <r>    -0.7467     0.0000   250.0000 </r>
       <r>    -0.7061     0.0000   251.0000 </r>
       <r>    -0.6655     0.0000   252.0000 </r>
       <r>    -0.6248     0.0000   252.0000 </r>
       <r>    -0.5842     0.0000   253.0000 </r>
       <r>    -0.5436     0.0000   254.0000 </r>
       <r>    -0.5029     0.0000   254.0000 </r>
       <r>    -0.4623     0.0000   255.0000 </r>
       <r>    -0.4217     0.0000   255.0000 </r>
       <r>    -0.3811     0.0000   256.0000 </r>
       <r>    -0.3404     0.0000   256.0000 </r>
       <r>    -0.2998     0.0000   257.0000 </r>
       <r>    -0.2592     0.0000   258.0000 </r>
       <r>    -0.2185     0.0000   258.0000 </r>
       <r>    -0.1779     0.0000   259.0000 </r>
       <r>    -0.1373     0.0000   259.0000 </r>
       <r>    -0.0966     0.0000   259.0000 </r>
       <r>    -0.0560     0.0000   260.0000 </r>
       <r>    -0.0154     0.0000   260.0000 </r>
       <r>     0.0253     0.0000   260.0000 </r>
       <r>     0.0659     0.0000   261.0000 </r>
       <r>     0.1065     0.0000   261.0000 </r>
       <r>     0.1471     0.0000   261.0000 </r>
       <r>     0.1878     0.0000   261.0000 </r>
       <r>     0.2284     0.0000   261.0000 </r>
       <r>     0.2690     0.0000   262.0000 </r>
       <r>     0.3097     0.0000   262.0000 </r>
       <r>     0.3503     0.0000   263.0000 </r>
       <r>     0.3909     0.0000   263.0000 </r>
       <r>     0.4316     0.0000   264.0000 </r>
       <r>     0.4722     0.0000   264.0000 </r>
       <r>     0.5128     0.0000   264.0000 </r>
       <r>     0.5534     0.0000   266.0000 </r>
       <r>     0.5941     0.0000   267.0000 </r>
       <r>     0.6347     0.0000   267.0000 </r>
       <r>     0.6753     0.0000   268.0000 </r>
       <r>     0.7160     0.0000   270.0000 </r>
       <r>     0.7566     0.0000   271.0000 </r>
       <r>     0.7972     0.0000   273.0000 </r>
       <r>     0.8379     0.0000   274.0000 </r>
       <r>     0.8785     0.0000   275.0000 </r>
       <r>     0.9191     0.0000   277.0000 </r>
       <r>     0.9598     0.0000   278.0000 </r>
       <r>     1.0004     0.0000   280.0000 </r>
       <r>     1.0410     0.0000   282.0000 </r>
       <r>     1.0816     0.0000   285.0000 </r>
       <r>     1.1223     0.0000   287.0000 </r>
       <r>     1.1629     0.0000   288.0000 </r>
       <r>     1.2035     0.0000   289.0000 </r>
       <r>     1.2442     0.0000   291.0000 </r>
       <r>     1.2848     0.0000   292.0000 </r>
       <r>     1.3254     0.0000   292.0000 </r>
       <r>     1.3661     0.0000   292.0000 </r>
       <r>     1.4067     0.0000   292.0000 </r>
       <r>     1.4473     0.0000   292.0000 </r>
       <r>     1.4880     0.0000   292.0000 </r>
       <r>     1.5286     0.0000   292.0000 </r>
       <r>     1.5692     0.0000   292.0000 </r>
       <r>     1.6098     0.0000   292.0000 </r>
       <r>     1.6505     0.0000   292.0000 </r>
       <r>     1.6911     0.0000   292.0000 </r>
       <r>     1.7317     0.0000   292.0000 </r>
       <r>     1.7724     0.0000   292.0000 </r>
       <r>     1.8130     0.0000   292.0000 </r>
      </set>
     </set>
    </array>
   </total>
  </dos>
 </calculation>
 <structure name="finalpos" >
  <crystal>
   <varray name="basis" >
    <v>      23.56199458       0.00000000       0.00000000 </v>
    <v>       0.00000000      23.56199458       0.00000000 </v>
    <v>       0.00000000       0.00000000      23.56199458 </v>
   </varray>
   <i name="volume">  13080.85571136 </i>
   <varray name="rec_basis" >
    <v>       0.04244123       0.00000000       0.00000000 </v>
    <v>       0.00000000       0.04244123       0.00000000 </v>
    <v>       0.00000000       0.00000000       0.04244123 </v>
   </varray>
  </crystal>
  <varray name="positions" >
   <v>       0.76896777       0.48846453       0.42506005 </v>
   <v>       0.72786176       0.55968269       0.50697858 </v>
   <v>       0.69764220       0.51541724       0.61661036 </v>
   <v>       0.66393902       0.39592476       0.61385019 </v>
   <v>       0.71859140       0.44130394       0.52116623 </v>
   <v>       0.65309044       0.48567531       0.43292849 </v>
   <v>       0.58333033       0.54021676       0.35427699 </v>
   <v>       0.64572251       0.61377118       0.43956734 </v>
   <v>       0.54820441       0.66651039       0.51001505 </v>
   <v>       0.55674268       0.54668403       0.47366777 </v>
   <v>       0.61075946       0.39206083       0.50236366 </v>
   <v>       0.53101484       0.63921986       0.39724690 </v>
   <v>       0.58998551       0.43980422       0.69645416 </v>
   <v>       0.59137305       0.48411836       0.57791889 </v>
   <v>       0.59389721       0.56069494       0.67145137 </v>
   <v>       0.54099569       0.43968249       0.42161160 </v>
   <v>       0.63320004       0.60060359       0.56146563 </v>
   <v>       0.54368816       0.37792847       0.60254183 </v>
   <v>       0.48080314       0.47229940       0.52837493 </v>
   <v>       0.46891362       0.52470625       0.37689881 </v>
   <v>       0.49693070       0.60540798       0.29135449 </v>
   <v>       0.40244162       0.54302795       0.59758461 </v>
   <v>       0.53081249       0.41397123       0.79392405 </v>
   <v>       0.52374376       0.52463439       0.75997887 </v>
   <v>       0.44974144       0.70500745       0.45787354 </v>
   <v>       0.35504193       0.53080406       0.42087865 </v>
   <v>       0.46066471       0.29519425       0.60371213 </v>
   <v>       0.51695089       0.57927895       0.58312483 </v>
   <v>       0.46599107       0.71905361       0.33452881 </v>
   <v>       0.42213964       0.43024555       0.42940871 </v>
   <v>       0.44280138       0.57953593       0.48422814 </v>
   <v>       0.47883474       0.36947157       0.69919573 </v>
   <v>       0.48900132       0.35624372       0.50071423 </v>
   <v>       0.35674370       0.46804299       0.52036091 </v>
   <v>       0.43027609       0.65861399       0.57100409 </v>
   <v>       0.46541668       0.59852558       0.68537599 </v>
   <v>       0.40687413       0.62549804       0.37049778 </v>
   <v>       0.48652524       0.48269403       0.65664400 </v>
   <v>       0.34687253       0.64575127       0.47360101 </v>
   <v>       0.35928793       0.73240249       0.38634902 </v>
   <v>       0.41684333       0.40448431       0.60187016 </v>
  </varray>
 </structure>
</modeling>
