       N       E                     dE             d eps       ncg     rms          rms(c)
DAV:   1     0.796563947118E+03    0.79656E+03   -0.19226E+04   320   0.590E+02
DAV:   2     0.164250160861E+03   -0.63231E+03   -0.52487E+03   400   0.191E+02
DAV:   3    -0.234643012269E+01   -0.16660E+03   -0.15206E+03   392   0.132E+02
DAV:   4    -0.278176982479E+02   -0.25471E+02   -0.23740E+02   384   0.822E+01
DAV:   5    -0.285514663025E+02   -0.73377E+00   -0.73194E+00   376   0.133E+01    0.258E+01
DAV:   6    -0.913112061183E+01    0.19420E+02   -0.10875E+02   352   0.846E+01    0.107E+01
DAV:   7    -0.446790830458E+01    0.46632E+01   -0.27703E+01   416   0.694E+01    0.523E+00
DAV:   8    -0.578382905976E+01   -0.13159E+01   -0.70182E+00   400   0.520E+01    0.432E+00
DAV:   9    -0.805899555180E+01   -0.22752E+01   -0.18718E+00   448   0.220E+01    0.310E+00
DAV:  10    -0.134206705149E+02   -0.53617E+01   -0.35008E+00   360   0.156E+01    0.219E+00
DAV:  11    -0.182901596574E+02   -0.48695E+01   -0.25635E+00   384   0.151E+01    0.212E+00
DAV:  12    -0.193663113885E+02   -0.10762E+01   -0.53553E-01   408   0.821E+00    0.119E+00
DAV:  13    -0.221711231194E+02   -0.28048E+01   -0.11976E+00   368   0.658E+00    0.139E+00
DAV:  14    -0.232404068288E+02   -0.10693E+01   -0.31206E-01   440   0.617E+00    0.841E-01
DAV:  15    -0.241758080380E+02   -0.93540E+00   -0.37393E-01   392   0.559E+00    0.640E-01
DAV:  16    -0.246115521261E+02   -0.43574E+00   -0.69812E-02   400   0.338E+00    0.388E-01
DAV:  17    -0.251608805697E+02   -0.54933E+00   -0.54969E-02   392   0.233E+00    0.235E-01
DAV:  18    -0.254648585506E+02   -0.30398E+00   -0.15430E-02   432   0.157E+00    0.119E-01
DAV:  19    -0.256136986609E+02   -0.14884E+00   -0.46853E-03   440   0.751E-01    0.748E-02
DAV:  20    -0.256736847656E+02   -0.59986E-01   -0.19489E-03   432   0.592E-01    0.647E-02
DAV:  21    -0.257035415005E+02   -0.29857E-01   -0.11978E-03   408   0.291E-01    0.296E-02
DAV:  22    -0.257103382646E+02   -0.67968E-02   -0.22621E-04   256   0.212E-01    0.176E-02
DAV:  23    -0.257131604570E+02   -0.28222E-02   -0.39052E-04   312   0.148E-01    0.101E-02
DAV:  24    -0.257137348938E+02   -0.57444E-03   -0.13630E-04   248   0.798E-02    0.997E-03
DAV:  25    -0.257140969099E+02   -0.36202E-03   -0.81033E-05   248   0.791E-02    0.918E-03
DAV:  26    -0.257146155398E+02   -0.51863E-03   -0.64199E-05   240   0.692E-02    0.801E-03
DAV:  27    -0.257149870655E+02   -0.37153E-03   -0.35877E-05   240   0.621E-02    0.534E-03
DAV:  28    -0.257154852702E+02   -0.49820E-03   -0.25783E-05   248   0.393E-02    0.324E-03
DAV:  29    -0.257156654481E+02   -0.18018E-03   -0.13560E-05   240   0.293E-02    0.268E-03
DAV:  30    -0.257156764261E+02   -0.10978E-04   -0.59198E-06   240   0.218E-02
   1 F= -.25715676E+02 E0= -.25715676E+02  d E =-.257157E+02  mag=     1.0002
       N       E                     dE             d eps       ncg     rms          rms(c)
DAV:   1    -0.257259147165E+02   -0.10249E-01   -0.63956E-01   344   0.287E+00    0.528E-02
DAV:   2    -0.257268270660E+02   -0.91235E-03   -0.93699E-03   472   0.618E-01    0.500E-02
DAV:   3    -0.257268343102E+02   -0.72442E-05   -0.33975E-04   304   0.264E-01
   2 F= -.25726834E+02 E0= -.25726834E+02  d E =-.111579E-01  mag=     1.0002
       N       E                     dE             d eps       ncg     rms          rms(c)
DAV:   1    -0.257467706990E+02   -0.19944E-01   -0.57666E+00   352   0.865E+00    0.165E-01
DAV:   2    -0.257553393946E+02   -0.85687E-02   -0.89486E-02   480   0.176E+00    0.173E-01
DAV:   3    -0.257551409675E+02    0.19843E-03   -0.21272E-03   400   0.610E-01    0.118E-01
DAV:   4    -0.257550739842E+02    0.66983E-04   -0.55790E-04   360   0.571E-01
   3 F= -.25755074E+02 E0= -.25755074E+02  d E =-.393976E-01  mag=     1.0001
       N       E                     dE             d eps       ncg     rms          rms(c)
DAV:   1    -0.257541582484E+02    0.98272E-03   -0.23124E+01   344   0.176E+01    0.341E-01
DAV:   2    -0.257902384172E+02   -0.36080E-01   -0.37772E-01   472   0.364E+00    0.344E-01
DAV:   3    -0.257898722472E+02    0.36617E-03   -0.13414E-02   400   0.168E+00    0.229E-01
DAV:   4    -0.257896496016E+02    0.22265E-03   -0.27683E-03   368   0.127E+00    0.201E-01
DAV:   5    -0.257892638997E+02    0.38570E-03   -0.15378E-03   488   0.714E-01    0.101E-01
DAV:   6    -0.257892182039E+02    0.45696E-04   -0.95420E-04   496   0.494E-01
   4 F= -.25789218E+02 E0= -.25789218E+02  d E =-.735418E-01  mag=     1.0000
       N       E                     dE             d eps       ncg     rms          rms(c)
DAV:   1    -0.256281938369E+02    0.16107E+00   -0.93866E+01   336   0.369E+01    0.703E-01
DAV:   2    -0.257876749204E+02   -0.15948E+00   -0.16613E+00   488   0.745E+00    0.679E-01
DAV:   3    -0.257847136593E+02    0.29613E-02   -0.45742E-02   368   0.420E+00    0.417E-01
DAV:   4    -0.257840251718E+02    0.68849E-03   -0.11191E-02   368   0.224E+00    0.347E-01
DAV:   5    -0.257830040417E+02    0.10211E-02   -0.56323E-03   464   0.129E+00    0.192E-01
DAV:   6    -0.257827973125E+02    0.20673E-03   -0.37086E-03   568   0.124E+00    0.777E-02
DAV:   7    -0.257828483570E+02   -0.51045E-04   -0.80366E-04   384   0.545E-01
   5 F= -.25782848E+02 E0= -.25782848E+02  d E =-.671719E-01  mag=     1.0000
       N       E                     dE             d eps       ncg     rms          rms(c)
DAV:   1    -0.257573004956E+02    0.25497E-01   -0.27869E+01   336   0.191E+01    0.519E-01
DAV:   2    -0.258013389019E+02   -0.44038E-01   -0.51406E-01   480   0.699E+00    0.555E-01
DAV:   3    -0.257982655243E+02    0.30734E-02   -0.34767E-02   368   0.403E+00    0.269E-01
DAV:   4    -0.257982484395E+02    0.17085E-04   -0.81454E-03   424   0.113E+00    0.212E-01
DAV:   5    -0.257981031895E+02    0.14525E-03   -0.17445E-03   368   0.610E-01    0.141E-01
DAV:   6    -0.257982290847E+02   -0.12590E-03   -0.15345E-03   544   0.825E-01    0.970E-02
DAV:   7    -0.257981513509E+02    0.77734E-04   -0.48023E-04   376   0.665E-01
   6 F= -.25798151E+02 E0= -.25798151E+02  d E =-.824749E-01  mag=     1.0000
       N       E                     dE             d eps       ncg     rms          rms(c)
DAV:   1    -0.258018861212E+02   -0.36570E-02   -0.28042E+00   352   0.599E+00    0.108E-01
DAV:   2    -0.258056174763E+02   -0.37314E-02   -0.39327E-02   496   0.138E+00    0.116E-01
DAV:   3    -0.258056047097E+02    0.12767E-04   -0.16526E-03   368   0.724E-01    0.739E-02
DAV:   4    -0.258055918657E+02    0.12844E-04   -0.24708E-04   216   0.363E-01
   7 F= -.25805592E+02 E0= -.25805592E+02  d E =-.744051E-02  mag=     1.0000
       N       E                     dE             d eps       ncg     rms          rms(c)
DAV:   1    -0.258055956293E+02    0.90804E-05   -0.13185E+00   352   0.412E+00    0.863E-02
DAV:   2    -0.258074391558E+02   -0.18435E-02   -0.19934E-02   488   0.899E-01    0.820E-02
DAV:   3    -0.258074093135E+02    0.29842E-04   -0.51419E-04   328   0.397E-01
   8 F= -.25807409E+02 E0= -.25807409E+02  d E =-.925796E-02  mag=     1.0000
       N       E                     dE             d eps       ncg     rms          rms(c)
DAV:   1    -0.258080152112E+02   -0.57606E-03   -0.27392E-01   352   0.189E+00    0.522E-02
DAV:   2    -0.258083909830E+02   -0.37577E-03   -0.40121E-03   488   0.473E-01    0.486E-02
DAV:   3    -0.258083775187E+02    0.13464E-04   -0.19302E-04   232   0.339E-01
   9 F= -.25808378E+02 E0= -.25808378E+02  d E =-.968205E-03  mag=     1.0000
       N       E                     dE             d eps       ncg     rms          rms(c)
DAV:   1    -0.258081738978E+02    0.21709E-03   -0.11820E+00   352   0.388E+00    0.784E-02
DAV:   2    -0.258096618719E+02   -0.14880E-02   -0.16226E-02   496   0.114E+00    0.938E-02
DAV:   3    -0.258096343105E+02    0.27561E-04   -0.12027E-03   368   0.666E-01    0.535E-02
DAV:   4    -0.258096253833E+02    0.89272E-05   -0.15196E-04   208   0.188E-01
  10 F= -.25809625E+02 E0= -.25809625E+02  d E =-.221607E-02  mag=     1.0000
       N       E                     dE             d eps       ncg     rms          rms(c)
DAV:   1    -0.258098068913E+02   -0.17258E-03   -0.21526E-01   360   0.168E+00    0.365E-02
DAV:   2    -0.258101015066E+02   -0.29462E-03   -0.31682E-03   488   0.449E-01    0.412E-02
DAV:   3    -0.258100846144E+02    0.16892E-04   -0.13710E-04   208   0.280E-01
  11 F= -.25810085E+02 E0= -.25810085E+02  d E =-.459231E-03  mag=     1.0000
       N       E                     dE             d eps       ncg     rms          rms(c)
DAV:   1    -0.258100440711E+02    0.57436E-04   -0.29276E-01   352   0.194E+00    0.409E-02
DAV:   2    -0.258104160353E+02   -0.37196E-03   -0.39829E-03   496   0.447E-01    0.437E-02
DAV:   3    -0.258103982499E+02    0.17785E-04   -0.10218E-04   208   0.211E-01
  12 F= -.25810398E+02 E0= -.25810398E+02  d E =-.772867E-03  mag=     1.0000
