<?xml version="1.0" encoding="ISO-8859-1"?>
<modeling>
 <generator>
  <i name="program" type="string">vasp </i>
  <i name="version" type="string">5.3.5  </i>
  <i name="subversion" type="string">31Mar14 (build Feb 01 2018 12:10:03) gamma-only                       parallel </i>
  <i name="platform" type="string">LinuxIFC </i>
  <i name="date" type="string">2019 03 21 </i>
  <i name="time" type="string">20:11:42 </i>
 </generator>
 <incar>
  <i type="string" name="PREC">normal</i>
  <i type="int" name="ISPIN">     2</i>
  <i type="int" name="IBRION">     2</i>
  <i type="int" name="NSW">  1000</i>
  <i type="int" name="ISIF">     2</i>
  <i name="POTIM">      0.10000000</i>
  <i type="logical" name="LPLANE"> T  </i>
  <i type="int" name="ISMEAR">     0</i>
  <i name="SIGMA">      0.00010000</i>
  <i type="logical" name="LWAVE"> F  </i>
  <i type="logical" name="LCHARG"> F  </i>
  <i type="logical" name="LVTOT"> F  </i>
  <i type="string" name="GGA"> PE</i>
 </incar>
 <kpoints>
  <varray name="kpointlist" >
   <v>       0.00000000       0.00000000       0.00000000 </v>
  </varray>
  <varray name="weights" >
   <v>       1.00000000 </v>
  </varray>
 </kpoints>
 <parameters>
  <separator name="general" >
   <i type="string" name="SYSTEM">unknown system</i>
   <i type="logical" name="LCOMPAT"> F  </i>
  </separator>
  <separator name="electronic" >
   <i type="string" name="PREC">normal</i>
   <i name="ENMAX">    249.84400000</i>
   <i name="ENAUG">    412.49600000</i>
   <i name="EDIFF">      0.00010000</i>
   <i type="int" name="IALGO">    38</i>
   <i type="int" name="IWAVPR">    11</i>
   <i type="int" name="NBANDS">   124</i>
   <i name="NELECT">    187.00000000</i>
   <i type="int" name="TURBO">     0</i>
   <i type="int" name="IRESTART">     0</i>
   <i type="int" name="NREBOOT">     0</i>
   <i type="int" name="NMIN">     0</i>
   <i name="EREF">      0.00000000</i>
   <separator name="electronic smearing" >
    <i type="int" name="ISMEAR">     0</i>
    <i name="SIGMA">      0.00010000</i>
    <i name="KSPACING">      0.50000000</i>
    <i type="logical" name="KGAMMA"> T  </i>
   </separator>
   <separator name="electronic projectors" >
    <i type="logical" name="LREAL"> F  </i>
    <v name="ROPT">      0.00000000</v>
    <i type="int" name="LMAXPAW">  -100</i>
    <i type="int" name="LMAXMIX">     2</i>
    <i type="logical" name="NLSPLINE"> F  </i>
   </separator>
   <separator name="electronic startup" >
    <i type="int" name="ISTART">     0</i>
    <i type="int" name="ICHARG">     2</i>
    <i type="int" name="INIWAV">     1</i>
   </separator>
   <separator name="electronic spin" >
    <i type="int" name="ISPIN">     2</i>
    <i type="logical" name="LNONCOLLINEAR"> F  </i>
    <v name="MAGMOM">      1.00000000      1.00000000      1.00000000      1.00000000      1.00000000      1.00000000      1.00000000      1.00000000      1.00000000      1.00000000      1.00000000      1.00000000      1.00000000      1.00000000      1.00000000      1.00000000      1.00000000</v>
    <i name="NUPDOWN">     -1.00000000</i>
    <i type="logical" name="LSORBIT"> F  </i>
    <v name="SAXIS">      0.00000000      0.00000000      1.00000000</v>
    <i type="logical" name="LSPIRAL"> F  </i>
    <v name="QSPIRAL">      0.00000000      0.00000000      0.00000000</v>
    <i type="logical" name="LZEROZ"> F  </i>
   </separator>
   <separator name="electronic exchange-correlation" >
    <i type="logical" name="LASPH"> F  </i>
    <i type="logical" name="LMETAGGA"> F  </i>
   </separator>
   <separator name="electronic convergence" >
    <i type="int" name="NELM">    60</i>
    <i type="int" name="NELMDL">    -5</i>
    <i type="int" name="NELMIN">     2</i>
    <i name="ENINI">    249.84400000</i>
    <separator name="electronic convergence detail" >
     <i type="logical" name="LDIAG"> T  </i>
     <i type="logical" name="LSUBROT"> F  </i>
     <i name="WEIMIN">      0.00100000</i>
     <i name="EBREAK">      0.00000020</i>
     <i name="DEPER">      0.30000000</i>
     <i type="int" name="NRMM">     4</i>
     <i name="TIME">      0.40000000</i>
    </separator>
   </separator>
   <separator name="electronic mixer" >
    <i name="AMIX">      0.40000000</i>
    <i name="BMIX">      1.00000000</i>
    <i name="AMIN">      0.10000000</i>
    <i name="AMIX_MAG">      1.60000000</i>
    <i name="BMIX_MAG">      1.00000000</i>
    <separator name="electronic mixer details" >
     <i type="int" name="IMIX">     4</i>
     <i type="int" name="MAXMIX">   -45</i>
     <i name="WC">    100.00000000</i>
     <i type="int" name="INIMIX">     1</i>
     <i type="int" name="MIXPRE">     1</i>
     <i type="int" name="MREMOVE">     5</i>
    </separator>
   </separator>
   <separator name="electronic dipolcorrection" >
    <i type="logical" name="LDIPOL"> F  </i>
    <i type="logical" name="LMONO"> F  </i>
    <i type="int" name="IDIPOL">     0</i>
    <i name="EPSILON">      1.00000000</i>
    <v name="DIPOL">   -100.00000000   -100.00000000   -100.00000000</v>
    <i name="EFIELD">      0.00000000</i>
   </separator>
  </separator>
  <separator name="grids" >
   <i type="int" name="NGX">    80</i>
   <i type="int" name="NGY">    80</i>
   <i type="int" name="NGZ">    80</i>
   <i type="int" name="NGXF">   160</i>
   <i type="int" name="NGYF">   160</i>
   <i type="int" name="NGZF">   160</i>
   <i type="logical" name="ADDGRID"> F  </i>
  </separator>
  <separator name="ionic" >
   <i type="int" name="NSW">  1000</i>
   <i type="int" name="IBRION">     2</i>
   <i type="int" name="ISIF">     2</i>
   <i name="PSTRESS">      0.00000000</i>
   <i name="EDIFFG">      0.00100000</i>
   <i type="int" name="NFREE">     1</i>
   <i name="POTIM">      0.10000000</i>
   <i name="SMASS">     -3.00000000</i>
   <i name="SCALEE">      1.00000000</i>
  </separator>
  <separator name="ionic md" >
   <i name="TEBEG">      0.00010000</i>
   <i name="TEEND">      0.00010000</i>
   <i type="int" name="NBLOCK">     1</i>
   <i type="int" name="KBLOCK">  1000</i>
   <i type="int" name="NPACO">   256</i>
   <i name="APACO">     16.00000000</i>
  </separator>
  <separator name="symmetry" >
   <i type="int" name="ISYM">     2</i>
   <i name="SYMPREC">      0.00001000</i>
  </separator>
  <separator name="dos" >
   <i type="logical" name="LORBIT"> F  </i>
   <v name="RWIGS">     -1.00000000</v>
   <i type="int" name="NEDOS">   301</i>
   <i name="EMIN">     10.00000000</i>
   <i name="EMAX">    -10.00000000</i>
   <i name="EFERMI">      0.00000000</i>
  </separator>
  <separator name="writing" >
   <i type="int" name="NWRITE">     2</i>
   <i type="logical" name="LWAVE"> F  </i>
   <i type="logical" name="LCHARG"> F  </i>
   <i type="logical" name="LPARD"> F  </i>
   <i type="logical" name="LVTOT"> F  </i>
   <i type="logical" name="LVHAR"> F  </i>
   <i type="logical" name="LELF"> F  </i>
   <i type="logical" name="LOPTICS"> F  </i>
   <v name="STM">      0.00000000      0.00000000      0.00000000      0.00000000      0.00000000      0.00000000      0.00000000</v>
  </separator>
  <separator name="performance" >
   <i type="int" name="NPAR">     4</i>
   <i type="int" name="NSIM">     4</i>
   <i type="int" name="NBLK">    -1</i>
   <i type="logical" name="LPLANE"> T  </i>
   <i type="logical" name="LSCALAPACK"> T  </i>
   <i type="logical" name="LSCAAWARE"> F  </i>
   <i type="logical" name="LSCALU"> F  </i>
   <i type="logical" name="LASYNC"> F  </i>
   <i type="logical" name="LORBITALREAL"> F  </i>
  </separator>
  <separator name="miscellaneous" >
   <i type="int" name="IDIOT">     3</i>
   <i type="logical" name="LMUSIC"> F  </i>
   <v name="POMASS">    107.86800000</v>
   <v name="DARWINR">      0.00000000</v>
   <v name="DARWINV">      1.00000000</v>
   <i type="logical" name="LCORR"> T  </i>
  </separator>
  <i type="logical" name="GGA_COMPAT"> T  </i>
  <i type="logical" name="LBERRY"> F  </i>
  <i type="int" name="ICORELEVEL">     0</i>
  <i type="logical" name="LDAU"> F  </i>
  <i type="int" name="I_CONSTRAINED_M">     0</i>
  <separator name="electronic exchange-correlation" >
   <i type="string" name="GGA">PE</i>
   <i type="int" name="VOSKOWN">     0</i>
   <i type="logical" name="LHFCALC"> F  </i>
   <i type="string" name="PRECFOCK"></i>
   <i type="logical" name="LSYMGRAD"> F  </i>
   <i type="logical" name="LHFONE"> F  </i>
   <i type="logical" name="LRHFCALC"> F  </i>
   <i type="logical" name="LTHOMAS"> F  </i>
   <i type="logical" name="LMODELHF"> F  </i>
   <i name="ENCUT4O">     -1.00000000</i>
   <i type="int" name="EXXOEP">     0</i>
   <i type="int" name="FOURORBIT">     0</i>
   <i name="AEXX">      0.00000000</i>
   <i name="HFALPHA">      0.00000000</i>
   <i name="MCALPHA">      0.00000000</i>
   <i name="ALDAX">      1.00000000</i>
   <i name="AGGAX">      1.00000000</i>
   <i name="ALDAC">      1.00000000</i>
   <i name="AGGAC">      1.00000000</i>
   <i type="int" name="NKREDX">     1</i>
   <i type="int" name="NKREDY">     1</i>
   <i type="int" name="NKREDZ">     1</i>
   <i type="logical" name="SHIFTRED"> F  </i>
   <i type="logical" name="ODDONLY"> F  </i>
   <i type="logical" name="EVENONLY"> F  </i>
   <i type="int" name="LMAXFOCK">     0</i>
   <i type="int" name="NMAXFOCKAE">     0</i>
   <i type="logical" name="LFOCKAEDFT"> F  </i>
   <i name="HFSCREEN">      0.00000000</i>
   <i name="HFSCREENC">      0.00000000</i>
   <i type="int" name="NBANDSGWLOW">     0</i>
  </separator>
  <separator name="vdW DFT" >
   <i type="logical" name="LUSE_VDW"> F  </i>
   <i name="Zab_VDW">     -0.84910000</i>
   <i name="PARAM1">      0.12340000</i>
   <i name="PARAM2">      1.00000000</i>
   <i name="PARAM3">      0.00000000</i>
  </separator>
  <separator name="model GW" >
   <i type="int" name="MODEL_GW">     0</i>
   <i name="MODEL_EPS0">    270.91712358</i>
   <i name="MODEL_ALPHA">      1.00000000</i>
  </separator>
  <separator name="linear response parameters" >
   <i type="logical" name="LEPSILON"> F  </i>
   <i type="logical" name="LRPA"> F  </i>
   <i type="logical" name="LNABLA"> F  </i>
   <i type="logical" name="LVEL"> F  </i>
   <i type="int" name="KINTER">     0</i>
   <i name="CSHIFT">      0.10000000</i>
   <i name="OMEGAMAX">     -1.00000000</i>
   <i name="DEG_THRESHOLD">      0.00200000</i>
  </separator>
  <separator name="orbital magnetization" >
   <i type="logical" name="NUCIND"> F  </i>
   <v name="MAGPOS">      0.00000000      0.00000000      0.00000000</v>
   <i type="logical" name="LNICSALL"> T  </i>
   <i type="logical" name="ORBITALMAG"> F  </i>
   <i type="logical" name="LMAGBLOCH"> F  </i>
   <i type="logical" name="LCHIMAG"> F  </i>
   <i type="logical" name="LGAUGE"> T  </i>
   <i type="int" name="MAGATOM">     0</i>
   <v name="MAGDIPOL">      0.00000000      0.00000000      0.00000000</v>
   <v name="AVECCONST">      0.00000000      0.00000000      0.00000000</v>
  </separator>
  <separator name="response functions" >
   <i type="logical" name="LADDER"> F  </i>
   <i type="logical" name="LFXC"> F  </i>
   <i type="logical" name="LHARTREE"> T  </i>
   <i type="int" name="IBSE">     0</i>
   <i type="logical" name="LTCTE"> F  </i>
   <i type="logical" name="LTETE"> F  </i>
   <i type="logical" name="LTRIPLET"> F  </i>
   <i type="logical" name="LFXCEPS"> F  </i>
   <i type="logical" name="LFXHEG"> F  </i>
   <i type="logical" name="L2ORDER"> F  </i>
   <i type="logical" name="LUSEW"> F  </i>
   <i name="ENCUTGW">     -2.00000000</i>
   <i name="ENCUTGWSOFT">     -2.00000000</i>
   <i name="ENCUTLF">     -1.00000000</i>
   <i type="int" name="LMAXMP2">    -1</i>
   <i name="SCISSOR">      0.00000000</i>
   <i type="int" name="NOMEGA">     0</i>
   <i type="int" name="NOMEGAR">     0</i>
   <i type="int" name="NBANDSGW">    -1</i>
   <i type="int" name="NBANDSO">    -1</i>
   <i type="int" name="NBANDSV">    -1</i>
   <i type="int" name="NELM">     1</i>
   <i type="int" name="DIM">     3</i>
   <i type="int" name="ANTIRES">     0</i>
   <i name="OMEGAMAX">    -30.00000000</i>
   <i name="OMEGAMIN">    -30.00000000</i>
   <i name="OMEGATL">   -200.00000000</i>
   <i type="int" name="OMEGAGRID">     0</i>
   <i name="CSHIFT">     -0.10000000</i>
   <i type="logical" name="SELFENERGY"> F  </i>
   <i type="logical" name="LSPECTRAL"> F  </i>
   <i type="logical" name="ODDONLYGW"> F  </i>
   <i type="logical" name="EVENONLYGW"> F  </i>
   <i type="int" name="NKREDLFX">     1</i>
   <i type="int" name="NKREDLFY">     1</i>
   <i type="int" name="NKREDLFZ">     1</i>
   <i type="int" name="MAXMEM">  1800</i>
   <i type="int" name="TELESCOPE">     0</i>
   <i type="int" name="TAUPAR">     1</i>
  </separator>
  <separator name="External order field" >
   <i name="OFIELD_KAPPA">      0.00000000</i>
   <v name="OFIELD_K">      0.00000000      0.00000000      0.00000000</v>
   <i name="OFIELD_Q6_NEAR">      0.00000000</i>
   <i name="OFIELD_Q6_FAR">      0.00000000</i>
   <i name="OFIELD_A">      0.00000000</i>
  </separator>
 </parameters>
 <atominfo>
  <atoms>      17 </atoms>
  <types>       1 </types>
  <array name="atoms" >
   <dimension dim="1">ion</dimension>
   <field type="string">element</field>
   <field type="int">atomtype</field>
   <set>
    <rc><c>Ag</c><c>   1</c></rc>
    <rc><c>Ag</c><c>   1</c></rc>
    <rc><c>Ag</c><c>   1</c></rc>
    <rc><c>Ag</c><c>   1</c></rc>
    <rc><c>Ag</c><c>   1</c></rc>
    <rc><c>Ag</c><c>   1</c></rc>
    <rc><c>Ag</c><c>   1</c></rc>
    <rc><c>Ag</c><c>   1</c></rc>
    <rc><c>Ag</c><c>   1</c></rc>
    <rc><c>Ag</c><c>   1</c></rc>
    <rc><c>Ag</c><c>   1</c></rc>
    <rc><c>Ag</c><c>   1</c></rc>
    <rc><c>Ag</c><c>   1</c></rc>
    <rc><c>Ag</c><c>   1</c></rc>
    <rc><c>Ag</c><c>   1</c></rc>
    <rc><c>Ag</c><c>   1</c></rc>
    <rc><c>Ag</c><c>   1</c></rc>
   </set>
  </array>
  <array name="atomtypes" >
   <dimension dim="1">type</dimension>
   <field type="int">atomspertype</field>
   <field type="string">element</field>
   <field>mass</field>
   <field>valence</field>
   <field type="string">pseudopotential</field>
   <set>
    <rc><c>  17</c><c>Ag</c><c>    107.86800000</c><c>     11.00000000</c><c>  PAW_PBE Ag 02Apr2005                  </c></rc>
   </set>
  </array>
 </atominfo>
 <structure name="initialpos" >
  <crystal>
   <varray name="basis" >
    <v>      19.72625800       0.00000000       0.00000000 </v>
    <v>       0.00000000      19.72625800       0.00000000 </v>
    <v>       0.00000000       0.00000000      19.72625800 </v>
   </varray>
   <i name="volume">   7675.98516818 </i>
   <varray name="rec_basis" >
    <v>       0.05069385       0.00000000       0.00000000 </v>
    <v>       0.00000000       0.05069385       0.00000000 </v>
    <v>       0.00000000       0.00000000       0.05069385 </v>
   </varray>
  </crystal>
  <varray name="positions" >
   <v>       0.42767853       0.62560933       0.59970589 </v>
   <v>       0.50000000       0.32951004       0.48192887 </v>
   <v>       0.38019841       0.50000000       0.35095456 </v>
   <v>       0.35886695       0.50000000       0.59022918 </v>
   <v>       0.50000000       0.57577332       0.37493772 </v>
   <v>       0.57232147       0.37439067       0.59970589 </v>
   <v>       0.50000000       0.50000000       0.62104684 </v>
   <v>       0.50000000       0.67048996       0.48192887 </v>
   <v>       0.64113305       0.50000000       0.59022918 </v>
   <v>       0.57232147       0.62560933       0.59970589 </v>
   <v>       0.61980159       0.50000000       0.35095456 </v>
   <v>       0.42767853       0.37439067       0.59970589 </v>
   <v>       0.50000000       0.42422668       0.37493772 </v>
   <v>       0.60904298       0.57610354       0.47100723 </v>
   <v>       0.60904298       0.42389646       0.47100723 </v>
   <v>       0.39095702       0.57610354       0.47100723 </v>
   <v>       0.39095702       0.42389646       0.47100723 </v>
  </varray>
 </structure>
 <calculation>
  <scstep>
   <time name="dav">    1.36    1.36</time>
   <time name="total">    1.60    1.63</time>
   <energy>
    <i name="alphaZ">     32.02417104 </i>
    <i name="ewald">  23402.55800544 </i>
    <i name="hartreedc"> -40308.99496837 </i>
    <i name="XCdc">   -190.45348658 </i>
    <i name="pawpsdc">  17057.32702718 </i>
    <i name="pawaedc"> -16273.49835094 </i>
    <i name="eentropy">      0.00000000 </i>
    <i name="bandstr">    279.72717337 </i>
    <i name="atom">  17632.37671147 </i>
    <i name="e_fr_energy">   1631.06628261 </i>
    <i name="e_wo_entrp">   1631.06628261 </i>
    <i name="e_0_energy">   1631.06628261 </i>
   </energy>
  </scstep>
  <scstep>
   <time name="dav">    2.16    2.17</time>
   <time name="total">    2.17    2.21</time>
   <energy>
    <i name="e_fr_energy">    451.30972047 </i>
    <i name="e_wo_entrp">    451.30972047 </i>
    <i name="e_0_energy">    451.30972047 </i>
   </energy>
  </scstep>
  <scstep>
   <time name="dav">    1.76    1.76</time>
   <time name="total">    1.76    1.77</time>
   <energy>
    <i name="e_fr_energy">     -4.26383934 </i>
    <i name="e_wo_entrp">     -4.26383934 </i>
    <i name="e_0_energy">     -4.26383934 </i>
   </energy>
  </scstep>
  <scstep>
   <time name="dav">    1.46    1.46</time>
   <time name="total">    1.46    1.47</time>
   <energy>
    <i name="e_fr_energy">    -32.88536338 </i>
    <i name="e_wo_entrp">    -32.88536338 </i>
    <i name="e_0_energy">    -32.88536338 </i>
   </energy>
  </scstep>
  <scstep>
   <time name="dav">    1.55    1.55</time>
   <time name="total">    1.72    1.73</time>
   <energy>
    <i name="e_fr_energy">    -33.28438178 </i>
    <i name="e_wo_entrp">    -33.28438178 </i>
    <i name="e_0_energy">    -33.28438178 </i>
   </energy>
  </scstep>
  <scstep>
   <time name="dav">    1.39    1.39</time>
   <time name="total">    1.79    2.03</time>
   <energy>
    <i name="e_fr_energy">     -8.74875963 </i>
    <i name="e_wo_entrp">     -8.74875963 </i>
    <i name="e_0_energy">     -8.74875963 </i>
   </energy>
  </scstep>
  <scstep>
   <time name="dav">    1.44    1.45</time>
   <time name="total">    1.85    1.86</time>
   <energy>
    <i name="e_fr_energy">     -4.30151515 </i>
    <i name="e_wo_entrp">     -4.30151515 </i>
    <i name="e_0_energy">     -4.30151515 </i>
   </energy>
  </scstep>
  <scstep>
   <time name="dav">    1.43    1.43</time>
   <time name="total">    1.84    1.84</time>
   <energy>
    <i name="e_fr_energy">     -8.33256833 </i>
    <i name="e_wo_entrp">     -8.33256833 </i>
    <i name="e_0_energy">     -8.33256833 </i>
   </energy>
  </scstep>
  <scstep>
   <time name="dav">    1.46    1.46</time>
   <time name="total">    1.87    1.87</time>
   <energy>
    <i name="e_fr_energy">    -10.65482681 </i>
    <i name="e_wo_entrp">    -10.65482681 </i>
    <i name="e_0_energy">    -10.65482681 </i>
   </energy>
  </scstep>
  <scstep>
   <time name="dav">    1.40    1.40</time>
   <time name="total">    1.80    1.81</time>
   <energy>
    <i name="e_fr_energy">    -16.48055051 </i>
    <i name="e_wo_entrp">    -16.48055051 </i>
    <i name="e_0_energy">    -16.48055051 </i>
   </energy>
  </scstep>
  <scstep>
   <time name="dav">    1.36    1.37</time>
   <time name="total">    1.77    1.77</time>
   <energy>
    <i name="e_fr_energy">    -24.22382992 </i>
    <i name="e_wo_entrp">    -24.22382992 </i>
    <i name="e_0_energy">    -24.22382992 </i>
   </energy>
  </scstep>
  <scstep>
   <time name="dav">    1.43    1.43</time>
   <time name="total">    1.83    1.84</time>
   <energy>
    <i name="e_fr_energy">    -27.22968526 </i>
    <i name="e_wo_entrp">    -27.22968526 </i>
    <i name="e_0_energy">    -27.22968526 </i>
   </energy>
  </scstep>
  <scstep>
   <time name="dav">    1.36    1.36</time>
   <time name="total">    1.76    2.09</time>
   <energy>
    <i name="e_fr_energy">    -30.74623510 </i>
    <i name="e_wo_entrp">    -30.74623510 </i>
    <i name="e_0_energy">    -30.74623510 </i>
   </energy>
  </scstep>
  <scstep>
   <time name="dav">    1.40    1.40</time>
   <time name="total">    1.80    1.80</time>
   <energy>
    <i name="e_fr_energy">    -31.72697736 </i>
    <i name="e_wo_entrp">    -31.72697736 </i>
    <i name="e_0_energy">    -31.72697736 </i>
   </energy>
  </scstep>
  <scstep>
   <time name="dav">    1.38    1.39</time>
   <time name="total">    1.80    1.80</time>
   <energy>
    <i name="e_fr_energy">    -32.40805446 </i>
    <i name="e_wo_entrp">    -32.40805446 </i>
    <i name="e_0_energy">    -32.40805446 </i>
   </energy>
  </scstep>
  <scstep>
   <time name="dav">    1.38    1.38</time>
   <time name="total">    1.79    1.79</time>
   <energy>
    <i name="e_fr_energy">    -32.98211824 </i>
    <i name="e_wo_entrp">    -32.98211824 </i>
    <i name="e_0_energy">    -32.98211824 </i>
   </energy>
  </scstep>
  <scstep>
   <time name="dav">    1.41    1.41</time>
   <time name="total">    1.82    1.82</time>
   <energy>
    <i name="e_fr_energy">    -33.14309796 </i>
    <i name="e_wo_entrp">    -33.14309796 </i>
    <i name="e_0_energy">    -33.14309796 </i>
   </energy>
  </scstep>
  <scstep>
   <time name="dav">    1.37    1.37</time>
   <time name="total">    1.77    1.78</time>
   <energy>
    <i name="e_fr_energy">    -33.17716479 </i>
    <i name="e_wo_entrp">    -33.17716479 </i>
    <i name="e_0_energy">    -33.17716479 </i>
   </energy>
  </scstep>
  <scstep>
   <time name="dav">    1.18    1.18</time>
   <time name="total">    1.59    1.61</time>
   <energy>
    <i name="e_fr_energy">    -33.17809768 </i>
    <i name="e_wo_entrp">    -33.17809768 </i>
    <i name="e_0_energy">    -33.17809768 </i>
   </energy>
  </scstep>
  <scstep>
   <time name="dav">    1.20    1.20</time>
   <time name="total">    1.61    1.63</time>
   <energy>
    <i name="e_fr_energy">    -33.18182157 </i>
    <i name="e_wo_entrp">    -33.18182157 </i>
    <i name="e_0_energy">    -33.18182157 </i>
   </energy>
  </scstep>
  <scstep>
   <time name="dav">    1.08    1.08</time>
   <time name="total">    1.48    1.49</time>
   <energy>
    <i name="e_fr_energy">    -33.18418210 </i>
    <i name="e_wo_entrp">    -33.18418210 </i>
    <i name="e_0_energy">    -33.18418210 </i>
   </energy>
  </scstep>
  <scstep>
   <time name="dav">    1.06    1.06</time>
   <time name="total">    1.47    1.48</time>
   <energy>
    <i name="e_fr_energy">    -33.18690066 </i>
    <i name="e_wo_entrp">    -33.18690066 </i>
    <i name="e_0_energy">    -33.18690066 </i>
   </energy>
  </scstep>
  <scstep>
   <time name="dav">    1.09    1.09</time>
   <time name="total">    1.50    1.53</time>
   <energy>
    <i name="e_fr_energy">    -33.18750312 </i>
    <i name="e_wo_entrp">    -33.18750312 </i>
    <i name="e_0_energy">    -33.18750312 </i>
   </energy>
  </scstep>
  <scstep>
   <time name="dav">    1.08    1.08</time>
   <time name="total">    1.32    1.34</time>
   <energy>
    <i name="alphaZ">     32.02417104 </i>
    <i name="ewald">  23402.55800544 </i>
    <i name="hartreedc"> -40315.33019353 </i>
    <i name="XCdc">   -195.76314685 </i>
    <i name="pawpsdc">  18086.57651848 </i>
    <i name="pawaedc"> -17327.51392597 </i>
    <i name="eentropy">      0.00000000 </i>
    <i name="bandstr">  -1348.11558338 </i>
    <i name="atom">  17632.37671147 </i>
    <i name="e_fr_energy">    -33.18744330 </i>
    <i name="e_wo_entrp">    -33.18744330 </i>
    <i name="e_0_energy">    -33.18744330 </i>
   </energy>
  </scstep>
  <structure>
   <crystal>
    <varray name="basis" >
     <v>      19.72625800       0.00000000       0.00000000 </v>
     <v>       0.00000000      19.72625800       0.00000000 </v>
     <v>       0.00000000       0.00000000      19.72625800 </v>
    </varray>
    <i name="volume">   7675.98516818 </i>
    <varray name="rec_basis" >
     <v>       0.05069385       0.00000000       0.00000000 </v>
     <v>       0.00000000       0.05069385       0.00000000 </v>
     <v>       0.00000000       0.00000000       0.05069385 </v>
    </varray>
   </crystal>
   <varray name="positions" >
    <v>       0.42767853       0.62560933       0.59970589 </v>
    <v>       0.50000000       0.32951004       0.48192887 </v>
    <v>       0.38019841       0.50000000       0.35095456 </v>
    <v>       0.35886695       0.50000000       0.59022918 </v>
    <v>       0.50000000       0.57577332       0.37493772 </v>
    <v>       0.57232147       0.37439067       0.59970589 </v>
    <v>       0.50000000       0.50000000       0.62104684 </v>
    <v>       0.50000000       0.67048996       0.48192887 </v>
    <v>       0.64113305       0.50000000       0.59022918 </v>
    <v>       0.57232147       0.62560933       0.59970589 </v>
    <v>       0.61980159       0.50000000       0.35095456 </v>
    <v>       0.42767853       0.37439067       0.59970589 </v>
    <v>       0.50000000       0.42422668       0.37493772 </v>
    <v>       0.60904298       0.57610354       0.47100723 </v>
    <v>       0.60904298       0.42389646       0.47100723 </v>
    <v>       0.39095702       0.57610354       0.47100723 </v>
    <v>       0.39095702       0.42389646       0.47100723 </v>
   </varray>
  </structure>
  <varray name="forces" >
   <v>       0.12374510      -0.24065644      -0.21683163 </v>
   <v>      -0.00000000       0.32390875       0.07366382 </v>
   <v>       0.22018859       0.00000000       0.27124137 </v>
   <v>       0.31056576       0.00000000      -0.16393411 </v>
   <v>      -0.00000000      -0.14999195       0.22651190 </v>
   <v>      -0.12374510       0.24065644      -0.21683163 </v>
   <v>      -0.00000000       0.00000000      -0.08816740 </v>
   <v>      -0.00000000      -0.32390875       0.07366382 </v>
   <v>      -0.31056576       0.00000000      -0.16393411 </v>
   <v>      -0.12374510      -0.24065644      -0.21683163 </v>
   <v>      -0.22018859       0.00000000       0.27124137 </v>
   <v>       0.12374510       0.24065644      -0.21683163 </v>
   <v>      -0.00000000       0.14999195       0.22651190 </v>
   <v>      -0.16259133      -0.11489890       0.03513199 </v>
   <v>      -0.16259133       0.11489890       0.03513199 </v>
   <v>       0.16259133      -0.11489890       0.03513199 </v>
   <v>       0.16259133       0.11489890       0.03513199 </v>
  </varray>
  <varray name="stress" >
   <v>      -2.29672836       0.00000000       0.00000000 </v>
   <v>       0.00000000      -2.37712297       0.00000000 </v>
   <v>       0.00000000       0.00000000      -2.36822461 </v>
  </varray>
  <energy>
   <i name="e_fr_energy">    -33.18744330 </i>
   <i name="e_wo_entrp">    -33.18744330 </i>
   <i name="e_0_energy">      0.00000000 </i>
  </energy>
  <time name="totalsc">   43.55   44.40</time>
 </calculation>
 <calculation>
  <scstep>
   <time name="dav">    1.42    1.43</time>
   <time name="total">    1.82    1.84</time>
   <energy>
    <i name="alphaZ">     32.02417104 </i>
    <i name="ewald">  23451.81403034 </i>
    <i name="hartreedc"> -40364.27345411 </i>
    <i name="XCdc">   -195.69036861 </i>
    <i name="pawpsdc">  18086.68924199 </i>
    <i name="pawaedc"> -17327.62658406 </i>
    <i name="eentropy">      0.00000000 </i>
    <i name="bandstr">  -1348.51506928 </i>
    <i name="atom">  17632.37671147 </i>
    <i name="e_fr_energy">    -33.20132122 </i>
    <i name="e_wo_entrp">    -33.20132122 </i>
    <i name="e_0_energy">    -33.20132122 </i>
   </energy>
  </scstep>
  <scstep>
   <time name="dav">    1.42    1.42</time>
   <time name="total">    1.83    1.83</time>
   <energy>
    <i name="e_fr_energy">    -33.20188129 </i>
    <i name="e_wo_entrp">    -33.20188129 </i>
    <i name="e_0_energy">    -33.20188129 </i>
   </energy>
  </scstep>
  <scstep>
   <time name="dav">    1.01    1.01</time>
   <time name="total">    1.24    1.27</time>
   <energy>
    <i name="alphaZ">     32.02417104 </i>
    <i name="ewald">  23451.81403034 </i>
    <i name="hartreedc"> -40363.83307618 </i>
    <i name="XCdc">   -195.70353937 </i>
    <i name="pawpsdc">  18092.23158883 </i>
    <i name="pawaedc"> -17333.26498731 </i>
    <i name="eentropy">      0.00000000 </i>
    <i name="bandstr">  -1348.84683242 </i>
    <i name="atom">  17632.37671147 </i>
    <i name="e_fr_energy">    -33.20193359 </i>
    <i name="e_wo_entrp">    -33.20193359 </i>
    <i name="e_0_energy">    -33.20193359 </i>
   </energy>
  </scstep>
  <structure>
   <crystal>
    <varray name="basis" >
     <v>      19.72625800       0.00000000       0.00000000 </v>
     <v>       0.00000000      19.72625800       0.00000000 </v>
     <v>       0.00000000       0.00000000      19.72625800 </v>
    </varray>
    <i name="volume">   7675.98516818 </i>
    <varray name="rec_basis" >
     <v>       0.05069385       0.00000000       0.00000000 </v>
     <v>       0.00000000       0.05069385       0.00000000 </v>
     <v>       0.00000000       0.00000000       0.05069385 </v>
    </varray>
   </crystal>
   <varray name="positions" >
    <v>       0.42773906       0.62549162       0.59959984 </v>
    <v>       0.50000000       0.32966847       0.48196490 </v>
    <v>       0.38030611       0.50000000       0.35108723 </v>
    <v>       0.35901885       0.50000000       0.59014900 </v>
    <v>       0.50000000       0.57569995       0.37504851 </v>
    <v>       0.57226094       0.37450838       0.59959984 </v>
    <v>       0.50000000       0.50000000       0.62100371 </v>
    <v>       0.50000000       0.67033153       0.48196490 </v>
    <v>       0.64098115       0.50000000       0.59014900 </v>
    <v>       0.57226094       0.62549162       0.59959984 </v>
    <v>       0.61969389       0.50000000       0.35108723 </v>
    <v>       0.42773906       0.37450838       0.59959984 </v>
    <v>       0.50000000       0.42430005       0.37504851 </v>
    <v>       0.60896346       0.57604734       0.47102442 </v>
    <v>       0.60896346       0.42395266       0.47102442 </v>
    <v>       0.39103654       0.57604734       0.47102442 </v>
    <v>       0.39103654       0.42395266       0.47102442 </v>
   </varray>
  </structure>
  <varray name="forces" >
   <v>       0.11557210      -0.22512843      -0.20159600 </v>
   <v>      -0.00000000       0.30380344       0.06801572 </v>
   <v>       0.20481215       0.00000000       0.25309533 </v>
   <v>       0.29082195       0.00000000      -0.15478343 </v>
   <v>       0.00000000      -0.14096172       0.21265086 </v>
   <v>      -0.11557210       0.22512843      -0.20159600 </v>
   <v>       0.00000000       0.00000000      -0.08097082 </v>
   <v>      -0.00000000      -0.30380344       0.06801572 </v>
   <v>      -0.29082195       0.00000000      -0.15478343 </v>
   <v>      -0.11557210      -0.22512843      -0.20159600 </v>
   <v>      -0.20481215       0.00000000       0.25309533 </v>
   <v>       0.11557210       0.22512843      -0.20159600 </v>
   <v>      -0.00000000       0.14096172       0.21265086 </v>
   <v>      -0.15161488      -0.10921071       0.03234946 </v>
   <v>      -0.15161488       0.10921071       0.03234946 </v>
   <v>       0.15161488      -0.10921071       0.03234946 </v>
   <v>       0.15161488       0.10921071       0.03234946 </v>
  </varray>
  <varray name="stress" >
   <v>      -2.24656186       0.00000000       0.00000000 </v>
   <v>       0.00000000      -2.32697961       0.00000000 </v>
   <v>       0.00000000       0.00000000      -2.31284884 </v>
  </varray>
  <energy>
   <i name="e_fr_energy">    -33.20193359 </i>
   <i name="e_wo_entrp">    -33.20193359 </i>
   <i name="e_0_energy">      0.00000000 </i>
  </energy>
  <time name="totalsc">    7.25    7.31</time>
 </calculation>
 <calculation>
  <scstep>
   <time name="dav">    1.39    1.39</time>
   <time name="total">    1.79    1.80</time>
   <energy>
    <i name="alphaZ">     32.02417104 </i>
    <i name="ewald">  23600.14360143 </i>
    <i name="hartreedc"> -40511.28412435 </i>
    <i name="XCdc">   -195.48547034 </i>
    <i name="pawpsdc">  18095.32643003 </i>
    <i name="pawaedc"> -17336.42112146 </i>
    <i name="eentropy">      0.00000000 </i>
    <i name="bandstr">  -1349.91719935 </i>
    <i name="atom">  17632.37671147 </i>
    <i name="e_fr_energy">    -33.23700153 </i>
    <i name="e_wo_entrp">    -33.23700153 </i>
    <i name="e_0_energy">    -33.23700153 </i>
   </energy>
  </scstep>
  <scstep>
   <time name="dav">    1.39    1.40</time>
   <time name="total">    1.80    1.80</time>
   <energy>
    <i name="e_fr_energy">    -33.24123111 </i>
    <i name="e_wo_entrp">    -33.24123111 </i>
    <i name="e_0_energy">    -33.24123111 </i>
   </energy>
  </scstep>
  <scstep>
   <time name="dav">    1.39    1.39</time>
   <time name="total">    1.62    1.65</time>
   <energy>
    <i name="alphaZ">     32.02417104 </i>
    <i name="ewald">  23600.14360143 </i>
    <i name="hartreedc"> -40510.00825647 </i>
    <i name="XCdc">   -195.52585505 </i>
    <i name="pawpsdc">  18112.73484183 </i>
    <i name="pawaedc"> -17354.13286765 </i>
    <i name="eentropy">      0.00000000 </i>
    <i name="bandstr">  -1350.85352313 </i>
    <i name="atom">  17632.37671147 </i>
    <i name="e_fr_energy">    -33.24117653 </i>
    <i name="e_wo_entrp">    -33.24117653 </i>
    <i name="e_0_energy">    -33.24117653 </i>
   </energy>
  </scstep>
  <structure>
   <crystal>
    <varray name="basis" >
     <v>      19.72625800       0.00000000       0.00000000 </v>
     <v>       0.00000000      19.72625800       0.00000000 </v>
     <v>       0.00000000       0.00000000      19.72625800 </v>
    </varray>
    <i name="volume">   7675.98516818 </i>
    <varray name="rec_basis" >
     <v>       0.05069385       0.00000000       0.00000000 </v>
     <v>       0.00000000       0.05069385       0.00000000 </v>
     <v>       0.00000000       0.00000000       0.05069385 </v>
    </varray>
   </crystal>
   <varray name="positions" >
    <v>       0.42792063       0.62513849       0.59928167 </v>
    <v>       0.50000000       0.33014376       0.48207299 </v>
    <v>       0.38062921       0.50000000       0.35148524 </v>
    <v>       0.35947456       0.50000000       0.58990845 </v>
    <v>       0.50000000       0.57547986       0.37538089 </v>
    <v>       0.57207937       0.37486151       0.59928167 </v>
    <v>       0.50000000       0.50000000       0.62087434 </v>
    <v>       0.50000000       0.66985624       0.48207299 </v>
    <v>       0.64052544       0.50000000       0.58990845 </v>
    <v>       0.57207937       0.62513849       0.59928167 </v>
    <v>       0.61937079       0.50000000       0.35148524 </v>
    <v>       0.42792063       0.37486151       0.59928167 </v>
    <v>       0.50000000       0.42452014       0.37538089 </v>
    <v>       0.60872487       0.57587874       0.47107597 </v>
    <v>       0.60872487       0.42412126       0.47107597 </v>
    <v>       0.39127513       0.57587874       0.47107597 </v>
    <v>       0.39127513       0.42412126       0.47107597 </v>
   </varray>
  </structure>
  <varray name="forces" >
   <v>       0.10043608      -0.19572874      -0.17167675 </v>
   <v>      -0.00000000       0.26748249       0.05596091 </v>
   <v>       0.17588722      -0.00000000       0.21935805 </v>
   <v>       0.25344118      -0.00000000      -0.13939680 </v>
   <v>      -0.00000000      -0.12506554       0.18820668 </v>
   <v>      -0.10043608       0.19572874      -0.17167675 </v>
   <v>      -0.00000000      -0.00000000      -0.06697200 </v>
   <v>      -0.00000000      -0.26748249       0.05596091 </v>
   <v>      -0.25344118      -0.00000000      -0.13939680 </v>
   <v>      -0.10043608      -0.19572874      -0.17167675 </v>
   <v>      -0.17588722      -0.00000000       0.21935805 </v>
   <v>       0.10043608       0.19572874      -0.17167675 </v>
   <v>      -0.00000000       0.12506554       0.18820668 </v>
   <v>      -0.13140997      -0.10069561       0.02635533 </v>
   <v>      -0.13140997       0.10069561       0.02635533 </v>
   <v>       0.13140997      -0.10069561       0.02635533 </v>
   <v>       0.13140997       0.10069561       0.02635533 </v>
  </varray>
  <varray name="stress" >
   <v>      -2.10311585       0.00000000       0.00000000 </v>
   <v>       0.00000000      -2.18131485       0.00000000 </v>
   <v>       0.00000000       0.00000000      -2.15272008 </v>
  </varray>
  <energy>
   <i name="e_fr_energy">    -33.24117653 </i>
   <i name="e_wo_entrp">    -33.24117653 </i>
   <i name="e_0_energy">      0.00000000 </i>
  </energy>
  <time name="totalsc">    7.56    8.44</time>
 </calculation>
 <calculation>
  <scstep>
   <time name="dav">    1.38    1.38</time>
   <time name="total">    1.78    2.58</time>
   <energy>
    <i name="alphaZ">     32.02417104 </i>
    <i name="ewald">  23899.35117732 </i>
    <i name="hartreedc"> -40807.29417744 </i>
    <i name="XCdc">   -195.08399043 </i>
    <i name="pawpsdc">  18121.44325847 </i>
    <i name="pawaedc"> -17363.01736839 </i>
    <i name="eentropy">      0.00000000 </i>
    <i name="bandstr">  -1353.08456037 </i>
    <i name="atom">  17632.37671147 </i>
    <i name="e_fr_energy">    -33.28477833 </i>
    <i name="e_wo_entrp">    -33.28477833 </i>
    <i name="e_0_energy">    -33.28477833 </i>
   </energy>
  </scstep>
  <scstep>
   <time name="dav">    1.40    1.41</time>
   <time name="total">    1.81    1.81</time>
   <energy>
    <i name="e_fr_energy">    -33.30186212 </i>
    <i name="e_wo_entrp">    -33.30186212 </i>
    <i name="e_0_energy">    -33.30186212 </i>
   </energy>
  </scstep>
  <scstep>
   <time name="dav">    1.43    1.43</time>
   <time name="total">    1.84    1.86</time>
   <energy>
    <i name="e_fr_energy">    -33.30156572 </i>
    <i name="e_wo_entrp">    -33.30156572 </i>
    <i name="e_0_energy">    -33.30156572 </i>
   </energy>
  </scstep>
  <scstep>
   <time name="dav">    1.45    1.45</time>
   <time name="total">    1.86    1.88</time>
   <energy>
    <i name="e_fr_energy">    -33.30149859 </i>
    <i name="e_wo_entrp">    -33.30149859 </i>
    <i name="e_0_energy">    -33.30149859 </i>
   </energy>
  </scstep>
  <scstep>
   <time name="dav">    1.05    1.05</time>
   <time name="total">    1.28    1.28</time>
   <energy>
    <i name="alphaZ">     32.02417104 </i>
    <i name="ewald">  23899.35117732 </i>
    <i name="hartreedc"> -40803.86903565 </i>
    <i name="XCdc">   -195.18304564 </i>
    <i name="pawpsdc">  18177.09819870 </i>
    <i name="pawaedc"> -17419.69236258 </i>
    <i name="eentropy">      0.00000000 </i>
    <i name="bandstr">  -1355.40731350 </i>
    <i name="atom">  17632.37671147 </i>
    <i name="e_fr_energy">    -33.30149885 </i>
    <i name="e_wo_entrp">    -33.30149885 </i>
    <i name="e_0_energy">    -33.30149885 </i>
   </energy>
  </scstep>
  <structure>
   <crystal>
    <varray name="basis" >
     <v>      19.72625800       0.00000000       0.00000000 </v>
     <v>       0.00000000      19.72625800       0.00000000 </v>
     <v>       0.00000000       0.00000000      19.72625800 </v>
    </varray>
    <i name="volume">   7675.98516818 </i>
    <varray name="rec_basis" >
     <v>       0.05069385       0.00000000       0.00000000 </v>
     <v>       0.00000000       0.05069385       0.00000000 </v>
     <v>       0.00000000       0.00000000       0.05069385 </v>
    </varray>
   </crystal>
   <varray name="positions" >
    <v>       0.42828379       0.62443223       0.59864532 </v>
    <v>       0.50000000       0.33109434       0.48228917 </v>
    <v>       0.38127540       0.50000000       0.35228126 </v>
    <v>       0.36038599       0.50000000       0.58942735 </v>
    <v>       0.50000000       0.57503967       0.37604564 </v>
    <v>       0.57171621       0.37556777       0.59864532 </v>
    <v>       0.50000000       0.50000000       0.62061559 </v>
    <v>       0.50000000       0.66890566       0.48228917 </v>
    <v>       0.63961401       0.50000000       0.58942735 </v>
    <v>       0.57171621       0.62443223       0.59864532 </v>
    <v>       0.61872460       0.50000000       0.35228126 </v>
    <v>       0.42828379       0.37556777       0.59864532 </v>
    <v>       0.50000000       0.42496033       0.37604564 </v>
    <v>       0.60824771       0.57554154       0.47117907 </v>
    <v>       0.60824771       0.42445846       0.47117907 </v>
    <v>       0.39175229       0.57554154       0.47117907 </v>
    <v>       0.39175229       0.42445846       0.47117907 </v>
   </varray>
  </structure>
  <varray name="forces" >
   <v>       0.06844821      -0.13039714      -0.10676345 </v>
   <v>       0.00000000       0.18566541       0.02861707 </v>
   <v>       0.12070015       0.00000000       0.14616105 </v>
   <v>       0.16894904       0.00000000      -0.10333777 </v>
   <v>       0.00000000      -0.08892004       0.13462766 </v>
   <v>      -0.06844821       0.13039714      -0.10676345 </v>
   <v>       0.00000000       0.00000000      -0.03759037 </v>
   <v>       0.00000000      -0.18566541       0.02861707 </v>
   <v>      -0.16894904       0.00000000      -0.10333777 </v>
   <v>      -0.06844821      -0.13039714      -0.10676345 </v>
   <v>      -0.12070015       0.00000000       0.14616105 </v>
   <v>       0.06844821       0.13039714      -0.10676345 </v>
   <v>       0.00000000       0.08892004       0.13462766 </v>
   <v>      -0.08805735      -0.08088696       0.01312704 </v>
   <v>      -0.08805735       0.08088696       0.01312704 </v>
   <v>       0.08805735      -0.08088696       0.01312704 </v>
   <v>       0.08805735       0.08088696       0.01312704 </v>
  </varray>
  <varray name="stress" >
   <v>      -1.83171088       0.00000000       0.00000000 </v>
   <v>       0.00000000      -1.89739312       0.00000000 </v>
   <v>       0.00000000       0.00000000      -1.84542422 </v>
  </varray>
  <energy>
   <i name="e_fr_energy">    -33.30149885 </i>
   <i name="e_wo_entrp">    -33.30149885 </i>
   <i name="e_0_energy">      0.00000000 </i>
  </energy>
  <time name="totalsc">   10.92   11.84</time>
 </calculation>
 <calculation>
  <scstep>
   <time name="dav">    1.37    1.37</time>
   <time name="total">    1.78    1.79</time>
   <energy>
    <i name="alphaZ">     32.02417104 </i>
    <i name="ewald">  24508.14591809 </i>
    <i name="hartreedc"> -41409.53702489 </i>
    <i name="XCdc">   -194.24766300 </i>
    <i name="pawpsdc">  18176.26197149 </i>
    <i name="pawaedc"> -17418.84496137 </i>
    <i name="eentropy">      0.00000000 </i>
    <i name="bandstr">  -1359.45605409 </i>
    <i name="atom">  17632.37671147 </i>
    <i name="e_fr_energy">    -33.27693127 </i>
    <i name="e_wo_entrp">    -33.27693127 </i>
    <i name="e_0_energy">    -33.27693127 </i>
   </energy>
  </scstep>
  <scstep>
   <time name="dav">    1.39    1.39</time>
   <time name="total">    1.79    1.80</time>
   <energy>
    <i name="e_fr_energy">    -33.34731821 </i>
    <i name="e_wo_entrp">    -33.34731821 </i>
    <i name="e_0_energy">    -33.34731821 </i>
   </energy>
  </scstep>
  <scstep>
   <time name="dav">    1.43    1.43</time>
   <time name="total">    1.84    1.84</time>
   <energy>
    <i name="e_fr_energy">    -33.34561087 </i>
    <i name="e_wo_entrp">    -33.34561087 </i>
    <i name="e_0_energy">    -33.34561087 </i>
   </energy>
  </scstep>
  <scstep>
   <time name="dav">    1.43    1.44</time>
   <time name="total">    1.84    2.57</time>
   <energy>
    <i name="e_fr_energy">    -33.34531408 </i>
    <i name="e_wo_entrp">    -33.34531408 </i>
    <i name="e_0_energy">    -33.34531408 </i>
   </energy>
  </scstep>
  <scstep>
   <time name="dav">    1.29    1.29</time>
   <time name="total">    1.52    1.53</time>
   <energy>
    <i name="alphaZ">     32.02417104 </i>
    <i name="ewald">  24508.14591809 </i>
    <i name="hartreedc"> -41402.16198371 </i>
    <i name="XCdc">   -194.44808848 </i>
    <i name="pawpsdc">  18295.52675867 </i>
    <i name="pawaedc"> -17540.21854256 </i>
    <i name="eentropy">      0.00000000 </i>
    <i name="bandstr">  -1364.59021823 </i>
    <i name="atom">  17632.37671147 </i>
    <i name="e_fr_energy">    -33.34527371 </i>
    <i name="e_wo_entrp">    -33.34527371 </i>
    <i name="e_0_energy">    -33.34527371 </i>
   </energy>
  </scstep>
  <structure>
   <crystal>
    <varray name="basis" >
     <v>      19.72625800       0.00000000       0.00000000 </v>
     <v>       0.00000000      19.72625800       0.00000000 </v>
     <v>       0.00000000       0.00000000      19.72625800 </v>
    </varray>
    <i name="volume">   7675.98516818 </i>
    <varray name="rec_basis" >
     <v>       0.05069385       0.00000000       0.00000000 </v>
     <v>       0.00000000       0.05069385       0.00000000 </v>
     <v>       0.00000000       0.00000000       0.05069385 </v>
    </varray>
   </crystal>
   <varray name="positions" >
    <v>       0.42901011       0.62301970       0.59737264 </v>
    <v>       0.50000000       0.33299551       0.48272154 </v>
    <v>       0.38256779       0.50000000       0.35387330 </v>
    <v>       0.36220884       0.50000000       0.58846514 </v>
    <v>       0.50000000       0.57415930       0.37737514 </v>
    <v>       0.57098989       0.37698030       0.59737264 </v>
    <v>       0.50000000       0.50000000       0.62009810 </v>
    <v>       0.50000000       0.66700449       0.48272154 </v>
    <v>       0.63779116       0.50000000       0.58846514 </v>
    <v>       0.57098989       0.62301970       0.59737264 </v>
    <v>       0.61743221       0.50000000       0.35387330 </v>
    <v>       0.42901011       0.37698030       0.59737264 </v>
    <v>       0.50000000       0.42584070       0.37737514 </v>
    <v>       0.60729339       0.57486715       0.47138528 </v>
    <v>       0.60729339       0.42513285       0.47138528 </v>
    <v>       0.39270661       0.57486715       0.47138528 </v>
    <v>       0.39270661       0.42513285       0.47138528 </v>
   </varray>
  </structure>
  <varray name="forces" >
   <v>      -0.00141375       0.01646062       0.04386379 </v>
   <v>       0.00000000       0.00248040      -0.03911113 </v>
   <v>      -0.02006072      -0.00000000      -0.02867728 </v>
   <v>      -0.03703873      -0.00000000      -0.01276297 </v>
   <v>       0.00000000       0.00164216       0.01096856 </v>
   <v>       0.00141375      -0.01646062       0.04386379 </v>
   <v>      -0.00000000      -0.00000000       0.03593828 </v>
   <v>       0.00000000      -0.00248040      -0.03911113 </v>
   <v>       0.03703873      -0.00000000      -0.01276297 </v>
   <v>       0.00141375       0.01646062       0.04386379 </v>
   <v>       0.02006072      -0.00000000      -0.02867728 </v>
   <v>      -0.00141375      -0.01646062       0.04386379 </v>
   <v>       0.00000000      -0.00164216       0.01096856 </v>
   <v>       0.01883761      -0.03026365      -0.01805695 </v>
   <v>       0.01883761       0.03026365      -0.01805695 </v>
   <v>      -0.01883761      -0.03026365      -0.01805695 </v>
   <v>      -0.01883761       0.03026365      -0.01805695 </v>
  </varray>
  <varray name="stress" >
   <v>      -1.20438186       0.00000000       0.00000000 </v>
   <v>       0.00000000      -1.23996493       0.00000000 </v>
   <v>       0.00000000       0.00000000      -1.14980153 </v>
  </varray>
  <energy>
   <i name="e_fr_energy">    -33.34527371 </i>
   <i name="e_wo_entrp">    -33.34527371 </i>
   <i name="e_0_energy">      0.00000000 </i>
  </energy>
  <time name="totalsc">   11.13   11.89</time>
 </calculation>
 <calculation>
  <scstep>
   <time name="dav">    1.42    1.42</time>
   <time name="total">    1.82    1.83</time>
   <energy>
    <i name="alphaZ">     32.02417104 </i>
    <i name="ewald">  24490.91645966 </i>
    <i name="hartreedc"> -41385.17786951 </i>
    <i name="XCdc">   -194.47826629 </i>
    <i name="pawpsdc">  18293.69155227 </i>
    <i name="pawaedc"> -17538.36394484 </i>
    <i name="eentropy">      0.00000000 </i>
    <i name="bandstr">  -1364.33498846 </i>
    <i name="atom">  17632.37671147 </i>
    <i name="e_fr_energy">    -33.34617466 </i>
    <i name="e_wo_entrp">    -33.34617466 </i>
    <i name="e_0_energy">    -33.34617466 </i>
   </energy>
  </scstep>
  <scstep>
   <time name="dav">    1.46    1.46</time>
   <time name="total">    1.86    1.87</time>
   <energy>
    <i name="e_fr_energy">    -33.34641791 </i>
    <i name="e_wo_entrp">    -33.34641791 </i>
    <i name="e_0_energy">    -33.34641791 </i>
   </energy>
  </scstep>
  <scstep>
   <time name="dav">    1.06    1.06</time>
   <time name="total">    1.29    1.29</time>
   <energy>
    <i name="alphaZ">     32.02417104 </i>
    <i name="ewald">  24490.91645966 </i>
    <i name="hartreedc"> -41385.20828031 </i>
    <i name="XCdc">   -194.47502125 </i>
    <i name="pawpsdc">  18290.52436786 </i>
    <i name="pawaedc"> -17535.15887920 </i>
    <i name="eentropy">      0.00000000 </i>
    <i name="bandstr">  -1364.34596820 </i>
    <i name="atom">  17632.37671147 </i>
    <i name="e_fr_energy">    -33.34643892 </i>
    <i name="e_wo_entrp">    -33.34643892 </i>
    <i name="e_0_energy">    -33.34643892 </i>
   </energy>
  </scstep>
  <structure>
   <crystal>
    <varray name="basis" >
     <v>      19.72625800       0.00000000       0.00000000 </v>
     <v>       0.00000000      19.72625800       0.00000000 </v>
     <v>       0.00000000       0.00000000      19.72625800 </v>
    </varray>
    <i name="volume">   7675.98516818 </i>
    <varray name="rec_basis" >
     <v>       0.05069385       0.00000000       0.00000000 </v>
     <v>       0.00000000       0.05069385       0.00000000 </v>
     <v>       0.00000000       0.00000000       0.05069385 </v>
    </varray>
   </crystal>
   <varray name="positions" >
    <v>       0.42900651       0.62306157       0.59748421 </v>
    <v>       0.50000000       0.33300182       0.48262206 </v>
    <v>       0.38251677       0.50000000       0.35380036 </v>
    <v>       0.36211464       0.50000000       0.58843268 </v>
    <v>       0.50000000       0.57416348       0.37740304 </v>
    <v>       0.57099349       0.37693843       0.59748421 </v>
    <v>       0.50000000       0.50000000       0.62018951 </v>
    <v>       0.50000000       0.66699818       0.48262206 </v>
    <v>       0.63788536       0.50000000       0.58843268 </v>
    <v>       0.57099349       0.62306157       0.59748421 </v>
    <v>       0.61748323       0.50000000       0.35380036 </v>
    <v>       0.42900651       0.37693843       0.59748421 </v>
    <v>       0.50000000       0.42583652       0.37740304 </v>
    <v>       0.60734130       0.57479017       0.47133935 </v>
    <v>       0.60734130       0.42520983       0.47133935 </v>
    <v>       0.39265870       0.57479017       0.47133935 </v>
    <v>       0.39265870       0.42520983       0.47133935 </v>
   </varray>
  </structure>
  <varray name="forces" >
   <v>      -0.00074938       0.00720630       0.02370463 </v>
   <v>      -0.00000000       0.00910693      -0.02100852 </v>
   <v>      -0.01369489      -0.00000000      -0.02622516 </v>
   <v>      -0.02292076      -0.00000000      -0.00928996 </v>
   <v>      -0.00000000      -0.00453406       0.00545138 </v>
   <v>       0.00074938      -0.00720630       0.02370463 </v>
   <v>      -0.00000000      -0.00000000       0.02808758 </v>
   <v>      -0.00000000      -0.00910693      -0.02100852 </v>
   <v>       0.02292076      -0.00000000      -0.00928996 </v>
   <v>       0.00074938       0.00720630       0.02370463 </v>
   <v>       0.01369489      -0.00000000      -0.02622516 </v>
   <v>      -0.00074938      -0.00720630       0.02370463 </v>
   <v>      -0.00000000       0.00453406       0.00545138 </v>
   <v>       0.01129724      -0.01704073      -0.00519040 </v>
   <v>       0.01129724       0.01704073      -0.00519040 </v>
   <v>      -0.01129724      -0.01704073      -0.00519040 </v>
   <v>      -0.01129724       0.01704073      -0.00519040 </v>
  </varray>
  <varray name="stress" >
   <v>      -1.24004084       0.00000000       0.00000000 </v>
   <v>       0.00000000      -1.26462455       0.00000000 </v>
   <v>       0.00000000       0.00000000      -1.18523300 </v>
  </varray>
  <energy>
   <i name="e_fr_energy">    -33.34643892 </i>
   <i name="e_wo_entrp">    -33.34643892 </i>
   <i name="e_0_energy">      0.00000000 </i>
  </energy>
  <time name="totalsc">    7.35    7.40</time>
 </calculation>
 <calculation>
  <scstep>
   <time name="dav">    1.40    1.41</time>
   <time name="total">    1.81    1.82</time>
   <energy>
    <i name="alphaZ">     32.02417104 </i>
    <i name="ewald">  24466.99261384 </i>
    <i name="hartreedc"> -41361.35865993 </i>
    <i name="XCdc">   -194.51529369 </i>
    <i name="pawpsdc">  18288.82466183 </i>
    <i name="pawaedc"> -17533.43575185 </i>
    <i name="eentropy">      0.00000000 </i>
    <i name="bandstr">  -1364.25539374 </i>
    <i name="atom">  17632.37671147 </i>
    <i name="e_fr_energy">    -33.34694103 </i>
    <i name="e_wo_entrp">    -33.34694103 </i>
    <i name="e_0_energy">    -33.34694103 </i>
   </energy>
  </scstep>
  <scstep>
   <time name="dav">    1.48    1.48</time>
   <time name="total">    1.88    1.89</time>
   <energy>
    <i name="e_fr_energy">    -33.34735346 </i>
    <i name="e_wo_entrp">    -33.34735346 </i>
    <i name="e_0_energy">    -33.34735346 </i>
   </energy>
  </scstep>
  <scstep>
   <time name="dav">    1.07    1.07</time>
   <time name="total">    1.30    1.30</time>
   <energy>
    <i name="alphaZ">     32.02417104 </i>
    <i name="ewald">  24466.99261384 </i>
    <i name="hartreedc"> -41361.49410655 </i>
    <i name="XCdc">   -194.50893912 </i>
    <i name="pawpsdc">  18285.34099876 </i>
    <i name="pawaedc"> -17529.89491836 </i>
    <i name="eentropy">      0.00000000 </i>
    <i name="bandstr">  -1364.18388687 </i>
    <i name="atom">  17632.37671147 </i>
    <i name="e_fr_energy">    -33.34735578 </i>
    <i name="e_wo_entrp">    -33.34735578 </i>
    <i name="e_0_energy">    -33.34735578 </i>
   </energy>
  </scstep>
  <structure>
   <crystal>
    <varray name="basis" >
     <v>      19.72625800       0.00000000       0.00000000 </v>
     <v>       0.00000000      19.72625800       0.00000000 </v>
     <v>       0.00000000       0.00000000      19.72625800 </v>
    </varray>
    <i name="volume">   7675.98516818 </i>
    <varray name="rec_basis" >
     <v>       0.05069385       0.00000000       0.00000000 </v>
     <v>       0.00000000       0.05069385       0.00000000 </v>
     <v>       0.00000000       0.00000000       0.05069385 </v>
    </varray>
   </crystal>
   <varray name="positions" >
    <v>       0.42900151       0.62311978       0.59763933 </v>
    <v>       0.50000000       0.33301059       0.48248375 </v>
    <v>       0.38244582       0.50000000       0.35369894 </v>
    <v>       0.36198365       0.50000000       0.58838755 </v>
    <v>       0.50000000       0.57416929       0.37744182 </v>
    <v>       0.57099849       0.37688022       0.59763933 </v>
    <v>       0.50000000       0.50000000       0.62031660 </v>
    <v>       0.50000000       0.66698941       0.48248375 </v>
    <v>       0.63801635       0.50000000       0.58838755 </v>
    <v>       0.57099849       0.62311978       0.59763933 </v>
    <v>       0.61755418       0.50000000       0.35369894 </v>
    <v>       0.42900151       0.37688022       0.59763933 </v>
    <v>       0.50000000       0.42583071       0.37744182 </v>
    <v>       0.60740792       0.57468315       0.47127549 </v>
    <v>       0.60740792       0.42531685       0.47127549 </v>
    <v>       0.39259208       0.57468315       0.47127549 </v>
    <v>       0.39259208       0.42531685       0.47127549 </v>
   </varray>
  </structure>
  <varray name="forces" >
   <v>       0.00003157      -0.00374306       0.00104795 </v>
   <v>      -0.00000000       0.01800907      -0.00058691 </v>
   <v>      -0.00718877      -0.00000000      -0.02544209 </v>
   <v>      -0.00765428      -0.00000000      -0.00594125 </v>
   <v>      -0.00000000      -0.01240194      -0.00100335 </v>
   <v>      -0.00003157       0.00374306       0.00104795 </v>
   <v>      -0.00000000      -0.00000000       0.02150776 </v>
   <v>      -0.00000000      -0.01800907      -0.00058691 </v>
   <v>       0.00765428      -0.00000000      -0.00594125 </v>
   <v>      -0.00003157      -0.00374306       0.00104795 </v>
   <v>       0.00718877      -0.00000000      -0.02544209 </v>
   <v>       0.00003157       0.00374306       0.00104795 </v>
   <v>      -0.00000000       0.01240194      -0.00100335 </v>
   <v>       0.00346709      -0.00200807       0.01006192 </v>
   <v>       0.00346709       0.00200807       0.01006192 </v>
   <v>      -0.00346709      -0.00200807       0.01006192 </v>
   <v>      -0.00346709       0.00200807       0.01006192 </v>
  </varray>
  <varray name="stress" >
   <v>      -1.27357294       0.00000000       0.00000000 </v>
   <v>       0.00000000      -1.28412224       0.00000000 </v>
   <v>       0.00000000       0.00000000      -1.22144099 </v>
  </varray>
  <energy>
   <i name="e_fr_energy">    -33.34735578 </i>
   <i name="e_wo_entrp">    -33.34735578 </i>
   <i name="e_0_energy">      0.00000000 </i>
  </energy>
  <time name="totalsc">    7.22    7.63</time>
  <eigenvalues>
   <array>
    <dimension dim="1">band</dimension>
    <dimension dim="2">kpoint</dimension>
    <dimension dim="3">spin</dimension>
    <field>eigene</field>
    <field>occ</field>
    <set>
     <set comment="spin 1">
      <set comment="kpoint 1">
       <r>   -8.8121    1.0000 </r>
       <r>   -8.8003    1.0000 </r>
       <r>   -8.7226    1.0000 </r>
       <r>   -8.7026    1.0000 </r>
       <r>   -8.6711    1.0000 </r>
       <r>   -8.6686    1.0000 </r>
       <r>   -8.6308    1.0000 </r>
       <r>   -8.5807    1.0000 </r>
       <r>   -8.5790    1.0000 </r>
       <r>   -8.5444    1.0000 </r>
       <r>   -8.5370    1.0000 </r>
       <r>   -8.4822    1.0000 </r>
       <r>   -8.4769    1.0000 </r>
       <r>   -8.4523    1.0000 </r>
       <r>   -8.4038    1.0000 </r>
       <r>   -8.3890    1.0000 </r>
       <r>   -8.3806    1.0000 </r>
       <r>   -8.3426    1.0000 </r>
       <r>   -8.3111    1.0000 </r>
       <r>   -8.2912    1.0000 </r>
       <r>   -8.2879    1.0000 </r>
       <r>   -8.2683    1.0000 </r>
       <r>   -8.2680    1.0000 </r>
       <r>   -8.1705    1.0000 </r>
       <r>   -8.1511    1.0000 </r>
       <r>   -8.1438    1.0000 </r>
       <r>   -8.1025    1.0000 </r>
       <r>   -8.0748    1.0000 </r>
       <r>   -8.0626    1.0000 </r>
       <r>   -8.0602    1.0000 </r>
       <r>   -7.8623    1.0000 </r>
       <r>   -7.8369    1.0000 </r>
       <r>   -7.8132    1.0000 </r>
       <r>   -7.7150    1.0000 </r>
       <r>   -7.7102    1.0000 </r>
       <r>   -7.7026    1.0000 </r>
       <r>   -7.6197    1.0000 </r>
       <r>   -7.5993    1.0000 </r>
       <r>   -7.5798    1.0000 </r>
       <r>   -7.5645    1.0000 </r>
       <r>   -7.5539    1.0000 </r>
       <r>   -7.5193    1.0000 </r>
       <r>   -7.4303    1.0000 </r>
       <r>   -7.4197    1.0000 </r>
       <r>   -7.3362    1.0000 </r>
       <r>   -7.3239    1.0000 </r>
       <r>   -7.3073    1.0000 </r>
       <r>   -7.2947    1.0000 </r>
       <r>   -7.2386    1.0000 </r>
       <r>   -7.2037    1.0000 </r>
       <r>   -7.1859    1.0000 </r>
       <r>   -7.1669    1.0000 </r>
       <r>   -7.1040    1.0000 </r>
       <r>   -7.0912    1.0000 </r>
       <r>   -7.0644    1.0000 </r>
       <r>   -6.9901    1.0000 </r>
       <r>   -6.9808    1.0000 </r>
       <r>   -6.9307    1.0000 </r>
       <r>   -6.8991    1.0000 </r>
       <r>   -6.8575    1.0000 </r>
       <r>   -6.8353    1.0000 </r>
       <r>   -6.8297    1.0000 </r>
       <r>   -6.8250    1.0000 </r>
       <r>   -6.8176    1.0000 </r>
       <r>   -6.8014    1.0000 </r>
       <r>   -6.7801    1.0000 </r>
       <r>   -6.7551    1.0000 </r>
       <r>   -6.7445    1.0000 </r>
       <r>   -6.7269    1.0000 </r>
       <r>   -6.6706    1.0000 </r>
       <r>   -6.6688    1.0000 </r>
       <r>   -6.6555    1.0000 </r>
       <r>   -6.6465    1.0000 </r>
       <r>   -6.6331    1.0000 </r>
       <r>   -6.6091    1.0000 </r>
       <r>   -6.5864    1.0000 </r>
       <r>   -6.5716    1.0000 </r>
       <r>   -6.5303    1.0000 </r>
       <r>   -6.5251    1.0000 </r>
       <r>   -6.4554    1.0000 </r>
       <r>   -6.4534    1.0000 </r>
       <r>   -6.3814    1.0000 </r>
       <r>   -6.3789    1.0000 </r>
       <r>   -6.3165    1.0000 </r>
       <r>   -6.2933    1.0000 </r>
       <r>   -6.1986    1.0000 </r>
       <r>   -6.0659    1.0000 </r>
       <r>   -6.0335    1.0000 </r>
       <r>   -5.9256    1.0000 </r>
       <r>   -4.8450    1.0000 </r>
       <r>   -4.5571    1.0000 </r>
       <r>   -4.3820    1.0000 </r>
       <r>   -4.1781    1.0000 </r>
       <r>   -4.0133    1.0000 </r>
       <r>   -2.9346    0.0000 </r>
       <r>   -2.3379    0.0000 </r>
       <r>   -2.3307    0.0000 </r>
       <r>   -2.3156    0.0000 </r>
       <r>   -2.2906    0.0000 </r>
       <r>   -2.1135    0.0000 </r>
       <r>   -1.9779    0.0000 </r>
       <r>   -1.9368    0.0000 </r>
       <r>   -1.5048    0.0000 </r>
       <r>   -1.2316    0.0000 </r>
       <r>   -1.2084    0.0000 </r>
       <r>   -0.4045    0.0000 </r>
       <r>   -0.2685    0.0000 </r>
       <r>   -0.2545    0.0000 </r>
       <r>   -0.1561    0.0000 </r>
       <r>   -0.1436    0.0000 </r>
       <r>   -0.1057    0.0000 </r>
       <r>    0.1957    0.0000 </r>
       <r>    0.2607    0.0000 </r>
       <r>    0.2882    0.0000 </r>
       <r>    0.3199    0.0000 </r>
       <r>    0.4205    0.0000 </r>
       <r>    0.4229    0.0000 </r>
       <r>    0.5269    0.0000 </r>
       <r>    0.5838    0.0000 </r>
       <r>    0.7558    0.0000 </r>
       <r>    0.7583    0.0000 </r>
       <r>    0.7762    0.0000 </r>
       <r>    0.7874    0.0000 </r>
       <r>    0.7947    0.0000 </r>
      </set>
     </set>
     <set comment="spin 2">
      <set comment="kpoint 1">
       <r>   -8.7884    1.0000 </r>
       <r>   -8.7814    1.0000 </r>
       <r>   -8.7061    1.0000 </r>
       <r>   -8.6785    1.0000 </r>
       <r>   -8.6500    1.0000 </r>
       <r>   -8.6353    1.0000 </r>
       <r>   -8.6076    1.0000 </r>
       <r>   -8.5586    1.0000 </r>
       <r>   -8.5443    1.0000 </r>
       <r>   -8.5181    1.0000 </r>
       <r>   -8.5128    1.0000 </r>
       <r>   -8.4639    1.0000 </r>
       <r>   -8.4564    1.0000 </r>
       <r>   -8.4389    1.0000 </r>
       <r>   -8.3935    1.0000 </r>
       <r>   -8.3782    1.0000 </r>
       <r>   -8.3696    1.0000 </r>
       <r>   -8.3337    1.0000 </r>
       <r>   -8.2927    1.0000 </r>
       <r>   -8.2818    1.0000 </r>
       <r>   -8.2769    1.0000 </r>
       <r>   -8.2451    1.0000 </r>
       <r>   -8.2425    1.0000 </r>
       <r>   -8.1495    1.0000 </r>
       <r>   -8.1404    1.0000 </r>
       <r>   -8.1142    1.0000 </r>
       <r>   -8.0829    1.0000 </r>
       <r>   -8.0597    1.0000 </r>
       <r>   -8.0496    1.0000 </r>
       <r>   -8.0402    1.0000 </r>
       <r>   -7.8474    1.0000 </r>
       <r>   -7.8208    1.0000 </r>
       <r>   -7.7986    1.0000 </r>
       <r>   -7.7043    1.0000 </r>
       <r>   -7.6977    1.0000 </r>
       <r>   -7.6870    1.0000 </r>
       <r>   -7.6036    1.0000 </r>
       <r>   -7.5808    1.0000 </r>
       <r>   -7.5712    1.0000 </r>
       <r>   -7.5498    1.0000 </r>
       <r>   -7.5267    1.0000 </r>
       <r>   -7.4976    1.0000 </r>
       <r>   -7.4092    1.0000 </r>
       <r>   -7.4024    1.0000 </r>
       <r>   -7.3254    1.0000 </r>
       <r>   -7.3082    1.0000 </r>
       <r>   -7.2837    1.0000 </r>
       <r>   -7.2752    1.0000 </r>
       <r>   -7.2231    1.0000 </r>
       <r>   -7.1816    1.0000 </r>
       <r>   -7.1704    1.0000 </r>
       <r>   -7.1480    1.0000 </r>
       <r>   -7.0840    1.0000 </r>
       <r>   -7.0788    1.0000 </r>
       <r>   -7.0452    1.0000 </r>
       <r>   -6.9681    1.0000 </r>
       <r>   -6.9677    1.0000 </r>
       <r>   -6.9202    1.0000 </r>
       <r>   -6.8659    1.0000 </r>
       <r>   -6.8464    1.0000 </r>
       <r>   -6.8190    1.0000 </r>
       <r>   -6.8112    1.0000 </r>
       <r>   -6.8094    1.0000 </r>
       <r>   -6.8080    1.0000 </r>
       <r>   -6.7810    1.0000 </r>
       <r>   -6.7682    1.0000 </r>
       <r>   -6.7336    1.0000 </r>
       <r>   -6.7306    1.0000 </r>
       <r>   -6.7149    1.0000 </r>
       <r>   -6.6586    1.0000 </r>
       <r>   -6.6481    1.0000 </r>
       <r>   -6.6406    1.0000 </r>
       <r>   -6.6309    1.0000 </r>
       <r>   -6.6164    1.0000 </r>
       <r>   -6.6029    1.0000 </r>
       <r>   -6.5763    1.0000 </r>
       <r>   -6.5571    1.0000 </r>
       <r>   -6.5195    1.0000 </r>
       <r>   -6.5156    1.0000 </r>
       <r>   -6.4445    1.0000 </r>
       <r>   -6.4413    1.0000 </r>
       <r>   -6.3625    1.0000 </r>
       <r>   -6.3592    1.0000 </r>
       <r>   -6.3038    1.0000 </r>
       <r>   -6.2838    1.0000 </r>
       <r>   -6.1851    1.0000 </r>
       <r>   -6.0165    1.0000 </r>
       <r>   -6.0136    1.0000 </r>
       <r>   -5.8781    1.0000 </r>
       <r>   -4.8100    1.0000 </r>
       <r>   -4.5187    1.0000 </r>
       <r>   -4.3367    1.0000 </r>
       <r>   -4.1476    1.0000 </r>
       <r>   -3.8607    0.0000 </r>
       <r>   -2.8915    0.0000 </r>
       <r>   -2.2998    0.0000 </r>
       <r>   -2.2803    0.0000 </r>
       <r>   -2.2710    0.0000 </r>
       <r>   -2.2625    0.0000 </r>
       <r>   -2.0506    0.0000 </r>
       <r>   -1.9072    0.0000 </r>
       <r>   -1.8367    0.0000 </r>
       <r>   -1.4231    0.0000 </r>
       <r>   -1.2018    0.0000 </r>
       <r>   -1.1369    0.0000 </r>
       <r>   -0.3728    0.0000 </r>
       <r>   -0.2440    0.0000 </r>
       <r>   -0.2033    0.0000 </r>
       <r>   -0.1107    0.0000 </r>
       <r>   -0.0874    0.0000 </r>
       <r>   -0.0635    0.0000 </r>
       <r>    0.2293    0.0000 </r>
       <r>    0.2973    0.0000 </r>
       <r>    0.3282    0.0000 </r>
       <r>    0.3826    0.0000 </r>
       <r>    0.4832    0.0000 </r>
       <r>    0.5031    0.0000 </r>
       <r>    0.5811    0.0000 </r>
       <r>    0.6598    0.0000 </r>
       <r>    0.7988    0.0000 </r>
       <r>    0.8149    0.0000 </r>
       <r>    0.8306    0.0000 </r>
       <r>    0.8317    0.0000 </r>
       <r>    0.8492    0.0000 </r>
      </set>
     </set>
    </set>
   </array>
  </eigenvalues>
  <separator name="orbital magnetization" >
   <v name="MAGDIPOLOUT">      0.00000000      0.00000000      0.00000000</v>
  </separator>
  <dos>
   <i name="efermi">     -3.99914892 </i>
   <total>
    <array>
     <dimension dim="1">gridpoints</dimension>
     <dimension dim="2">spin</dimension>
     <field>energy</field>
     <field>total</field>
     <field>integrated</field>
     <set>
      <set comment="spin 1">
       <r>    -9.2951     0.0000     0.0000 </r>
       <r>    -9.2597     0.0000     0.0000 </r>
       <r>    -9.2243     0.0000     0.0000 </r>
       <r>    -9.1888     0.0000     0.0000 </r>
       <r>    -9.1534     0.0000     0.0000 </r>
       <r>    -9.1180     0.0000     0.0000 </r>
       <r>    -9.0826     0.0000     0.0000 </r>
       <r>    -9.0471     0.0000     0.0000 </r>
       <r>    -9.0117     0.0000     0.0000 </r>
       <r>    -8.9763     0.0000     0.0000 </r>
       <r>    -8.9409     0.0000     0.0000 </r>
       <r>    -8.9054     0.0000     0.0000 </r>
       <r>    -8.8700     0.0000     0.0000 </r>
       <r>    -8.8346     0.0000     0.0000 </r>
       <r>    -8.7992     0.0000     2.0000 </r>
       <r>    -8.7637     0.0000     2.0000 </r>
       <r>    -8.7283     0.0000     2.0000 </r>
       <r>    -8.6929     0.0000     4.0000 </r>
       <r>    -8.6575     0.0000     6.0000 </r>
       <r>    -8.6220     0.0000     7.0000 </r>
       <r>    -8.5866     0.0000     7.0000 </r>
       <r>    -8.5512     0.0000     9.0000 </r>
       <r>    -8.5158     0.0000    11.0000 </r>
       <r>    -8.4804     0.0000    12.0000 </r>
       <r>    -8.4449     0.0000    14.0000 </r>
       <r>    -8.4095     0.0000    14.0000 </r>
       <r>    -8.3741     0.0000    17.0000 </r>
       <r>    -8.3387     0.0000    18.0000 </r>
       <r>    -8.3032     0.0000    19.0000 </r>
       <r>    -8.2678    56.4405    22.9994 </r>
       <r>    -8.2324     0.0000    23.0000 </r>
       <r>    -8.1970     0.0000    23.0000 </r>
       <r>    -8.1615     0.0000    24.0000 </r>
       <r>    -8.1261     0.0000    26.0000 </r>
       <r>    -8.0907     0.0000    27.0000 </r>
       <r>    -8.0553     0.0000    30.0000 </r>
       <r>    -8.0198     0.0000    30.0000 </r>
       <r>    -7.9844     0.0000    30.0000 </r>
       <r>    -7.9490     0.0000    30.0000 </r>
       <r>    -7.9136     0.0000    30.0000 </r>
       <r>    -7.8781     0.0000    30.0000 </r>
       <r>    -7.8427     0.0000    31.0000 </r>
       <r>    -7.8073     0.0000    33.0000 </r>
       <r>    -7.7719     0.0000    33.0000 </r>
       <r>    -7.7364     0.0000    33.0000 </r>
       <r>    -7.7010     0.0000    36.0000 </r>
       <r>    -7.6656     0.0000    36.0000 </r>
       <r>    -7.6302     0.0000    36.0000 </r>
       <r>    -7.5947     0.0000    38.0000 </r>
       <r>    -7.5593     0.0000    40.0000 </r>
       <r>    -7.5239     0.0000    41.0000 </r>
       <r>    -7.4885     0.0000    42.0000 </r>
       <r>    -7.4530     0.0000    42.0000 </r>
       <r>    -7.4176     0.0000    44.0000 </r>
       <r>    -7.3822     0.0000    44.0000 </r>
       <r>    -7.3468     0.0000    44.0000 </r>
       <r>    -7.3113     0.0000    46.0000 </r>
       <r>    -7.2759     0.0000    48.0000 </r>
       <r>    -7.2405     0.0000    48.0000 </r>
       <r>    -7.2051     0.0000    49.0000 </r>
       <r>    -7.1696     0.0000    51.0000 </r>
       <r>    -7.1342     0.0000    52.0000 </r>
       <r>    -7.0988     0.0000    53.0000 </r>
       <r>    -7.0634     0.0000    55.0000 </r>
       <r>    -7.0279     0.0000    55.0000 </r>
       <r>    -6.9925     0.0000    55.0000 </r>
       <r>    -6.9571     0.0000    57.0000 </r>
       <r>    -6.9217     0.0000    58.0000 </r>
       <r>    -6.8862     0.0000    59.0000 </r>
       <r>    -6.8508     0.0000    60.0000 </r>
       <r>    -6.8154     0.0000    64.0000 </r>
       <r>    -6.7800    26.2286    65.9291 </r>
       <r>    -6.7445     6.4715    67.2292 </r>
       <r>    -6.7091     0.0000    69.0000 </r>
       <r>    -6.6737     0.0000    69.0000 </r>
       <r>    -6.6383     0.0000    73.0000 </r>
       <r>    -6.6029     0.0000    75.0000 </r>
       <r>    -6.5674     0.0000    77.0000 </r>
       <r>    -6.5320     0.0000    77.0000 </r>
       <r>    -6.4966     0.0000    79.0000 </r>
       <r>    -6.4612     0.0000    79.0000 </r>
       <r>    -6.4257     0.0000    81.0000 </r>
       <r>    -6.3903     0.0000    81.0000 </r>
       <r>    -6.3549     0.0000    83.0000 </r>
       <r>    -6.3195     0.0000    83.0000 </r>
       <r>    -6.2840     0.0000    85.0000 </r>
       <r>    -6.2486     0.0000    85.0000 </r>
       <r>    -6.2132     0.0000    85.0000 </r>
       <r>    -6.1778     0.0000    86.0000 </r>
       <r>    -6.1423     0.0000    86.0000 </r>
       <r>    -6.1069     0.0000    86.0000 </r>
       <r>    -6.0715     0.0000    86.0000 </r>
       <r>    -6.0361     0.0000    87.0000 </r>
       <r>    -6.0006     0.0000    88.0000 </r>
       <r>    -5.9652     0.0000    88.0000 </r>
       <r>    -5.9298     0.0000    88.0000 </r>
       <r>    -5.8944     0.0000    89.0000 </r>
       <r>    -5.8589     0.0000    89.0000 </r>
       <r>    -5.8235     0.0000    89.0000 </r>
       <r>    -5.7881     0.0000    89.0000 </r>
       <r>    -5.7527     0.0000    89.0000 </r>
       <r>    -5.7172     0.0000    89.0000 </r>
       <r>    -5.6818     0.0000    89.0000 </r>
       <r>    -5.6464     0.0000    89.0000 </r>
       <r>    -5.6110     0.0000    89.0000 </r>
       <r>    -5.5755     0.0000    89.0000 </r>
       <r>    -5.5401     0.0000    89.0000 </r>
       <r>    -5.5047     0.0000    89.0000 </r>
       <r>    -5.4693     0.0000    89.0000 </r>
       <r>    -5.4338     0.0000    89.0000 </r>
       <r>    -5.3984     0.0000    89.0000 </r>
       <r>    -5.3630     0.0000    89.0000 </r>
       <r>    -5.3276     0.0000    89.0000 </r>
       <r>    -5.2921     0.0000    89.0000 </r>
       <r>    -5.2567     0.0000    89.0000 </r>
       <r>    -5.2213     0.0000    89.0000 </r>
       <r>    -5.1859     0.0000    89.0000 </r>
       <r>    -5.1504     0.0000    89.0000 </r>
       <r>    -5.1150     0.0000    89.0000 </r>
       <r>    -5.0796     0.0000    89.0000 </r>
       <r>    -5.0442     0.0000    89.0000 </r>
       <r>    -5.0087     0.0000    89.0000 </r>
       <r>    -4.9733     0.0000    89.0000 </r>
       <r>    -4.9379     0.0000    89.0000 </r>
       <r>    -4.9025     0.0000    89.0000 </r>
       <r>    -4.8670     0.0000    89.0000 </r>
       <r>    -4.8316     0.0000    90.0000 </r>
       <r>    -4.7962     0.0000    90.0000 </r>
       <r>    -4.7608     0.0000    90.0000 </r>
       <r>    -4.7254     0.0000    90.0000 </r>
       <r>    -4.6899     0.0000    90.0000 </r>
       <r>    -4.6545     0.0000    90.0000 </r>
       <r>    -4.6191     0.0000    90.0000 </r>
       <r>    -4.5837     0.0000    90.0000 </r>
       <r>    -4.5482     0.0000    91.0000 </r>
       <r>    -4.5128     0.0000    91.0000 </r>
       <r>    -4.4774     0.0000    91.0000 </r>
       <r>    -4.4420     0.0000    91.0000 </r>
       <r>    -4.4065     0.0000    91.0000 </r>
       <r>    -4.3711     0.0000    92.0000 </r>
       <r>    -4.3357     0.0000    92.0000 </r>
       <r>    -4.3003     0.0000    92.0000 </r>
       <r>    -4.2648     0.0000    92.0000 </r>
       <r>    -4.2294     0.0000    92.0000 </r>
       <r>    -4.1940     0.0000    92.0000 </r>
       <r>    -4.1586     0.0000    93.0000 </r>
       <r>    -4.1231     0.0000    93.0000 </r>
       <r>    -4.0877     0.0000    93.0000 </r>
       <r>    -4.0523     0.0000    93.0000 </r>
       <r>    -4.0169     0.0000    93.0000 </r>
       <r>    -3.9814     0.0000    94.0000 </r>
       <r>    -3.9460     0.0000    94.0000 </r>
       <r>    -3.9106     0.0000    94.0000 </r>
       <r>    -3.8752     0.0000    94.0000 </r>
       <r>    -3.8397     0.0000    94.0000 </r>
       <r>    -3.8043     0.0000    94.0000 </r>
       <r>    -3.7689     0.0000    94.0000 </r>
       <r>    -3.7335     0.0000    94.0000 </r>
       <r>    -3.6980     0.0000    94.0000 </r>
       <r>    -3.6626     0.0000    94.0000 </r>
       <r>    -3.6272     0.0000    94.0000 </r>
       <r>    -3.5918     0.0000    94.0000 </r>
       <r>    -3.5563     0.0000    94.0000 </r>
       <r>    -3.5209     0.0000    94.0000 </r>
       <r>    -3.4855     0.0000    94.0000 </r>
       <r>    -3.4501     0.0000    94.0000 </r>
       <r>    -3.4146     0.0000    94.0000 </r>
       <r>    -3.3792     0.0000    94.0000 </r>
       <r>    -3.3438     0.0000    94.0000 </r>
       <r>    -3.3084     0.0000    94.0000 </r>
       <r>    -3.2729     0.0000    94.0000 </r>
       <r>    -3.2375     0.0000    94.0000 </r>
       <r>    -3.2021     0.0000    94.0000 </r>
       <r>    -3.1667     0.0000    94.0000 </r>
       <r>    -3.1312     0.0000    94.0000 </r>
       <r>    -3.0958     0.0000    94.0000 </r>
       <r>    -3.0604     0.0000    94.0000 </r>
       <r>    -3.0250     0.0000    94.0000 </r>
       <r>    -2.9895     0.0000    94.0000 </r>
       <r>    -2.9541     0.0000    94.0000 </r>
       <r>    -2.9187     0.0000    95.0000 </r>
       <r>    -2.8833     0.0000    95.0000 </r>
       <r>    -2.8479     0.0000    95.0000 </r>
       <r>    -2.8124     0.0000    95.0000 </r>
       <r>    -2.7770     0.0000    95.0000 </r>
       <r>    -2.7416     0.0000    95.0000 </r>
       <r>    -2.7062     0.0000    95.0000 </r>
       <r>    -2.6707     0.0000    95.0000 </r>
       <r>    -2.6353     0.0000    95.0000 </r>
       <r>    -2.5999     0.0000    95.0000 </r>
       <r>    -2.5645     0.0000    95.0000 </r>
       <r>    -2.5290     0.0000    95.0000 </r>
       <r>    -2.4936     0.0000    95.0000 </r>
       <r>    -2.4582     0.0000    95.0000 </r>
       <r>    -2.4228     0.0000    95.0000 </r>
       <r>    -2.3873     0.0000    95.0000 </r>
       <r>    -2.3519     0.0000    95.0000 </r>
       <r>    -2.3165     0.0000    97.0000 </r>
       <r>    -2.2811     0.0000    99.0000 </r>
       <r>    -2.2456     0.0000    99.0000 </r>
       <r>    -2.2102     0.0000    99.0000 </r>
       <r>    -2.1748     0.0000    99.0000 </r>
       <r>    -2.1394     0.0000    99.0000 </r>
       <r>    -2.1039     0.0000   100.0000 </r>
       <r>    -2.0685     0.0000   100.0000 </r>
       <r>    -2.0331     0.0000   100.0000 </r>
       <r>    -1.9977     0.0000   100.0000 </r>
       <r>    -1.9622     0.0000   101.0000 </r>
       <r>    -1.9268     0.0000   102.0000 </r>
       <r>    -1.8914     0.0000   102.0000 </r>
       <r>    -1.8560     0.0000   102.0000 </r>
       <r>    -1.8205     0.0000   102.0000 </r>
       <r>    -1.7851     0.0000   102.0000 </r>
       <r>    -1.7497     0.0000   102.0000 </r>
       <r>    -1.7143     0.0000   102.0000 </r>
       <r>    -1.6788     0.0000   102.0000 </r>
       <r>    -1.6434     0.0000   102.0000 </r>
       <r>    -1.6080     0.0000   102.0000 </r>
       <r>    -1.5726     0.0000   102.0000 </r>
       <r>    -1.5371     0.0000   102.0000 </r>
       <r>    -1.5017     0.0000   103.0000 </r>
       <r>    -1.4663     0.0000   103.0000 </r>
       <r>    -1.4309     0.0000   103.0000 </r>
       <r>    -1.3954     0.0000   103.0000 </r>
       <r>    -1.3600     0.0000   103.0000 </r>
       <r>    -1.3246     0.0000   103.0000 </r>
       <r>    -1.2892     0.0000   103.0000 </r>
       <r>    -1.2537     0.0000   103.0000 </r>
       <r>    -1.2183     0.0000   104.0000 </r>
       <r>    -1.1829     0.0000   105.0000 </r>
       <r>    -1.1475     0.0000   105.0000 </r>
       <r>    -1.1121     0.0000   105.0000 </r>
       <r>    -1.0766     0.0000   105.0000 </r>
       <r>    -1.0412     0.0000   105.0000 </r>
       <r>    -1.0058     0.0000   105.0000 </r>
       <r>    -0.9704     0.0000   105.0000 </r>
       <r>    -0.9349     0.0000   105.0000 </r>
       <r>    -0.8995     0.0000   105.0000 </r>
       <r>    -0.8641     0.0000   105.0000 </r>
       <r>    -0.8287     0.0000   105.0000 </r>
       <r>    -0.7932     0.0000   105.0000 </r>
       <r>    -0.7578     0.0000   105.0000 </r>
       <r>    -0.7224     0.0000   105.0000 </r>
       <r>    -0.6870     0.0000   105.0000 </r>
       <r>    -0.6515     0.0000   105.0000 </r>
       <r>    -0.6161     0.0000   105.0000 </r>
       <r>    -0.5807     0.0000   105.0000 </r>
       <r>    -0.5453     0.0000   105.0000 </r>
       <r>    -0.5098     0.0000   105.0000 </r>
       <r>    -0.4744     0.0000   105.0000 </r>
       <r>    -0.4390     0.0000   105.0000 </r>
       <r>    -0.4036     0.0000   106.0000 </r>
       <r>    -0.3681     0.0000   106.0000 </r>
       <r>    -0.3327     0.0000   106.0000 </r>
       <r>    -0.2973     0.0000   106.0000 </r>
       <r>    -0.2619     0.0000   107.0000 </r>
       <r>    -0.2264     0.0000   108.0000 </r>
       <r>    -0.1910     0.0000   108.0000 </r>
       <r>    -0.1556    28.2290   109.0000 </r>
       <r>    -0.1202     0.0000   110.0000 </r>
       <r>    -0.0847     0.0000   111.0000 </r>
       <r>    -0.0493     0.0000   111.0000 </r>
       <r>    -0.0139     0.0000   111.0000 </r>
       <r>     0.0215     0.0000   111.0000 </r>
       <r>     0.0570     0.0000   111.0000 </r>
       <r>     0.0924     0.0000   111.0000 </r>
       <r>     0.1278     0.0000   111.0000 </r>
       <r>     0.1632     0.0000   111.0000 </r>
       <r>     0.1987     0.0000   112.0000 </r>
       <r>     0.2341     0.0000   112.0000 </r>
       <r>     0.2695     0.0000   113.0000 </r>
       <r>     0.3049     0.0000   114.0000 </r>
       <r>     0.3404     0.0000   115.0000 </r>
       <r>     0.3758     0.0000   115.0000 </r>
       <r>     0.4112     0.0000   115.0000 </r>
       <r>     0.4466     0.0000   117.0000 </r>
       <r>     0.4821     0.0000   117.0000 </r>
       <r>     0.5175     0.0000   117.0000 </r>
       <r>     0.5529     0.0000   118.0000 </r>
       <r>     0.5883     0.0000   119.0000 </r>
       <r>     0.6238     0.0000   119.0000 </r>
       <r>     0.6592     0.0000   119.0000 </r>
       <r>     0.6946     0.0000   119.0000 </r>
       <r>     0.7300     0.0000   119.0000 </r>
       <r>     0.7654     0.0000   121.0000 </r>
       <r>     0.8009     0.0000   124.0000 </r>
       <r>     0.8363     0.0000   124.0000 </r>
       <r>     0.8717     0.0000   124.0000 </r>
       <r>     0.9071     0.0000   124.0000 </r>
       <r>     0.9426     0.0000   124.0000 </r>
       <r>     0.9780     0.0000   124.0000 </r>
       <r>     1.0134     0.0000   124.0000 </r>
       <r>     1.0488     0.0000   124.0000 </r>
       <r>     1.0843     0.0000   124.0000 </r>
       <r>     1.1197     0.0000   124.0000 </r>
       <r>     1.1551     0.0000   124.0000 </r>
       <r>     1.1905     0.0000   124.0000 </r>
       <r>     1.2260     0.0000   124.0000 </r>
       <r>     1.2614     0.0000   124.0000 </r>
       <r>     1.2968     0.0000   124.0000 </r>
       <r>     1.3322     0.0000   124.0000 </r>
      </set>
      <set comment="spin 2">
       <r>    -9.2951     0.0000     0.0000 </r>
       <r>    -9.2597     0.0000     0.0000 </r>
       <r>    -9.2243     0.0000     0.0000 </r>
       <r>    -9.1888     0.0000     0.0000 </r>
       <r>    -9.1534     0.0000     0.0000 </r>
       <r>    -9.1180     0.0000     0.0000 </r>
       <r>    -9.0826     0.0000     0.0000 </r>
       <r>    -9.0471     0.0000     0.0000 </r>
       <r>    -9.0117     0.0000     0.0000 </r>
       <r>    -8.9763     0.0000     0.0000 </r>
       <r>    -8.9409     0.0000     0.0000 </r>
       <r>    -8.9054     0.0000     0.0000 </r>
       <r>    -8.8700     0.0000     0.0000 </r>
       <r>    -8.8346     0.0000     0.0000 </r>
       <r>    -8.7992     0.0000     0.0000 </r>
       <r>    -8.7637     0.0000     2.0000 </r>
       <r>    -8.7283     0.0000     2.0000 </r>
       <r>    -8.6929     0.0000     3.0000 </r>
       <r>    -8.6575     0.0000     4.0000 </r>
       <r>    -8.6220     0.0000     6.0000 </r>
       <r>    -8.5866     0.0000     7.0000 </r>
       <r>    -8.5512     0.0000     8.0000 </r>
       <r>    -8.5158     0.0000    10.0000 </r>
       <r>    -8.4804     0.0000    11.0000 </r>
       <r>    -8.4449     0.0000    13.0000 </r>
       <r>    -8.4095     0.0000    14.0000 </r>
       <r>    -8.3741     0.0000    16.0000 </r>
       <r>    -8.3387     0.0000    17.0000 </r>
       <r>    -8.3032     0.0000    18.0000 </r>
       <r>    -8.2678     0.0000    21.0000 </r>
       <r>    -8.2324     0.0000    23.0000 </r>
       <r>    -8.1970     0.0000    23.0000 </r>
       <r>    -8.1615     0.0000    23.0000 </r>
       <r>    -8.1261     0.0000    25.0000 </r>
       <r>    -8.0907     0.0000    26.0000 </r>
       <r>    -8.0553     0.0000    28.0000 </r>
       <r>    -8.0198     0.0000    30.0000 </r>
       <r>    -7.9844     0.0000    30.0000 </r>
       <r>    -7.9490     0.0000    30.0000 </r>
       <r>    -7.9136     0.0000    30.0000 </r>
       <r>    -7.8781     0.0000    30.0000 </r>
       <r>    -7.8427     0.0000    31.0000 </r>
       <r>    -7.8073     0.0000    32.0000 </r>
       <r>    -7.7719     0.0000    33.0000 </r>
       <r>    -7.7364     0.0000    33.0000 </r>
       <r>    -7.7010     0.0000    34.0000 </r>
       <r>    -7.6656     0.0000    36.0000 </r>
       <r>    -7.6302     0.0000    36.0000 </r>
       <r>    -7.5947     0.0000    37.0000 </r>
       <r>    -7.5593     0.0000    39.0000 </r>
       <r>    -7.5239     0.0000    41.0000 </r>
       <r>    -7.4885     0.0000    42.0000 </r>
       <r>    -7.4530     0.0000    42.0000 </r>
       <r>    -7.4176     0.0000    42.0000 </r>
       <r>    -7.3822     0.0000    44.0000 </r>
       <r>    -7.3468     0.0000    44.0000 </r>
       <r>    -7.3113     0.0000    45.0000 </r>
       <r>    -7.2759     0.0000    47.0000 </r>
       <r>    -7.2405     0.0000    48.0000 </r>
       <r>    -7.2051     0.0000    49.0000 </r>
       <r>    -7.1696    28.2290    51.0000 </r>
       <r>    -7.1342     0.0000    52.0000 </r>
       <r>    -7.0988     0.0000    52.0000 </r>
       <r>    -7.0634     0.0000    54.0000 </r>
       <r>    -7.0279     0.0000    55.0000 </r>
       <r>    -6.9925     0.0000    55.0000 </r>
       <r>    -6.9571     0.0000    57.0000 </r>
       <r>    -6.9217     0.0000    57.0000 </r>
       <r>    -6.8862     0.0000    58.0000 </r>
       <r>    -6.8508     0.0000    59.0000 </r>
       <r>    -6.8154     0.0000    61.0000 </r>
       <r>    -6.7800     0.0000    65.0000 </r>
       <r>    -6.7445     0.0000    66.0000 </r>
       <r>    -6.7091     0.0000    69.0000 </r>
       <r>    -6.6737     0.0000    69.0000 </r>
       <r>    -6.6383     0.0000    72.0000 </r>
       <r>    -6.6029    22.4374    74.7948 </r>
       <r>    -6.5674     0.0000    76.0000 </r>
       <r>    -6.5320     0.0000    77.0000 </r>
       <r>    -6.4966     0.0000    79.0000 </r>
       <r>    -6.4612     0.0000    79.0000 </r>
       <r>    -6.4257     0.0000    81.0000 </r>
       <r>    -6.3903     0.0000    81.0000 </r>
       <r>    -6.3549     0.0000    83.0000 </r>
       <r>    -6.3195     0.0000    83.0000 </r>
       <r>    -6.2840     0.0071    84.0003 </r>
       <r>    -6.2486     0.0000    85.0000 </r>
       <r>    -6.2132     0.0000    85.0000 </r>
       <r>    -6.1778     0.0000    86.0000 </r>
       <r>    -6.1423     0.0000    86.0000 </r>
       <r>    -6.1069     0.0000    86.0000 </r>
       <r>    -6.0715     0.0000    86.0000 </r>
       <r>    -6.0361     0.0000    86.0000 </r>
       <r>    -6.0006     0.0000    88.0000 </r>
       <r>    -5.9652     0.0000    88.0000 </r>
       <r>    -5.9298     0.0000    88.0000 </r>
       <r>    -5.8944     0.0000    88.0000 </r>
       <r>    -5.8589     0.0000    89.0000 </r>
       <r>    -5.8235     0.0000    89.0000 </r>
       <r>    -5.7881     0.0000    89.0000 </r>
       <r>    -5.7527     0.0000    89.0000 </r>
       <r>    -5.7172     0.0000    89.0000 </r>
       <r>    -5.6818     0.0000    89.0000 </r>
       <r>    -5.6464     0.0000    89.0000 </r>
       <r>    -5.6110     0.0000    89.0000 </r>
       <r>    -5.5755     0.0000    89.0000 </r>
       <r>    -5.5401     0.0000    89.0000 </r>
       <r>    -5.5047     0.0000    89.0000 </r>
       <r>    -5.4693     0.0000    89.0000 </r>
       <r>    -5.4338     0.0000    89.0000 </r>
       <r>    -5.3984     0.0000    89.0000 </r>
       <r>    -5.3630     0.0000    89.0000 </r>
       <r>    -5.3276     0.0000    89.0000 </r>
       <r>    -5.2921     0.0000    89.0000 </r>
       <r>    -5.2567     0.0000    89.0000 </r>
       <r>    -5.2213     0.0000    89.0000 </r>
       <r>    -5.1859     0.0000    89.0000 </r>
       <r>    -5.1504     0.0000    89.0000 </r>
       <r>    -5.1150     0.0000    89.0000 </r>
       <r>    -5.0796     0.0000    89.0000 </r>
       <r>    -5.0442     0.0000    89.0000 </r>
       <r>    -5.0087     0.0000    89.0000 </r>
       <r>    -4.9733     0.0000    89.0000 </r>
       <r>    -4.9379     0.0000    89.0000 </r>
       <r>    -4.9025     0.0000    89.0000 </r>
       <r>    -4.8670     0.0000    89.0000 </r>
       <r>    -4.8316     0.0000    89.0000 </r>
       <r>    -4.7962     0.0000    90.0000 </r>
       <r>    -4.7608     0.0000    90.0000 </r>
       <r>    -4.7254     0.0000    90.0000 </r>
       <r>    -4.6899     0.0000    90.0000 </r>
       <r>    -4.6545     0.0000    90.0000 </r>
       <r>    -4.6191     0.0000    90.0000 </r>
       <r>    -4.5837     0.0000    90.0000 </r>
       <r>    -4.5482     0.0000    90.0000 </r>
       <r>    -4.5128     0.0000    91.0000 </r>
       <r>    -4.4774     0.0000    91.0000 </r>
       <r>    -4.4420     0.0000    91.0000 </r>
       <r>    -4.4065     0.0000    91.0000 </r>
       <r>    -4.3711     0.0000    91.0000 </r>
       <r>    -4.3357     0.0000    92.0000 </r>
       <r>    -4.3003     0.0000    92.0000 </r>
       <r>    -4.2648     0.0000    92.0000 </r>
       <r>    -4.2294     0.0000    92.0000 </r>
       <r>    -4.1940     0.0000    92.0000 </r>
       <r>    -4.1586     0.0000    92.0000 </r>
       <r>    -4.1231     0.0000    93.0000 </r>
       <r>    -4.0877     0.0000    93.0000 </r>
       <r>    -4.0523     0.0000    93.0000 </r>
       <r>    -4.0169     0.0000    93.0000 </r>
       <r>    -3.9814     0.0000    93.0000 </r>
       <r>    -3.9460     0.0000    93.0000 </r>
       <r>    -3.9106     0.0000    93.0000 </r>
       <r>    -3.8752     0.0000    93.0000 </r>
       <r>    -3.8397     0.0000    94.0000 </r>
       <r>    -3.8043     0.0000    94.0000 </r>
       <r>    -3.7689     0.0000    94.0000 </r>
       <r>    -3.7335     0.0000    94.0000 </r>
       <r>    -3.6980     0.0000    94.0000 </r>
       <r>    -3.6626     0.0000    94.0000 </r>
       <r>    -3.6272     0.0000    94.0000 </r>
       <r>    -3.5918     0.0000    94.0000 </r>
       <r>    -3.5563     0.0000    94.0000 </r>
       <r>    -3.5209     0.0000    94.0000 </r>
       <r>    -3.4855     0.0000    94.0000 </r>
       <r>    -3.4501     0.0000    94.0000 </r>
       <r>    -3.4146     0.0000    94.0000 </r>
       <r>    -3.3792     0.0000    94.0000 </r>
       <r>    -3.3438     0.0000    94.0000 </r>
       <r>    -3.3084     0.0000    94.0000 </r>
       <r>    -3.2729     0.0000    94.0000 </r>
       <r>    -3.2375     0.0000    94.0000 </r>
       <r>    -3.2021     0.0000    94.0000 </r>
       <r>    -3.1667     0.0000    94.0000 </r>
       <r>    -3.1312     0.0000    94.0000 </r>
       <r>    -3.0958     0.0000    94.0000 </r>
       <r>    -3.0604     0.0000    94.0000 </r>
       <r>    -3.0250     0.0000    94.0000 </r>
       <r>    -2.9895     0.0000    94.0000 </r>
       <r>    -2.9541     0.0000    94.0000 </r>
       <r>    -2.9187     0.0000    94.0000 </r>
       <r>    -2.8833     0.0000    95.0000 </r>
       <r>    -2.8479     0.0000    95.0000 </r>
       <r>    -2.8124     0.0000    95.0000 </r>
       <r>    -2.7770     0.0000    95.0000 </r>
       <r>    -2.7416     0.0000    95.0000 </r>
       <r>    -2.7062     0.0000    95.0000 </r>
       <r>    -2.6707     0.0000    95.0000 </r>
       <r>    -2.6353     0.0000    95.0000 </r>
       <r>    -2.5999     0.0000    95.0000 </r>
       <r>    -2.5645     0.0000    95.0000 </r>
       <r>    -2.5290     0.0000    95.0000 </r>
       <r>    -2.4936     0.0000    95.0000 </r>
       <r>    -2.4582     0.0000    95.0000 </r>
       <r>    -2.4228     0.0000    95.0000 </r>
       <r>    -2.3873     0.0000    95.0000 </r>
       <r>    -2.3519     0.0000    95.0000 </r>
       <r>    -2.3165     0.0000    95.0000 </r>
       <r>    -2.2811     0.0000    96.0000 </r>
       <r>    -2.2456     0.0000    99.0000 </r>
       <r>    -2.2102     0.0000    99.0000 </r>
       <r>    -2.1748     0.0000    99.0000 </r>
       <r>    -2.1394     0.0000    99.0000 </r>
       <r>    -2.1039     0.0000    99.0000 </r>
       <r>    -2.0685     0.0000    99.0000 </r>
       <r>    -2.0331     0.0000   100.0000 </r>
       <r>    -1.9977     0.0000   100.0000 </r>
       <r>    -1.9622     0.0000   100.0000 </r>
       <r>    -1.9268     0.0000   100.0000 </r>
       <r>    -1.8914     0.0000   101.0000 </r>
       <r>    -1.8560     0.0000   101.0000 </r>
       <r>    -1.8205     0.0000   102.0000 </r>
       <r>    -1.7851     0.0000   102.0000 </r>
       <r>    -1.7497     0.0000   102.0000 </r>
       <r>    -1.7143     0.0000   102.0000 </r>
       <r>    -1.6788     0.0000   102.0000 </r>
       <r>    -1.6434     0.0000   102.0000 </r>
       <r>    -1.6080     0.0000   102.0000 </r>
       <r>    -1.5726     0.0000   102.0000 </r>
       <r>    -1.5371     0.0000   102.0000 </r>
       <r>    -1.5017     0.0000   102.0000 </r>
       <r>    -1.4663     0.0000   102.0000 </r>
       <r>    -1.4309     0.0000   102.0000 </r>
       <r>    -1.3954     0.0000   103.0000 </r>
       <r>    -1.3600     0.0000   103.0000 </r>
       <r>    -1.3246     0.0000   103.0000 </r>
       <r>    -1.2892     0.0000   103.0000 </r>
       <r>    -1.2537     0.0000   103.0000 </r>
       <r>    -1.2183     0.0000   103.0000 </r>
       <r>    -1.1829     0.0000   104.0000 </r>
       <r>    -1.1475     0.0000   104.0000 </r>
       <r>    -1.1121     0.0000   105.0000 </r>
       <r>    -1.0766     0.0000   105.0000 </r>
       <r>    -1.0412     0.0000   105.0000 </r>
       <r>    -1.0058     0.0000   105.0000 </r>
       <r>    -0.9704     0.0000   105.0000 </r>
       <r>    -0.9349     0.0000   105.0000 </r>
       <r>    -0.8995     0.0000   105.0000 </r>
       <r>    -0.8641     0.0000   105.0000 </r>
       <r>    -0.8287     0.0000   105.0000 </r>
       <r>    -0.7932     0.0000   105.0000 </r>
       <r>    -0.7578     0.0000   105.0000 </r>
       <r>    -0.7224     0.0000   105.0000 </r>
       <r>    -0.6870     0.0000   105.0000 </r>
       <r>    -0.6515     0.0000   105.0000 </r>
       <r>    -0.6161     0.0000   105.0000 </r>
       <r>    -0.5807     0.0000   105.0000 </r>
       <r>    -0.5453     0.0000   105.0000 </r>
       <r>    -0.5098     0.0000   105.0000 </r>
       <r>    -0.4744     0.0000   105.0000 </r>
       <r>    -0.4390     0.0000   105.0000 </r>
       <r>    -0.4036     0.0000   105.0000 </r>
       <r>    -0.3681     0.0000   106.0000 </r>
       <r>    -0.3327     0.0000   106.0000 </r>
       <r>    -0.2973     0.0000   106.0000 </r>
       <r>    -0.2619     0.0000   106.0000 </r>
       <r>    -0.2264     0.0000   107.0000 </r>
       <r>    -0.1910     0.0000   108.0000 </r>
       <r>    -0.1556     0.0000   108.0000 </r>
       <r>    -0.1202     0.0000   108.0000 </r>
       <r>    -0.0847     0.0000   110.0000 </r>
       <r>    -0.0493     0.0000   111.0000 </r>
       <r>    -0.0139     0.0000   111.0000 </r>
       <r>     0.0215     0.0000   111.0000 </r>
       <r>     0.0570     0.0000   111.0000 </r>
       <r>     0.0924     0.0000   111.0000 </r>
       <r>     0.1278     0.0000   111.0000 </r>
       <r>     0.1632     0.0000   111.0000 </r>
       <r>     0.1987     0.0000   111.0000 </r>
       <r>     0.2341     0.0000   112.0000 </r>
       <r>     0.2695     0.0000   112.0000 </r>
       <r>     0.3049     0.0000   113.0000 </r>
       <r>     0.3404     0.0000   114.0000 </r>
       <r>     0.3758     0.0000   114.0000 </r>
       <r>     0.4112     0.0000   115.0000 </r>
       <r>     0.4466     0.0000   115.0000 </r>
       <r>     0.4821     0.0000   115.0000 </r>
       <r>     0.5175     0.0000   117.0000 </r>
       <r>     0.5529     0.0000   117.0000 </r>
       <r>     0.5883     0.0000   118.0000 </r>
       <r>     0.6238     0.0000   118.0000 </r>
       <r>     0.6592     0.0000   118.0000 </r>
       <r>     0.6946     0.0000   119.0000 </r>
       <r>     0.7300     0.0000   119.0000 </r>
       <r>     0.7654     0.0000   119.0000 </r>
       <r>     0.8009     0.0000   120.0000 </r>
       <r>     0.8363     0.0000   123.0000 </r>
       <r>     0.8717     0.0000   124.0000 </r>
       <r>     0.9071     0.0000   124.0000 </r>
       <r>     0.9426     0.0000   124.0000 </r>
       <r>     0.9780     0.0000   124.0000 </r>
       <r>     1.0134     0.0000   124.0000 </r>
       <r>     1.0488     0.0000   124.0000 </r>
       <r>     1.0843     0.0000   124.0000 </r>
       <r>     1.1197     0.0000   124.0000 </r>
       <r>     1.1551     0.0000   124.0000 </r>
       <r>     1.1905     0.0000   124.0000 </r>
       <r>     1.2260     0.0000   124.0000 </r>
       <r>     1.2614     0.0000   124.0000 </r>
       <r>     1.2968     0.0000   124.0000 </r>
       <r>     1.3322     0.0000   124.0000 </r>
      </set>
     </set>
    </array>
   </total>
  </dos>
 </calculation>
 <structure name="finalpos" >
  <crystal>
   <varray name="basis" >
    <v>      19.72625800       0.00000000       0.00000000 </v>
    <v>       0.00000000      19.72625800       0.00000000 </v>
    <v>       0.00000000       0.00000000      19.72625800 </v>
   </varray>
   <i name="volume">   7675.98516818 </i>
   <varray name="rec_basis" >
    <v>       0.05069385       0.00000000       0.00000000 </v>
    <v>       0.00000000       0.05069385       0.00000000 </v>
    <v>       0.00000000       0.00000000       0.05069385 </v>
   </varray>
  </crystal>
  <varray name="positions" >
   <v>       0.42900151       0.62311978       0.59763933 </v>
   <v>       0.50000000       0.33301059       0.48248375 </v>
   <v>       0.38244582       0.50000000       0.35369894 </v>
   <v>       0.36198365       0.50000000       0.58838755 </v>
   <v>       0.50000000       0.57416929       0.37744182 </v>
   <v>       0.57099849       0.37688022       0.59763933 </v>
   <v>       0.50000000       0.50000000       0.62031660 </v>
   <v>       0.50000000       0.66698941       0.48248375 </v>
   <v>       0.63801635       0.50000000       0.58838755 </v>
   <v>       0.57099849       0.62311978       0.59763933 </v>
   <v>       0.61755418       0.50000000       0.35369894 </v>
   <v>       0.42900151       0.37688022       0.59763933 </v>
   <v>       0.50000000       0.42583071       0.37744182 </v>
   <v>       0.60740792       0.57468315       0.47127549 </v>
   <v>       0.60740792       0.42531685       0.47127549 </v>
   <v>       0.39259208       0.57468315       0.47127549 </v>
   <v>       0.39259208       0.42531685       0.47127549 </v>
  </varray>
 </structure>
</modeling>
