    9    9 1000    2
  0.6634934E+03  0.1814233E-08  0.1814233E-08  0.1814233E-08  0.1000000E-15
  1.000000000000000E-004
  CAR 
 unknown system                          
     99      1     64
 
  0.0000000E+00  0.0000000E+00  0.0000000E+00  0.1000000E+01
    1       -8.931111     -8.916443
    2       -8.748362     -8.733133
    3       -8.669786     -8.649725
    4       -8.623758     -8.601299
    5       -8.570857     -8.554495
    6       -8.481719     -8.454451
    7       -8.457612     -8.434518
    8       -8.452431     -8.433096
    9       -8.413885     -8.391560
   10       -8.401907     -8.375501
   11       -8.394510     -8.358976
   12       -8.280183     -8.247482
   13       -8.262628     -8.242560
   14       -8.219828     -8.183293
   15       -8.028378     -7.977207
   16       -7.994799     -7.962946
   17       -7.947656     -7.930588
   18       -7.837261     -7.804633
   19       -7.740549     -7.707549
   20       -7.704902     -7.663951
   21       -7.646715     -7.624537
   22       -7.569401     -7.557243
   23       -7.549288     -7.517198
   24       -7.534122     -7.501804
   25       -7.531054     -7.496506
   26       -7.337847     -7.311916
   27       -7.278192     -7.248593
   28       -7.205957     -7.185727
   29       -7.158228     -7.134475
   30       -7.098045     -7.062314
   31       -7.051447     -7.032037
   32       -7.035048     -7.002602
   33       -6.988580     -6.966323
   34       -6.895209     -6.878374
   35       -6.867163     -6.847826
   36       -6.822679     -6.802723
   37       -6.816394     -6.792117
   38       -6.772080     -6.755344
   39       -6.767290     -6.745461
   40       -6.738310     -6.700750
   41       -6.687556     -6.674689
   42       -6.674206     -6.634976
   43       -6.641808     -6.611844
   44       -6.598838     -6.581944
   45       -6.574234     -6.543102
   46       -6.503823     -6.486092
   47       -5.304792     -5.168798
   48       -5.240325     -5.167304
   49       -4.693570     -4.661337
   50       -3.113478     -2.837262
   51       -2.886628     -2.827397
   52       -2.777557     -2.663866
   53       -2.611199     -2.521800
   54       -2.597066     -2.521139
   55       -1.785631     -1.736112
   56       -0.810690     -0.588992
   57       -0.674153     -0.567943
   58       -0.596470     -0.435148
   59       -0.379672     -0.224506
   60       -0.235361     -0.105897
   61       -0.155081     -0.073825
   62       -0.123340     -0.045835
   63        0.058806      0.130517
   64        0.091861      0.167441
