<?xml version="1.0" encoding="ISO-8859-1"?>
<modeling>
 <generator>
  <i name="program" type="string">vasp </i>
  <i name="version" type="string">5.3.5  </i>
  <i name="subversion" type="string">31Mar14 (build Feb 01 2018 12:10:03) gamma-only                       parallel </i>
  <i name="platform" type="string">LinuxIFC </i>
  <i name="date" type="string">2019 03 21 </i>
  <i name="time" type="string">15:26:23 </i>
 </generator>
 <incar>
  <i type="string" name="PREC">normal</i>
  <i type="int" name="ISPIN">     2</i>
  <i type="int" name="IBRION">     2</i>
  <i type="int" name="NSW">  1000</i>
  <i type="int" name="ISIF">     2</i>
  <i name="POTIM">      0.10000000</i>
  <i type="logical" name="LPLANE"> T  </i>
  <i type="int" name="ISMEAR">     0</i>
  <i name="SIGMA">      0.00010000</i>
  <i type="logical" name="LWAVE"> F  </i>
  <i type="logical" name="LCHARG"> F  </i>
  <i type="logical" name="LVTOT"> F  </i>
  <i type="string" name="GGA"> PE</i>
 </incar>
 <kpoints>
  <varray name="kpointlist" >
   <v>       0.00000000       0.00000000       0.00000000 </v>
  </varray>
  <varray name="weights" >
   <v>       1.00000000 </v>
  </varray>
 </kpoints>
 <parameters>
  <separator name="general" >
   <i type="string" name="SYSTEM">unknown system</i>
   <i type="logical" name="LCOMPAT"> F  </i>
  </separator>
  <separator name="electronic" >
   <i type="string" name="PREC">normal</i>
   <i name="ENMAX">    249.84400000</i>
   <i name="ENAUG">    412.49600000</i>
   <i name="EDIFF">      0.00010000</i>
   <i type="int" name="IALGO">    38</i>
   <i type="int" name="IWAVPR">    11</i>
   <i type="int" name="NBANDS">    72</i>
   <i name="NELECT">    110.00000000</i>
   <i type="int" name="TURBO">     0</i>
   <i type="int" name="IRESTART">     0</i>
   <i type="int" name="NREBOOT">     0</i>
   <i type="int" name="NMIN">     0</i>
   <i name="EREF">      0.00000000</i>
   <separator name="electronic smearing" >
    <i type="int" name="ISMEAR">     0</i>
    <i name="SIGMA">      0.00010000</i>
    <i name="KSPACING">      0.50000000</i>
    <i type="logical" name="KGAMMA"> T  </i>
   </separator>
   <separator name="electronic projectors" >
    <i type="logical" name="LREAL"> F  </i>
    <v name="ROPT">      0.00000000</v>
    <i type="int" name="LMAXPAW">  -100</i>
    <i type="int" name="LMAXMIX">     2</i>
    <i type="logical" name="NLSPLINE"> F  </i>
   </separator>
   <separator name="electronic startup" >
    <i type="int" name="ISTART">     0</i>
    <i type="int" name="ICHARG">     2</i>
    <i type="int" name="INIWAV">     1</i>
   </separator>
   <separator name="electronic spin" >
    <i type="int" name="ISPIN">     2</i>
    <i type="logical" name="LNONCOLLINEAR"> F  </i>
    <v name="MAGMOM">      1.00000000      1.00000000      1.00000000      1.00000000      1.00000000      1.00000000      1.00000000      1.00000000      1.00000000      1.00000000</v>
    <i name="NUPDOWN">     -1.00000000</i>
    <i type="logical" name="LSORBIT"> F  </i>
    <v name="SAXIS">      0.00000000      0.00000000      1.00000000</v>
    <i type="logical" name="LSPIRAL"> F  </i>
    <v name="QSPIRAL">      0.00000000      0.00000000      0.00000000</v>
    <i type="logical" name="LZEROZ"> F  </i>
   </separator>
   <separator name="electronic exchange-correlation" >
    <i type="logical" name="LASPH"> F  </i>
    <i type="logical" name="LMETAGGA"> F  </i>
   </separator>
   <separator name="electronic convergence" >
    <i type="int" name="NELM">    60</i>
    <i type="int" name="NELMDL">    -5</i>
    <i type="int" name="NELMIN">     2</i>
    <i name="ENINI">    249.84400000</i>
    <separator name="electronic convergence detail" >
     <i type="logical" name="LDIAG"> T  </i>
     <i type="logical" name="LSUBROT"> F  </i>
     <i name="WEIMIN">      0.00100000</i>
     <i name="EBREAK">      0.00000035</i>
     <i name="DEPER">      0.30000000</i>
     <i type="int" name="NRMM">     4</i>
     <i name="TIME">      0.40000000</i>
    </separator>
   </separator>
   <separator name="electronic mixer" >
    <i name="AMIX">      0.40000000</i>
    <i name="BMIX">      1.00000000</i>
    <i name="AMIN">      0.10000000</i>
    <i name="AMIX_MAG">      1.60000000</i>
    <i name="BMIX_MAG">      1.00000000</i>
    <separator name="electronic mixer details" >
     <i type="int" name="IMIX">     4</i>
     <i type="int" name="MAXMIX">   -45</i>
     <i name="WC">    100.00000000</i>
     <i type="int" name="INIMIX">     1</i>
     <i type="int" name="MIXPRE">     1</i>
     <i type="int" name="MREMOVE">     5</i>
    </separator>
   </separator>
   <separator name="electronic dipolcorrection" >
    <i type="logical" name="LDIPOL"> F  </i>
    <i type="logical" name="LMONO"> F  </i>
    <i type="int" name="IDIPOL">     0</i>
    <i name="EPSILON">      1.00000000</i>
    <v name="DIPOL">   -100.00000000   -100.00000000   -100.00000000</v>
    <i name="EFIELD">      0.00000000</i>
   </separator>
  </separator>
  <separator name="grids" >
   <i type="int" name="NGX">    70</i>
   <i type="int" name="NGY">    70</i>
   <i type="int" name="NGZ">    70</i>
   <i type="int" name="NGXF">   140</i>
   <i type="int" name="NGYF">   140</i>
   <i type="int" name="NGZF">   140</i>
   <i type="logical" name="ADDGRID"> F  </i>
  </separator>
  <separator name="ionic" >
   <i type="int" name="NSW">  1000</i>
   <i type="int" name="IBRION">     2</i>
   <i type="int" name="ISIF">     2</i>
   <i name="PSTRESS">      0.00000000</i>
   <i name="EDIFFG">      0.00100000</i>
   <i type="int" name="NFREE">     1</i>
   <i name="POTIM">      0.10000000</i>
   <i name="SMASS">     -3.00000000</i>
   <i name="SCALEE">      1.00000000</i>
  </separator>
  <separator name="ionic md" >
   <i name="TEBEG">      0.00010000</i>
   <i name="TEEND">      0.00010000</i>
   <i type="int" name="NBLOCK">     1</i>
   <i type="int" name="KBLOCK">  1000</i>
   <i type="int" name="NPACO">   256</i>
   <i name="APACO">     16.00000000</i>
  </separator>
  <separator name="symmetry" >
   <i type="int" name="ISYM">     2</i>
   <i name="SYMPREC">      0.00001000</i>
  </separator>
  <separator name="dos" >
   <i type="logical" name="LORBIT"> F  </i>
   <v name="RWIGS">     -1.00000000</v>
   <i type="int" name="NEDOS">   301</i>
   <i name="EMIN">     10.00000000</i>
   <i name="EMAX">    -10.00000000</i>
   <i name="EFERMI">      0.00000000</i>
  </separator>
  <separator name="writing" >
   <i type="int" name="NWRITE">     2</i>
   <i type="logical" name="LWAVE"> F  </i>
   <i type="logical" name="LCHARG"> F  </i>
   <i type="logical" name="LPARD"> F  </i>
   <i type="logical" name="LVTOT"> F  </i>
   <i type="logical" name="LVHAR"> F  </i>
   <i type="logical" name="LELF"> F  </i>
   <i type="logical" name="LOPTICS"> F  </i>
   <v name="STM">      0.00000000      0.00000000      0.00000000      0.00000000      0.00000000      0.00000000      0.00000000</v>
  </separator>
  <separator name="performance" >
   <i type="int" name="NPAR">     4</i>
   <i type="int" name="NSIM">     4</i>
   <i type="int" name="NBLK">    -1</i>
   <i type="logical" name="LPLANE"> T  </i>
   <i type="logical" name="LSCALAPACK"> T  </i>
   <i type="logical" name="LSCAAWARE"> F  </i>
   <i type="logical" name="LSCALU"> F  </i>
   <i type="logical" name="LASYNC"> F  </i>
   <i type="logical" name="LORBITALREAL"> F  </i>
  </separator>
  <separator name="miscellaneous" >
   <i type="int" name="IDIOT">     3</i>
   <i type="logical" name="LMUSIC"> F  </i>
   <v name="POMASS">    107.86800000</v>
   <v name="DARWINR">      0.00000000</v>
   <v name="DARWINV">      1.00000000</v>
   <i type="logical" name="LCORR"> T  </i>
  </separator>
  <i type="logical" name="GGA_COMPAT"> T  </i>
  <i type="logical" name="LBERRY"> F  </i>
  <i type="int" name="ICORELEVEL">     0</i>
  <i type="logical" name="LDAU"> F  </i>
  <i type="int" name="I_CONSTRAINED_M">     0</i>
  <separator name="electronic exchange-correlation" >
   <i type="string" name="GGA">PE</i>
   <i type="int" name="VOSKOWN">     0</i>
   <i type="logical" name="LHFCALC"> F  </i>
   <i type="string" name="PRECFOCK"></i>
   <i type="logical" name="LSYMGRAD"> F  </i>
   <i type="logical" name="LHFONE"> F  </i>
   <i type="logical" name="LRHFCALC"> F  </i>
   <i type="logical" name="LTHOMAS"> F  </i>
   <i type="logical" name="LMODELHF"> F  </i>
   <i name="ENCUT4O">     -1.00000000</i>
   <i type="int" name="EXXOEP">     0</i>
   <i type="int" name="FOURORBIT">     0</i>
   <i name="AEXX">      0.00000000</i>
   <i name="HFALPHA">      0.00000000</i>
   <i name="MCALPHA">      0.00000000</i>
   <i name="ALDAX">      1.00000000</i>
   <i name="AGGAX">      1.00000000</i>
   <i name="ALDAC">      1.00000000</i>
   <i name="AGGAC">      1.00000000</i>
   <i type="int" name="NKREDX">     1</i>
   <i type="int" name="NKREDY">     1</i>
   <i type="int" name="NKREDZ">     1</i>
   <i type="logical" name="SHIFTRED"> F  </i>
   <i type="logical" name="ODDONLY"> F  </i>
   <i type="logical" name="EVENONLY"> F  </i>
   <i type="int" name="LMAXFOCK">     0</i>
   <i type="int" name="NMAXFOCKAE">     0</i>
   <i type="logical" name="LFOCKAEDFT"> F  </i>
   <i name="HFSCREEN">      0.00000000</i>
   <i name="HFSCREENC">      0.00000000</i>
   <i type="int" name="NBANDSGWLOW">     0</i>
  </separator>
  <separator name="vdW DFT" >
   <i type="logical" name="LUSE_VDW"> F  </i>
   <i name="Zab_VDW">     -0.84910000</i>
   <i name="PARAM1">      0.12340000</i>
   <i name="PARAM2">      1.00000000</i>
   <i name="PARAM3">      0.00000000</i>
  </separator>
  <separator name="model GW" >
   <i type="int" name="MODEL_GW">     0</i>
   <i name="MODEL_EPS0">    338.53397902</i>
   <i name="MODEL_ALPHA">      1.00000000</i>
  </separator>
  <separator name="linear response parameters" >
   <i type="logical" name="LEPSILON"> F  </i>
   <i type="logical" name="LRPA"> F  </i>
   <i type="logical" name="LNABLA"> F  </i>
   <i type="logical" name="LVEL"> F  </i>
   <i type="int" name="KINTER">     0</i>
   <i name="CSHIFT">      0.10000000</i>
   <i name="OMEGAMAX">     -1.00000000</i>
   <i name="DEG_THRESHOLD">      0.00200000</i>
  </separator>
  <separator name="orbital magnetization" >
   <i type="logical" name="NUCIND"> F  </i>
   <v name="MAGPOS">      0.00000000      0.00000000      0.00000000</v>
   <i type="logical" name="LNICSALL"> T  </i>
   <i type="logical" name="ORBITALMAG"> F  </i>
   <i type="logical" name="LMAGBLOCH"> F  </i>
   <i type="logical" name="LCHIMAG"> F  </i>
   <i type="logical" name="LGAUGE"> T  </i>
   <i type="int" name="MAGATOM">     0</i>
   <v name="MAGDIPOL">      0.00000000      0.00000000      0.00000000</v>
   <v name="AVECCONST">      0.00000000      0.00000000      0.00000000</v>
  </separator>
  <separator name="response functions" >
   <i type="logical" name="LADDER"> F  </i>
   <i type="logical" name="LFXC"> F  </i>
   <i type="logical" name="LHARTREE"> T  </i>
   <i type="int" name="IBSE">     0</i>
   <i type="logical" name="LTCTE"> F  </i>
   <i type="logical" name="LTETE"> F  </i>
   <i type="logical" name="LTRIPLET"> F  </i>
   <i type="logical" name="LFXCEPS"> F  </i>
   <i type="logical" name="LFXHEG"> F  </i>
   <i type="logical" name="L2ORDER"> F  </i>
   <i type="logical" name="LUSEW"> F  </i>
   <i name="ENCUTGW">     -2.00000000</i>
   <i name="ENCUTGWSOFT">     -2.00000000</i>
   <i name="ENCUTLF">     -1.00000000</i>
   <i type="int" name="LMAXMP2">    -1</i>
   <i name="SCISSOR">      0.00000000</i>
   <i type="int" name="NOMEGA">     0</i>
   <i type="int" name="NOMEGAR">     0</i>
   <i type="int" name="NBANDSGW">    -1</i>
   <i type="int" name="NBANDSO">    -1</i>
   <i type="int" name="NBANDSV">    -1</i>
   <i type="int" name="NELM">     1</i>
   <i type="int" name="DIM">     3</i>
   <i type="int" name="ANTIRES">     0</i>
   <i name="OMEGAMAX">    -30.00000000</i>
   <i name="OMEGAMIN">    -30.00000000</i>
   <i name="OMEGATL">   -200.00000000</i>
   <i type="int" name="OMEGAGRID">     0</i>
   <i name="CSHIFT">     -0.10000000</i>
   <i type="logical" name="SELFENERGY"> F  </i>
   <i type="logical" name="LSPECTRAL"> F  </i>
   <i type="logical" name="ODDONLYGW"> F  </i>
   <i type="logical" name="EVENONLYGW"> F  </i>
   <i type="int" name="NKREDLFX">     1</i>
   <i type="int" name="NKREDLFY">     1</i>
   <i type="int" name="NKREDLFZ">     1</i>
   <i type="int" name="MAXMEM">  1800</i>
   <i type="int" name="TELESCOPE">     0</i>
   <i type="int" name="TAUPAR">     1</i>
  </separator>
  <separator name="External order field" >
   <i name="OFIELD_KAPPA">      0.00000000</i>
   <v name="OFIELD_K">      0.00000000      0.00000000      0.00000000</v>
   <i name="OFIELD_Q6_NEAR">      0.00000000</i>
   <i name="OFIELD_Q6_FAR">      0.00000000</i>
   <i name="OFIELD_A">      0.00000000</i>
  </separator>
 </parameters>
 <atominfo>
  <atoms>      10 </atoms>
  <types>       1 </types>
  <array name="atoms" >
   <dimension dim="1">ion</dimension>
   <field type="string">element</field>
   <field type="int">atomtype</field>
   <set>
    <rc><c>Ag</c><c>   1</c></rc>
    <rc><c>Ag</c><c>   1</c></rc>
    <rc><c>Ag</c><c>   1</c></rc>
    <rc><c>Ag</c><c>   1</c></rc>
    <rc><c>Ag</c><c>   1</c></rc>
    <rc><c>Ag</c><c>   1</c></rc>
    <rc><c>Ag</c><c>   1</c></rc>
    <rc><c>Ag</c><c>   1</c></rc>
    <rc><c>Ag</c><c>   1</c></rc>
    <rc><c>Ag</c><c>   1</c></rc>
   </set>
  </array>
  <array name="atomtypes" >
   <dimension dim="1">type</dimension>
   <field type="int">atomspertype</field>
   <field type="string">element</field>
   <field>mass</field>
   <field>valence</field>
   <field type="string">pseudopotential</field>
   <set>
    <rc><c>  10</c><c>Ag</c><c>    107.86800000</c><c>     11.00000000</c><c>  PAW_PBE Ag 02Apr2005                  </c></rc>
   </set>
  </array>
 </atominfo>
 <structure name="initialpos" >
  <crystal>
   <varray name="basis" >
    <v>      17.80260975       0.00000000       0.00000000 </v>
    <v>       0.00000000      17.80260975       0.00000000 </v>
    <v>       0.00000000       0.00000000      17.80260975 </v>
   </varray>
   <i name="volume">   5642.23298361 </i>
   <varray name="rec_basis" >
    <v>       0.05617154       0.00000000       0.00000000 </v>
    <v>       0.00000000       0.05617154       0.00000000 </v>
    <v>       0.00000000       0.00000000       0.05617154 </v>
   </varray>
  </crystal>
  <varray name="positions" >
   <v>       0.61098530       0.39334064       0.41984201 </v>
   <v>       0.60038146       0.67522048       0.46412738 </v>
   <v>       0.54894771       0.59130780       0.57814753 </v>
   <v>       0.55881921       0.53460364       0.42928506 </v>
   <v>       0.59290285       0.49454105       0.68422664 </v>
   <v>       0.55373007       0.43269049       0.55302138 </v>
   <v>       0.45476122       0.63068716       0.47121177 </v>
   <v>       0.44863313       0.49762217       0.63381580 </v>
   <v>       0.46183732       0.42370440       0.43759035 </v>
   <v>       0.36605261       0.51488478       0.50928331 </v>
  </varray>
 </structure>
 <calculation>
  <scstep>
   <time name="dav">    0.46    0.46</time>
   <time name="total">    0.62    0.64</time>
   <energy>
    <i name="alphaZ">     15.07520288 </i>
    <i name="ewald">   9385.13270192 </i>
    <i name="hartreedc"> -19304.12268684 </i>
    <i name="XCdc">   -111.50222966 </i>
    <i name="pawpsdc">  10033.72178070 </i>
    <i name="pawaedc">  -9572.64608879 </i>
    <i name="eentropy">      0.00000000 </i>
    <i name="bandstr">    153.02082775 </i>
    <i name="atom">  10371.98630086 </i>
    <i name="e_fr_energy">    970.66580883 </i>
    <i name="e_wo_entrp">    970.66580883 </i>
    <i name="e_0_energy">    970.66580883 </i>
   </energy>
  </scstep>
  <scstep>
   <time name="dav">    0.76    0.75</time>
   <time name="total">    0.76    0.76</time>
   <energy>
    <i name="e_fr_energy">    323.14279914 </i>
    <i name="e_wo_entrp">    323.14279914 </i>
    <i name="e_0_energy">    323.14279914 </i>
   </energy>
  </scstep>
  <scstep>
   <time name="dav">    0.62    0.62</time>
   <time name="total">    0.62    0.68</time>
   <energy>
    <i name="e_fr_energy">     11.20238321 </i>
    <i name="e_wo_entrp">     11.20238321 </i>
    <i name="e_0_energy">     11.20238321 </i>
   </energy>
  </scstep>
  <scstep>
   <time name="dav">    0.53    0.53</time>
   <time name="total">    0.53    0.96</time>
   <energy>
    <i name="e_fr_energy">    -15.93947226 </i>
    <i name="e_wo_entrp">    -15.93947226 </i>
    <i name="e_0_energy">    -15.93947226 </i>
   </energy>
  </scstep>
  <scstep>
   <time name="dav">    0.48    0.48</time>
   <time name="total">    0.52    0.53</time>
   <energy>
    <i name="e_fr_energy">    -16.41173061 </i>
    <i name="e_wo_entrp">    -16.41173061 </i>
    <i name="e_0_energy">    -16.41173061 </i>
   </energy>
  </scstep>
  <scstep>
   <time name="dav">    0.46    0.46</time>
   <time name="total">    0.65    0.79</time>
   <energy>
    <i name="e_fr_energy">     -4.44368282 </i>
    <i name="e_wo_entrp">     -4.44368282 </i>
    <i name="e_0_energy">     -4.44368282 </i>
   </energy>
  </scstep>
  <scstep>
   <time name="dav">    0.48    0.48</time>
   <time name="total">    0.67    1.68</time>
   <energy>
    <i name="e_fr_energy">      1.10751819 </i>
    <i name="e_wo_entrp">      1.10751819 </i>
    <i name="e_0_energy">      1.10751819 </i>
   </energy>
  </scstep>
  <scstep>
   <time name="dav">    0.46    0.47</time>
   <time name="total">    0.66    0.67</time>
   <energy>
    <i name="e_fr_energy">     -2.45330138 </i>
    <i name="e_wo_entrp">     -2.45330138 </i>
    <i name="e_0_energy">     -2.45330138 </i>
   </energy>
  </scstep>
  <scstep>
   <time name="dav">    0.49    0.49</time>
   <time name="total">    0.69    0.69</time>
   <energy>
    <i name="e_fr_energy">     -6.36047106 </i>
    <i name="e_wo_entrp">     -6.36047106 </i>
    <i name="e_0_energy">     -6.36047106 </i>
   </energy>
  </scstep>
  <scstep>
   <time name="dav">    0.49    0.49</time>
   <time name="total">    0.69    0.70</time>
   <energy>
    <i name="e_fr_energy">    -10.97318274 </i>
    <i name="e_wo_entrp">    -10.97318274 </i>
    <i name="e_0_energy">    -10.97318274 </i>
   </energy>
  </scstep>
  <scstep>
   <time name="dav">    0.49    0.49</time>
   <time name="total">    0.69    1.15</time>
   <energy>
    <i name="e_fr_energy">    -13.10183824 </i>
    <i name="e_wo_entrp">    -13.10183824 </i>
    <i name="e_0_energy">    -13.10183824 </i>
   </energy>
  </scstep>
  <scstep>
   <time name="dav">    0.49    0.49</time>
   <time name="total">    0.69    0.70</time>
   <energy>
    <i name="e_fr_energy">    -15.24238210 </i>
    <i name="e_wo_entrp">    -15.24238210 </i>
    <i name="e_0_energy">    -15.24238210 </i>
   </energy>
  </scstep>
  <scstep>
   <time name="dav">    0.49    0.49</time>
   <time name="total">    0.69    0.70</time>
   <energy>
    <i name="e_fr_energy">    -15.77833677 </i>
    <i name="e_wo_entrp">    -15.77833677 </i>
    <i name="e_0_energy">    -15.77833677 </i>
   </energy>
  </scstep>
  <scstep>
   <time name="dav">    0.47    0.47</time>
   <time name="total">    0.67    0.68</time>
   <energy>
    <i name="e_fr_energy">    -15.99999723 </i>
    <i name="e_wo_entrp">    -15.99999723 </i>
    <i name="e_0_energy">    -15.99999723 </i>
   </energy>
  </scstep>
  <scstep>
   <time name="dav">    0.48    0.48</time>
   <time name="total">    0.68    0.68</time>
   <energy>
    <i name="e_fr_energy">    -16.14187831 </i>
    <i name="e_wo_entrp">    -16.14187831 </i>
    <i name="e_0_energy">    -16.14187831 </i>
   </energy>
  </scstep>
  <scstep>
   <time name="dav">    0.43    0.43</time>
   <time name="total">    0.63    0.64</time>
   <energy>
    <i name="e_fr_energy">    -16.17814586 </i>
    <i name="e_wo_entrp">    -16.17814586 </i>
    <i name="e_0_energy">    -16.17814586 </i>
   </energy>
  </scstep>
  <scstep>
   <time name="dav">    0.42    0.42</time>
   <time name="total">    0.62    0.62</time>
   <energy>
    <i name="e_fr_energy">    -16.18371082 </i>
    <i name="e_wo_entrp">    -16.18371082 </i>
    <i name="e_0_energy">    -16.18371082 </i>
   </energy>
  </scstep>
  <scstep>
   <time name="dav">    0.39    0.39</time>
   <time name="total">    0.59    1.15</time>
   <energy>
    <i name="e_fr_energy">    -16.18654672 </i>
    <i name="e_wo_entrp">    -16.18654672 </i>
    <i name="e_0_energy">    -16.18654672 </i>
   </energy>
  </scstep>
  <scstep>
   <time name="dav">    0.38    0.38</time>
   <time name="total">    0.58    0.70</time>
   <energy>
    <i name="e_fr_energy">    -16.18799006 </i>
    <i name="e_wo_entrp">    -16.18799006 </i>
    <i name="e_0_energy">    -16.18799006 </i>
   </energy>
  </scstep>
  <scstep>
   <time name="dav">    0.37    0.37</time>
   <time name="total">    0.57    0.58</time>
   <energy>
    <i name="e_fr_energy">    -16.18907186 </i>
    <i name="e_wo_entrp">    -16.18907186 </i>
    <i name="e_0_energy">    -16.18907186 </i>
   </energy>
  </scstep>
  <scstep>
   <time name="dav">    0.38    0.38</time>
   <time name="total">    0.58    0.58</time>
   <energy>
    <i name="e_fr_energy">    -16.18940699 </i>
    <i name="e_wo_entrp">    -16.18940699 </i>
    <i name="e_0_energy">    -16.18940699 </i>
   </energy>
  </scstep>
  <scstep>
   <time name="dav">    0.38    0.38</time>
   <time name="total">    0.54    0.54</time>
   <energy>
    <i name="alphaZ">     15.07520288 </i>
    <i name="ewald">   9385.13270192 </i>
    <i name="hartreedc"> -19296.93995196 </i>
    <i name="XCdc">   -114.44131981 </i>
    <i name="pawpsdc">  10846.91815285 </i>
    <i name="pawaedc"> -10403.30181329 </i>
    <i name="eentropy">      0.00000000 </i>
    <i name="bandstr">   -820.61874614 </i>
    <i name="atom">  10371.98630086 </i>
    <i name="e_fr_energy">    -16.18947270 </i>
    <i name="e_wo_entrp">    -16.18947270 </i>
    <i name="e_0_energy">    -16.18947270 </i>
   </energy>
  </scstep>
  <structure>
   <crystal>
    <varray name="basis" >
     <v>      17.80260975       0.00000000       0.00000000 </v>
     <v>       0.00000000      17.80260975       0.00000000 </v>
     <v>       0.00000000       0.00000000      17.80260975 </v>
    </varray>
    <i name="volume">   5642.23298361 </i>
    <varray name="rec_basis" >
     <v>       0.05617154       0.00000000       0.00000000 </v>
     <v>       0.00000000       0.05617154       0.00000000 </v>
     <v>       0.00000000       0.00000000       0.05617154 </v>
    </varray>
   </crystal>
   <varray name="positions" >
    <v>       0.61098530       0.39334064       0.41984201 </v>
    <v>       0.60038146       0.67522048       0.46412738 </v>
    <v>       0.54894771       0.59130780       0.57814753 </v>
    <v>       0.55881921       0.53460364       0.42928506 </v>
    <v>       0.59290285       0.49454105       0.68422664 </v>
    <v>       0.55373007       0.43269049       0.55302138 </v>
    <v>       0.45476122       0.63068716       0.47121177 </v>
    <v>       0.44863313       0.49762217       0.63381580 </v>
    <v>       0.46183732       0.42370440       0.43759035 </v>
    <v>       0.36605261       0.51488478       0.50928331 </v>
   </varray>
  </structure>
  <varray name="forces" >
   <v>       0.48041645      -0.41855732      -0.36904847 </v>
   <v>       0.46937395       0.52770150      -0.19169449 </v>
   <v>       0.39839731       0.35724919       0.30431805 </v>
   <v>       0.50483638       0.05572670      -0.42050536 </v>
   <v>       0.44610104      -0.05314559       0.61237934 </v>
   <v>       0.46946623      -0.43100269       0.18751779 </v>
   <v>      -0.89470071       0.36685257      -0.19664473 </v>
   <v>      -0.92520138      -0.05718417       0.37622449 </v>
   <v>      -0.85549826      -0.35837791      -0.32202874 </v>
   <v>      -0.09319101       0.01073771       0.01948211 </v>
  </varray>
  <varray name="stress" >
   <v>       0.83091240       0.00505004       0.01731755 </v>
   <v>       0.00505004       0.47882788       0.01439675 </v>
   <v>       0.01731755       0.01439675       0.52402788 </v>
  </varray>
  <energy>
   <i name="e_fr_energy">    -16.18947270 </i>
   <i name="e_wo_entrp">    -16.18947270 </i>
   <i name="e_0_energy">      0.00000000 </i>
  </energy>
  <time name="totalsc">   14.77   17.65</time>
 </calculation>
 <calculation>
  <scstep>
   <time name="dav">    0.48    0.47</time>
   <time name="total">    0.67    0.68</time>
   <energy>
    <i name="alphaZ">     15.07520288 </i>
    <i name="ewald">   9329.07208435 </i>
    <i name="hartreedc"> -19241.45594164 </i>
    <i name="XCdc">   -114.56939687 </i>
    <i name="pawpsdc">  10846.96519044 </i>
    <i name="pawaedc"> -10403.34854796 </i>
    <i name="eentropy">      0.00000000 </i>
    <i name="bandstr">   -819.96591174 </i>
    <i name="atom">  10371.98630086 </i>
    <i name="e_fr_energy">    -16.24101967 </i>
    <i name="e_wo_entrp">    -16.24101967 </i>
    <i name="e_0_energy">    -16.24101967 </i>
   </energy>
  </scstep>
  <scstep>
   <time name="dav">    0.50    0.50</time>
   <time name="total">    0.70    0.70</time>
   <energy>
    <i name="e_fr_energy">    -16.24279264 </i>
    <i name="e_wo_entrp">    -16.24279264 </i>
    <i name="e_0_energy">    -16.24279264 </i>
   </energy>
  </scstep>
  <scstep>
   <time name="dav">    0.49    0.49</time>
   <time name="total">    0.65    0.65</time>
   <energy>
    <i name="alphaZ">     15.07520288 </i>
    <i name="ewald">   9329.07208435 </i>
    <i name="hartreedc"> -19242.08929505 </i>
    <i name="XCdc">   -114.54881868 </i>
    <i name="pawpsdc">  10833.05435630 </i>
    <i name="pawaedc"> -10389.22420391 </i>
    <i name="eentropy">      0.00000000 </i>
    <i name="bandstr">   -819.56833709 </i>
    <i name="atom">  10371.98630086 </i>
    <i name="e_fr_energy">    -16.24271034 </i>
    <i name="e_wo_entrp">    -16.24271034 </i>
    <i name="e_0_energy">    -16.24271034 </i>
   </energy>
  </scstep>
  <structure>
   <crystal>
    <varray name="basis" >
     <v>      17.80260975       0.00000000       0.00000000 </v>
     <v>       0.00000000      17.80260975       0.00000000 </v>
     <v>       0.00000000       0.00000000      17.80260975 </v>
    </varray>
    <i name="volume">   5642.23298361 </i>
    <varray name="rec_basis" >
     <v>       0.05617154       0.00000000       0.00000000 </v>
     <v>       0.00000000       0.05617154       0.00000000 </v>
     <v>       0.00000000       0.00000000       0.05617154 </v>
    </varray>
   </crystal>
   <varray name="positions" >
    <v>       0.61124568       0.39311379       0.41964199 </v>
    <v>       0.60063585       0.67550648       0.46402349 </v>
    <v>       0.54916363       0.59150142       0.57831246 </v>
    <v>       0.55909282       0.53463385       0.42905716 </v>
    <v>       0.59314462       0.49451225       0.68455853 </v>
    <v>       0.55398451       0.43245690       0.55312301 </v>
    <v>       0.45427632       0.63088598       0.47110520 </v>
    <v>       0.44813169       0.49759118       0.63401971 </v>
    <v>       0.46137366       0.42351017       0.43741582 </v>
    <v>       0.36600210       0.51489060       0.50929387 </v>
   </varray>
  </structure>
  <varray name="forces" >
   <v>       0.42352441      -0.38618234      -0.34013387 </v>
   <v>       0.41503808       0.47604253      -0.17811101 </v>
   <v>       0.34512007       0.31055979       0.26250058 </v>
   <v>       0.43519308       0.04698082      -0.35990735 </v>
   <v>       0.39885061      -0.04648091       0.55546708 </v>
   <v>       0.40444536      -0.37061749       0.16389097 </v>
   <v>      -0.77573271       0.32451222      -0.17385417 </v>
   <v>      -0.80726409      -0.04924124       0.33727192 </v>
   <v>      -0.74487665      -0.31563859      -0.28532768 </v>
   <v>      -0.09429815       0.01006521       0.01820352 </v>
  </varray>
  <varray name="stress" >
   <v>       0.62819263       0.00404132       0.01403299 </v>
   <v>       0.00404132       0.33932545       0.01275985 </v>
   <v>       0.01403299       0.01275985       0.38343450 </v>
  </varray>
  <energy>
   <i name="e_fr_energy">    -16.24271034 </i>
   <i name="e_wo_entrp">    -16.24271034 </i>
   <i name="e_0_energy">      0.00000000 </i>
  </energy>
  <time name="totalsc">    2.85    2.88</time>
 </calculation>
 <calculation>
  <scstep>
   <time name="dav">    0.47    0.47</time>
   <time name="total">    0.67    0.68</time>
   <energy>
    <i name="alphaZ">     15.07520288 </i>
    <i name="ewald">   9162.88967087 </i>
    <i name="hartreedc"> -19077.89796446 </i>
    <i name="XCdc">   -114.91399788 </i>
    <i name="pawpsdc">  10827.62800301 </i>
    <i name="pawaedc"> -10383.71263818 </i>
    <i name="eentropy">      0.00000000 </i>
    <i name="bandstr">   -817.40472915 </i>
    <i name="atom">  10371.98630086 </i>
    <i name="e_fr_energy">    -16.35015206 </i>
    <i name="e_wo_entrp">    -16.35015206 </i>
    <i name="e_0_energy">    -16.35015206 </i>
   </energy>
  </scstep>
  <scstep>
   <time name="dav">    0.48    0.48</time>
   <time name="total">    0.68    0.68</time>
   <energy>
    <i name="e_fr_energy">    -16.36558321 </i>
    <i name="e_wo_entrp">    -16.36558321 </i>
    <i name="e_0_energy">    -16.36558321 </i>
   </energy>
  </scstep>
  <scstep>
   <time name="dav">    0.51    0.51</time>
   <time name="total">    0.71    1.01</time>
   <energy>
    <i name="e_fr_energy">    -16.36511216 </i>
    <i name="e_wo_entrp">    -16.36511216 </i>
    <i name="e_0_energy">    -16.36511216 </i>
   </energy>
  </scstep>
  <scstep>
   <time name="dav">    0.47    0.47</time>
   <time name="total">    0.67    0.67</time>
   <energy>
    <i name="e_fr_energy">    -16.36497302 </i>
    <i name="e_wo_entrp">    -16.36497302 </i>
    <i name="e_0_energy">    -16.36497302 </i>
   </energy>
  </scstep>
  <scstep>
   <time name="dav">    0.39    0.39</time>
   <time name="total">    0.59    0.59</time>
   <energy>
    <i name="e_fr_energy">    -16.36522437 </i>
    <i name="e_wo_entrp">    -16.36522437 </i>
    <i name="e_0_energy">    -16.36522437 </i>
   </energy>
  </scstep>
  <scstep>
   <time name="dav">    0.39    0.39</time>
   <time name="total">    0.59    0.87</time>
   <energy>
    <i name="e_fr_energy">    -16.36541497 </i>
    <i name="e_wo_entrp">    -16.36541497 </i>
    <i name="e_0_energy">    -16.36541497 </i>
   </energy>
  </scstep>
  <scstep>
   <time name="dav">    0.39    0.39</time>
   <time name="total">    0.59    0.67</time>
   <energy>
    <i name="e_fr_energy">    -16.36556896 </i>
    <i name="e_wo_entrp">    -16.36556896 </i>
    <i name="e_0_energy">    -16.36556896 </i>
   </energy>
  </scstep>
  <scstep>
   <time name="dav">    0.38    0.38</time>
   <time name="total">    0.58    0.62</time>
   <energy>
    <i name="e_fr_energy">    -16.36571175 </i>
    <i name="e_wo_entrp">    -16.36571175 </i>
    <i name="e_0_energy">    -16.36571175 </i>
   </energy>
  </scstep>
  <scstep>
   <time name="dav">    0.39    0.39</time>
   <time name="total">    0.55    0.55</time>
   <energy>
    <i name="alphaZ">     15.07520288 </i>
    <i name="ewald">   9162.88967087 </i>
    <i name="hartreedc"> -19080.13371402 </i>
    <i name="XCdc">   -114.83618787 </i>
    <i name="pawpsdc">  10773.96761781 </i>
    <i name="pawaedc"> -10329.20346256 </i>
    <i name="eentropy">      0.00000000 </i>
    <i name="bandstr">   -816.11120997 </i>
    <i name="atom">  10371.98630086 </i>
    <i name="e_fr_energy">    -16.36578200 </i>
    <i name="e_wo_entrp">    -16.36578200 </i>
    <i name="e_0_energy">    -16.36578200 </i>
   </energy>
  </scstep>
  <structure>
   <crystal>
    <varray name="basis" >
     <v>      17.80260975       0.00000000       0.00000000 </v>
     <v>       0.00000000      17.80260975       0.00000000 </v>
     <v>       0.00000000       0.00000000      17.80260975 </v>
    </varray>
    <i name="volume">   5642.23298361 </i>
    <varray name="rec_basis" >
     <v>       0.05617154       0.00000000       0.00000000 </v>
     <v>       0.00000000       0.05617154       0.00000000 </v>
     <v>       0.00000000       0.00000000       0.05617154 </v>
    </varray>
   </crystal>
   <varray name="positions" >
    <v>       0.61202679       0.39243325       0.41904195 </v>
    <v>       0.60139902       0.67636448       0.46371181 </v>
    <v>       0.54981139       0.59208227       0.57880726 </v>
    <v>       0.55991364       0.53472445       0.42837345 </v>
    <v>       0.59386994       0.49442584       0.68555421 </v>
    <v>       0.55474783       0.43175613       0.55342790 </v>
    <v>       0.45282161       0.63148246       0.47078547 </v>
    <v>       0.44662739       0.49749820       0.63463142 </v>
    <v>       0.45998269       0.42292747       0.43689223 </v>
    <v>       0.36585058       0.51490806       0.50932555 </v>
   </varray>
  </structure>
  <varray name="forces" >
   <v>       0.27937277      -0.30618047      -0.26676427 </v>
   <v>       0.27070246       0.34533128      -0.14580511 </v>
   <v>       0.21812068       0.19539387       0.16442814 </v>
   <v>       0.26005444       0.02515960      -0.20633748 </v>
   <v>       0.27667613      -0.02877477       0.41155343 </v>
   <v>       0.24175620      -0.21240272       0.10135744 </v>
   <v>      -0.47708269       0.21795275      -0.11737164 </v>
   <v>      -0.50327882      -0.03040852       0.24047325 </v>
   <v>      -0.46386458      -0.21528324      -0.19435998 </v>
   <v>      -0.10245660       0.00921222       0.01282623 </v>
  </varray>
  <varray name="stress" >
   <v>       0.11975510       0.00305674       0.00885883 </v>
   <v>       0.00305674      -0.05596661       0.00854280 </v>
   <v>       0.00885883       0.00854279      -0.01265419 </v>
  </varray>
  <energy>
   <i name="e_fr_energy">    -16.36578200 </i>
   <i name="e_wo_entrp">    -16.36578200 </i>
   <i name="e_0_energy">      0.00000000 </i>
  </energy>
  <time name="totalsc">    6.46    7.18</time>
 </calculation>
 <calculation>
  <scstep>
   <time name="dav">    0.48    0.47</time>
   <time name="total">    0.67    0.68</time>
   <energy>
    <i name="alphaZ">     15.07520288 </i>
    <i name="ewald">   8839.25780727 </i>
    <i name="hartreedc"> -18759.59999821 </i>
    <i name="XCdc">   -115.52421552 </i>
    <i name="pawpsdc">  10773.92227728 </i>
    <i name="pawaedc"> -10329.15785021 </i>
    <i name="eentropy">      0.00000000 </i>
    <i name="bandstr">   -812.36946501 </i>
    <i name="atom">  10371.98630086 </i>
    <i name="e_fr_energy">    -16.40994066 </i>
    <i name="e_wo_entrp">    -16.40994066 </i>
    <i name="e_0_energy">    -16.40994066 </i>
   </energy>
  </scstep>
  <scstep>
   <time name="dav">    0.48    0.48</time>
   <time name="total">    0.68    0.68</time>
   <energy>
    <i name="e_fr_energy">    -16.47190701 </i>
    <i name="e_wo_entrp">    -16.47190701 </i>
    <i name="e_0_energy">    -16.47190701 </i>
   </energy>
  </scstep>
  <scstep>
   <time name="dav">    0.50    0.50</time>
   <time name="total">    0.70    0.70</time>
   <energy>
    <i name="e_fr_energy">    -16.47129901 </i>
    <i name="e_wo_entrp">    -16.47129901 </i>
    <i name="e_0_energy">    -16.47129901 </i>
   </energy>
  </scstep>
  <scstep>
   <time name="dav">    0.48    0.47</time>
   <time name="total">    0.68    0.67</time>
   <energy>
    <i name="e_fr_energy">    -16.47035500 </i>
    <i name="e_wo_entrp">    -16.47035500 </i>
    <i name="e_0_energy">    -16.47035500 </i>
   </energy>
  </scstep>
  <scstep>
   <time name="dav">    0.40    0.40</time>
   <time name="total">    0.60    0.60</time>
   <energy>
    <i name="e_fr_energy">    -16.47090747 </i>
    <i name="e_wo_entrp">    -16.47090747 </i>
    <i name="e_0_energy">    -16.47090747 </i>
   </energy>
  </scstep>
  <scstep>
   <time name="dav">    0.38    0.38</time>
   <time name="total">    0.58    0.58</time>
   <energy>
    <i name="e_fr_energy">    -16.47132047 </i>
    <i name="e_wo_entrp">    -16.47132047 </i>
    <i name="e_0_energy">    -16.47132047 </i>
   </energy>
  </scstep>
  <scstep>
   <time name="dav">    0.39    0.39</time>
   <time name="total">    0.59    0.59</time>
   <energy>
    <i name="e_fr_energy">    -16.47172260 </i>
    <i name="e_wo_entrp">    -16.47172260 </i>
    <i name="e_0_energy">    -16.47172260 </i>
   </energy>
  </scstep>
  <scstep>
   <time name="dav">    0.39    0.39</time>
   <time name="total">    0.59    0.60</time>
   <energy>
    <i name="e_fr_energy">    -16.47205768 </i>
    <i name="e_wo_entrp">    -16.47205768 </i>
    <i name="e_0_energy">    -16.47205768 </i>
   </energy>
  </scstep>
  <scstep>
   <time name="dav">    0.38    0.38</time>
   <time name="total">    0.58    0.58</time>
   <energy>
    <i name="e_fr_energy">    -16.47223539 </i>
    <i name="e_wo_entrp">    -16.47223539 </i>
    <i name="e_0_energy">    -16.47223539 </i>
   </energy>
  </scstep>
  <scstep>
   <time name="dav">    0.36    0.36</time>
   <time name="total">    0.56    0.57</time>
   <energy>
    <i name="e_fr_energy">    -16.47238474 </i>
    <i name="e_wo_entrp">    -16.47238474 </i>
    <i name="e_0_energy">    -16.47238474 </i>
   </energy>
  </scstep>
  <scstep>
   <time name="dav">    0.36    0.36</time>
   <time name="total">    0.56    0.57</time>
   <energy>
    <i name="e_fr_energy">    -16.47250768 </i>
    <i name="e_wo_entrp">    -16.47250768 </i>
    <i name="e_0_energy">    -16.47250768 </i>
   </energy>
  </scstep>
  <scstep>
   <time name="dav">    0.38    0.38</time>
   <time name="total">    0.54    0.56</time>
   <energy>
    <i name="alphaZ">     15.07520288 </i>
    <i name="ewald">   8839.25780727 </i>
    <i name="hartreedc"> -18764.06315734 </i>
    <i name="XCdc">   -115.37103697 </i>
    <i name="pawpsdc">  10681.14703986 </i>
    <i name="pawaedc"> -10234.84213879 </i>
    <i name="eentropy">      0.00000000 </i>
    <i name="bandstr">   -809.66253225 </i>
    <i name="atom">  10371.98630086 </i>
    <i name="e_fr_energy">    -16.47251448 </i>
    <i name="e_wo_entrp">    -16.47251448 </i>
    <i name="e_0_energy">    -16.47251448 </i>
   </energy>
  </scstep>
  <structure>
   <crystal>
    <varray name="basis" >
     <v>      17.80260975       0.00000000       0.00000000 </v>
     <v>       0.00000000      17.80260975       0.00000000 </v>
     <v>       0.00000000       0.00000000      17.80260975 </v>
    </varray>
    <i name="volume">   5642.23298361 </i>
    <varray name="rec_basis" >
     <v>       0.05617154       0.00000000       0.00000000 </v>
     <v>       0.00000000       0.05617154       0.00000000 </v>
     <v>       0.00000000       0.00000000       0.05617154 </v>
    </varray>
   </crystal>
   <varray name="positions" >
    <v>       0.61358903       0.39107217       0.41784186 </v>
    <v>       0.60292534       0.67808048       0.46308845 </v>
    <v>       0.55110692       0.59324399       0.57979685 </v>
    <v>       0.56155529       0.53490567       0.42700604 </v>
    <v>       0.59532059       0.49425302       0.68754557 </v>
    <v>       0.55627445       0.43035458       0.55403767 </v>
    <v>       0.44991219       0.63267540       0.47014601 </v>
    <v>       0.44361879       0.49731225       0.63585484 </v>
    <v>       0.45720075       0.42176209       0.43584505 </v>
    <v>       0.36554754       0.51494298       0.50938890 </v>
   </varray>
  </structure>
  <varray name="forces" >
   <v>       0.05741999      -0.15125354      -0.12638911 </v>
   <v>       0.04113152       0.13150650      -0.08308390 </v>
   <v>       0.03454757      -0.00694540      -0.01695258 </v>
   <v>      -0.00844627      -0.01517158       0.05474587 </v>
   <v>       0.06909923      -0.00066676       0.15450353 </v>
   <v>      -0.00843989       0.05885129      -0.00684898 </v>
   <v>      -0.04435902       0.04759781      -0.02743744 </v>
   <v>      -0.00987774       0.00242932       0.11051856 </v>
   <v>      -0.01907206      -0.06765895      -0.06068889 </v>
   <v>      -0.11200333       0.00131131       0.00163294 </v>
  </varray>
  <varray name="stress" >
   <v>      -0.73483908       0.00015726       0.00031500 </v>
   <v>       0.00015726      -0.71878668       0.00167519 </v>
   <v>       0.00031500       0.00167519      -0.67296065 </v>
  </varray>
  <energy>
   <i name="e_fr_energy">    -16.47251448 </i>
   <i name="e_wo_entrp">    -16.47251448 </i>
   <i name="e_0_energy">      0.00000000 </i>
  </energy>
  <time name="totalsc">    8.17    8.30</time>
 </calculation>
 <calculation>
  <scstep>
   <time name="dav">    0.47    0.47</time>
   <time name="total">    0.67    0.68</time>
   <energy>
    <i name="alphaZ">     15.07520288 </i>
    <i name="ewald">   8783.99291137 </i>
    <i name="hartreedc"> -18709.25283375 </i>
    <i name="XCdc">   -115.48501713 </i>
    <i name="pawpsdc">  10681.16788948 </i>
    <i name="pawaedc"> -10234.86302779 </i>
    <i name="eentropy">      0.00000000 </i>
    <i name="bandstr">   -809.09497625 </i>
    <i name="atom">  10371.98630086 </i>
    <i name="e_fr_energy">    -16.47355032 </i>
    <i name="e_wo_entrp">    -16.47355032 </i>
    <i name="e_0_energy">    -16.47355032 </i>
   </energy>
  </scstep>
  <scstep>
   <time name="dav">    0.48    0.48</time>
   <time name="total">    0.68    0.69</time>
   <energy>
    <i name="e_fr_energy">    -16.47549288 </i>
    <i name="e_wo_entrp">    -16.47549288 </i>
    <i name="e_0_energy">    -16.47549288 </i>
   </energy>
  </scstep>
  <scstep>
   <time name="dav">    0.48    0.48</time>
   <time name="total">    0.65    0.67</time>
   <energy>
    <i name="alphaZ">     15.07520288 </i>
    <i name="ewald">   8783.99291137 </i>
    <i name="hartreedc"> -18709.84750964 </i>
    <i name="XCdc">   -115.46342101 </i>
    <i name="pawpsdc">  10671.67174251 </i>
    <i name="pawaedc"> -10225.20871055 </i>
    <i name="eentropy">      0.00000000 </i>
    <i name="bandstr">   -808.68196117 </i>
    <i name="atom">  10371.98630086 </i>
    <i name="e_fr_energy">    -16.47544474 </i>
    <i name="e_wo_entrp">    -16.47544474 </i>
    <i name="e_0_energy">    -16.47544474 </i>
   </energy>
  </scstep>
  <structure>
   <crystal>
    <varray name="basis" >
     <v>      17.80260975       0.00000000       0.00000000 </v>
     <v>       0.00000000      17.80260975       0.00000000 </v>
     <v>       0.00000000       0.00000000      17.80260975 </v>
    </varray>
    <i name="volume">   5642.23298361 </i>
    <varray name="rec_basis" >
     <v>       0.05617154       0.00000000       0.00000000 </v>
     <v>       0.00000000       0.05617154       0.00000000 </v>
     <v>       0.00000000       0.00000000       0.05617154 </v>
    </varray>
   </crystal>
   <varray name="positions" >
    <v>       0.61386139       0.39083488       0.41763264 </v>
    <v>       0.60319144       0.67837964       0.46297977 </v>
    <v>       0.55133278       0.59344652       0.57996938 </v>
    <v>       0.56184149       0.53493726       0.42676764 </v>
    <v>       0.59557350       0.49422289       0.68789274 </v>
    <v>       0.55654060       0.43011023       0.55414398 </v>
    <v>       0.44940497       0.63288338       0.47003453 </v>
    <v>       0.44309427       0.49727983       0.63606813 </v>
    <v>       0.45671575       0.42155891       0.43566248 </v>
    <v>       0.36549471       0.51494906       0.50939994 </v>
   </varray>
  </structure>
  <varray name="forces" >
   <v>       0.02432473      -0.12171920      -0.09957006 </v>
   <v>       0.00734757       0.09484886      -0.07067164 </v>
   <v>       0.00533258      -0.04175635      -0.04709298 </v>
   <v>      -0.04792767      -0.02150212       0.10062314 </v>
   <v>       0.03607933       0.00399017       0.10572863 </v>
   <v>      -0.04370719       0.10291211      -0.02346939 </v>
   <v>       0.01835174       0.02235060      -0.01188670 </v>
   <v>       0.06375627       0.00733436       0.09205527 </v>
   <v>       0.04690576      -0.04642975      -0.04618852 </v>
   <v>      -0.11046312      -0.00002868       0.00047225 </v>
  </varray>
  <varray name="stress" >
   <v>      -0.87538956      -0.00070952      -0.00186351 </v>
   <v>      -0.00070952      -0.81863610       0.00036300 </v>
   <v>      -0.00186351       0.00036300      -0.77153863 </v>
  </varray>
  <energy>
   <i name="e_fr_energy">    -16.47544474 </i>
   <i name="e_wo_entrp">    -16.47544474 </i>
   <i name="e_0_energy">      0.00000000 </i>
  </energy>
  <time name="totalsc">    2.84    3.68</time>
 </calculation>
 <calculation>
  <scstep>
   <time name="dav">    0.50    0.50</time>
   <time name="total">    0.69    0.71</time>
   <energy>
    <i name="alphaZ">     15.07520288 </i>
    <i name="ewald">   8775.18508352 </i>
    <i name="hartreedc"> -18701.30325536 </i>
    <i name="XCdc">   -115.47675043 </i>
    <i name="pawpsdc">  10666.95970211 </i>
    <i name="pawaedc"> -10220.41119299 </i>
    <i name="eentropy">      0.00000000 </i>
    <i name="bandstr">   -808.49327419 </i>
    <i name="atom">  10371.98630086 </i>
    <i name="e_fr_energy">    -16.47818362 </i>
    <i name="e_wo_entrp">    -16.47818362 </i>
    <i name="e_0_energy">    -16.47818362 </i>
   </energy>
  </scstep>
  <scstep>
   <time name="dav">    0.48    0.49</time>
   <time name="total">    0.69    0.69</time>
   <energy>
    <i name="e_fr_energy">    -16.47854394 </i>
    <i name="e_wo_entrp">    -16.47854394 </i>
    <i name="e_0_energy">    -16.47854394 </i>
   </energy>
  </scstep>
  <scstep>
   <time name="dav">    0.38    0.38</time>
   <time name="total">    0.54    0.57</time>
   <energy>
    <i name="alphaZ">     15.07520288 </i>
    <i name="ewald">   8775.18508352 </i>
    <i name="hartreedc"> -18701.32249486 </i>
    <i name="XCdc">   -115.47342333 </i>
    <i name="pawpsdc">  10665.35620052 </i>
    <i name="pawaedc"> -10218.78046633 </i>
    <i name="eentropy">      0.00000000 </i>
    <i name="bandstr">   -808.50496178 </i>
    <i name="atom">  10371.98630086 </i>
    <i name="e_fr_energy">    -16.47855852 </i>
    <i name="e_wo_entrp">    -16.47855852 </i>
    <i name="e_0_energy">    -16.47855852 </i>
   </energy>
  </scstep>
  <structure>
   <crystal>
    <varray name="basis" >
     <v>      17.80260975       0.00000000       0.00000000 </v>
     <v>       0.00000000      17.80260975       0.00000000 </v>
     <v>       0.00000000       0.00000000      17.80260975 </v>
    </varray>
    <i name="volume">   5642.23298361 </i>
    <varray name="rec_basis" >
     <v>       0.05617154       0.00000000       0.00000000 </v>
     <v>       0.00000000       0.05617154       0.00000000 </v>
     <v>       0.00000000       0.00000000       0.05617154 </v>
    </varray>
   </crystal>
   <varray name="positions" >
    <v>       0.61390909       0.39062937       0.41746408 </v>
    <v>       0.60321127       0.67854316       0.46286131 </v>
    <v>       0.55134814       0.59338440       0.57989766 </v>
    <v>       0.56177177       0.53490312       0.42692472 </v>
    <v>       0.59563980       0.49422851       0.68807541 </v>
    <v>       0.55647717       0.43027086       0.55410884 </v>
    <v>       0.44941993       0.63292596       0.47001186 </v>
    <v>       0.44318278       0.49729084       0.63622455 </v>
    <v>       0.45677794       0.42147720       0.43558177 </v>
    <v>       0.36531299       0.51494920       0.50940104 </v>
   </varray>
  </structure>
  <varray name="forces" >
   <v>       0.01660991      -0.10159734      -0.08088091 </v>
   <v>       0.00390410       0.08306371      -0.06351951 </v>
   <v>       0.01237838      -0.03155119      -0.03745397 </v>
   <v>      -0.03169175      -0.02185318       0.08260937 </v>
   <v>       0.03305127       0.00535013       0.08909170 </v>
   <v>      -0.02930624       0.08390420      -0.02296617 </v>
   <v>       0.00407919       0.01643330      -0.00780526 </v>
   <v>       0.04208184       0.00968543       0.07719938 </v>
   <v>       0.02804052      -0.03915744      -0.04280554 </v>
   <v>      -0.07914722      -0.00427762       0.00653091 </v>
  </varray>
  <varray name="stress" >
   <v>      -0.87693925       0.00331363      -0.00132415 </v>
   <v>       0.00331363      -0.84208826      -0.00032104 </v>
   <v>      -0.00132416      -0.00032104      -0.80040599 </v>
  </varray>
  <energy>
   <i name="e_fr_energy">    -16.47855852 </i>
   <i name="e_wo_entrp">    -16.47855852 </i>
   <i name="e_0_energy">      0.00000000 </i>
  </energy>
  <time name="totalsc">    2.75    2.83</time>
 </calculation>
 <calculation>
  <scstep>
   <time name="dav">    0.50    0.50</time>
   <time name="total">    0.70    0.71</time>
   <energy>
    <i name="alphaZ">     15.07520288 </i>
    <i name="ewald">   8748.85077717 </i>
    <i name="hartreedc"> -18675.15087528 </i>
    <i name="XCdc">   -115.52747227 </i>
    <i name="pawpsdc">  10664.61359554 </i>
    <i name="pawaedc"> -10218.02310986 </i>
    <i name="eentropy">      0.00000000 </i>
    <i name="bandstr">   -808.30681757 </i>
    <i name="atom">  10371.98630086 </i>
    <i name="e_fr_energy">    -16.48239854 </i>
    <i name="e_wo_entrp">    -16.48239854 </i>
    <i name="e_0_energy">    -16.48239854 </i>
   </energy>
  </scstep>
  <scstep>
   <time name="dav">    0.49    0.49</time>
   <time name="total">    0.69    0.70</time>
   <energy>
    <i name="e_fr_energy">    -16.48531040 </i>
    <i name="e_wo_entrp">    -16.48531040 </i>
    <i name="e_0_energy">    -16.48531040 </i>
   </energy>
  </scstep>
  <scstep>
   <time name="dav">    0.50    0.50</time>
   <time name="total">    0.66    0.67</time>
   <energy>
    <i name="alphaZ">     15.07520288 </i>
    <i name="ewald">   8748.85077717 </i>
    <i name="hartreedc"> -18675.35129190 </i>
    <i name="XCdc">   -115.51795567 </i>
    <i name="pawpsdc">  10660.45879090 </i>
    <i name="pawaedc"> -10213.79807308 </i>
    <i name="eentropy">      0.00000000 </i>
    <i name="bandstr">   -808.18905013 </i>
    <i name="atom">  10371.98630086 </i>
    <i name="e_fr_energy">    -16.48529898 </i>
    <i name="e_wo_entrp">    -16.48529898 </i>
    <i name="e_0_energy">    -16.48529898 </i>
   </energy>
  </scstep>
  <structure>
   <crystal>
    <varray name="basis" >
     <v>      17.80260975       0.00000000       0.00000000 </v>
     <v>       0.00000000      17.80260975       0.00000000 </v>
     <v>       0.00000000       0.00000000      17.80260975 </v>
    </varray>
    <i name="volume">   5642.23298361 </i>
    <varray name="rec_basis" >
     <v>       0.05617154       0.00000000       0.00000000 </v>
     <v>       0.00000000       0.05617154       0.00000000 </v>
     <v>       0.00000000       0.00000000       0.05617154 </v>
    </varray>
   </crystal>
   <varray name="positions" >
    <v>       0.61405221       0.39001283       0.41695839 </v>
    <v>       0.60327078       0.67903370       0.46250591 </v>
    <v>       0.55139422       0.59319802       0.57968252 </v>
    <v>       0.56156260       0.53480072       0.42739594 </v>
    <v>       0.59583871       0.49424536       0.68862344 </v>
    <v>       0.55628688       0.43075276       0.55400342 </v>
    <v>       0.44946483       0.63305373       0.46994383 </v>
    <v>       0.44344830       0.49732385       0.63669383 </v>
    <v>       0.45696451       0.42123205       0.43533962 </v>
    <v>       0.36476785       0.51494960       0.50940433 </v>
   </varray>
  </structure>
  <varray name="forces" >
   <v>      -0.00915676      -0.05823029      -0.04210436 </v>
   <v>      -0.01352100       0.05689762      -0.05455004 </v>
   <v>       0.02770216      -0.01779723      -0.02717981 </v>
   <v>      -0.00363700      -0.02791406       0.05970926 </v>
   <v>       0.02225163       0.01142619       0.05733932 </v>
   <v>      -0.00414830       0.05743081      -0.03032468 </v>
   <v>      -0.01510344       0.00114752       0.00139763 </v>
   <v>       0.00837281       0.01870215       0.04537691 </v>
   <v>      -0.00113378      -0.02640059      -0.03121790 </v>
   <v>      -0.01162632      -0.01526212       0.02155366 </v>
  </varray>
  <varray name="stress" >
   <v>      -0.92178007       0.01357509      -0.00230463 </v>
   <v>       0.01357509      -0.90502195      -0.00277243 </v>
   <v>      -0.00230464      -0.00277243      -0.87975848 </v>
  </varray>
  <energy>
   <i name="e_fr_energy">    -16.48529898 </i>
   <i name="e_wo_entrp">    -16.48529898 </i>
   <i name="e_0_energy">      0.00000000 </i>
  </energy>
  <time name="totalsc">    2.88    2.95</time>
 </calculation>
 <calculation>
  <scstep>
   <time name="dav">    0.48    0.48</time>
   <time name="total">    0.68    0.69</time>
   <energy>
    <i name="alphaZ">     15.07520288 </i>
    <i name="ewald">   8696.58840918 </i>
    <i name="hartreedc"> -18623.44047804 </i>
    <i name="XCdc">   -115.62043774 </i>
    <i name="pawpsdc">  10658.31457812 </i>
    <i name="pawaedc"> -10211.61370504 </i>
    <i name="eentropy">      0.00000000 </i>
    <i name="bandstr">   -807.76512374 </i>
    <i name="atom">  10371.98630086 </i>
    <i name="e_fr_energy">    -16.47525352 </i>
    <i name="e_wo_entrp">    -16.47525352 </i>
    <i name="e_0_energy">    -16.47525352 </i>
   </energy>
  </scstep>
  <scstep>
   <time name="dav">    0.49    0.49</time>
   <time name="total">    0.70    0.70</time>
   <energy>
    <i name="e_fr_energy">    -16.48680604 </i>
    <i name="e_wo_entrp">    -16.48680604 </i>
    <i name="e_0_energy">    -16.48680604 </i>
   </energy>
  </scstep>
  <scstep>
   <time name="dav">    0.52    0.51</time>
   <time name="total">    0.71    0.74</time>
   <energy>
    <i name="e_fr_energy">    -16.48677130 </i>
    <i name="e_wo_entrp">    -16.48677130 </i>
    <i name="e_0_energy">    -16.48677130 </i>
   </energy>
  </scstep>
  <scstep>
   <time name="dav">    0.48    0.48</time>
   <time name="total">    0.68    0.69</time>
   <energy>
    <i name="e_fr_energy">    -16.48652160 </i>
    <i name="e_wo_entrp">    -16.48652160 </i>
    <i name="e_0_energy">    -16.48652160 </i>
   </energy>
  </scstep>
  <scstep>
   <time name="dav">    0.37    0.37</time>
   <time name="total">    0.53    0.59</time>
   <energy>
    <i name="alphaZ">     15.07520288 </i>
    <i name="ewald">   8696.58840918 </i>
    <i name="hartreedc"> -18624.18712242 </i>
    <i name="XCdc">   -115.59275945 </i>
    <i name="pawpsdc">  10643.44917748 </i>
    <i name="pawaedc"> -10196.47532475 </i>
    <i name="eentropy">      0.00000000 </i>
    <i name="bandstr">   -807.33044070 </i>
    <i name="atom">  10371.98630086 </i>
    <i name="e_fr_energy">    -16.48655692 </i>
    <i name="e_wo_entrp">    -16.48655692 </i>
    <i name="e_0_energy">    -16.48655692 </i>
   </energy>
  </scstep>
  <structure>
   <crystal>
    <varray name="basis" >
     <v>      17.80260975       0.00000000       0.00000000 </v>
     <v>       0.00000000      17.80260975       0.00000000 </v>
     <v>       0.00000000       0.00000000      17.80260975 </v>
    </varray>
    <i name="volume">   5642.23298361 </i>
    <varray name="rec_basis" >
     <v>       0.05617154       0.00000000       0.00000000 </v>
     <v>       0.00000000       0.05617154       0.00000000 </v>
     <v>       0.00000000       0.00000000       0.05617154 </v>
    </varray>
   </crystal>
   <varray name="positions" >
    <v>       0.61433845       0.38877975       0.41594702 </v>
    <v>       0.60338978       0.68001480       0.46179512 </v>
    <v>       0.55148638       0.59282526       0.57925223 </v>
    <v>       0.56114427       0.53459590       0.42833838 </v>
    <v>       0.59623653       0.49427908       0.68971949 </v>
    <v>       0.55590630       0.43171655       0.55379258 </v>
    <v>       0.44955463       0.63330925       0.46980778 </v>
    <v>       0.44397934       0.49738988       0.63763239 </v>
    <v>       0.45733765       0.42074175       0.43485533 </v>
    <v>       0.36367757       0.51495039       0.50941090 </v>
   </varray>
  </structure>
  <varray name="forces" >
   <v>      -0.05694328       0.02953042       0.02990748 </v>
   <v>      -0.04619011      -0.00337500      -0.03052615 </v>
   <v>       0.05614382       0.01034439      -0.00379537 </v>
   <v>       0.05092436      -0.03436751       0.00873292 </v>
   <v>      -0.00115100       0.02542371      -0.01891652 </v>
   <v>       0.04450715      -0.00413172      -0.03585898 </v>
   <v>      -0.04857192      -0.02547846       0.02091156 </v>
   <v>      -0.05438546       0.03421005      -0.01386142 </v>
   <v>      -0.05185030      -0.00042947      -0.00393645 </v>
   <v>       0.10751674      -0.03172641       0.04734294 </v>
  </varray>
  <varray name="stress" >
   <v>      -1.00868959       0.02264397      -0.00524689 </v>
   <v>       0.02264398      -1.01927411      -0.00814867 </v>
   <v>      -0.00524688      -0.00814867      -1.01383618 </v>
  </varray>
  <energy>
   <i name="e_fr_energy">    -16.48655692 </i>
   <i name="e_wo_entrp">    -16.48655692 </i>
   <i name="e_0_energy">      0.00000000 </i>
  </energy>
  <time name="totalsc">    4.13    4.25</time>
 </calculation>
 <calculation>
  <scstep>
   <time name="dav">    0.49    0.49</time>
   <time name="total">    0.69    0.70</time>
   <energy>
    <i name="alphaZ">     15.07520288 </i>
    <i name="ewald">   8705.47478649 </i>
    <i name="hartreedc"> -18633.02994354 </i>
    <i name="XCdc">   -115.57560993 </i>
    <i name="pawpsdc">  10643.33625377 </i>
    <i name="pawaedc"> -10196.35920873 </i>
    <i name="eentropy">      0.00000000 </i>
    <i name="bandstr">   -807.39643096 </i>
    <i name="atom">  10371.98630086 </i>
    <i name="e_fr_energy">    -16.48864916 </i>
    <i name="e_wo_entrp">    -16.48864916 </i>
    <i name="e_0_energy">    -16.48864916 </i>
   </energy>
  </scstep>
  <scstep>
   <time name="dav">    0.48    0.49</time>
   <time name="total">    0.68    0.69</time>
   <energy>
    <i name="e_fr_energy">    -16.48973867 </i>
    <i name="e_wo_entrp">    -16.48973867 </i>
    <i name="e_0_energy">    -16.48973867 </i>
   </energy>
  </scstep>
  <scstep>
   <time name="dav">    0.41    0.41</time>
   <time name="total">    0.57    0.58</time>
   <energy>
    <i name="alphaZ">     15.07520288 </i>
    <i name="ewald">   8705.47478649 </i>
    <i name="hartreedc"> -18632.91598623 </i>
    <i name="XCdc">   -115.57862519 </i>
    <i name="pawpsdc">  10644.70326279 </i>
    <i name="pawaedc"> -10197.74860424 </i>
    <i name="eentropy">      0.00000000 </i>
    <i name="bandstr">   -807.48615693 </i>
    <i name="atom">  10371.98630086 </i>
    <i name="e_fr_energy">    -16.48981957 </i>
    <i name="e_wo_entrp">    -16.48981957 </i>
    <i name="e_0_energy">    -16.48981957 </i>
   </energy>
  </scstep>
  <structure>
   <crystal>
    <varray name="basis" >
     <v>      17.80260975       0.00000000       0.00000000 </v>
     <v>       0.00000000      17.80260975       0.00000000 </v>
     <v>       0.00000000       0.00000000      17.80260975 </v>
    </varray>
    <i name="volume">   5642.23298361 </i>
    <varray name="rec_basis" >
     <v>       0.05617154       0.00000000       0.00000000 </v>
     <v>       0.00000000       0.05617154       0.00000000 </v>
     <v>       0.00000000       0.00000000       0.05617154 </v>
    </varray>
   </crystal>
   <varray name="positions" >
    <v>       0.61407842       0.38891460       0.41608360 </v>
    <v>       0.60317885       0.67999939       0.46165572 </v>
    <v>       0.55174276       0.59287250       0.57923490 </v>
    <v>       0.56137682       0.53443896       0.42837826 </v>
    <v>       0.59623127       0.49439518       0.68963311 </v>
    <v>       0.55610954       0.43169768       0.55362883 </v>
    <v>       0.44933282       0.63319290       0.46990327 </v>
    <v>       0.44373098       0.49754610       0.63756909 </v>
    <v>       0.45710088       0.42073979       0.43483735 </v>
    <v>       0.36416855       0.51480551       0.50962710 </v>
   </varray>
  </structure>
  <varray name="forces" >
   <v>      -0.03221781       0.00546230       0.00903265 </v>
   <v>      -0.03709243      -0.00320092      -0.02585381 </v>
   <v>       0.03403114       0.00442650      -0.00716952 </v>
   <v>       0.02250791      -0.00352895       0.00743319 </v>
   <v>      -0.00650883       0.01812305      -0.02081416 </v>
   <v>       0.01301244       0.00825033       0.00403706 </v>
   <v>      -0.01731993      -0.01677093       0.01231966 </v>
   <v>      -0.00256561       0.02156757       0.00449333 </v>
   <v>      -0.02990067      -0.00694610      -0.01062861 </v>
   <v>       0.05605378      -0.02738285       0.02715020 </v>
  </varray>
  <varray name="stress" >
   <v>      -1.00258268       0.01898660      -0.00281145 </v>
   <v>       0.01898660      -0.98447772      -0.01281821 </v>
   <v>      -0.00281145      -0.01281821      -0.96802793 </v>
  </varray>
  <energy>
   <i name="e_fr_energy">    -16.48981957 </i>
   <i name="e_wo_entrp">    -16.48981957 </i>
   <i name="e_0_energy">      0.00000000 </i>
  </energy>
  <time name="totalsc">    2.78    2.84</time>
 </calculation>
 <calculation>
  <scstep>
   <time name="dav">    0.50    0.50</time>
   <time name="total">    0.70    0.71</time>
   <energy>
    <i name="alphaZ">     15.07520288 </i>
    <i name="ewald">   8707.95561076 </i>
    <i name="hartreedc"> -18635.34707316 </i>
    <i name="XCdc">   -115.57440543 </i>
    <i name="pawpsdc">  10645.32218804 </i>
    <i name="pawaedc"> -10198.38011653 </i>
    <i name="eentropy">      0.00000000 </i>
    <i name="bandstr">   -807.52813637 </i>
    <i name="atom">  10371.98630086 </i>
    <i name="e_fr_energy">    -16.49042893 </i>
    <i name="e_wo_entrp">    -16.49042893 </i>
    <i name="e_0_energy">    -16.49042893 </i>
   </energy>
  </scstep>
  <scstep>
   <time name="dav">    0.50    0.50</time>
   <time name="total">    0.70    0.71</time>
   <energy>
    <i name="e_fr_energy">    -16.49053023 </i>
    <i name="e_wo_entrp">    -16.49053023 </i>
    <i name="e_0_energy">    -16.49053023 </i>
   </energy>
  </scstep>
  <scstep>
   <time name="dav">    0.36    0.36</time>
   <time name="total">    0.52    0.53</time>
   <energy>
    <i name="alphaZ">     15.07520288 </i>
    <i name="ewald">   8707.95561076 </i>
    <i name="hartreedc"> -18635.31323829 </i>
    <i name="XCdc">   -115.57546522 </i>
    <i name="pawpsdc">  10645.93625256 </i>
    <i name="pawaedc"> -10199.00663608 </i>
    <i name="eentropy">      0.00000000 </i>
    <i name="bandstr">   -807.54857602 </i>
    <i name="atom">  10371.98630086 </i>
    <i name="e_fr_energy">    -16.49054854 </i>
    <i name="e_wo_entrp">    -16.49054854 </i>
    <i name="e_0_energy">    -16.49054854 </i>
   </energy>
  </scstep>
  <structure>
   <crystal>
    <varray name="basis" >
     <v>      17.80260975       0.00000000       0.00000000 </v>
     <v>       0.00000000      17.80260975       0.00000000 </v>
     <v>       0.00000000       0.00000000      17.80260975 </v>
    </varray>
    <i name="volume">   5642.23298361 </i>
    <varray name="rec_basis" >
     <v>       0.05617154       0.00000000       0.00000000 </v>
     <v>       0.00000000       0.05617154       0.00000000 </v>
     <v>       0.00000000       0.00000000       0.05617154 </v>
    </varray>
   </crystal>
   <varray name="positions" >
    <v>       0.61400595       0.38895218       0.41612166 </v>
    <v>       0.60312006       0.67999509       0.46161688 </v>
    <v>       0.55181421       0.59288567       0.57923007 </v>
    <v>       0.56144162       0.53439522       0.42838938 </v>
    <v>       0.59622981       0.49442753       0.68960904 </v>
    <v>       0.55616618       0.43169242       0.55358319 </v>
    <v>       0.44927101       0.63316048       0.46992989 </v>
    <v>       0.44366177       0.49758964       0.63755145 </v>
    <v>       0.45703489       0.42073924       0.43483234 </v>
    <v>       0.36430538       0.51476514       0.50968735 </v>
   </varray>
  </structure>
  <varray name="forces" >
   <v>      -0.03286580       0.00138252       0.00627934 </v>
   <v>      -0.04056818      -0.00290700      -0.02940452 </v>
   <v>       0.03619047       0.00344743      -0.00880320 </v>
   <v>       0.02116784      -0.00067154       0.01003286 </v>
   <v>      -0.00741614       0.02045751      -0.02232371 </v>
   <v>       0.01029460       0.01214611       0.00903525 </v>
   <v>      -0.01601133      -0.01763191       0.01279720 </v>
   <v>       0.00391670       0.02235783       0.00886093 </v>
   <v>      -0.03080573      -0.00945945      -0.01315394 </v>
   <v>       0.05609756      -0.02912149       0.02667978 </v>
  </varray>
  <varray name="stress" >
   <v>      -0.99486929       0.02032456      -0.00220857 </v>
   <v>       0.02032457      -0.98221523      -0.01411546 </v>
   <v>      -0.00220857      -0.01411546      -0.96499620 </v>
  </varray>
  <energy>
   <i name="e_fr_energy">    -16.49054854 </i>
   <i name="e_wo_entrp">    -16.49054854 </i>
   <i name="e_0_energy">      0.00000000 </i>
  </energy>
  <time name="totalsc">    2.76    2.81</time>
 </calculation>
 <calculation>
  <scstep>
   <time name="dav">    0.50    0.49</time>
   <time name="total">    0.69    0.71</time>
   <energy>
    <i name="alphaZ">     15.07520288 </i>
    <i name="ewald">   8713.15529031 </i>
    <i name="hartreedc"> -18640.46658243 </i>
    <i name="XCdc">   -115.56484860 </i>
    <i name="pawpsdc">  10646.19927892 </i>
    <i name="pawaedc"> -10199.27573972 </i>
    <i name="eentropy">      0.00000000 </i>
    <i name="bandstr">   -807.60016764 </i>
    <i name="atom">  10371.98630086 </i>
    <i name="e_fr_energy">    -16.49126542 </i>
    <i name="e_wo_entrp">    -16.49126542 </i>
    <i name="e_0_energy">    -16.49126542 </i>
   </energy>
  </scstep>
  <scstep>
   <time name="dav">    0.48    0.48</time>
   <time name="total">    0.68    0.69</time>
   <energy>
    <i name="e_fr_energy">    -16.49147373 </i>
    <i name="e_wo_entrp">    -16.49147373 </i>
    <i name="e_0_energy">    -16.49147373 </i>
   </energy>
  </scstep>
  <scstep>
   <time name="dav">    0.35    0.35</time>
   <time name="total">    0.52    0.52</time>
   <energy>
    <i name="alphaZ">     15.07520288 </i>
    <i name="ewald">   8713.15529031 </i>
    <i name="hartreedc"> -18640.40882150 </i>
    <i name="XCdc">   -115.56673456 </i>
    <i name="pawpsdc">  10647.00634443 </i>
    <i name="pawaedc"> -10200.09664088 </i>
    <i name="eentropy">      0.00000000 </i>
    <i name="bandstr">   -807.64241257 </i>
    <i name="atom">  10371.98630086 </i>
    <i name="e_fr_energy">    -16.49147105 </i>
    <i name="e_wo_entrp">    -16.49147105 </i>
    <i name="e_0_energy">    -16.49147105 </i>
   </energy>
  </scstep>
  <structure>
   <crystal>
    <varray name="basis" >
     <v>      17.80260975       0.00000000       0.00000000 </v>
     <v>       0.00000000      17.80260975       0.00000000 </v>
     <v>       0.00000000       0.00000000      17.80260975 </v>
    </varray>
    <i name="volume">   5642.23298361 </i>
    <varray name="rec_basis" >
     <v>       0.05617154       0.00000000       0.00000000 </v>
     <v>       0.00000000       0.05617154       0.00000000 </v>
     <v>       0.00000000       0.00000000       0.05617154 </v>
    </varray>
   </crystal>
   <varray name="positions" >
    <v>       0.61388957       0.38893703       0.41612983 </v>
    <v>       0.60295861       0.67998357       0.46149767 </v>
    <v>       0.55194721       0.59289464       0.57919043 </v>
    <v>       0.56150605       0.53441738       0.42843129 </v>
    <v>       0.59619490       0.49450737       0.68951539 </v>
    <v>       0.55618293       0.43175403       0.55365325 </v>
    <v>       0.44922970       0.63309430       0.46997613 </v>
    <v>       0.44372084       0.49767215       0.63760441 </v>
    <v>       0.45692469       0.42069395       0.43477184 </v>
    <v>       0.36449639       0.51464818       0.50978099 </v>
   </varray>
  </structure>
  <varray name="forces" >
   <v>      -0.03194080       0.00370419       0.00863107 </v>
   <v>      -0.03047413       0.00561241      -0.02688265 </v>
   <v>       0.02909995       0.00852916      -0.00878349 </v>
   <v>       0.01388317      -0.01398137       0.00635157 </v>
   <v>       0.00193329       0.01845166      -0.00605847 </v>
   <v>       0.00514260       0.00243190      -0.01124068 </v>
   <v>      -0.01684973      -0.01324084       0.01105803 </v>
   <v>      -0.00238407       0.02074061       0.01250880 </v>
   <v>      -0.01491701      -0.00736615      -0.01034448 </v>
   <v>       0.04650673      -0.02488157       0.02476029 </v>
  </varray>
  <varray name="stress" >
   <v>      -0.98573113       0.01797508      -0.00303969 </v>
   <v>       0.01797507      -0.97025649      -0.01169703 </v>
   <v>      -0.00303970      -0.01169704      -0.95201907 </v>
  </varray>
  <energy>
   <i name="e_fr_energy">    -16.49147105 </i>
   <i name="e_wo_entrp">    -16.49147105 </i>
   <i name="e_0_energy">      0.00000000 </i>
  </energy>
  <time name="totalsc">    2.73    4.23</time>
 </calculation>
 <calculation>
  <scstep>
   <time name="dav">    0.48    0.48</time>
   <time name="total">    0.68    0.69</time>
   <energy>
    <i name="alphaZ">     15.07520288 </i>
    <i name="ewald">   8728.57926000 </i>
    <i name="hartreedc"> -18655.71718482 </i>
    <i name="XCdc">   -115.53423202 </i>
    <i name="pawpsdc">  10647.37827497 </i>
    <i name="pawaedc"> -10200.47615997 </i>
    <i name="eentropy">      0.00000000 </i>
    <i name="bandstr">   -807.78279915 </i>
    <i name="atom">  10371.98630086 </i>
    <i name="e_fr_energy">    -16.49133724 </i>
    <i name="e_wo_entrp">    -16.49133724 </i>
    <i name="e_0_energy">    -16.49133724 </i>
   </energy>
  </scstep>
  <scstep>
   <time name="dav">    0.48    0.48</time>
   <time name="total">    0.68    0.68</time>
   <energy>
    <i name="e_fr_energy">    -16.49313250 </i>
    <i name="e_wo_entrp">    -16.49313250 </i>
    <i name="e_0_energy">    -16.49313250 </i>
   </energy>
  </scstep>
  <scstep>
   <time name="dav">    0.48    0.48</time>
   <time name="total">    0.64    0.64</time>
   <energy>
    <i name="alphaZ">     15.07520288 </i>
    <i name="ewald">   8728.57926000 </i>
    <i name="hartreedc"> -18655.53514574 </i>
    <i name="XCdc">   -115.53990606 </i>
    <i name="pawpsdc">  10649.98100067 </i>
    <i name="pawaedc"> -10203.12242001 </i>
    <i name="eentropy">      0.00000000 </i>
    <i name="bandstr">   -807.91738081 </i>
    <i name="atom">  10371.98630086 </i>
    <i name="e_fr_energy">    -16.49308821 </i>
    <i name="e_wo_entrp">    -16.49308821 </i>
    <i name="e_0_energy">    -16.49308821 </i>
   </energy>
  </scstep>
  <structure>
   <crystal>
    <varray name="basis" >
     <v>      17.80260975       0.00000000       0.00000000 </v>
     <v>       0.00000000      17.80260975       0.00000000 </v>
     <v>       0.00000000       0.00000000      17.80260975 </v>
    </varray>
    <i name="volume">   5642.23298361 </i>
    <varray name="rec_basis" >
     <v>       0.05617154       0.00000000       0.00000000 </v>
     <v>       0.00000000       0.05617154       0.00000000 </v>
     <v>       0.00000000       0.00000000       0.05617154 </v>
    </varray>
   </crystal>
   <varray name="positions" >
    <v>       0.61354375       0.38889200       0.41615413 </v>
    <v>       0.60247883       0.67994933       0.46114343 </v>
    <v>       0.55234241       0.59292132       0.57907265 </v>
    <v>       0.56169750       0.53448321       0.42855585 </v>
    <v>       0.59609119       0.49474463       0.68923711 </v>
    <v>       0.55623269       0.43193711       0.55386142 </v>
    <v>       0.44910696       0.63289764       0.47011356 </v>
    <v>       0.44389636       0.49791735       0.63776179 </v>
    <v>       0.45659719       0.42055938       0.43459203 </v>
    <v>       0.36506400       0.51430064       0.51005927 </v>
   </varray>
  </structure>
  <varray name="forces" >
   <v>      -0.03401498       0.00543620       0.01220248 </v>
   <v>      -0.01379891       0.03068214      -0.02975139 </v>
   <v>       0.01567362       0.02312420      -0.01328257 </v>
   <v>      -0.00580087      -0.04464304      -0.00121112 </v>
   <v>       0.02678508       0.01834440       0.03404781 </v>
   <v>      -0.01330213      -0.01849939      -0.05783140 </v>
   <v>      -0.01658828      -0.00481466       0.00844136 </v>
   <v>      -0.00633489       0.02083013       0.03153082 </v>
   <v>       0.02676461      -0.00719026      -0.00946817 </v>
   <v>       0.02061675      -0.02326971       0.02532218 </v>
  </varray>
  <varray name="stress" >
   <v>      -0.96227094       0.01024407      -0.00500525 </v>
   <v>       0.01024407      -0.93070062      -0.00560763 </v>
   <v>      -0.00500525      -0.00560763      -0.90742964 </v>
  </varray>
  <energy>
   <i name="e_fr_energy">    -16.49308821 </i>
   <i name="e_wo_entrp">    -16.49308821 </i>
   <i name="e_0_energy">      0.00000000 </i>
  </energy>
  <time name="totalsc">    2.82    3.79</time>
 </calculation>
 <calculation>
  <scstep>
   <time name="dav">    0.48    0.48</time>
   <time name="total">    0.68    0.69</time>
   <energy>
    <i name="alphaZ">     15.07520288 </i>
    <i name="ewald">   8729.41653351 </i>
    <i name="hartreedc"> -18656.29513759 </i>
    <i name="XCdc">   -115.53914323 </i>
    <i name="pawpsdc">  10651.07351653 </i>
    <i name="pawaedc"> -10204.23751358 </i>
    <i name="eentropy">      0.00000000 </i>
    <i name="bandstr">   -807.97343961 </i>
    <i name="atom">  10371.98630086 </i>
    <i name="e_fr_energy">    -16.49368024 </i>
    <i name="e_wo_entrp">    -16.49368024 </i>
    <i name="e_0_energy">    -16.49368024 </i>
   </energy>
  </scstep>
  <scstep>
   <time name="dav">    0.49    0.49</time>
   <time name="total">    0.69    0.69</time>
   <energy>
    <i name="e_fr_energy">    -16.49385646 </i>
    <i name="e_wo_entrp">    -16.49385646 </i>
    <i name="e_0_energy">    -16.49385646 </i>
   </energy>
  </scstep>
  <scstep>
   <time name="dav">    0.36    0.36</time>
   <time name="total">    0.52    0.52</time>
   <energy>
    <i name="alphaZ">     15.07520288 </i>
    <i name="ewald">   8729.41653351 </i>
    <i name="hartreedc"> -18656.27067006 </i>
    <i name="XCdc">   -115.53967869 </i>
    <i name="pawpsdc">  10651.56224910 </i>
    <i name="pawaedc"> -10204.73705897 </i>
    <i name="eentropy">     -0.00000000 </i>
    <i name="bandstr">   -807.98675283 </i>
    <i name="atom">  10371.98630086 </i>
    <i name="e_fr_energy">    -16.49387420 </i>
    <i name="e_wo_entrp">    -16.49387420 </i>
    <i name="e_0_energy">    -16.49387420 </i>
   </energy>
  </scstep>
  <structure>
   <crystal>
    <varray name="basis" >
     <v>      17.80260975       0.00000000       0.00000000 </v>
     <v>       0.00000000      17.80260975       0.00000000 </v>
     <v>       0.00000000       0.00000000      17.80260975 </v>
    </varray>
    <i name="volume">   5642.23298361 </i>
    <varray name="rec_basis" >
     <v>       0.05617154       0.00000000       0.00000000 </v>
     <v>       0.00000000       0.05617154       0.00000000 </v>
     <v>       0.00000000       0.00000000       0.05617154 </v>
    </varray>
   </crystal>
   <varray name="positions" >
    <v>       0.61341254       0.38889872       0.41618703 </v>
    <v>       0.60237738       0.68001851       0.46102132 </v>
    <v>       0.55243637       0.59298092       0.57902386 </v>
    <v>       0.56171069       0.53438483       0.42857062 </v>
    <v>       0.59614109       0.49482260       0.68927975 </v>
    <v>       0.55620766       0.43191847       0.55375143 </v>
    <v>       0.44904950       0.63285809       0.47015345 </v>
    <v>       0.44390600       0.49800244       0.63786024 </v>
    <v>       0.45661527       0.42052291       0.43454364 </v>
    <v>       0.36519438       0.51419511       0.51015991 </v>
   </varray>
  </structure>
  <varray name="forces" >
   <v>      -0.02278128      -0.00535958       0.00312305 </v>
   <v>      -0.01755110       0.02165385      -0.02786055 </v>
   <v>       0.01643796       0.01392343      -0.01116896 </v>
   <v>      -0.00471525      -0.02084933       0.00055030 </v>
   <v>       0.01854599       0.01889911       0.01696929 </v>
   <v>      -0.01489328      -0.00599826      -0.02280843 </v>
   <v>      -0.00997838      -0.00690120       0.00716151 </v>
   <v>       0.00698162       0.01842213       0.02881725 </v>
   <v>       0.01255037      -0.01184809      -0.01451465 </v>
   <v>       0.01540335      -0.02194207       0.01973120 </v>
  </varray>
  <varray name="stress" >
   <v>      -0.95266246       0.01306157      -0.00430086 </v>
   <v>       0.01306157      -0.93509025      -0.01101242 </v>
   <v>      -0.00430086      -0.01101241      -0.90879928 </v>
  </varray>
  <energy>
   <i name="e_fr_energy">    -16.49387420 </i>
   <i name="e_wo_entrp">    -16.49387420 </i>
   <i name="e_0_energy">     -0.00000000 </i>
  </energy>
  <time name="totalsc">    2.72    2.74</time>
 </calculation>
 <calculation>
  <scstep>
   <time name="dav">    0.48    0.48</time>
   <time name="total">    0.67    0.69</time>
   <energy>
    <i name="alphaZ">     15.07520288 </i>
    <i name="ewald">   8731.73453156 </i>
    <i name="hartreedc"> -18658.55670482 </i>
    <i name="XCdc">   -115.53421752 </i>
    <i name="pawpsdc">  10651.78939132 </i>
    <i name="pawaedc"> -10204.97000178 </i>
    <i name="eentropy">      0.00000000 </i>
    <i name="bandstr">   -808.01851189 </i>
    <i name="atom">  10371.98630086 </i>
    <i name="e_fr_energy">    -16.49400940 </i>
    <i name="e_wo_entrp">    -16.49400940 </i>
    <i name="e_0_energy">    -16.49400940 </i>
   </energy>
  </scstep>
  <scstep>
   <time name="dav">    0.48    0.48</time>
   <time name="total">    0.68    0.68</time>
   <energy>
    <i name="e_fr_energy">    -16.49527136 </i>
    <i name="e_wo_entrp">    -16.49527136 </i>
    <i name="e_0_energy">    -16.49527136 </i>
   </energy>
  </scstep>
  <scstep>
   <time name="dav">    0.37    0.37</time>
   <time name="total">    0.54    0.54</time>
   <energy>
    <i name="alphaZ">     15.07520288 </i>
    <i name="ewald">   8731.73453156 </i>
    <i name="hartreedc"> -18658.50882080 </i>
    <i name="XCdc">   -115.53493289 </i>
    <i name="pawpsdc">  10652.33996651 </i>
    <i name="pawaedc"> -10205.52962010 </i>
    <i name="eentropy">      0.00000000 </i>
    <i name="bandstr">   -808.05789060 </i>
    <i name="atom">  10371.98630086 </i>
    <i name="e_fr_energy">    -16.49526259 </i>
    <i name="e_wo_entrp">    -16.49526259 </i>
    <i name="e_0_energy">    -16.49526259 </i>
   </energy>
  </scstep>
  <structure>
   <crystal>
    <varray name="basis" >
     <v>      17.80260975       0.00000000       0.00000000 </v>
     <v>       0.00000000      17.80260975       0.00000000 </v>
     <v>       0.00000000       0.00000000      17.80260975 </v>
    </varray>
    <i name="volume">   5642.23298361 </i>
    <varray name="rec_basis" >
     <v>       0.05617154       0.00000000       0.00000000 </v>
     <v>       0.00000000       0.05617154       0.00000000 </v>
     <v>       0.00000000       0.00000000       0.05617154 </v>
    </varray>
   </crystal>
   <varray name="positions" >
    <v>       0.61304818       0.38891739       0.41627839 </v>
    <v>       0.60209567       0.68021063       0.46068221 </v>
    <v>       0.55269730       0.59314641       0.57888839 </v>
    <v>       0.56174733       0.53411162       0.42861164 </v>
    <v>       0.59627968       0.49503913       0.68939815 </v>
    <v>       0.55613815       0.43186671       0.55344598 </v>
[...]
       <r>    -1.7298     0.0000    60.0000 </r>
       <r>    -1.6936     0.0000    60.0000 </r>
       <r>    -1.6574     0.0000    60.0000 </r>
       <r>    -1.6211     0.0000    60.0000 </r>
       <r>    -1.5849     0.0000    60.0000 </r>
       <r>    -1.5487     0.0000    60.0000 </r>
       <r>    -1.5124     0.0000    60.0000 </r>
       <r>    -1.4762     0.0000    60.0000 </r>
       <r>    -1.4400     0.0000    60.0000 </r>
       <r>    -1.4037     0.0000    60.0000 </r>
       <r>    -1.3675     0.0000    60.0000 </r>
       <r>    -1.3312     0.0000    60.0000 </r>
       <r>    -1.2950     0.0000    60.0000 </r>
       <r>    -1.2588     0.0000    62.0000 </r>
       <r>    -1.2225     0.0000    62.0000 </r>
       <r>    -1.1863     0.0000    62.0000 </r>
       <r>    -1.1501     0.0000    62.0000 </r>
       <r>    -1.1138     0.0000    62.0000 </r>
       <r>    -1.0776     0.0000    62.0000 </r>
       <r>    -1.0414     0.0000    62.0000 </r>
       <r>    -1.0051     0.0000    62.0000 </r>
       <r>    -0.9689     0.0000    62.0000 </r>
       <r>    -0.9327     0.0000    62.0000 </r>
       <r>    -0.8964     0.0000    63.0000 </r>
       <r>    -0.8602     0.0000    63.0000 </r>
       <r>    -0.8240     0.0000    63.0000 </r>
       <r>    -0.7877     0.0000    63.0000 </r>
       <r>    -0.7515     0.0000    63.0000 </r>
       <r>    -0.7153     0.0000    63.0000 </r>
       <r>    -0.6790     0.0000    63.0000 </r>
       <r>    -0.6428     0.0000    63.0000 </r>
       <r>    -0.6066     0.0000    63.0000 </r>
       <r>    -0.5703     0.0000    64.0000 </r>
       <r>    -0.5341     0.0000    66.0000 </r>
       <r>    -0.4979     0.0000    66.0000 </r>
       <r>    -0.4616     0.0000    66.0000 </r>
       <r>    -0.4254     0.0000    66.0000 </r>
       <r>    -0.3891     0.0000    66.0000 </r>
       <r>    -0.3529     0.0000    66.0000 </r>
       <r>    -0.3167     0.0000    67.0000 </r>
       <r>    -0.2804     0.0000    68.0000 </r>
       <r>    -0.2442     0.0000    68.0000 </r>
       <r>    -0.2080     0.0000    68.0000 </r>
       <r>    -0.1717     0.0000    68.0000 </r>
       <r>    -0.1355     0.0000    69.0000 </r>
       <r>    -0.0993     0.0000    69.0000 </r>
       <r>    -0.0630     0.0000    69.0000 </r>
       <r>    -0.0268     0.0000    69.0000 </r>
       <r>     0.0094     0.0000    70.0000 </r>
       <r>     0.0457     0.0000    70.0000 </r>
       <r>     0.0819     0.0000    70.0000 </r>
       <r>     0.1181     0.0000    70.0000 </r>
       <r>     0.1544     0.0000    70.0000 </r>
       <r>     0.1906     0.0000    70.0000 </r>
       <r>     0.2268     0.0000    71.0000 </r>
       <r>     0.2631     0.0000    71.0000 </r>
       <r>     0.2993     0.0000    71.0000 </r>
       <r>     0.3355     0.0000    71.0000 </r>
       <r>     0.3718     0.0000    71.0000 </r>
       <r>     0.4080     0.0000    71.0000 </r>
       <r>     0.4442     0.0000    71.0000 </r>
       <r>     0.4805     0.0000    72.0000 </r>
       <r>     0.5167     0.0000    72.0000 </r>
       <r>     0.5530     0.0000    72.0000 </r>
       <r>     0.5892     0.0000    72.0000 </r>
       <r>     0.6254     0.0000    72.0000 </r>
       <r>     0.6617     0.0000    72.0000 </r>
       <r>     0.6979     0.0000    72.0000 </r>
       <r>     0.7341     0.0000    72.0000 </r>
       <r>     0.7704     0.0000    72.0000 </r>
       <r>     0.8066     0.0000    72.0000 </r>
       <r>     0.8428     0.0000    72.0000 </r>
       <r>     0.8791     0.0000    72.0000 </r>
       <r>     0.9153     0.0000    72.0000 </r>
       <r>     0.9515     0.0000    72.0000 </r>
       <r>     0.9878     0.0000    72.0000 </r>
       <r>     1.0240     0.0000    72.0000 </r>
       <r>     1.0602     0.0000    72.0000 </r>
       <r>     1.0965     0.0000    72.0000 </r>
      </set>
      <set comment="spin 2">
       <r>    -9.7739     0.0000     0.0000 </r>
       <r>    -9.7377     0.0000     0.0000 </r>
       <r>    -9.7014     0.0000     0.0000 </r>
       <r>    -9.6652     0.0000     0.0000 </r>
       <r>    -9.6290     0.0000     0.0000 </r>
       <r>    -9.5927     0.0000     0.0000 </r>
       <r>    -9.5565     0.0000     0.0000 </r>
       <r>    -9.5203     0.0000     0.0000 </r>
       <r>    -9.4840     0.0000     0.0000 </r>
       <r>    -9.4478     0.0000     0.0000 </r>
       <r>    -9.4116     0.0000     0.0000 </r>
       <r>    -9.3753     0.0000     0.0000 </r>
       <r>    -9.3391     0.0000     0.0000 </r>
       <r>    -9.3029     0.0000     0.0000 </r>
       <r>    -9.2666     0.0000     0.0000 </r>
       <r>    -9.2304     0.0000     1.0000 </r>
       <r>    -9.1942     0.0000     1.0000 </r>
       <r>    -9.1579     0.0000     1.0000 </r>
       <r>    -9.1217     0.0000     1.0000 </r>
       <r>    -9.0854     0.0000     1.0000 </r>
       <r>    -9.0492     0.0000     2.0000 </r>
       <r>    -9.0130     0.0000     3.0000 </r>
       <r>    -8.9767     0.0000     3.0000 </r>
       <r>    -8.9405     0.0000     3.0000 </r>
       <r>    -8.9043     0.0000     3.0000 </r>
       <r>    -8.8680     0.0000     3.0000 </r>
       <r>    -8.8318     0.0000     3.0000 </r>
       <r>    -8.7956     0.0000     3.0000 </r>
       <r>    -8.7593     0.0000     3.0000 </r>
       <r>    -8.7231     0.0000     4.0000 </r>
       <r>    -8.6869     0.0000     4.0000 </r>
       <r>    -8.6506     0.0000     4.0000 </r>
       <r>    -8.6144     0.0000     4.0000 </r>
       <r>    -8.5782     0.0000     4.0000 </r>
       <r>    -8.5419     0.0000     5.0000 </r>
       <r>    -8.5057     0.0000     6.0000 </r>
       <r>    -8.4695     0.0000     6.0000 </r>
       <r>    -8.4332     0.0000     6.0000 </r>
       <r>    -8.3970     0.0000     7.0000 </r>
       <r>    -8.3608     0.0000     7.0000 </r>
       <r>    -8.3245     0.0000     9.0000 </r>
       <r>    -8.2883     0.0000    10.0000 </r>
       <r>    -8.2521     0.0000    10.0000 </r>
       <r>    -8.2158     0.0000    11.0000 </r>
       <r>    -8.1796     0.0000    12.0000 </r>
       <r>    -8.1433     0.0000    14.0000 </r>
       <r>    -8.1071     0.0000    14.0000 </r>
       <r>    -8.0709     0.0000    15.0000 </r>
       <r>    -8.0346     0.0000    15.0000 </r>
       <r>    -7.9984     0.0000    15.0000 </r>
       <r>    -7.9622     0.0000    15.0000 </r>
       <r>    -7.9259     0.0000    15.0000 </r>
       <r>    -7.8897     0.0000    15.0000 </r>
       <r>    -7.8535     0.0000    15.0000 </r>
       <r>    -7.8172     0.0000    17.0000 </r>
       <r>    -7.7810     0.0000    18.0000 </r>
       <r>    -7.7448     0.0000    18.0000 </r>
       <r>    -7.7085     0.0000    19.0000 </r>
       <r>    -7.6723     0.0000    19.0000 </r>
       <r>    -7.6361     0.0000    19.0000 </r>
       <r>    -7.5998     0.0000    20.0000 </r>
       <r>    -7.5636     0.0000    20.0000 </r>
       <r>    -7.5274     0.0000    20.0000 </r>
       <r>    -7.4911     0.0000    23.0000 </r>
       <r>    -7.4549     0.0000    23.0000 </r>
       <r>    -7.4187     0.0000    24.0000 </r>
       <r>    -7.3824     0.0000    24.0000 </r>
       <r>    -7.3462     0.0000    27.0000 </r>
       <r>    -7.3100    27.5944    27.9999 </r>
       <r>    -7.2737     0.0000    29.0000 </r>
       <r>    -7.2375     0.0000    30.0000 </r>
       <r>    -7.2012     0.0000    31.0000 </r>
       <r>    -7.1650     0.0000    31.0000 </r>
       <r>    -7.1288     0.0000    31.0000 </r>
       <r>    -7.0925     0.0000    32.0000 </r>
       <r>    -7.0563     0.0000    33.0000 </r>
       <r>    -7.0201     0.0630    36.0023 </r>
       <r>    -6.9838     0.0000    37.0000 </r>
       <r>    -6.9476     0.0000    39.0000 </r>
       <r>    -6.9114     0.0000    40.0000 </r>
       <r>    -6.8751     0.0000    41.0000 </r>
       <r>    -6.8389     0.0000    41.0000 </r>
       <r>    -6.8027     0.0000    42.0000 </r>
       <r>    -6.7664     0.0000    43.0000 </r>
       <r>    -6.7302     0.0000    44.0000 </r>
       <r>    -6.6940     0.0000    45.0000 </r>
       <r>    -6.6577     0.0000    45.0000 </r>
       <r>    -6.6215     0.0000    46.0000 </r>
       <r>    -6.5853     0.0000    48.0000 </r>
       <r>    -6.5490     0.0000    48.0000 </r>
       <r>    -6.5128     0.0000    48.0000 </r>
       <r>    -6.4766     0.0000    48.0000 </r>
       <r>    -6.4403     0.0000    48.0000 </r>
       <r>    -6.4041     0.0000    49.0000 </r>
       <r>    -6.3679     0.0000    49.0000 </r>
       <r>    -6.3316     0.0000    49.0000 </r>
       <r>    -6.2954     0.0000    51.0000 </r>
       <r>    -6.2592     0.0000    51.0000 </r>
       <r>    -6.2229     0.0000    51.0000 </r>
       <r>    -6.1867     0.0000    51.0000 </r>
       <r>    -6.1504     0.0000    51.0000 </r>
       <r>    -6.1142     0.0000    51.0000 </r>
       <r>    -6.0780     0.0000    51.0000 </r>
       <r>    -6.0417     0.0000    51.0000 </r>
       <r>    -6.0055     0.0000    51.0000 </r>
       <r>    -5.9693     0.0000    51.0000 </r>
       <r>    -5.9330     0.0000    51.0000 </r>
       <r>    -5.8968     0.0000    51.0000 </r>
       <r>    -5.8606     0.0000    51.0000 </r>
       <r>    -5.8243     0.0000    51.0000 </r>
       <r>    -5.7881     0.0000    51.0000 </r>
       <r>    -5.7519     0.0000    51.0000 </r>
       <r>    -5.7156     0.0000    51.0000 </r>
       <r>    -5.6794     0.0000    51.0000 </r>
       <r>    -5.6432     0.0000    51.0000 </r>
       <r>    -5.6069     0.0000    51.0000 </r>
       <r>    -5.5707     0.0000    51.0000 </r>
       <r>    -5.5345     0.0000    52.0000 </r>
       <r>    -5.4982     0.0000    53.0000 </r>
       <r>    -5.4620     0.0000    53.0000 </r>
       <r>    -5.4258     0.0000    53.0000 </r>
       <r>    -5.3895     0.0000    53.0000 </r>
       <r>    -5.3533     0.0000    53.0000 </r>
       <r>    -5.3171     0.0000    53.0000 </r>
       <r>    -5.2808     0.0000    53.0000 </r>
       <r>    -5.2446     0.0000    53.0000 </r>
       <r>    -5.2083     0.0000    53.0000 </r>
       <r>    -5.1721     0.0000    53.0000 </r>
       <r>    -5.1359     0.0000    53.0000 </r>
       <r>    -5.0996     0.0000    53.0000 </r>
       <r>    -5.0634     0.0000    53.0000 </r>
       <r>    -5.0272     0.0000    53.0000 </r>
       <r>    -4.9909     0.0000    53.0000 </r>
       <r>    -4.9547     0.0000    53.0000 </r>
       <r>    -4.9185     0.0000    53.0000 </r>
       <r>    -4.8822     0.0000    53.0000 </r>
       <r>    -4.8460     0.0000    54.0000 </r>
       <r>    -4.8098     0.0000    54.0000 </r>
       <r>    -4.7735     0.0000    54.0000 </r>
       <r>    -4.7373     0.0000    54.0000 </r>
       <r>    -4.7011     0.0000    54.0000 </r>
       <r>    -4.6648     0.0000    54.0000 </r>
       <r>    -4.6286     0.0000    54.0000 </r>
       <r>    -4.5924     0.0000    54.0000 </r>
       <r>    -4.5561     0.0000    54.0000 </r>
       <r>    -4.5199     0.0000    54.0000 </r>
       <r>    -4.4837     0.0000    54.0000 </r>
       <r>    -4.4474     0.0000    54.0000 </r>
       <r>    -4.4112     0.0000    54.0000 </r>
       <r>    -4.3750     0.0000    54.0000 </r>
       <r>    -4.3387     0.0000    54.0000 </r>
       <r>    -4.3025     0.0000    54.0000 </r>
       <r>    -4.2662     0.0000    54.0000 </r>
       <r>    -4.2300     0.0000    54.0000 </r>
       <r>    -4.1938     0.0000    54.0000 </r>
       <r>    -4.1575     0.0000    54.0000 </r>
       <r>    -4.1213     0.0000    54.0000 </r>
       <r>    -4.0851     0.0000    54.0000 </r>
       <r>    -4.0488     0.0000    54.0000 </r>
       <r>    -4.0126     0.0000    54.0000 </r>
       <r>    -3.9764     0.0000    54.0000 </r>
       <r>    -3.9401     0.0000    54.0000 </r>
       <r>    -3.9039     0.0000    54.0000 </r>
       <r>    -3.8677     0.0000    54.0000 </r>
       <r>    -3.8314     0.0000    54.0000 </r>
       <r>    -3.7952     0.0000    54.0000 </r>
       <r>    -3.7590     0.0000    54.0000 </r>
       <r>    -3.7227     0.0000    54.0000 </r>
       <r>    -3.6865     0.0000    54.0000 </r>
       <r>    -3.6503     0.0000    54.0000 </r>
       <r>    -3.6140     0.0000    54.0000 </r>
       <r>    -3.5778     0.0000    54.0000 </r>
       <r>    -3.5416     0.0000    54.0000 </r>
       <r>    -3.5053     0.0000    54.0000 </r>
       <r>    -3.4691     0.0000    54.0000 </r>
       <r>    -3.4329     0.0000    54.0000 </r>
       <r>    -3.3966     0.0000    54.0000 </r>
       <r>    -3.3604     0.0000    54.0000 </r>
       <r>    -3.3241     0.0000    54.0000 </r>
       <r>    -3.2879     0.0000    54.0000 </r>
       <r>    -3.2517     0.0000    54.0000 </r>
       <r>    -3.2154     0.0000    54.0000 </r>
       <r>    -3.1792     0.0000    54.0000 </r>
       <r>    -3.1430     0.0000    54.0000 </r>
       <r>    -3.1067     0.0000    54.0000 </r>
       <r>    -3.0705     0.0000    54.0000 </r>
       <r>    -3.0343     0.0000    54.0000 </r>
       <r>    -2.9980     0.0000    54.0000 </r>
       <r>    -2.9618     0.0000    54.0000 </r>
       <r>    -2.9256    15.9529    54.5780 </r>
       <r>    -2.8893     0.0000    55.0000 </r>
       <r>    -2.8531     0.0000    56.0000 </r>
       <r>    -2.8169     0.0000    56.0000 </r>
       <r>    -2.7806     0.0000    57.0000 </r>
       <r>    -2.7444     0.0000    57.0000 </r>
       <r>    -2.7082     0.0000    57.0000 </r>
       <r>    -2.6719     0.0000    57.0000 </r>
       <r>    -2.6357     0.0000    59.0000 </r>
       <r>    -2.5995     0.0000    59.0000 </r>
       <r>    -2.5632     0.0000    59.0000 </r>
       <r>    -2.5270     0.0000    59.0000 </r>
       <r>    -2.4908     0.0000    59.0000 </r>
       <r>    -2.4545     0.0000    59.0000 </r>
       <r>    -2.4183     0.0000    59.0000 </r>
       <r>    -2.3821     0.0000    59.0000 </r>
       <r>    -2.3458     0.0000    59.0000 </r>
       <r>    -2.3096     0.0000    60.0000 </r>
       <r>    -2.2733     0.0000    60.0000 </r>
       <r>    -2.2371     0.0000    60.0000 </r>
       <r>    -2.2009     0.0000    60.0000 </r>
       <r>    -2.1646     0.0000    60.0000 </r>
       <r>    -2.1284     0.0000    60.0000 </r>
       <r>    -2.0922     0.0000    60.0000 </r>
       <r>    -2.0559     0.0000    60.0000 </r>
       <r>    -2.0197     0.0000    60.0000 </r>
       <r>    -1.9835     0.0000    60.0000 </r>
       <r>    -1.9472     0.0000    60.0000 </r>
       <r>    -1.9110     0.0000    60.0000 </r>
       <r>    -1.8748     0.0000    60.0000 </r>
       <r>    -1.8385     0.0000    60.0000 </r>
       <r>    -1.8023     0.0000    60.0000 </r>
       <r>    -1.7661     0.0000    60.0000 </r>
       <r>    -1.7298     0.0000    60.0000 </r>
       <r>    -1.6936     0.0000    60.0000 </r>
       <r>    -1.6574     0.0000    60.0000 </r>
       <r>    -1.6211     0.0000    60.0000 </r>
       <r>    -1.5849     0.0000    60.0000 </r>
       <r>    -1.5487     0.0000    60.0000 </r>
       <r>    -1.5124     0.0000    60.0000 </r>
       <r>    -1.4762     0.0000    60.0000 </r>
       <r>    -1.4400     0.0000    60.0000 </r>
       <r>    -1.4037     0.0000    60.0000 </r>
       <r>    -1.3675     0.0000    60.0000 </r>
       <r>    -1.3312     0.0000    60.0000 </r>
       <r>    -1.2950     0.0000    60.0000 </r>
       <r>    -1.2588     0.0000    60.0000 </r>
       <r>    -1.2225     0.0000    60.0000 </r>
       <r>    -1.1863     0.0000    60.0000 </r>
       <r>    -1.1501     0.0000    60.0000 </r>
       <r>    -1.1138     0.0000    60.0000 </r>
       <r>    -1.0776     0.0000    60.0000 </r>
       <r>    -1.0414     0.0000    60.0000 </r>
       <r>    -1.0051     0.0000    60.0000 </r>
       <r>    -0.9689     0.0000    62.0000 </r>
       <r>    -0.9327     0.0000    62.0000 </r>
       <r>    -0.8964     0.0000    62.0000 </r>
       <r>    -0.8602     0.0000    62.0000 </r>
       <r>    -0.8240     0.0000    62.0000 </r>
       <r>    -0.7877     0.0000    62.0000 </r>
       <r>    -0.7515     0.0000    62.0000 </r>
       <r>    -0.7153     0.0000    62.0000 </r>
       <r>    -0.6790     0.0000    62.0000 </r>
       <r>    -0.6428     0.0000    63.0000 </r>
       <r>    -0.6066     0.0000    63.0000 </r>
       <r>    -0.5703     0.0000    63.0000 </r>
       <r>    -0.5341     0.0000    63.0000 </r>
       <r>    -0.4979     0.0000    63.0000 </r>
       <r>    -0.4616     0.0000    63.0000 </r>
       <r>    -0.4254     0.0000    63.0000 </r>
       <r>    -0.3891     0.0000    64.0000 </r>
       <r>    -0.3529     0.0000    64.0000 </r>
       <r>    -0.3167    27.4675    65.9953 </r>
       <r>    -0.2804     0.0000    66.0000 </r>
       <r>    -0.2442     0.0000    66.0000 </r>
       <r>    -0.2080     0.0000    66.0000 </r>
       <r>    -0.1717     0.0000    66.0000 </r>
       <r>    -0.1355     0.0000    66.0000 </r>
       <r>    -0.0993     0.0000    66.0000 </r>
       <r>    -0.0630     0.0000    68.0000 </r>
       <r>    -0.0268     0.0000    68.0000 </r>
       <r>     0.0094     0.0000    69.0000 </r>
       <r>     0.0457     0.0000    69.0000 </r>
       <r>     0.0819     0.0000    69.0000 </r>
       <r>     0.1181     0.0000    69.0000 </r>
       <r>     0.1544     0.0000    69.0000 </r>
       <r>     0.1906     0.0000    70.0000 </r>
       <r>     0.2268     0.0000    70.0000 </r>
       <r>     0.2631     0.0000    70.0000 </r>
       <r>     0.2993     0.0000    70.0000 </r>
       <r>     0.3355     0.0000    71.0000 </r>
       <r>     0.3718     0.0000    71.0000 </r>
       <r>     0.4080     0.0000    71.0000 </r>
       <r>     0.4442     0.0000    71.0000 </r>
       <r>     0.4805     0.0000    71.0000 </r>
       <r>     0.5167     0.0000    71.0000 </r>
       <r>     0.5530     0.0000    71.0000 </r>
       <r>     0.5892     0.0000    71.0000 </r>
       <r>     0.6254     0.0000    72.0000 </r>
       <r>     0.6617     0.0000    72.0000 </r>
       <r>     0.6979     0.0000    72.0000 </r>
       <r>     0.7341     0.0000    72.0000 </r>
       <r>     0.7704     0.0000    72.0000 </r>
       <r>     0.8066     0.0000    72.0000 </r>
       <r>     0.8428     0.0000    72.0000 </r>
       <r>     0.8791     0.0000    72.0000 </r>
       <r>     0.9153     0.0000    72.0000 </r>
       <r>     0.9515     0.0000    72.0000 </r>
       <r>     0.9878     0.0000    72.0000 </r>
       <r>     1.0240     0.0000    72.0000 </r>
       <r>     1.0602     0.0000    72.0000 </r>
       <r>     1.0965     0.0000    72.0000 </r>
      </set>
     </set>
    </array>
   </total>
  </dos>
 </calculation>
 <structure name="finalpos" >
  <crystal>
   <varray name="basis" >
    <v>      17.80260975       0.00000000       0.00000000 </v>
    <v>       0.00000000      17.80260975       0.00000000 </v>
    <v>       0.00000000       0.00000000      17.80260975 </v>
   </varray>
   <i name="volume">   5642.23298361 </i>
   <varray name="rec_basis" >
    <v>       0.05617154       0.00000000       0.00000000 </v>
    <v>       0.00000000       0.05617154       0.00000000 </v>
    <v>       0.00000000       0.00000000       0.05617154 </v>
   </varray>
  </crystal>
  <varray name="positions" >
   <v>       0.61321025       0.38896402       0.41801152 </v>
   <v>       0.59930111       0.68096639       0.45648847 </v>
   <v>       0.55513331       0.59441302       0.57688690 </v>
   <v>       0.56033578       0.53371291       0.42788949 </v>
   <v>       0.59961527       0.49793601       0.68714009 </v>
   <v>       0.55159763       0.43233562       0.55387936 </v>
   <v>       0.44681339       0.63073814       0.47232450 </v>
   <v>       0.44623784       0.50284574       0.64284437 </v>
   <v>       0.45664122       0.41810419       0.43111123 </v>
   <v>       0.36816508       0.50858656       0.51397531 </v>
  </varray>
 </structure>
</modeling>
