 vasp.5.3.5 31Mar14 (build Feb 01 2018 12:10:03) gamma-only                     
  
 executed on             LinuxIFC date 2019.03.20  17:27:22
 running on   32 total cores
 distrk:  each k-point on   32 cores,    1 groups
 distr:  one band on NCORES_PER_BAND=   8 cores,    4 groups


--------------------------------------------------------------------------------------------------------


 INCAR:
 POTCAR:    PAW_PBE Ag 02Apr2005                  
 POTCAR:    PAW_PBE Ag 02Apr2005                  
   VRHFIN =Ag : s1 d10                                                          
   LEXCH  = PE                                                                  
   EATOM  =  1037.2675 eV,   76.2370 Ry                                         
                                                                                
   TITEL  = PAW_PBE Ag 02Apr2005                                                
   LULTRA =        F    use ultrasoft PP ?                                      
   IUNSCR =        1    unscreen: 0-lin 1-nonlin 2-no                           
   RPACOR =    2.000    partial core radius                                     
   POMASS =  107.868; ZVAL   =   11.000    mass and valenz                      
   RCORE  =    2.500    outmost cutoff radius                                   
   RWIGS  =    2.840; RWIGS  =    1.503    wigner-seitz radius (au A)           
   ENMAX  =  249.844; ENMIN  =  187.383 eV                                      
   ICORE  =        3    local potential                                         
   LCOR   =        T    correct aug charges                                     
   LPAW   =        T    paw PP                                                  
   EAUG   =  412.496                                                            
   DEXC   =    0.000                                                            
   RMAX   =    2.560    core radius for proj-oper                               
   RAUG   =    1.300    factor for augmentation sphere                          
   RDEP   =    2.576    radius for radial grids                                 
   RDEPT  =    2.072    core radius for aug-charge                              
                                                                                
   Atomic configuration                                                         
   12 entries                                                                   
     n  l   j            E        occ.                                          
     1  0  0.50    -25324.9161   2.0000                                         
     2  0  0.50     -3728.5341   2.0000                                         
     2  1  1.50     -3344.0404   6.0000                                         
     3  0  0.50      -683.5581   2.0000                                         
     3  1  1.50      -557.3225   6.0000                                         
     3  2  2.50      -358.3853  10.0000                                         
     4  0  0.50       -95.0341   2.0000                                         
     4  1  1.50       -58.5511   6.0000                                         
     4  2  2.50        -7.4440  10.0000                                         
     5  0  0.50        -4.4045   1.0000                                         
     5  1  0.50        -1.3606   0.0000                                         
     4  3  2.50        -1.3606   0.0000                                         
   Description                                                                  
     l       E           TYP  RCUT    TYP  RCUT                                 
     2     -7.4439781     23  2.400                                             
     2     -8.8045607     23  2.400                                             
     0     -4.4044681     23  2.400                                             
     0      1.9520038     23  2.400                                             
     1     -1.3605826     23  2.500                                             
     1     27.2116520     23  2.500                                             
     3     -4.0817478     23  2.400                                             
  local pseudopotential read in
  partial core-charges read in
  partial kinetic energy density read in
  atomic valenz-charges read in
  non local Contribution for L=           2  read in
    real space projection operators read in
  non local Contribution for L=           2  read in
    real space projection operators read in
  non local Contribution for L=           0  read in
    real space projection operators read in
  non local Contribution for L=           0  read in
    real space projection operators read in
  non local Contribution for L=           1  read in
    real space projection operators read in
  non local Contribution for L=           1  read in
    real space projection operators read in
    PAW grid and wavefunctions read in
 
   number of l-projection  operators is LMAX  =           6
   number of lm-projection operators is LMMAX =          18
 
  PAW_PBE Ag 02Apr2005                  :
 energy of atom  1       EATOM=-1037.2675
 kinetic energy error for atom=    0.0689 (will be added to EATOM!!)
 
 
 POSCAR: Pt4, -12.9502031 <s> Ag </s>            
  positions in direct lattice
  No initial velocities read in
 exchange correlation table for  LEXCH =        8
   RHO(1)=    0.500       N(1)  =     2000
   RHO(2)=  100.500       N(2)  =     4000
 


--------------------------------------------------------------------------------------------------------


 ion  position               nearest neighbor table
   1  0.515  0.634  0.552-   3 2.50   4 2.57
   2  0.602  0.373  0.552-   4 2.46
   3  0.430  0.576  0.451-   1 2.50   4 2.57
   4  0.530  0.490  0.520-   2 2.46   1 2.57   3 2.57
 
  LATTYP: Found a simple cubic cell.
 ALAT       =    17.3377540331
  
  Lattice vectors:
  
 A1 = (  17.3377540331,   0.0000000000,   0.0000000000)
 A2 = (   0.0000000000,  17.3377540331,   0.0000000000)
 A3 = (   0.0000000000,   0.0000000000,  17.3377540331)


Analysis of symmetry for initial positions (statically):
=====================================================================
 Subroutine PRICEL returns:
 Original cell was already a primitive cell.
 

 Routine SETGRP: Setting up the symmetry group for a 
 simple cubic supercell.


 Subroutine GETGRP returns: Found  1 space group operations
 (whereof  1 operations were pure point group operations)
 out of a pool of 48 trial point group operations.


The static configuration has the point symmetry C_1 .


Analysis of symmetry for dynamics (positions and initial velocities):
=====================================================================
 Subroutine PRICEL returns:
 Original cell was already a primitive cell.
 

 Routine SETGRP: Setting up the symmetry group for a 
 simple cubic supercell.


 Subroutine GETGRP returns: Found  1 space group operations
 (whereof  1 operations were pure point group operations)
 out of a pool of 48 trial point group operations.


The dynamic configuration has the point symmetry C_1 .


Analysis of magnetic symmetry:
=====================================================================
 Subroutine PRICEL returns:
 Original cell was already a primitive cell.
 

 Subroutine MAGSYM returns: Found  1 space group operations
 (whereof  1 operations were pure point group operations)
 out of a pool of  1 trial space group operations
 (whereof  1 operations were pure point group operations)
 and found also     1 'primitive' translations


The magnetic configuration has the point symmetry C_1 .
 
 
 KPOINTS: Gamma-point only                        
  k-points in reciprocal lattice
Space group operators:
 irot       det(A)        alpha          n_x          n_y          n_z        tau_x        tau_y        tau_z
    1     1.000000     0.000000     1.000000     0.000000     0.000000     0.000000     0.000000     0.000000


--------------------------------------------------------------------------------------------------------




 Dimension of arrays:
   k-points           NKPTS =      1   k-points in BZ     NKDIM =      1   number of bands    NBANDS=     28
   number of dos      NEDOS =    301   number of ions     NIONS =      4
   non local maximal  LDIM  =      6   non local SUM 2l+1 LMDIM =     18
   total plane-waves  NPLWV = 343000
   max r-space proj   IRMAX =      1   max aug-charges    IRDMAX=   3435
   dimension x,y,z NGX =    70 NGY =   70 NGZ =   70
   dimension x,y,z NGXF=   140 NGYF=  140 NGZF=  140
   support grid    NGXF=   140 NGYF=  140 NGZF=  140
   ions per type =               4
 NGX,Y,Z   is equivalent  to a cutoff of   6.71,  6.71,  6.71 a.u.
 NGXF,Y,Z  is equivalent  to a cutoff of  13.42, 13.42, 13.42 a.u.


 I would recommend the setting:
   dimension x,y,z NGX =    67 NGY =   67 NGZ =   67
 SYSTEM =  unknown system                          
 POSCAR =  Pt4, -12.9502031 <s> Ag </s>            

 Startparameter for this run:
   NWRITE =      2    write-flag & timer
   PREC   = normal    normal or accurate (medium, high low for compatibility)
   ISTART =      0    job   : 0-new  1-cont  2-samecut
   ICHARG =      2    charge: 1-file 2-atom 10-const
   ISPIN  =      2    spin polarized calculation?
   LNONCOLLINEAR =      F non collinear calculations
   LSORBIT =      F    spin-orbit coupling
   INIWAV =      1    electr: 0-lowe 1-rand  2-diag
   LASPH  =      F    aspherical Exc in radial PAW
   METAGGA=      F    non-selfconsistent MetaGGA calc.

 Electronic Relaxation 1
   ENCUT  =  249.8 eV  18.36 Ry    4.29 a.u.  22.35 22.35 22.35*2*pi/ulx,y,z
   ENINI  =  249.8     initial cutoff
   ENAUG  =  412.5 eV  augmentation charge cutoff
   NELM   =     60;   NELMIN=  2; NELMDL= -5     # of ELM steps 
   EDIFF  = 0.1E-03   stopping-criterion for ELM
   LREAL  =      F    real-space projection
   NLSPLINE    = F    spline interpolate recip. space projectors
   LCOMPAT=      F    compatible to vasp.4.4
   GGA_COMPAT  = T    GGA compatible to vasp.4.4-vasp.4.6
   LMAXPAW     = -100 max onsite density
   LMAXMIX     =    2 max onsite mixed and CHGCAR
   VOSKOWN=      0    Vosko Wilk Nusair interpolation
   ROPT   =    0.00000
 Ionic relaxation
   EDIFFG = 0.1E-02   stopping-criterion for IOM
   NSW    =   1000    number of steps for IOM
   NBLOCK =      1;   KBLOCK =   1000    inner block; outer block 
   IBRION =      2    ionic relax: 0-MD 1-quasi-New 2-CG
   NFREE  =      1    steps in history (QN), initial steepest desc. (CG)
   ISIF   =      2    stress and relaxation
   IWAVPR =     11    prediction:  0-non 1-charg 2-wave 3-comb
   ISYM   =      2    0-nonsym 1-usesym 2-fastsym
   LCORR  =      T    Harris-Foulkes like correction to forces

   POTIM  = 0.1000    time-step for ionic-motion
   TEIN   =    0.0    initial temperature
   TEBEG  =    0.0;   TEEND  =   0.0 temperature during run
   SMASS  =  -3.00    Nose mass-parameter (am)
   estimated Nose-frequenzy (Omega)   =  0.10E-29 period in steps =****** mass=  -0.687E-26a.u.
   SCALEE = 1.0000    scale energy and forces
   NPACO  =    256;   APACO  = 16.0  distance and # of slots for P.C.
   PSTRESS=    0.0 pullay stress

  Mass of Ions in am
   POMASS = 107.87
  Ionic Valenz
   ZVAL   =  11.00
  Atomic Wigner-Seitz radii
   RWIGS  =  -1.00
  virtual crystal weights 
   VCA    =   1.00
   NELECT =      44.0000    total number of electrons
   NUPDOWN=      -1.0000    fix difference up-down

 DOS related values:
   EMIN   =  10.00;   EMAX   =-10.00  energy-range for DOS
   EFERMI =   0.00
   ISMEAR =     0;   SIGMA  =   0.00  broadening in eV -4-tet -1-fermi 0-gaus

 Electronic relaxation 2 (details)
   IALGO  =     38    algorithm
   LDIAG  =      T    sub-space diagonalisation (order eigenvalues)
   LSUBROT=      F    optimize rotation matrix (better conditioning)
   TURBO    =      0    0=normal 1=particle mesh
   IRESTART =      0    0=no restart 2=restart with 2 vectors
   NREBOOT  =      0    no. of reboots
   NMIN     =      0    reboot dimension
   EREF     =   0.00    reference energy to select bands
   IMIX   =      4    mixing-type and parameters
     AMIX     =   0.40;   BMIX     =  1.00
     AMIX_MAG =   1.60;   BMIX_MAG =  1.00
     AMIN     =   0.10
     WC   =   100.;   INIMIX=   1;  MIXPRE=   1;  MAXMIX= -45

 Intra band minimization:
   WEIMIN = 0.0010     energy-eigenvalue tresh-hold
   EBREAK =  0.89E-06  absolut break condition
   DEPER  =   0.30     relativ break condition  

   TIME   =   0.40     timestep for ELM

  volume/ion in A,a.u.               =    1302.92      8792.55
  Fermi-wavevector in a.u.,A,eV,Ry     =   0.333349  0.629939  1.511903  0.111122
  Thomas-Fermi vector in A             =   1.231129
 
 Write flags
   LWAVE  =      F    write WAVECAR
   LCHARG =      F    write CHGCAR
   LVTOT  =      F    write LOCPOT, total local potential
   LVHAR  =      F    write LOCPOT, Hartree potential only
   LELF   =      F    write electronic localiz. function (ELF)
   LORBIT =      0    0 simple, 1 ext, 2 COOP (PROOUT)


 Dipole corrections
   LMONO  =      F    monopole corrections only (constant potential shift)
   LDIPOL =      F    correct potential (dipole corrections)
   IDIPOL =      0    1-x, 2-y, 3-z, 4-all directions 
   EPSILON=  1.0000000 bulk dielectric constant

 Exchange correlation treatment:
   GGA     =    PE    GGA type
   LEXCH   =     8    internal setting for exchange type
   VOSKOWN=      0    Vosko Wilk Nusair interpolation
   LHFCALC =     F    Hartree Fock is set to
   LHFONE  =     F    Hartree Fock one center treatment
   AEXX    =    0.0000 exact exchange contribution

 Linear response parameters
   LEPSILON=     F    determine dielectric tensor
   LRPA    =     F    only Hartree local field effects (RPA)
   LNABLA  =     F    use nabla operator in PAW spheres
   LVEL    =     F    velocity operator in full k-point grid
   LINTERFAST=   F  fast interpolation
   KINTER  =     0    interpolate to denser k-point grid
   CSHIFT  =0.1000    complex shift for real part using Kramers Kronig
   OMEGAMAX=  -1.0    maximum frequency
   DEG_THRESHOLD= 0.2000000E-02 threshold for treating states as degnerate
   RTIME   =    0.100 relaxation time in fs

 Orbital magnetization related:
   ORBITALMAG=     F  switch on orbital magnetization
   LCHIMAG   =     F  perturbation theory with respect to B field
   DQ        =  0.001000  dq finite difference perturbation B field



--------------------------------------------------------------------------------------------------------


 conjugate gradient relaxation of ions
 charge density and potential will be updated during run
 spin polarized calculation
 Variant of blocked Davidson
 Davidson routine will perform the subspace rotation
 perform sub-space diagonalisation
    after iterative eigenvector-optimisation
 modified Broyden-mixing scheme, WC =      100.0
 initial mixing is a Kerker type mixing with AMIX =  0.4000 and BMIX =      1.0000
 Hartree-type preconditioning will be used
 using additional bands            6
 reciprocal scheme for non local part
 use partial core corrections
 calculate Harris-corrections to forces 
   (improved forces if not selfconsistent)
 use gradient corrections 
 use of overlap-Matrix (Vanderbilt PP)
 Gauss-broadening in eV      SIGMA  =   0.00


--------------------------------------------------------------------------------------------------------


  energy-cutoff  :      249.84
  volume of cell :     5211.69
      direct lattice vectors                 reciprocal lattice vectors
    17.337754033  0.000000000  0.000000000     0.057677598  0.000000000  0.000000000
     0.000000000 17.337754033  0.000000000     0.000000000  0.057677598  0.000000000
     0.000000000  0.000000000 17.337754033     0.000000000  0.000000000  0.057677598

  length of vectors
    17.337754033 17.337754033 17.337754033     0.057677598  0.057677598  0.057677598


 
 k-points in units of 2pi/SCALE and weight: Gamma-point only                        
   0.00000000  0.00000000  0.00000000       1.000
 
 k-points in reciprocal lattice and weights: Gamma-point only                        
   0.00000000  0.00000000  0.00000000       1.000
 
 position of ions in fractional coordinates (direct lattice) 
   0.51467414  0.63425195  0.55232885
   0.60245226  0.37282974  0.55231875
   0.43048859  0.57603713  0.45062069
   0.52977323  0.49023463  0.51996466
 
 position of ions in cartesian coordinates  (Angst):
   8.92329358 10.99650423  9.57614183
  10.44516913  6.46403034  9.57596664
   7.46370522  9.98719005  7.81275072
   9.18507795  8.49956740  9.01501942
 


--------------------------------------------------------------------------------------------------------


 use parallel FFT for wavefunctions z direction half grid
 k-point  1 :   0.0000 0.0000 0.0000  plane waves:   23377

 maximum and minimum number of plane-waves per node :      2930     2917

 maximum number of plane-waves:     23377
 maximum index in each direction: 
   IXMAX=   22   IYMAX=   22   IZMAX=   22
   IXMIN=  -22   IYMIN=  -22   IZMIN=    0

 WARNING: aliasing errors must be expected set NGX to  90 to avoid them
 WARNING: aliasing errors must be expected set NGY to  90 to avoid them
 WARNING: aliasing errors must be expected set NGZ to  90 to avoid them
 aliasing errors are usually negligible using standard VASP settings
 and one can safely disregard these warnings

 parallel 3D FFT for wavefunctions:
    minimum data exchange during FFTs selected (reduces bandwidth)
 parallel 3D FFT for charge:
    minimum data exchange during FFTs selected (reduces bandwidth)


 total amount of memory used by VASP on root node    46162. kBytes
========================================================================

   base      :      30000. kBytes
   nonl-proj :        607. kBytes
   fftplans  :       4202. kBytes
   grid      :      10682. kBytes
   one-center:         15. kBytes
   wavefun   :        656. kBytes
 
     INWAV:  cpu time    0.00: real time    0.00
 Broyden mixing: mesh for mixing (old mesh)
   NGX = 45   NGY = 45   NGZ = 45
  (NGX  =140   NGY  =140   NGZ  =140)
  gives a total of  91125 points

 initial charge density was supplied:
 charge density of overlapping atoms calculated
 number of electron      44.0000000 magnetization       4.0000000
 keeping initial charge density in first step


--------------------------------------------------------------------------------------------------------


 Maximum index for augmentation-charges          216 (set IRDMAX)


--------------------------------------------------------------------------------------------------------


 First call to EWALD:  gamma=   0.102
 Maximum number of real-space cells 3x 3x 3
 Maximum number of reciprocal cells 3x 3x 3

 FEWALD executed in parallel
    FEWALD:  cpu time    0.00: real time    0.00


----------------------------------------- Iteration    1(   1)  ---------------------------------------


    POTLOK:  cpu time    0.16: real time    0.15
    SETDIJ:  cpu time    0.00: real time    0.01
     EDDAV:  cpu time    0.15: real time    0.15
       DOS:  cpu time    0.00: real time    0.00
    --------------------------------------------
      LOOP:  cpu time    0.31: real time    0.33

 eigenvalue-minimisations  :   112
 total energy-change (2. order) : 0.3708022E+03  (-0.5312284E+03)
 number of electron      44.0000000 magnetization       4.0000000
 augmentation part       44.0000000 magnetization       4.0000000

 Free energy of the ion-electron system (eV)
  ---------------------------------------------------
  alpha Z        PSCENC =         2.61129328
  Ewald energy   TEWEN  =      1246.39936197
  -Hartree energ DENC   =     -5208.04859904
  -exchange      EXHF   =         0.00000000
  -V(xc)+E(xc)   XCENC  =       -45.91547623
  PAW double counting   =      4013.48871228    -3829.05843552
  entropy T*S    EENTRO =         0.00000000
  eigenvalues    EBANDS =        42.53086497
  atomic energy  EATOM  =      4148.79452035
  ---------------------------------------------------
  free energy    TOTEN  =       370.80224206 eV

  energy without entropy =      370.80224206  energy(sigma->0) =      370.80224206


--------------------------------------------------------------------------------------------------------




----------------------------------------- Iteration    1(   2)  ---------------------------------------


     EDDAV:  cpu time    0.25: real time    0.25
       DOS:  cpu time    0.00: real time    0.00
    --------------------------------------------
      LOOP:  cpu time    0.26: real time    0.32

 eigenvalue-minimisations  :   224
 total energy-change (2. order) :-0.1654006E+03  (-0.1564687E+03)
 number of electron      44.0000000 magnetization       4.0000000
 augmentation part       44.0000000 magnetization       4.0000000

 Free energy of the ion-electron system (eV)
  ---------------------------------------------------
  alpha Z        PSCENC =         2.61129328
  Ewald energy   TEWEN  =      1246.39936197
  -Hartree energ DENC   =     -5208.04859904
  -exchange      EXHF   =         0.00000000
  -V(xc)+E(xc)   XCENC  =       -45.91547623
  PAW double counting   =      4013.48871228    -3829.05843552
  entropy T*S    EENTRO =        -0.00000000
  eigenvalues    EBANDS =      -122.86970562
  atomic energy  EATOM  =      4148.79452035
  ---------------------------------------------------
  free energy    TOTEN  =       205.40167148 eV

  energy without entropy =      205.40167148  energy(sigma->0) =      205.40167148


--------------------------------------------------------------------------------------------------------




----------------------------------------- Iteration    1(   3)  ---------------------------------------


     EDDAV:  cpu time    0.22: real time    0.22
       DOS:  cpu time    0.00: real time    0.00
    --------------------------------------------
      LOOP:  cpu time    0.22: real time    0.23

 eigenvalue-minimisations  :   192
 total energy-change (2. order) :-0.1707599E+03  (-0.1668900E+03)
 number of electron      44.0000000 magnetization       4.0000000
 augmentation part       44.0000000 magnetization       4.0000000

 Free energy of the ion-electron system (eV)
  ---------------------------------------------------
  alpha Z        PSCENC =         2.61129328
  Ewald energy   TEWEN  =      1246.39936197
  -Hartree energ DENC   =     -5208.04859904
  -exchange      EXHF   =         0.00000000
  -V(xc)+E(xc)   XCENC  =       -45.91547623
  PAW double counting   =      4013.48871228    -3829.05843552
  entropy T*S    EENTRO =         0.00000000
  eigenvalues    EBANDS =      -293.62957963
  atomic energy  EATOM  =      4148.79452035
  ---------------------------------------------------
  free energy    TOTEN  =        34.64179746 eV

  energy without entropy =       34.64179746  energy(sigma->0) =       34.64179746


--------------------------------------------------------------------------------------------------------




----------------------------------------- Iteration    1(   4)  ---------------------------------------


     EDDAV:  cpu time    0.17: real time    0.17
       DOS:  cpu time    0.00: real time    0.00
    --------------------------------------------
      LOOP:  cpu time    0.18: real time    0.18

 eigenvalue-minimisations  :   144
 total energy-change (2. order) :-0.3769747E+02  (-0.3165987E+02)
 number of electron      44.0000000 magnetization       4.0000000
 augmentation part       44.0000000 magnetization       4.0000000

 Free energy of the ion-electron system (eV)
  ---------------------------------------------------
  alpha Z        PSCENC =         2.61129328
  Ewald energy   TEWEN  =      1246.39936197
  -Hartree energ DENC   =     -5208.04859904
  -exchange      EXHF   =         0.00000000
  -V(xc)+E(xc)   XCENC  =       -45.91547623
  PAW double counting   =      4013.48871228    -3829.05843552
  entropy T*S    EENTRO =         0.00000000
  eigenvalues    EBANDS =      -331.32704793
  atomic energy  EATOM  =      4148.79452035
  ---------------------------------------------------
  free energy    TOTEN  =        -3.05567084 eV

  energy without entropy =       -3.05567084  energy(sigma->0) =       -3.05567084


--------------------------------------------------------------------------------------------------------




----------------------------------------- Iteration    1(   5)  ---------------------------------------


     EDDAV:  cpu time    0.14: real time    0.15
       DOS:  cpu time    0.00: real time    0.00
    CHARGE:  cpu time    0.02: real time    0.02
    MIXING:  cpu time    0.00: real time    0.00
    --------------------------------------------
      LOOP:  cpu time    0.18: real time    0.18

 eigenvalue-minimisations  :   112
 total energy-change (2. order) :-0.2079485E+01  (-0.2071561E+01)
 number of electron      44.0000029 magnetization       3.2570432
 augmentation part       20.9884713 magnetization       3.3329563

 Broyden mixing:
  rms(total) = 0.10920E+01    rms(broyden)= 0.10918E+01
  rms(prec ) = 0.11201E+01
  weight for this iteration     100.00

 Free energy of the ion-electron system (eV)
  ---------------------------------------------------
  alpha Z        PSCENC =         2.61129328
  Ewald energy   TEWEN  =      1246.39936197
  -Hartree energ DENC   =     -5208.04859904
  -exchange      EXHF   =         0.00000000
  -V(xc)+E(xc)   XCENC  =       -45.91547623
  PAW double counting   =      4013.48871228    -3829.05843552
  entropy T*S    EENTRO =         0.00000000
  eigenvalues    EBANDS =      -333.40653271
  atomic energy  EATOM  =      4148.79452035
  ---------------------------------------------------
  free energy    TOTEN  =        -5.13515561 eV

  energy without entropy =       -5.13515561  energy(sigma->0) =       -5.13515561


--------------------------------------------------------------------------------------------------------




----------------------------------------- Iteration    1(   6)  ---------------------------------------


    POTLOK:  cpu time    0.15: real time    0.15
    SETDIJ:  cpu time    0.01: real time    0.01
     EDDAV:  cpu time    0.15: real time    0.15
       DOS:  cpu time    0.00: real time    0.00
    CHARGE:  cpu time    0.02: real time    0.02
    MIXING:  cpu time    0.00: real time    0.00
    --------------------------------------------
      LOOP:  cpu time    0.33: real time    0.34

 eigenvalue-minimisations  :   120
 total energy-change (2. order) : 0.7201735E+01  (-0.1645149E+01)
 number of electron      44.0000031 magnetization       2.6923860
 augmentation part       21.2157382 magnetization       2.4542002

 Broyden mixing:
  rms(total) = 0.51014E+00    rms(broyden)= 0.51011E+00
  rms(prec ) = 0.53316E+00
  weight for this iteration     100.00

 eigenvalues of (default mixing * dielectric matrix)
  average eigenvalue GAMMA=   0.8453
  0.8453

 Free energy of the ion-electron system (eV)
  ---------------------------------------------------
  alpha Z        PSCENC =         2.61129328
  Ewald energy   TEWEN  =      1246.39936197
  -Hartree energ DENC   =     -5202.87433882
  -exchange      EXHF   =         0.00000000
  -V(xc)+E(xc)   XCENC  =       -41.35431425
  PAW double counting   =      4147.31770059    -3965.37303028
  entropy T*S    EENTRO =         0.00000000
  eigenvalues    EBANDS =      -333.45461309
  atomic energy  EATOM  =      4148.79452035
  ---------------------------------------------------
  free energy    TOTEN  =         2.06657973 eV

  energy without entropy =        2.06657973  energy(sigma->0) =        2.06657973


--------------------------------------------------------------------------------------------------------




----------------------------------------- Iteration    1(   7)  ---------------------------------------


    POTLOK:  cpu time    0.15: real time    0.15
    SETDIJ:  cpu time    0.00: real time    0.01
     EDDAV:  cpu time    0.16: real time    0.16
       DOS:  cpu time    0.00: real time    0.00
    CHARGE:  cpu time    0.02: real time    0.02
    MIXING:  cpu time    0.00: real time    0.00
    --------------------------------------------
      LOOP:  cpu time    0.34: real time    0.34

 eigenvalue-minimisations  :   124
 total energy-change (2. order) : 0.9050899E+00  (-0.8197624E-01)
 number of electron      44.0000031 magnetization       2.0610299
 augmentation part       21.1670672 magnetization       1.9157379

 Broyden mixing:
  rms(total) = 0.28461E+00    rms(broyden)= 0.28461E+00
  rms(prec ) = 0.29997E+00
  weight for this iteration     100.00

 eigenvalues of (default mixing * dielectric matrix)
  average eigenvalue GAMMA=   0.8654
  0.7055  1.0253

 Free energy of the ion-electron system (eV)
  ---------------------------------------------------
  alpha Z        PSCENC =         2.61129328
  Ewald energy   TEWEN  =      1246.39936197
  -Hartree energ DENC   =     -5212.70737504
  -exchange      EXHF   =         0.00000000
  -V(xc)+E(xc)   XCENC  =       -40.12084868
  PAW double counting   =      4229.95692870    -4049.75887108
  entropy T*S    EENTRO =         0.00000000
  eigenvalues    EBANDS =      -322.20333982
  atomic energy  EATOM  =      4148.79452035
  ---------------------------------------------------
  free energy    TOTEN  =         2.97166967 eV

  energy without entropy =        2.97166967  energy(sigma->0) =        2.97166967


--------------------------------------------------------------------------------------------------------




----------------------------------------- Iteration    1(   8)  ---------------------------------------


    POTLOK:  cpu time    0.15: real time    0.15
    SETDIJ:  cpu time    0.01: real time    0.01
     EDDAV:  cpu time    0.15: real time    0.15
       DOS:  cpu time    0.00: real time    0.00
    CHARGE:  cpu time    0.02: real time    0.02
    MIXING:  cpu time    0.00: real time    0.00
    --------------------------------------------
      LOOP:  cpu time    0.34: real time    0.34

 eigenvalue-minimisations  :   120
 total energy-change (2. order) :-0.2772328E+01  (-0.1415749E+00)
 number of electron      44.0000031 magnetization       1.5407763
 augmentation part       21.1249760 magnetization       1.4546640

 Broyden mixing:
  rms(total) = 0.14115E+00    rms(broyden)= 0.14114E+00
  rms(prec ) = 0.14990E+00
  weight for this iteration     100.00

 eigenvalues of (default mixing * dielectric matrix)
  average eigenvalue GAMMA=   1.0941
  0.6193  0.9448  1.7183

 Free energy of the ion-electron system (eV)
  ---------------------------------------------------
  alpha Z        PSCENC =         2.61129328
  Ewald energy   TEWEN  =      1246.39936197
  -Hartree energ DENC   =     -5219.68640410
  -exchange      EXHF   =         0.00000000
  -V(xc)+E(xc)   XCENC  =       -42.04896995
  PAW double counting   =      4297.04604673    -4118.18101229
  entropy T*S    EENTRO =         0.00000000
  eigenvalues    EBANDS =      -314.73549430
  atomic energy  EATOM  =      4148.79452035
  ---------------------------------------------------
  free energy    TOTEN  =         0.19934168 eV

  energy without entropy =        0.19934168  energy(sigma->0) =        0.19934168


--------------------------------------------------------------------------------------------------------




----------------------------------------- Iteration    1(   9)  ---------------------------------------


    POTLOK:  cpu time    0.15: real time    0.15
    SETDIJ:  cpu time    0.00: real time    0.01
     EDDAV:  cpu time    0.15: real time    0.15
       DOS:  cpu time    0.00: real time    0.00
    CHARGE:  cpu time    0.02: real time    0.02
    MIXING:  cpu time    0.00: real time    0.00
    --------------------------------------------
      LOOP:  cpu time    0.33: real time    0.34

 eigenvalue-minimisations  :   116
 total energy-change (2. order) :-0.1966948E+01  (-0.7374978E-01)
 number of electron      44.0000031 magnetization       1.0520400
 augmentation part       21.1377225 magnetization       1.0005632

 Broyden mixing:
  rms(total) = 0.73206E-01    rms(broyden)= 0.73200E-01
  rms(prec ) = 0.80647E-01
  weight for this iteration     100.00

 eigenvalues of (default mixing * dielectric matrix)
  average eigenvalue GAMMA=   1.2259
  2.0903  0.6269  0.8339  1.3523

 Free energy of the ion-electron system (eV)
  ---------------------------------------------------
  alpha Z        PSCENC =         2.61129328
  Ewald energy   TEWEN  =      1246.39936197
  -Hartree energ DENC   =     -5220.47964684
  -exchange      EXHF   =         0.00000000
  -V(xc)+E(xc)   XCENC  =       -43.56720751
  PAW double counting   =      4327.04672201    -4148.72987752
  entropy T*S    EENTRO =         0.00000000
  eigenvalues    EBANDS =      -313.84277173
  atomic energy  EATOM  =      4148.79452035
  ---------------------------------------------------
  free energy    TOTEN  =        -1.76760599 eV

  energy without entropy =       -1.76760599  energy(sigma->0) =       -1.76760599


--------------------------------------------------------------------------------------------------------




----------------------------------------- Iteration    1(  10)  ---------------------------------------


    POTLOK:  cpu time    0.15: real time    0.15
    SETDIJ:  cpu time    0.00: real time    0.01
     EDDAV:  cpu time    0.15: real time    0.15
       DOS:  cpu time    0.00: real time    0.00
    CHARGE:  cpu time    0.02: real time    0.02
    MIXING:  cpu time    0.00: real time    0.00
    --------------------------------------------
      LOOP:  cpu time    0.34: real time    0.42

 eigenvalue-minimisations  :   120
 total energy-change (2. order) :-0.1430764E+01  (-0.4957674E-01)
 number of electron      44.0000031 magnetization       0.7227548
 augmentation part       21.1666046 magnetization       0.6980444

 Broyden mixing:
  rms(total) = 0.50837E-01    rms(broyden)= 0.50832E-01
  rms(prec ) = 0.55645E-01
  weight for this iteration     100.00

 eigenvalues of (default mixing * dielectric matrix)
  average eigenvalue GAMMA=   1.2332
  2.3767  0.6296  0.8935  1.1330  1.1330

 Free energy of the ion-electron system (eV)
  ---------------------------------------------------
  alpha Z        PSCENC =         2.61129328
  Ewald energy   TEWEN  =      1246.39936197
  -Hartree energ DENC   =     -5218.40598050
  -exchange      EXHF   =         0.00000000
  -V(xc)+E(xc)   XCENC  =       -44.77940129
  PAW double counting   =      4327.07060842    -4148.78461982
  entropy T*S    EENTRO =         0.00000000
  eigenvalues    EBANDS =      -316.10415202
  atomic energy  EATOM  =      4148.79452035
  ---------------------------------------------------
  free energy    TOTEN  =        -3.19836962 eV

  energy without entropy =       -3.19836962  energy(sigma->0) =       -3.19836962


--------------------------------------------------------------------------------------------------------




----------------------------------------- Iteration    1(  11)  ---------------------------------------


    POTLOK:  cpu time    0.15: real time    0.15
    SETDIJ:  cpu time    0.00: real time    0.01
     EDDAV:  cpu time    0.15: real time    0.15
       DOS:  cpu time    0.00: real time    0.00
    CHARGE:  cpu time    0.02: real time    0.02
    MIXING:  cpu time    0.00: real time    0.01
    --------------------------------------------
      LOOP:  cpu time    0.33: real time    0.34

 eigenvalue-minimisations  :   112
 total energy-change (2. order) :-0.5613269E+00  (-0.1233513E-01)
 number of electron      44.0000031 magnetization       0.3476575
 augmentation part       21.1639622 magnetization       0.3319211

 Broyden mixing:
  rms(total) = 0.31043E-01    rms(broyden)= 0.31041E-01
  rms(prec ) = 0.35552E-01
  weight for this iteration     100.00

 eigenvalues of (default mixing * dielectric matrix)
  average eigenvalue GAMMA=   1.4367
  2.9432  1.9989  1.3441  0.9378  0.6372  0.7592

 Free energy of the ion-electron system (eV)
  ---------------------------------------------------
  alpha Z        PSCENC =         2.61129328
  Ewald energy   TEWEN  =      1246.39936197
  -Hartree energ DENC   =     -5218.12729410
  -exchange      EXHF   =         0.00000000
  -V(xc)+E(xc)   XCENC  =       -45.25755893
  PAW double counting   =      4320.54981725    -4142.22430114
  entropy T*S    EENTRO =         0.00000000
  eigenvalues    EBANDS =      -316.50553516
  atomic energy  EATOM  =      4148.79452035
  ---------------------------------------------------
  free energy    TOTEN  =        -3.75969649 eV

  energy without entropy =       -3.75969649  energy(sigma->0) =       -3.75969649


--------------------------------------------------------------------------------------------------------




----------------------------------------- Iteration    1(  12)  ---------------------------------------


    POTLOK:  cpu time    0.15: real time    0.15
    SETDIJ:  cpu time    0.01: real time    0.01
     EDDAV:  cpu time    0.14: real time    0.15
       DOS:  cpu time    0.00: real time    0.00
    CHARGE:  cpu time    0.02: real time    0.02
    MIXING:  cpu time    0.01: real time    0.01
    --------------------------------------------
      LOOP:  cpu time    0.33: real time    0.35

 eigenvalue-minimisations  :   112
 total energy-change (2. order) :-0.7905492E+00  (-0.1230236E-01)
 number of electron      44.0000031 magnetization       0.1721347
 augmentation part       21.1763551 magnetization       0.1657935

 Broyden mixing:
  rms(total) = 0.14694E-01    rms(broyden)= 0.14686E-01
  rms(prec ) = 0.17618E-01
  weight for this iteration     100.00

 eigenvalues of (default mixing * dielectric matrix)
  average eigenvalue GAMMA=   1.4592
  3.4699  2.2194  1.1983  1.1983  0.8189  0.6547  0.6547

 Free energy of the ion-electron system (eV)
  ---------------------------------------------------
  alpha Z        PSCENC =         2.61129328
  Ewald energy   TEWEN  =      1246.39936197
  -Hartree energ DENC   =     -5216.36647099
  -exchange      EXHF   =         0.00000000
  -V(xc)+E(xc)   XCENC  =       -46.03555505
  PAW double counting   =      4305.69239926    -4127.15964499
  entropy T*S    EENTRO =         0.00000000
  eigenvalues    EBANDS =      -318.48614953
  atomic energy  EATOM  =      4148.79452035
  ---------------------------------------------------
  free energy    TOTEN  =        -4.55024571 eV

  energy without entropy =       -4.55024571  energy(sigma->0) =       -4.55024571


--------------------------------------------------------------------------------------------------------




----------------------------------------- Iteration    1(  13)  ---------------------------------------


    POTLOK:  cpu time    0.15: real time    0.15
    SETDIJ:  cpu time    0.00: real time    0.01
     EDDAV:  cpu time    0.15: real time    0.15
       DOS:  cpu time    0.00: real time    0.00
    CHARGE:  cpu time    0.02: real time    0.02
    MIXING:  cpu time    0.01: real time    0.01
    --------------------------------------------
      LOOP:  cpu time    0.34: real time    0.36

 eigenvalue-minimisations  :   120
 total energy-change (2. order) :-0.3149365E+00  (-0.3292011E-02)
 number of electron      44.0000031 magnetization       0.0746744
 augmentation part       21.1782658 magnetization       0.0718973

 Broyden mixing:
  rms(total) = 0.92885E-02    rms(broyden)= 0.92847E-02
  rms(prec ) = 0.11485E-01
  weight for this iteration     100.00

 eigenvalues of (default mixing * dielectric matrix)
  average eigenvalue GAMMA=   1.5162
  4.0174  2.3809  1.3950  1.3950  0.9284  0.7821  0.6316  0.5992

 Free energy of the ion-electron system (eV)
  ---------------------------------------------------
  alpha Z        PSCENC =         2.61129328
  Ewald energy   TEWEN  =      1246.39936197
  -Hartree energ DENC   =     -5215.58839639
  -exchange      EXHF   =         0.00000000
  -V(xc)+E(xc)   XCENC  =       -46.35235202
  PAW double counting   =      4301.21194197    -4122.59402394
  entropy T*S    EENTRO =         0.00000000
  eigenvalues    EBANDS =      -319.34752740
  atomic energy  EATOM  =      4148.79452035
  ---------------------------------------------------
  free energy    TOTEN  =        -4.86518218 eV

  energy without entropy =       -4.86518218  energy(sigma->0) =       -4.86518218


--------------------------------------------------------------------------------------------------------




----------------------------------------- Iteration    1(  14)  ---------------------------------------


    POTLOK:  cpu time    0.15: real time    0.15
    SETDIJ:  cpu time    0.00: real time    0.01
     EDDAV:  cpu time    0.16: real time    0.16
       DOS:  cpu time    0.00: real time    0.00
    CHARGE:  cpu time    0.02: real time    0.02
    MIXING:  cpu time    0.00: real time    0.01
    --------------------------------------------
      LOOP:  cpu time    0.34: real time    0.35

 eigenvalue-minimisations  :   124
 total energy-change (2. order) :-0.1143375E+00  (-0.6545353E-03)
 number of electron      44.0000031 magnetization       0.0124071
 augmentation part       21.1787328 magnetization       0.0118528

 Broyden mixing:
  rms(total) = 0.48468E-02    rms(broyden)= 0.48455E-02
  rms(prec ) = 0.67567E-02
  weight for this iteration     100.00

 eigenvalues of (default mixing * dielectric matrix)
  average eigenvalue GAMMA=   1.6310
  4.4377  2.8214  2.0292  1.3430  1.1301  0.9048  0.7501  0.6315  0.6315

 Free energy of the ion-electron system (eV)
  ---------------------------------------------------
  alpha Z        PSCENC =         2.61129328
  Ewald energy   TEWEN  =      1246.39936197
  -Hartree energ DENC   =     -5215.06739737
  -exchange      EXHF   =         0.00000000
  -V(xc)+E(xc)   XCENC  =       -46.47557310
  PAW double counting   =      4300.50714702    -4121.85321152
  entropy T*S    EENTRO =         0.00000000
  eigenvalues    EBANDS =      -319.89566035
  atomic energy  EATOM  =      4148.79452035
  ---------------------------------------------------
  free energy    TOTEN  =        -4.97951973 eV

  energy without entropy =       -4.97951973  energy(sigma->0) =       -4.97951973


--------------------------------------------------------------------------------------------------------




----------------------------------------- Iteration    1(  15)  ---------------------------------------


    POTLOK:  cpu time    0.15: real time    0.15
    SETDIJ:  cpu time    0.01: real time    0.01
     EDDAV:  cpu time    0.14: real time    0.14
       DOS:  cpu time    0.00: real time    0.00
    CHARGE:  cpu time    0.02: real time    0.02
    MIXING:  cpu time    0.01: real time    0.01
    --------------------------------------------
      LOOP:  cpu time    0.33: real time    0.33

 eigenvalue-minimisations  :   108
 total energy-change (2. order) :-0.4156029E-01  (-0.3604886E-03)
 number of electron      44.0000031 magnetization      -0.0018670
 augmentation part       21.1802106 magnetization      -0.0021669

 Broyden mixing:
  rms(total) = 0.19586E-02    rms(broyden)= 0.19578E-02
  rms(prec ) = 0.33244E-02
  weight for this iteration     100.00

 eigenvalues of (default mixing * dielectric matrix)
  average eigenvalue GAMMA=   1.6319
  4.9741  2.9672  2.1164  1.3797  1.1375  0.8949  0.8949  0.6401  0.6401  0.6744

 Free energy of the ion-electron system (eV)
  ---------------------------------------------------
  alpha Z        PSCENC =         2.61129328
  Ewald energy   TEWEN  =      1246.39936197
  -Hartree energ DENC   =     -5214.46197902
  -exchange      EXHF   =         0.00000000
  -V(xc)+E(xc)   XCENC  =       -46.52931027
  PAW double counting   =      4301.48329249    -4122.81631738
  entropy T*S    EENTRO =         0.00000000
  eigenvalues    EBANDS =      -320.50194143
  atomic energy  EATOM  =      4148.79452035
  ---------------------------------------------------
  free energy    TOTEN  =        -5.02108002 eV

  energy without entropy =       -5.02108002  energy(sigma->0) =       -5.02108002


--------------------------------------------------------------------------------------------------------




----------------------------------------- Iteration    1(  16)  ---------------------------------------


    POTLOK:  cpu time    0.15: real time    0.15
    SETDIJ:  cpu time    0.00: real time    0.01
     EDDAV:  cpu time    0.12: real time    0.12
       DOS:  cpu time    0.00: real time    0.00
    CHARGE:  cpu time    0.02: real time    0.02
    MIXING:  cpu time    0.01: real time    0.01
    --------------------------------------------
      LOOP:  cpu time    0.31: real time    0.32

 eigenvalue-minimisations  :    88
 total energy-change (2. order) :-0.1694831E-02  (-0.3344231E-04)
 number of electron      44.0000031 magnetization      -0.0077487
 augmentation part       21.1803362 magnetization      -0.0078164

 Broyden mixing:
  rms(total) = 0.13116E-02    rms(broyden)= 0.13114E-02
  rms(prec ) = 0.24656E-02
  weight for this iteration     100.00

 eigenvalues of (default mixing * dielectric matrix)
  average eigenvalue GAMMA=   1.6134
  5.2320  2.9158  2.1860  1.4738  1.1599  1.1599  0.8943  0.8024  0.6408  0.6408
  0.6413

 Free energy of the ion-electron system (eV)
  ---------------------------------------------------
  alpha Z        PSCENC =         2.61129328
  Ewald energy   TEWEN  =      1246.39936197
  -Hartree energ DENC   =     -5214.29832440
  -exchange      EXHF   =         0.00000000
  -V(xc)+E(xc)   XCENC  =       -46.53390188
  PAW double counting   =      4301.40213646    -4122.73507301
  entropy T*S    EENTRO =         0.00000000
  eigenvalues    EBANDS =      -320.66278761
  atomic energy  EATOM  =      4148.79452035
  ---------------------------------------------------
  free energy    TOTEN  =        -5.02277485 eV

  energy without entropy =       -5.02277485  energy(sigma->0) =       -5.02277485


--------------------------------------------------------------------------------------------------------




----------------------------------------- Iteration    1(  17)  ---------------------------------------


    POTLOK:  cpu time    0.15: real time    0.15
    SETDIJ:  cpu time    0.00: real time    0.01
     EDDAV:  cpu time    0.12: real time    0.12
       DOS:  cpu time    0.00: real time    0.00
    CHARGE:  cpu time    0.02: real time    0.02
    MIXING:  cpu time    0.00: real time    0.01
    --------------------------------------------
      LOOP:  cpu time    0.31: real time    0.32

 eigenvalue-minimisations  :    88
 total energy-change (2. order) :-0.9190343E-03  (-0.2594742E-04)
 number of electron      44.0000031 magnetization      -0.0057385
 augmentation part       21.1803869 magnetization      -0.0058957

 Broyden mixing:
  rms(total) = 0.83499E-03    rms(broyden)= 0.83493E-03
  rms(prec ) = 0.15920E-02
  weight for this iteration     100.00

 eigenvalues of (default mixing * dielectric matrix)
  average eigenvalue GAMMA=   1.6722
  5.3233  3.2750  2.4851  1.9523  1.4143  1.1241  0.9176  0.9176  0.7564  0.6331
  0.6331  0.6346

 Free energy of the ion-electron system (eV)
  ---------------------------------------------------
  alpha Z        PSCENC =         2.61129328
  Ewald energy   TEWEN  =      1246.39936197
  -Hartree energ DENC   =     -5214.15142451
  -exchange      EXHF   =         0.00000000
  -V(xc)+E(xc)   XCENC  =       -46.53642081
  PAW double counting   =      4301.47678704    -4122.81693847
  entropy T*S    EENTRO =         0.00000000
  eigenvalues    EBANDS =      -320.80087273
  atomic energy  EATOM  =      4148.79452035
  ---------------------------------------------------
  free energy    TOTEN  =        -5.02369388 eV

  energy without entropy =       -5.02369388  energy(sigma->0) =       -5.02369388


--------------------------------------------------------------------------------------------------------




----------------------------------------- Iteration    1(  18)  ---------------------------------------


    POTLOK:  cpu time    0.15: real time    0.15
    SETDIJ:  cpu time    0.00: real time    0.01
     EDDAV:  cpu time    0.12: real time    0.12
       DOS:  cpu time    0.00: real time    0.00
    CHARGE:  cpu time    0.02: real time    0.02
    MIXING:  cpu time    0.00: real time    0.01
    --------------------------------------------
      LOOP:  cpu time    0.30: real time    0.31

 eigenvalue-minimisations  :    80
 total energy-change (2. order) :-0.1804186E-02  (-0.2280093E-04)
 number of electron      44.0000031 magnetization      -0.0051734
 augmentation part       21.1802762 magnetization      -0.0051905

 Broyden mixing:
  rms(total) = 0.56639E-03    rms(broyden)= 0.56635E-03
  rms(prec ) = 0.99324E-03
  weight for this iteration     100.00

 eigenvalues of (default mixing * dielectric matrix)
  average eigenvalue GAMMA=   1.6994
  5.4082  3.9162  2.5752  2.1373  1.4058  1.2624  1.0301  0.9452  0.8085  0.7190
  0.6296  0.6272  0.6272

 Free energy of the ion-electron system (eV)
  ---------------------------------------------------
  alpha Z        PSCENC =         2.61129328
  Ewald energy   TEWEN  =      1246.39936197
  -Hartree energ DENC   =     -5214.04540660
  -exchange      EXHF   =         0.00000000
  -V(xc)+E(xc)   XCENC  =       -46.53889591
  PAW double counting   =      4301.50173227    -4122.84619670
  entropy T*S    EENTRO =         0.00000000
  eigenvalues    EBANDS =      -320.90190674
  atomic energy  EATOM  =      4148.79452035
  ---------------------------------------------------
  free energy    TOTEN  =        -5.02549807 eV

  energy without entropy =       -5.02549807  energy(sigma->0) =       -5.02549807


--------------------------------------------------------------------------------------------------------




----------------------------------------- Iteration    1(  19)  ---------------------------------------


    POTLOK:  cpu time    0.15: real time    0.15
    SETDIJ:  cpu time    0.00: real time    0.01
     EDDAV:  cpu time    0.12: real time    0.12
       DOS:  cpu time    0.00: real time    0.00
    CHARGE:  cpu time    0.02: real time    0.02
    MIXING:  cpu time    0.01: real time    0.01
    --------------------------------------------
      LOOP:  cpu time    0.31: real time    0.32

 eigenvalue-minimisations  :    88
 total energy-change (2. order) :-0.8070522E-03  (-0.5127480E-05)
 number of electron      44.0000031 magnetization      -0.0029182
 augmentation part       21.1805629 magnetization      -0.0029277

 Broyden mixing:
  rms(total) = 0.41206E-03    rms(broyden)= 0.41203E-03
  rms(prec ) = 0.67084E-03
  weight for this iteration     100.00

 eigenvalues of (default mixing * dielectric matrix)
  average eigenvalue GAMMA=   1.7189
  5.5659  4.2309  2.6703  2.3761  1.6101  1.1988  1.1988  0.9223  0.9223  0.7682
  0.7234  0.6366  0.6205  0.6205

 Free energy of the ion-electron system (eV)
  ---------------------------------------------------
  alpha Z        PSCENC =         2.61129328
  Ewald energy   TEWEN  =      1246.39936197
  -Hartree energ DENC   =     -5213.95958011
  -exchange      EXHF   =         0.00000000
  -V(xc)+E(xc)   XCENC  =       -46.54132743
  PAW double counting   =      4301.25348177    -4122.59400167
  entropy T*S    EENTRO =         0.00000000
  eigenvalues    EBANDS =      -320.99005328
  atomic energy  EATOM  =      4148.79452035
  ---------------------------------------------------
  free energy    TOTEN  =        -5.02630512 eV

  energy without entropy =       -5.02630512  energy(sigma->0) =       -5.02630512


--------------------------------------------------------------------------------------------------------




----------------------------------------- Iteration    1(  20)  ---------------------------------------


    POTLOK:  cpu time    0.15: real time    0.15
    SETDIJ:  cpu time    0.00: real time    0.01
     EDDAV:  cpu time    0.13: real time    0.12
       DOS:  cpu time    0.00: real time    0.00
    CHARGE:  cpu time    0.02: real time    0.02
    MIXING:  cpu time    0.01: real time    0.01
    --------------------------------------------
      LOOP:  cpu time    0.31: real time    0.32

 eigenvalue-minimisations  :    88
 total energy-change (2. order) :-0.8864877E-03  (-0.4759250E-05)
 number of electron      44.0000031 magnetization      -0.0012176
 augmentation part       21.1806486 magnetization      -0.0011851

 Broyden mixing:
  rms(total) = 0.24413E-03    rms(broyden)= 0.24411E-03
  rms(prec ) = 0.39170E-03
  weight for this iteration     100.00

 eigenvalues of (default mixing * dielectric matrix)
  average eigenvalue GAMMA=   1.7842
  6.0465  4.7792  2.8158  2.6063  1.8672  1.2800  1.2800  0.9765  0.9031  0.9031
  0.7810  0.6492  0.6492  0.6221  0.6044

 Free energy of the ion-electron system (eV)
  ---------------------------------------------------
  alpha Z        PSCENC =         2.61129328
  Ewald energy   TEWEN  =      1246.39936197
  -Hartree energ DENC   =     -5213.91446222
  -exchange      EXHF   =         0.00000000
  -V(xc)+E(xc)   XCENC  =       -46.54295822
  PAW double counting   =      4301.02952445    -4122.36681283
  entropy T*S    EENTRO =         0.00000000
  eigenvalues    EBANDS =      -321.03765839
  atomic energy  EATOM  =      4148.79452035
  ---------------------------------------------------
  free energy    TOTEN  =        -5.02719161 eV

  energy without entropy =       -5.02719161  energy(sigma->0) =       -5.02719161


--------------------------------------------------------------------------------------------------------




----------------------------------------- Iteration    1(  21)  ---------------------------------------


    POTLOK:  cpu time    0.15: real time    0.15
    SETDIJ:  cpu time    0.00: real time    0.01
     EDDAV:  cpu time    0.12: real time    0.12
       DOS:  cpu time    0.00: real time    0.00
    CHARGE:  cpu time    0.02: real time    0.02
    MIXING:  cpu time    0.01: real time    0.01
    --------------------------------------------
      LOOP:  cpu time    0.31: real time    0.32

 eigenvalue-minimisations  :    88
 total energy-change (2. order) :-0.1841759E-03  (-0.1117187E-05)
 number of electron      44.0000031 magnetization      -0.0003309
 augmentation part       21.1806594 magnetization      -0.0003131

 Broyden mixing:
  rms(total) = 0.14590E-03    rms(broyden)= 0.14588E-03
  rms(prec ) = 0.25452E-03
  weight for this iteration     100.00

 eigenvalues of (default mixing * dielectric matrix)
  average eigenvalue GAMMA=   1.8327
  6.7819  5.1123  2.9094  2.7278  2.0385  1.3654  1.3654  1.1619  0.8893  0.8893
  0.8172  0.7525  0.6374  0.6374  0.6265  0.6109

 Free energy of the ion-electron system (eV)
  ---------------------------------------------------
  alpha Z        PSCENC =         2.61129328
  Ewald energy   TEWEN  =      1246.39936197
  -Hartree energ DENC   =     -5213.90333568
  -exchange      EXHF   =         0.00000000
  -V(xc)+E(xc)   XCENC  =       -46.54322857
  PAW double counting   =      4301.06088219    -4122.39794839
  entropy T*S    EENTRO =         0.00000000
  eigenvalues    EBANDS =      -321.04892092
  atomic energy  EATOM  =      4148.79452035
  ---------------------------------------------------
  free energy    TOTEN  =        -5.02737578 eV

  energy without entropy =       -5.02737578  energy(sigma->0) =       -5.02737578


--------------------------------------------------------------------------------------------------------




----------------------------------------- Iteration    1(  22)  ---------------------------------------


    POTLOK:  cpu time    0.15: real time    0.15
    SETDIJ:  cpu time    0.00: real time    0.01
     EDDAV:  cpu time    0.12: real time    0.12
       DOS:  cpu time    0.00: real time    0.00
    --------------------------------------------
      LOOP:  cpu time    0.28: real time    0.28

 eigenvalue-minimisations  :    84
 total energy-change (2. order) :-0.4154089E-04  (-0.2515725E-06)
 number of electron      44.0000031 magnetization      -0.0003309
 augmentation part       21.1806594 magnetization      -0.0003131

 Free energy of the ion-electron system (eV)
  ---------------------------------------------------
  alpha Z        PSCENC =         2.61129328
  Ewald energy   TEWEN  =      1246.39936197
  -Hartree energ DENC   =     -5213.90098705
  -exchange      EXHF   =         0.00000000
  -V(xc)+E(xc)   XCENC  =       -46.54321802
  PAW double counting   =      4301.11909138    -4122.45655852
  entropy T*S    EENTRO =         0.00000000
  eigenvalues    EBANDS =      -321.05092071
  atomic energy  EATOM  =      4148.79452035
  ---------------------------------------------------
  free energy    TOTEN  =        -5.02741732 eV

  energy without entropy =       -5.02741732  energy(sigma->0) =       -5.02741732


--------------------------------------------------------------------------------------------------------




 average (electrostatic) potential at core
  the test charge radii are     1.1249
  (the norm of the test charge is              1.0000)
       1 -82.7339       2 -81.3865       3 -82.7043       4 -82.2125
 
 
 
 E-fermi :  -4.3153     XC(G=0):  -0.4846     alpha+bet : -0.1762


 spin component 1

 k-point     1 :       0.0000    0.0000    0.0000
  band No.  band energies     occupation 
      1      -9.5609      1.00000
      2      -8.9696      1.00000
      3      -8.6831      1.00000
      4      -8.6436      1.00000
      5      -8.1661      1.00000
      6      -8.1410      1.00000
      7      -7.9004      1.00000
      8      -7.7481      1.00000
      9      -7.4918      1.00000
     10      -7.3803      1.00000
     11      -7.3497      1.00000
     12      -7.3364      1.00000
     13      -7.1333      1.00000
     14      -7.0515      1.00000
     15      -7.0087      1.00000
     16      -6.4213      1.00000
     17      -6.4185      1.00000
     18      -6.3009      1.00000
     19      -6.2241      1.00000
     20      -6.1710      1.00000
     21      -6.1050      1.00000
     22      -4.3201      1.00000
     23      -3.4681      0.00000
     24      -2.3227      0.00000
     25      -1.6734      0.00000
     26      -0.8299      0.00000
     27      -0.7380      0.00000
     28      -0.3826      0.00000

 spin component 2

 k-point     1 :       0.0000    0.0000    0.0000
  band No.  band energies     occupation 
      1      -9.5609      1.00000
      2      -8.9696      1.00000
      3      -8.6831      1.00000
      4      -8.6436      1.00000
      5      -8.1661      1.00000
      6      -8.1410      1.00000
      7      -7.9004      1.00000
      8      -7.7481      1.00000
      9      -7.4918      1.00000
     10      -7.3803      1.00000
     11      -7.3497      1.00000
     12      -7.3364      1.00000
     13      -7.1333      1.00000
     14      -7.0515      1.00000
     15      -7.0087      1.00000
     16      -6.4213      1.00000
     17      -6.4185      1.00000
     18      -6.3009      1.00000
     19      -6.2241      1.00000
     20      -6.1710      1.00000
     21      -6.1050      1.00000
     22      -4.3202      1.00000
     23      -3.4681      0.00000
     24      -2.3227      0.00000
     25      -1.6736      0.00000
     26      -0.8294      0.00000
     27      -0.7377      0.00000
     28      -0.3822      0.00000


--------------------------------------------------------------------------------------------------------


 soft charge-density along one line, spin component           1
         0         1         2         3         4         5         6         7         8         9
 total charge-density along one line
 
 soft charge-density along one line, spin component           2
         0         1         2         3         4         5         6         7         8         9
 total charge-density along one line
 
 pseudopotential strength for first ion, spin component:           1
-10.614  -0.013   0.007  -0.018  -0.002 -10.577  -0.013   0.006
 -0.013 -10.622  -0.008  -0.010   0.017  -0.013 -10.585  -0.008
  0.007  -0.008 -10.614  -0.009  -0.012   0.006  -0.008 -10.577
 -0.018  -0.010  -0.009 -10.610  -0.014  -0.017  -0.010  -0.009
 -0.002   0.017  -0.012  -0.014 -10.619  -0.002   0.016  -0.012
-10.577  -0.013   0.006  -0.017  -0.002 -10.516  -0.012   0.006
 -0.013 -10.585  -0.008  -0.010   0.016  -0.012 -10.524  -0.008
  0.006  -0.008 -10.577  -0.009  -0.012   0.006  -0.008 -10.516
 -0.017  -0.010  -0.009 -10.573  -0.014  -0.017  -0.009  -0.008
 -0.002   0.016  -0.012  -0.014 -10.582  -0.002   0.016  -0.011
  0.004   0.009  -0.000   0.008  -0.005   0.004   0.009  -0.000
  0.006   0.014  -0.001   0.013  -0.007   0.006   0.014  -0.001
  0.021   0.029  -0.016  -0.001  -0.027   0.020   0.027  -0.015
 -0.001   0.027   0.035   0.020   0.000  -0.001   0.026   0.034
  0.028  -0.001  -0.013   0.029   0.021   0.027  -0.001  -0.013
  0.026   0.035  -0.019  -0.001  -0.032   0.025   0.033  -0.018
 -0.001   0.033   0.042   0.024   0.000  -0.001   0.031   0.041
  0.033  -0.001  -0.016   0.035   0.026   0.032  -0.001  -0.015
 pseudopotential strength for first ion, spin component:           2
-10.614  -0.013   0.007  -0.018  -0.002 -10.577  -0.013   0.006
 -0.013 -10.622  -0.008  -0.010   0.017  -0.013 -10.585  -0.008
  0.007  -0.008 -10.614  -0.009  -0.012   0.006  -0.008 -10.577
 -0.018  -0.010  -0.009 -10.610  -0.014  -0.017  -0.010  -0.009
 -0.002   0.017  -0.012  -0.014 -10.619  -0.002   0.016  -0.012
-10.577  -0.013   0.006  -0.017  -0.002 -10.516  -0.012   0.006
 -0.013 -10.585  -0.008  -0.010   0.016  -0.012 -10.524  -0.008
  0.006  -0.008 -10.577  -0.009  -0.012   0.006  -0.008 -10.516
 -0.017  -0.010  -0.009 -10.573  -0.014  -0.017  -0.009  -0.008
 -0.002   0.016  -0.012  -0.014 -10.582  -0.002   0.016  -0.011
  0.004   0.009  -0.000   0.008  -0.005   0.004   0.009  -0.000
  0.006   0.014  -0.001   0.013  -0.007   0.006   0.014  -0.001
  0.021   0.029  -0.016  -0.001  -0.027   0.020   0.027  -0.015
 -0.001   0.027   0.035   0.020   0.000  -0.001   0.026   0.034
  0.028  -0.001  -0.013   0.029   0.021   0.027  -0.001  -0.013
  0.026   0.035  -0.019  -0.001  -0.032   0.025   0.033  -0.018
 -0.001   0.033   0.042   0.024   0.000  -0.001   0.031   0.041
  0.033  -0.001  -0.016   0.035   0.026   0.032  -0.001  -0.015
 total augmentation occupancy for first ion, spin component:           1
  2.581   0.171   0.049   0.239   0.068  -0.598  -0.209  -0.050  -0.302  -0.094  -0.308   0.054   0.007   0.054   0.101   0.010
  0.171   2.701   0.068   0.219  -0.148  -0.209  -0.743  -0.083  -0.258   0.203  -0.772   0.140   0.104   0.124   0.053   0.007
  0.049   0.068   2.524   0.109   0.183  -0.049  -0.083  -0.543  -0.152  -0.252   0.045  -0.015  -0.072   0.051   0.031  -0.005
  0.239   0.219   0.109   2.585   0.082  -0.302  -0.258  -0.152  -0.622  -0.142  -0.699   0.109   0.041   0.098   0.101  -0.005
  0.068  -0.148   0.183   0.082   2.681  -0.093   0.204  -0.252  -0.142  -0.751   0.415  -0.090  -0.149  -0.003   0.042  -0.006
 -0.598  -0.209  -0.049  -0.302  -0.093   0.605   0.243   0.050   0.360   0.116   0.248  -0.035  -0.022  -0.056  -0.124   0.003
 -0.209  -0.743  -0.083  -0.258   0.204   0.243   0.774   0.096   0.295  -0.253   0.658  -0.108  -0.134  -0.148  -0.055   0.011
 -0.050  -0.083  -0.543  -0.152  -0.252   0.050   0.096   0.551   0.191   0.313  -0.054   0.018   0.090  -0.076  -0.026  -0.005
 -0.302  -0.258  -0.152  -0.622  -0.142   0.360   0.295   0.191   0.647   0.195   0.595  -0.083  -0.045  -0.123  -0.131   0.005
 -0.094   0.203  -0.252  -0.142  -0.751   0.116  -0.253   0.313   0.195   0.804  -0.370   0.076   0.182   0.002  -0.062  -0.012
 -0.308  -0.772   0.045  -0.699   0.415   0.248   0.658  -0.054   0.595  -0.370   1.727  -0.201  -0.231  -0.201  -0.128   0.017
  0.054   0.140  -0.015   0.109  -0.090  -0.035  -0.108   0.018  -0.083   0.076  -0.201   0.032   0.040   0.025   0.013  -0.002
  0.007   0.104  -0.072   0.041  -0.149  -0.022  -0.134   0.090  -0.045   0.182  -0.231   0.040   0.069   0.020   0.002  -0.005
  0.054   0.124   0.051   0.098  -0.003  -0.056  -0.148  -0.076  -0.123   0.002  -0.201   0.025   0.020   0.045   0.024  -0.002
  0.101   0.053   0.031   0.101   0.042  -0.124  -0.055  -0.026  -0.131  -0.062  -0.128   0.013   0.002   0.024   0.039  -0.001
  0.010   0.007  -0.005  -0.005  -0.006   0.003   0.011  -0.005   0.005  -0.012   0.017  -0.002  -0.005  -0.002  -0.001   0.001
 -0.005   0.006   0.017   0.003   0.001   0.004   0.012   0.005   0.010  -0.001   0.014  -0.002  -0.002  -0.004  -0.002   0.000
  0.009  -0.005  -0.009   0.009   0.011   0.008   0.005   0.001   0.009   0.003   0.009  -0.001  -0.001  -0.002  -0.003   0.000
 total augmentation occupancy for first ion, spin component:           2
  0.000   0.000   0.000   0.000   0.000  -0.000  -0.000  -0.000  -0.000  -0.000   0.000  -0.000   0.000   0.000   0.000  -0.000
  0.000   0.000   0.000   0.000  -0.000  -0.000  -0.000  -0.000  -0.000   0.000  -0.000  -0.000   0.000   0.000   0.000  -0.000
  0.000   0.000   0.000   0.000   0.000  -0.000  -0.000  -0.000  -0.000  -0.000   0.000  -0.000   0.000  -0.000   0.000  -0.000
  0.000   0.000   0.000   0.000  -0.000  -0.000  -0.000  -0.000  -0.000   0.000  -0.000  -0.000   0.000   0.000   0.000  -0.000
  0.000  -0.000   0.000  -0.000   0.000  -0.000   0.000  -0.000   0.000  -0.000   0.000   0.000   0.000   0.000   0.000   0.000
 -0.000  -0.000  -0.000  -0.000  -0.000   0.000   0.000   0.000   0.000   0.000   0.000   0.000  -0.000  -0.000  -0.000   0.000
 -0.000  -0.000  -0.000  -0.000   0.000   0.000   0.000   0.000   0.000  -0.000   0.000   0.000  -0.000  -0.000  -0.000   0.000
 -0.000  -0.000  -0.000  -0.000  -0.000   0.000   0.000   0.000   0.000   0.000  -0.000   0.000  -0.000  -0.000  -0.000   0.000
 -0.000  -0.000  -0.000  -0.000   0.000   0.000   0.000   0.000   0.000   0.000   0.000   0.000  -0.000  -0.000  -0.000   0.000
 -0.000   0.000  -0.000   0.000  -0.000   0.000  -0.000   0.000   0.000   0.000  -0.000  -0.000  -0.000  -0.000   0.000   0.000
  0.000  -0.000   0.000  -0.000   0.000   0.000   0.000  -0.000   0.000  -0.000  -0.000   0.000  -0.000  -0.000   0.000   0.000
 -0.000  -0.000  -0.000  -0.000   0.000   0.000   0.000   0.000   0.000  -0.000   0.000  -0.000  -0.000  -0.000  -0.000  -0.000
  0.000   0.000   0.000   0.000   0.000  -0.000  -0.000  -0.000  -0.000  -0.000  -0.000  -0.000  -0.000   0.000   0.000   0.000
  0.000   0.000  -0.000   0.000   0.000  -0.000  -0.000  -0.000  -0.000  -0.000  -0.000  -0.000   0.000   0.000   0.000  -0.000
  0.000   0.000   0.000   0.000   0.000  -0.000  -0.000  -0.000  -0.000   0.000   0.000  -0.000   0.000   0.000  -0.000  -0.000
 -0.000  -0.000  -0.000  -0.000   0.000   0.000   0.000   0.000   0.000   0.000   0.000  -0.000   0.000  -0.000  -0.000  -0.000
 -0.000  -0.000   0.000  -0.000   0.000   0.000  -0.000  -0.000  -0.000  -0.000  -0.000   0.000  -0.000  -0.000  -0.000  -0.000
  0.000  -0.000   0.000   0.000  -0.000  -0.000   0.000   0.000  -0.000  -0.000  -0.000   0.000  -0.000  -0.000   0.000   0.000


------------------------ aborting loop because EDIFF is reached ----------------------------------------


    CHARGE:  cpu time    0.02: real time    0.02
    FORLOC:  cpu time    0.00: real time    0.00
    FORNL :  cpu time    0.03: real time    0.03
    STRESS:  cpu time    0.05: real time    0.05
    FORCOR:  cpu time    0.14: real time    0.15
    FORHAR:  cpu time    0.02: real time    0.02
    MIXING:  cpu time    0.01: real time    0.01
    OFIELD:  cpu time    0.00: real time    0.00

  FORCE on cell =-STRESS in cart. coord.  units (eV):
  Direction    XX          YY          ZZ          XY          YZ          ZX
  --------------------------------------------------------------------------------------
  Alpha Z     2.61129     2.61129     2.61129
  Ewald     145.07576  1262.58973  -161.26710  -682.96086   -54.06435   621.73954
  Hartree  1522.79834  2423.72741  1267.37566  -545.59947   -60.07463   457.75164
  E(xc)    -232.27451  -231.56415  -232.44230    -0.45315     0.03145     0.57296
  Local   -2312.30422 -4322.98592 -1751.86955  1224.14840   115.68071 -1071.09412
  n-local   -43.53302   -42.77450   -44.05886    -0.89438    -0.69908    -0.51138
  augment   366.81506   364.40299   367.31080     1.47241    -0.25357    -2.20793
  Kinetic   551.79473   547.33371   552.52404     2.51983    -0.80472    -4.58377
  Fock        0.00000     0.00000     0.00000     0.00000     0.00000     0.00000
  -------------------------------------------------------------------------------------
  Total       0.98344     3.34056     0.18399    -1.76722    -0.18418     1.66694
  in kB       0.30233     1.02695     0.05656    -0.54328    -0.05662     0.51245
  external pressure =        0.46 kB  Pullay stress =        0.00 kB


 VOLUME and BASIS-vectors are now :
 -----------------------------------------------------------------------------
  energy-cutoff  :      249.84
  volume of cell :     5211.69
      direct lattice vectors                 reciprocal lattice vectors
    17.337754033  0.000000000  0.000000000     0.057677598  0.000000000  0.000000000
     0.000000000 17.337754033  0.000000000     0.000000000  0.057677598  0.000000000
     0.000000000  0.000000000 17.337754033     0.000000000  0.000000000  0.057677598

  length of vectors
    17.337754033 17.337754033 17.337754033     0.057677598  0.057677598  0.057677598


 FORCES acting on ions
    electron-ion (+dipol)            ewald-force                    non-local-force                 convergence-correction
 -----------------------------------------------------------------------------------------------
   -.115E+03 -.433E+03 -.256E+03   0.111E+03 0.428E+03 0.251E+03   0.410E+01 0.598E+01 0.600E+01   0.315E-03 0.338E-03 0.568E-03
   -.212E+03 0.352E+03 -.903E+02   0.208E+03 -.347E+03 0.887E+02   0.408E+01 -.656E+01 0.185E+01   0.289E-03 -.628E-03 0.995E-04
   0.379E+03 -.839E+02 0.345E+03   -.374E+03 0.854E+02 -.339E+03   -.627E+01 -.130E+01 -.656E+01   -.485E-03 -.580E-03 -.749E-03
   -.524E+02 0.164E+03 0.143E+01   0.541E+02 -.166E+03 -.374E+00   -.162E+01 0.154E+01 -.106E+01   0.395E-03 -.125E-02 0.200E-03
 -----------------------------------------------------------------------------------------------
   -.315E+00 0.307E+00 -.209E+00   0.568E-13 0.000E+00 0.285E-13   0.283E+00 -.333E+00 0.231E+00   0.515E-03 -.212E-02 0.119E-03
 
 
 POSITION                                       TOTAL-FORCE (eV/Angst)
 -----------------------------------------------------------------------------------
      8.92329     10.99650      9.57614         0.316544      1.016142      0.643418
     10.44517      6.46403      9.57597         0.531441     -0.870582      0.241587
      7.46371      9.98719      7.81275        -0.964140      0.214951     -0.873058
      9.18508      8.49957      9.01502         0.116156     -0.360510     -0.011948
 -----------------------------------------------------------------------------------
    total drift:                               -0.031168     -0.028511      0.022300


--------------------------------------------------------------------------------------------------------



  FREE ENERGIE OF THE ION-ELECTRON SYSTEM (eV)
  ---------------------------------------------------
  free  energy   TOTEN  =        -5.02741732 eV

  energy  without entropy=       -5.02741732  energy(sigma->0) =       -5.02741732
 


--------------------------------------------------------------------------------------------------------


    POTLOK:  cpu time    0.16: real time    0.16


--------------------------------------------------------------------------------------------------------




--------------------------------------------------------------------------------------------------------


    WAVPRE:  cpu time    0.01: real time    0.01
 FEWALD executed in parallel
    FEWALD:  cpu time    0.00: real time    0.00
    ORTHCH:  cpu time    0.01: real time    0.01
     LOOP+:  cpu time    7.07: real time    7.41


----------------------------------------- Iteration    2(   1)  ---------------------------------------


    POTLOK:  cpu time    0.15: real time    0.15
    SETDIJ:  cpu time    0.01: real time    0.01
     EDDAV:  cpu time    0.14: real time    0.15
       DOS:  cpu time    0.00: real time    0.00
    CHARGE:  cpu time    0.02: real time    0.02
    MIXING:  cpu time    0.00: real time    0.01
    --------------------------------------------
      LOOP:  cpu time    0.33: real time    0.35

 eigenvalue-minimisations  :   112
 total energy-change (2. order) :-0.3915774E-01  (-0.2955439E+00)
 number of electron      44.0000077 magnetization       0.0000390
 augmentation part       21.1884182 magnetization       0.0000446

 Broyden mixing:
  rms(total) = 0.23012E-01    rms(broyden)= 0.22976E-01
  rms(prec ) = 0.23215E-01
  weight for this iteration     100.00

 Free energy of the ion-electron system (eV)
  ---------------------------------------------------
  alpha Z        PSCENC =         2.61129328
  Ewald energy   TEWEN  =      1229.08072668
  -Hartree energ DENC   =     -5196.81662726
  -exchange      EXHF   =         0.00000000
  -V(xc)+E(xc)   XCENC  =       -46.60915348
  PAW double counting   =      4301.14851855    -4122.48622770
  entropy T*S    EENTRO =         0.00000000
  eigenvalues    EBANDS =      -320.78958394
  atomic energy  EATOM  =      4148.79452035
  ---------------------------------------------------
  free energy    TOTEN  =        -5.06653352 eV

  energy without entropy =       -5.06653352  energy(sigma->0) =       -5.06653352


--------------------------------------------------------------------------------------------------------




----------------------------------------- Iteration    2(   2)  ---------------------------------------


    POTLOK:  cpu time    0.15: real time    0.15
    SETDIJ:  cpu time    0.01: real time    0.01
     EDDAV:  cpu time    0.14: real time    0.15
       DOS:  cpu time    0.00: real time    0.00
    CHARGE:  cpu time    0.02: real time    0.02
    MIXING:  cpu time    0.00: real time    0.00
    --------------------------------------------
      LOOP:  cpu time    0.33: real time    0.34

 eigenvalue-minimisations  :   112
 total energy-change (2. order) :-0.1315919E-02  (-0.1420696E-02)
 number of electron      44.0000077 magnetization       0.0000274
 augmentation part       21.1864303 magnetization       0.0000267

 Broyden mixing:
  rms(total) = 0.15392E-01    rms(broyden)= 0.15389E-01
  rms(prec ) = 0.15489E-01
  weight for this iteration     100.00

 eigenvalues of (default mixing * dielectric matrix)
  average eigenvalue GAMMA=   1.7673
  1.7673

 Free energy of the ion-electron system (eV)
  ---------------------------------------------------
  alpha Z        PSCENC =         2.61129328
  Ewald energy   TEWEN  =      1229.08072668
  -Hartree energ DENC   =     -5196.98007445
  -exchange      EXHF   =         0.00000000
  -V(xc)+E(xc)   XCENC  =       -46.60146274
  PAW double counting   =      4296.65408728    -4117.92827316
  entropy T*S    EENTRO =         0.00000000
  eigenvalues    EBANDS =      -320.69866668
  atomic energy  EATOM  =      4148.79452035
  ---------------------------------------------------
  free energy    TOTEN  =        -5.06784944 eV

  energy without entropy =       -5.06784944  energy(sigma->0) =       -5.06784944


--------------------------------------------------------------------------------------------------------




----------------------------------------- Iteration    2(   3)  ---------------------------------------


    POTLOK:  cpu time    0.15: real time    0.15
    SETDIJ:  cpu time    0.01: real time    0.01
     EDDAV:  cpu time    0.15: real time    0.15
       DOS:  cpu time    0.00: real time    0.00
    --------------------------------------------
      LOOP:  cpu time    0.30: real time    0.31

 eigenvalue-minimisations  :   116
 total energy-change (2. order) :-0.1326105E-04  (-0.3120133E-04)
 number of electron      44.0000077 magnetization       0.0000274
 augmentation part       21.1864303 magnetization       0.0000267

 Free energy of the ion-electron system (eV)
  ---------------------------------------------------
  alpha Z        PSCENC =         2.61129328
  Ewald energy   TEWEN  =      1229.08072668
  -Hartree energ DENC   =     -5197.17472314
  -exchange      EXHF   =         0.00000000
  -V(xc)+E(xc)   XCENC  =       -46.59771027
  PAW double counting   =      4292.63813142    -4113.84470447
  entropy T*S    EENTRO =         0.00000000
  eigenvalues    EBANDS =      -320.57539655
  atomic energy  EATOM  =      4148.79452035
  ---------------------------------------------------
  free energy    TOTEN  =        -5.06786270 eV

  energy without entropy =       -5.06786270  energy(sigma->0) =       -5.06786270


--------------------------------------------------------------------------------------------------------




 average (electrostatic) potential at core
  the test charge radii are     1.1249
  (the norm of the test charge is              1.0000)
       1 -82.7266       2 -81.3840       3 -82.6964       4 -82.1983
 
 
 
 E-fermi :  -4.3027     XC(G=0):  -0.4857     alpha+bet : -0.1762


 spin component 1

 k-point     1 :       0.0000    0.0000    0.0000
  band No.  band energies     occupation 
      1      -9.4997      1.00000
      2      -8.9207      1.00000
      3      -8.6405      1.00000
      4      -8.6095      1.00000
      5      -8.1432      1.00000
      6      -8.1179      1.00000
      7      -7.8884      1.00000
      8      -7.7358      1.00000
      9      -7.4982      1.00000
     10      -7.3737      1.00000
     11      -7.3620      1.00000
     12      -7.3459      1.00000
     13      -7.1290      1.00000
     14      -7.0490      1.00000
     15      -7.0140      1.00000
     16      -6.4203      1.00000
     17      -6.4179      1.00000
     18      -6.2887      1.00000
     19      -6.2272      1.00000
     20      -6.1784      1.00000
     21      -6.1082      1.00000
     22      -4.3192      1.00000
     23      -3.4816      0.00000
     24      -2.3297      0.00000
     25      -1.6667      0.00000
     26      -0.8431      0.00000
     27      -0.7445      0.00000
     28      -0.3919      0.00000

 spin component 2

 k-point     1 :       0.0000    0.0000    0.0000
  band No.  band energies     occupation 
      1      -9.4997      1.00000
      2      -8.9207      1.00000
      3      -8.6405      1.00000
      4      -8.6095      1.00000
      5      -8.1432      1.00000
      6      -8.1179      1.00000
      7      -7.8884      1.00000
      8      -7.7358      1.00000
      9      -7.4982      1.00000
     10      -7.3738      1.00000
     11      -7.3620      1.00000
     12      -7.3459      1.00000
     13      -7.1290      1.00000
     14      -7.0490      1.00000
     15      -7.0140      1.00000
     16      -6.4203      1.00000
     17      -6.4179      1.00000
     18      -6.2887      1.00000
     19      -6.2272      1.00000
     20      -6.1784      1.00000
     21      -6.1083      1.00000
     22      -4.3192      1.00000
     23      -3.4815      0.00000
     24      -2.3297      0.00000
     25      -1.6665      0.00000
     26      -0.8426      0.00000
     27      -0.7441      0.00000
     28      -0.3914      0.00000


--------------------------------------------------------------------------------------------------------


 soft charge-density along one line, spin component           1
         0         1         2         3         4         5         6         7         8         9
 total charge-density along one line
 
 soft charge-density along one line, spin component           2
[...]
  (g-gl).g = 0.143E-03      g.g   = 0.125E-03  gl.gl    = 0.303E-02
 g(Force)  = 0.125E-03   g(Stress)= 0.000E+00 ortho     =-0.107E-03
 gamma     =   0.04732
 trial     =   6.26472
 opt step  =   6.87933  (harmonic =   6.87933) maximal distance =0.00235481
 next E    =    -5.247955   (d E  =  -0.00041)


--------------------------------------------------------------------------------------------------------


    WAVPRE:  cpu time    0.01: real time    0.01
 FEWALD executed in parallel
    FEWALD:  cpu time    0.00: real time    0.00
    ORTHCH:  cpu time    0.00: real time    0.01
     LOOP+:  cpu time    1.37: real time    2.03


----------------------------------------- Iteration   11(   1)  ---------------------------------------


    POTLOK:  cpu time    0.15: real time    0.15
    SETDIJ:  cpu time    0.01: real time    0.01
     EDDAV:  cpu time    0.14: real time    0.15
       DOS:  cpu time    0.00: real time    0.00
    CHARGE:  cpu time    0.02: real time    0.02
    MIXING:  cpu time    0.00: real time    0.00
    --------------------------------------------
      LOOP:  cpu time    0.32: real time    0.34

 eigenvalue-minimisations  :   112
 total energy-change (2. order) :-0.4526218E-04  (-0.3345870E-03)
 number of electron      43.9999900 magnetization       0.0000000
 augmentation part       21.2418332 magnetization      -0.0000000

 Broyden mixing:
  rms(total) = 0.65764E-03    rms(broyden)= 0.65639E-03
  rms(prec ) = 0.74358E-03
  weight for this iteration     100.00

 Free energy of the ion-electron system (eV)
  ---------------------------------------------------
  alpha Z        PSCENC =         2.61129328
  Ewald energy   TEWEN  =      1057.23585699
  -Hartree energ DENC   =     -5031.12820738
  -exchange      EXHF   =         0.00000000
  -V(xc)+E(xc)   XCENC  =       -47.02142882
  PAW double counting   =      4207.47974161    -4027.19228108
  entropy T*S    EENTRO =         0.00000000
  eigenvalues    EBANDS =      -316.02755429
  atomic energy  EATOM  =      4148.79452035
  ---------------------------------------------------
  free energy    TOTEN  =        -5.24805934 eV

  energy without entropy =       -5.24805934  energy(sigma->0) =       -5.24805934


--------------------------------------------------------------------------------------------------------




----------------------------------------- Iteration   11(   2)  ---------------------------------------


    POTLOK:  cpu time    0.15: real time    0.15
    SETDIJ:  cpu time    0.00: real time    0.01
     EDDAV:  cpu time    0.10: real time    0.10
       DOS:  cpu time    0.00: real time    0.00
    --------------------------------------------
      LOOP:  cpu time    0.26: real time    0.26

 eigenvalue-minimisations  :    64
 total energy-change (2. order) :-0.7164062E-05  (-0.1648255E-05)
 number of electron      43.9999900 magnetization       0.0000000
 augmentation part       21.2418332 magnetization      -0.0000000

 Free energy of the ion-electron system (eV)
  ---------------------------------------------------
  alpha Z        PSCENC =         2.61129328
  Ewald energy   TEWEN  =      1057.23585699
  -Hartree energ DENC   =     -5031.12845820
  -exchange      EXHF   =         0.00000000
  -V(xc)+E(xc)   XCENC  =       -47.02128904
  PAW double counting   =      4207.41413636    -4027.12544687
  entropy T*S    EENTRO =         0.00000000
  eigenvalues    EBANDS =      -316.02867937
  atomic energy  EATOM  =      4148.79452035
  ---------------------------------------------------
  free energy    TOTEN  =        -5.24806650 eV

  energy without entropy =       -5.24806650  energy(sigma->0) =       -5.24806650


--------------------------------------------------------------------------------------------------------




 average (electrostatic) potential at core
  the test charge radii are     1.1249
  (the norm of the test charge is              1.0000)
       1 -82.6749       2 -81.3401       3 -82.6363       4 -82.0191
 
 
 
 E-fermi :  -4.2998     XC(G=0):  -0.4987     alpha+bet : -0.1762


 spin component 1

 k-point     1 :       0.0000    0.0000    0.0000
  band No.  band energies     occupation 
      1      -9.0259      1.00000
      2      -8.7022      1.00000
      3      -8.3857      1.00000
      4      -8.1933      1.00000
      5      -7.9985      1.00000
      6      -7.9737      1.00000
      7      -7.7403      1.00000
      8      -7.5707      1.00000
      9      -7.4686      1.00000
     10      -7.3773      1.00000
     11      -7.3474      1.00000
     12      -7.2391      1.00000
     13      -7.0501      1.00000
     14      -6.9837      1.00000
     15      -6.9736      1.00000
     16      -6.4077      1.00000
     17      -6.4076      1.00000
     18      -6.2830      1.00000
     19      -6.2740      1.00000
     20      -6.2159      1.00000
     21      -6.0796      1.00000
     22      -4.3164      1.00000
     23      -3.5083      0.00000
     24      -2.4611      0.00000
     25      -1.6045      0.00000
     26      -0.8784      0.00000
     27      -0.7555      0.00000
     28      -0.5245      0.00000

 spin component 2

 k-point     1 :       0.0000    0.0000    0.0000
  band No.  band energies     occupation 
      1      -9.0259      1.00000
      2      -8.7022      1.00000
      3      -8.3857      1.00000
      4      -8.1933      1.00000
      5      -7.9985      1.00000
      6      -7.9737      1.00000
      7      -7.7403      1.00000
      8      -7.5707      1.00000
      9      -7.4686      1.00000
     10      -7.3773      1.00000
     11      -7.3474      1.00000
     12      -7.2391      1.00000
     13      -7.0501      1.00000
     14      -6.9837      1.00000
     15      -6.9736      1.00000
     16      -6.4077      1.00000
     17      -6.4076      1.00000
     18      -6.2830      1.00000
     19      -6.2740      1.00000
     20      -6.2159      1.00000
     21      -6.0796      1.00000
     22      -4.3164      1.00000
     23      -3.5083      0.00000
     24      -2.4611      0.00000
     25      -1.6045      0.00000
     26      -0.8784      0.00000
     27      -0.7555      0.00000
     28      -0.5245      0.00000


--------------------------------------------------------------------------------------------------------


 soft charge-density along one line, spin component           1
         0         1         2         3         4         5         6         7         8         9
 total charge-density along one line
 
 soft charge-density along one line, spin component           2
         0         1         2         3         4         5         6         7         8         9
 total charge-density along one line
 
 pseudopotential strength for first ion, spin component:           1
-10.586  -0.011   0.005  -0.013  -0.002 -10.550  -0.010   0.005
 -0.011 -10.591  -0.006  -0.008   0.011  -0.010 -10.555  -0.006
  0.005  -0.006 -10.588  -0.008  -0.007   0.005  -0.006 -10.552
 -0.013  -0.008  -0.008 -10.586  -0.012  -0.012  -0.007  -0.008
 -0.002   0.011  -0.007  -0.012 -10.589  -0.002   0.011  -0.007
-10.550  -0.010   0.005  -0.012  -0.002 -10.490  -0.010   0.004
 -0.010 -10.555  -0.006  -0.007   0.011  -0.010 -10.496  -0.006
  0.005  -0.006 -10.552  -0.008  -0.007   0.004  -0.006 -10.492
 -0.012  -0.007  -0.008 -10.551  -0.012  -0.012  -0.007  -0.007
 -0.002   0.011  -0.007  -0.012 -10.553  -0.002   0.011  -0.007
  0.003   0.007   0.000   0.007  -0.003   0.003   0.007   0.000
  0.005   0.011   0.000   0.012  -0.005   0.005   0.011   0.000
  0.022   0.031  -0.017  -0.001  -0.030   0.021   0.030  -0.017
 -0.001   0.029   0.036   0.021  -0.000  -0.001   0.028   0.035
  0.030  -0.001  -0.013   0.031   0.022   0.028  -0.001  -0.013
  0.027   0.038  -0.021  -0.001  -0.036   0.026   0.037  -0.020
 -0.001   0.036   0.045   0.026  -0.000  -0.001   0.035   0.043
  0.036  -0.001  -0.016   0.038   0.027   0.035  -0.001  -0.015
 pseudopotential strength for first ion, spin component:           2
-10.586  -0.011   0.005  -0.013  -0.002 -10.550  -0.010   0.005
 -0.011 -10.591  -0.006  -0.008   0.011  -0.010 -10.555  -0.006
  0.005  -0.006 -10.588  -0.008  -0.007   0.005  -0.006 -10.552
 -0.013  -0.008  -0.008 -10.586  -0.012  -0.012  -0.007  -0.008
 -0.002   0.011  -0.007  -0.012 -10.589  -0.002   0.011  -0.007
-10.550  -0.010   0.005  -0.012  -0.002 -10.490  -0.010   0.004
 -0.010 -10.555  -0.006  -0.007   0.011  -0.010 -10.496  -0.006
  0.005  -0.006 -10.552  -0.008  -0.007   0.004  -0.006 -10.492
 -0.012  -0.007  -0.008 -10.551  -0.012  -0.012  -0.007  -0.007
 -0.002   0.011  -0.007  -0.012 -10.553  -0.002   0.011  -0.007
  0.003   0.007   0.000   0.007  -0.003   0.003   0.007   0.000
  0.005   0.011   0.000   0.012  -0.005   0.005   0.011   0.000
  0.022   0.031  -0.017  -0.001  -0.030   0.021   0.030  -0.017
 -0.001   0.029   0.036   0.021  -0.000  -0.001   0.028   0.035
  0.030  -0.001  -0.013   0.031   0.022   0.028  -0.001  -0.013
  0.027   0.038  -0.021  -0.001  -0.036   0.026   0.037  -0.020
 -0.001   0.036   0.045   0.026  -0.000  -0.001   0.035   0.043
  0.036  -0.001  -0.016   0.038   0.027   0.035  -0.001  -0.015
 total augmentation occupancy for first ion, spin component:           1
  2.383   0.118   0.033   0.143   0.031  -0.379  -0.150  -0.035  -0.196  -0.055  -0.266   0.041   0.004   0.041   0.060   0.011
  0.118   2.469   0.043   0.159  -0.074  -0.150  -0.481  -0.058  -0.194   0.112  -0.613   0.101   0.066   0.079   0.042   0.012
  0.033   0.043   2.357   0.067   0.078  -0.035  -0.058  -0.359  -0.107  -0.129  -0.014  -0.003  -0.039   0.029   0.025  -0.008
  0.143   0.159   0.067   2.438   0.036  -0.196  -0.194  -0.107  -0.462  -0.091  -0.625   0.090   0.034   0.074   0.069  -0.004
  0.031  -0.074   0.078   0.036   2.423  -0.056   0.111  -0.129  -0.090  -0.455   0.260  -0.054  -0.086  -0.001   0.025  -0.012
 -0.379  -0.150  -0.035  -0.196  -0.056   0.366   0.180   0.036   0.244   0.077   0.215  -0.027  -0.018  -0.044  -0.082   0.002
 -0.150  -0.481  -0.058  -0.194   0.111   0.180   0.482   0.072   0.226  -0.144   0.514  -0.077  -0.093  -0.102  -0.044   0.008
 -0.035  -0.058  -0.359  -0.107  -0.129   0.036   0.072   0.350   0.142   0.173   0.002   0.008   0.054  -0.055  -0.021  -0.003
 -0.196  -0.194  -0.107  -0.462  -0.090   0.244   0.226   0.142   0.476   0.137   0.524  -0.067  -0.038  -0.098  -0.099   0.004
 -0.055   0.112  -0.129  -0.091  -0.455   0.077  -0.144   0.173   0.137   0.470  -0.228   0.047   0.114  -0.001  -0.045  -0.007
 -0.266  -0.613  -0.014  -0.625   0.260   0.215   0.514   0.002   0.524  -0.228   1.569  -0.167  -0.183  -0.175  -0.116   0.014
  0.041   0.101  -0.003   0.090  -0.054  -0.027  -0.077   0.008  -0.067   0.047  -0.167   0.025   0.029   0.020   0.011  -0.002
  0.004   0.066  -0.039   0.034  -0.086  -0.018  -0.093   0.054  -0.038   0.114  -0.183   0.029   0.050   0.016   0.003  -0.004
  0.041   0.079   0.029   0.074  -0.001  -0.044  -0.102  -0.055  -0.098  -0.001  -0.175   0.020   0.016   0.035   0.020  -0.002
  0.060   0.042   0.025   0.069   0.025  -0.082  -0.044  -0.021  -0.099  -0.045  -0.116   0.011   0.003   0.020   0.029  -0.001
  0.011   0.012  -0.008  -0.004  -0.012   0.002   0.008  -0.003   0.004  -0.007   0.014  -0.002  -0.004  -0.002  -0.001   0.001
 -0.004   0.010   0.019   0.006   0.001   0.004   0.008   0.003   0.008  -0.001   0.013  -0.001  -0.002  -0.003  -0.002   0.000
  0.013  -0.004  -0.009   0.013   0.012   0.005   0.004   0.001   0.007   0.002   0.008  -0.001  -0.001  -0.002  -0.002   0.000
 total augmentation occupancy for first ion, spin component:           2
 -0.000   0.000   0.000   0.000   0.000   0.000  -0.000  -0.000  -0.000  -0.000  -0.000   0.000   0.000   0.000   0.000  -0.000
  0.000  -0.000   0.000   0.000   0.000  -0.000   0.000  -0.000  -0.000  -0.000  -0.000   0.000   0.000  -0.000   0.000  -0.000
  0.000   0.000   0.000   0.000   0.000  -0.000  -0.000  -0.000  -0.000  -0.000  -0.000   0.000  -0.000   0.000   0.000   0.000
  0.000   0.000   0.000  -0.000   0.000  -0.000  -0.000  -0.000   0.000  -0.000   0.000  -0.000  -0.000   0.000   0.000  -0.000
  0.000   0.000   0.000   0.000   0.000  -0.000  -0.000  -0.000  -0.000  -0.000   0.000  -0.000  -0.000   0.000   0.000   0.000
  0.000  -0.000  -0.000  -0.000  -0.000   0.000   0.000   0.000   0.000   0.000   0.000  -0.000  -0.000  -0.000  -0.000   0.000
 -0.000   0.000  -0.000  -0.000  -0.000   0.000   0.000   0.000   0.000   0.000   0.000  -0.000  -0.000  -0.000  -0.000   0.000
 -0.000  -0.000  -0.000  -0.000  -0.000   0.000   0.000   0.000   0.000   0.000  -0.000   0.000   0.000  -0.000  -0.000  -0.000
 -0.000  -0.000  -0.000   0.000  -0.000   0.000   0.000   0.000   0.000   0.000  -0.000   0.000   0.000  -0.000  -0.000  -0.000
 -0.000  -0.000  -0.000  -0.000  -0.000   0.000   0.000   0.000   0.000   0.000  -0.000   0.000   0.000  -0.000  -0.000   0.000
 -0.000  -0.000  -0.000   0.000   0.000   0.000   0.000  -0.000  -0.000  -0.000  -0.000   0.000  -0.000  -0.000  -0.000  -0.000
  0.000   0.000   0.000  -0.000  -0.000  -0.000  -0.000   0.000   0.000   0.000   0.000   0.000   0.000   0.000   0.000   0.000
  0.000   0.000  -0.000  -0.000  -0.000  -0.000  -0.000   0.000   0.000   0.000  -0.000   0.000  -0.000  -0.000  -0.000   0.000
  0.000  -0.000   0.000   0.000   0.000  -0.000  -0.000  -0.000  -0.000  -0.000  -0.000   0.000  -0.000   0.000   0.000   0.000
  0.000   0.000   0.000   0.000   0.000  -0.000  -0.000  -0.000  -0.000  -0.000  -0.000   0.000  -0.000   0.000   0.000  -0.000
 -0.000  -0.000   0.000  -0.000   0.000   0.000   0.000  -0.000  -0.000   0.000  -0.000   0.000   0.000   0.000  -0.000  -0.000
 -0.000   0.000   0.000  -0.000   0.000  -0.000   0.000   0.000   0.000   0.000   0.000   0.000   0.000  -0.000  -0.000  -0.000
  0.000  -0.000   0.000  -0.000  -0.000   0.000   0.000  -0.000   0.000  -0.000   0.000  -0.000  -0.000  -0.000  -0.000   0.000


------------------------ aborting loop because EDIFF is reached ----------------------------------------


    CHARGE:  cpu time    0.02: real time    0.02
    FORLOC:  cpu time    0.00: real time    0.00
    FORNL :  cpu time    0.03: real time    0.03
    STRESS:  cpu time    0.05: real time    0.05
    FORCOR:  cpu time    0.15: real time    0.15
    FORHAR:  cpu time    0.02: real time    0.02
    MIXING:  cpu time    0.00: real time    0.00
    OFIELD:  cpu time    0.00: real time    0.00

  FORCE on cell =-STRESS in cart. coord.  units (eV):
  Direction    XX          YY          ZZ          XY          YZ          ZX
  --------------------------------------------------------------------------------------
  Alpha Z     2.61129     2.61129     2.61129
  Ewald      94.50083  1158.57410  -195.84006  -646.04224   -58.50699   583.38275
  Hartree  1466.14019  2348.56428  1216.42692  -530.74640   -64.41983   441.77386
  E(xc)    -231.76871  -231.10053  -231.91907    -0.43405     0.02566     0.55035
  Local   -2201.71297 -4142.86156 -1662.32305  1173.87591   124.37524 -1018.54845
  n-local   -49.39801   -49.91186   -49.49090     0.12527    -0.49012    -1.27667
  augment   367.04486   365.40560   367.32018     0.95023    -0.27046    -1.66619
  Kinetic   551.30915   547.38087   551.91802     2.25301    -0.72514    -4.17226
  Fock        0.00000     0.00000     0.00000     0.00000     0.00000     0.00000
  -------------------------------------------------------------------------------------
  Total      -1.27336    -1.33781    -1.29666    -0.01827    -0.01164     0.04340
  in kB      -0.39146    -0.41127    -0.39862    -0.00562    -0.00358     0.01334
  external pressure =       -0.40 kB  Pullay stress =        0.00 kB


 VOLUME and BASIS-vectors are now :
 -----------------------------------------------------------------------------
  energy-cutoff  :      249.84
  volume of cell :     5211.69
      direct lattice vectors                 reciprocal lattice vectors
    17.337754033  0.000000000  0.000000000     0.057677598  0.000000000  0.000000000
     0.000000000 17.337754033  0.000000000     0.000000000  0.057677598  0.000000000
     0.000000000  0.000000000 17.337754033     0.000000000  0.000000000  0.057677598

  length of vectors
    17.337754033 17.337754033 17.337754033     0.057677598  0.057677598  0.057677598


 FORCES acting on ions
    electron-ion (+dipol)            ewald-force                    non-local-force                 convergence-correction
 -----------------------------------------------------------------------------------------------
   -.107E+03 -.382E+03 -.233E+03   0.103E+03 0.377E+03 0.228E+03   0.388E+01 0.514E+01 0.553E+01   -.643E-02 -.452E-02 -.768E-02
   -.190E+03 0.314E+03 -.825E+02   0.187E+03 -.308E+03 0.808E+02   0.378E+01 -.599E+01 0.173E+01   0.466E-02 -.633E-02 0.133E-02
   0.336E+03 -.703E+02 0.309E+03   -.331E+03 0.717E+02 -.303E+03   -.548E+01 -.142E+01 -.592E+01   0.464E-02 0.229E-02 0.634E-02
   -.390E+02 0.139E+03 0.655E+01   0.409E+02 -.141E+03 -.538E+01   -.187E+01 0.198E+01 -.117E+01   -.197E-03 -.583E-03 -.138E-02
 -----------------------------------------------------------------------------------------------
   -.286E+00 0.313E+00 -.163E+00   0.426E-13 0.000E+00 0.284E-13   0.306E+00 -.297E+00 0.166E+00   0.267E-02 -.914E-02 -.139E-02
 
 
 POSITION                                       TOTAL-FORCE (eV/Angst)
 -----------------------------------------------------------------------------------
      8.89247     11.10988      9.58828         0.008801     -0.006566      0.015106
     10.54085      6.30625      9.62219         0.003878     -0.017122      0.005382
      7.37450     10.09147      7.75058        -0.006973      0.012505     -0.023946
      9.20943      8.43968      9.01884        -0.005705      0.011183      0.003458
 -----------------------------------------------------------------------------------
    total drift:                                0.022380      0.006800      0.002264


--------------------------------------------------------------------------------------------------------



  FREE ENERGIE OF THE ION-ELECTRON SYSTEM (eV)
  ---------------------------------------------------
  free  energy   TOTEN  =        -5.24806650 eV

  energy  without entropy=       -5.24806650  energy(sigma->0) =       -5.24806650
 
 d Force = 0.7851123E-05[ 0.909E-05, 0.661E-05]  d Energy = 0.3937071E-04-0.315E-04
 d Force = 0.3407248E+00[ 0.341E+00, 0.341E+00]  d Ewald  = 0.3407248E+00 0.985E-08


--------------------------------------------------------------------------------------------------------


    POTLOK:  cpu time    0.16: real time    0.16


--------------------------------------------------------------------------------------------------------




--------------------------------------------------------------------------------------------------------


  
 reached required accuracy - stopping structural energy minimisation
     LOOP+:  cpu time    1.03: real time    2.17
    4ORBIT:  cpu time    0.00: real time    0.00

 total amount of memory used by VASP on root node    46162. kBytes
========================================================================

   base      :      30000. kBytes
   nonl-proj :        607. kBytes
   fftplans  :       4202. kBytes
   grid      :      10682. kBytes
   one-center:         15. kBytes
   wavefun   :        656. kBytes
 
  
  
 General timing and accounting informations for this job:
 ========================================================
  
                  Total CPU time used (sec):       22.945
                            User time (sec):       21.925
                          System time (sec):        1.020
                         Elapsed time (sec):       26.143
  
                   Maximum memory used (kb):       50108.
                   Average memory used (kb):           0.
  
                          Minor page faults:       163263
                          Major page faults:            0
                 Voluntary context switches:         3372
