   38   38 1000    2
  0.3060015E+03  0.2265526E-08  0.2265526E-08  0.2265526E-08  0.1000000E-15
  1.000000000000000E-004
  CAR 
 unknown system                          
    418      1    272
 
  0.0000000E+00  0.0000000E+00  0.0000000E+00  0.1000000E+01
    1       -9.710886     -9.710886
    2       -9.196307     -9.196307
    3       -9.125399     -9.125399
    4       -9.053663     -9.053663
    5       -9.044469     -9.044469
    6       -9.012414     -9.012414
    7       -8.973343     -8.973343
    8       -8.927291     -8.927291
    9       -8.923284     -8.923284
   10       -8.895852     -8.895852
   11       -8.882892     -8.882891
   12       -8.846883     -8.846883
   13       -8.839161     -8.839161
   14       -8.819985     -8.819985
   15       -8.769158     -8.769158
   16       -8.752530     -8.752530
   17       -8.744095     -8.744095
   18       -8.736429     -8.736429
   19       -8.729131     -8.729131
   20       -8.683117     -8.683117
   21       -8.673370     -8.673370
   22       -8.663393     -8.663393
   23       -8.628433     -8.628433
   24       -8.611347     -8.611347
   25       -8.610687     -8.610687
   26       -8.581582     -8.581582
   27       -8.569307     -8.569307
   28       -8.553947     -8.553947
   29       -8.533954     -8.533954
   30       -8.520161     -8.520161
   31       -8.510425     -8.510425
   32       -8.486563     -8.486563
   33       -8.484067     -8.484067
   34       -8.463868     -8.463868
   35       -8.452696     -8.452695
   36       -8.427843     -8.427843
   37       -8.383444     -8.383444
   38       -8.370226     -8.370226
   39       -8.359119     -8.359119
   40       -8.340187     -8.340187
   41       -8.323301     -8.323301
   42       -8.315171     -8.315171
   43       -8.282896     -8.282896
   44       -8.272874     -8.272874
   45       -8.256575     -8.256575
   46       -8.246362     -8.246362
   47       -8.206108     -8.206108
   48       -8.198251     -8.198251
   49       -8.183535     -8.183535
   50       -8.171629     -8.171629
   51       -8.156983     -8.156982
   52       -8.141719     -8.141719
   53       -8.128509     -8.128509
   54       -8.108521     -8.108521
   55       -8.099865     -8.099865
   56       -8.077896     -8.077896
   57       -8.065205     -8.065205
   58       -8.054083     -8.054083
   59       -8.045784     -8.045784
   60       -8.036382     -8.036382
   61       -7.992146     -7.992146
   62       -7.990199     -7.990199
   63       -7.977743     -7.977743
   64       -7.953875     -7.953875
   65       -7.943055     -7.943055
   66       -7.917465     -7.917465
   67       -7.892387     -7.892387
   68       -7.870685     -7.870685
   69       -7.867171     -7.867171
   70       -7.839790     -7.839790
   71       -7.823907     -7.823907
   72       -7.798434     -7.798434
   73       -7.775273     -7.775273
   74       -7.765758     -7.765758
   75       -7.746828     -7.746828
   76       -7.731131     -7.731131
   77       -7.715773     -7.715773
   78       -7.697521     -7.697521
   79       -7.661211     -7.661211
   80       -7.625827     -7.625827
   81       -7.621310     -7.621311
   82       -7.611189     -7.611189
   83       -7.582596     -7.582596
   84       -7.573620     -7.573620
   85       -7.547287     -7.547287
   86       -7.511334     -7.511334
   87       -7.506001     -7.506001
   88       -7.494270     -7.494270
   89       -7.483099     -7.483099
   90       -7.469153     -7.469153
   91       -7.439719     -7.439719
   92       -7.424542     -7.424542
   93       -7.413901     -7.413901
   94       -7.406291     -7.406291
   95       -7.396378     -7.396378
   96       -7.390600     -7.390600
   97       -7.366488     -7.366488
   98       -7.343197     -7.343197
   99       -7.325559     -7.325559
  100       -7.315858     -7.315858
  101       -7.287745     -7.287745
  102       -7.274151     -7.274151
  103       -7.263802     -7.263802
  104       -7.250840     -7.250840
  105       -7.238157     -7.238157
  106       -7.232968     -7.232968
  107       -7.211531     -7.211530
  108       -7.184195     -7.184195
  109       -7.162070     -7.162070
  110       -7.161338     -7.161338
  111       -7.147343     -7.147343
  112       -7.135142     -7.135142
  113       -7.113103     -7.113103
  114       -7.106471     -7.106471
  115       -7.097064     -7.097064
  116       -7.081608     -7.081608
  117       -7.069759     -7.069759
  118       -7.054301     -7.054301
  119       -7.037698     -7.037698
  120       -7.013395     -7.013395
  121       -6.998631     -6.998631
  122       -6.993088     -6.993088
  123       -6.989782     -6.989782
  124       -6.977823     -6.977823
  125       -6.974143     -6.974143
  126       -6.967332     -6.967332
  127       -6.947031     -6.947031
  128       -6.937012     -6.937012
  129       -6.924714     -6.924714
  130       -6.910365     -6.910365
  131       -6.905853     -6.905853
  132       -6.901176     -6.901176
  133       -6.895655     -6.895655
  134       -6.882424     -6.882424
  135       -6.869260     -6.869260
  136       -6.860147     -6.860147
  137       -6.851195     -6.851195
  138       -6.839598     -6.839598
  139       -6.825640     -6.825640
  140       -6.822609     -6.822609
  141       -6.814002     -6.814002
  142       -6.791583     -6.791583
  143       -6.776906     -6.776906
  144       -6.759291     -6.759291
  145       -6.752386     -6.752386
  146       -6.739519     -6.739519
  147       -6.725620     -6.725620
  148       -6.717464     -6.717464
  149       -6.703452     -6.703452
  150       -6.692206     -6.692206
  151       -6.685271     -6.685271
  152       -6.664076     -6.664076
  153       -6.657859     -6.657859
  154       -6.644576     -6.644576
  155       -6.642409     -6.642409
  156       -6.637706     -6.637706
  157       -6.623703     -6.623703
  158       -6.618697     -6.618697
  159       -6.614033     -6.614033
  160       -6.595925     -6.595925
  161       -6.589065     -6.589065
  162       -6.577224     -6.577224
  163       -6.568562     -6.568562
  164       -6.560302     -6.560302
  165       -6.544244     -6.544244
  166       -6.527759     -6.527759
  167       -6.515248     -6.515248
  168       -6.513453     -6.513453
  169       -6.498613     -6.498613
  170       -6.490363     -6.490363
  171       -6.472958     -6.472958
  172       -6.471338     -6.471338
  173       -6.464179     -6.464179
  174       -6.462186     -6.462186
  175       -6.434961     -6.434961
  176       -6.420405     -6.420405
  177       -6.406815     -6.406815
  178       -6.398900     -6.398900
  179       -6.377683     -6.377683
  180       -6.357525     -6.357525
  181       -6.341620     -6.341620
  182       -6.327669     -6.327669
  183       -6.315056     -6.315056
  184       -6.311982     -6.311982
  185       -6.302466     -6.302466
  186       -6.280557     -6.280557
  187       -6.267438     -6.267438
  188       -6.255635     -6.255635
  189       -6.234907     -6.234907
  190       -6.220244     -6.220244
  191       -6.180267     -6.180267
  192       -6.163196     -6.163196
  193       -6.138817     -6.138817
  194       -6.105778     -6.105778
  195       -6.006497     -6.006497
  196       -5.823058     -5.823058
  197       -5.789427     -5.789427
  198       -5.682801     -5.682801
  199       -5.607985     -5.607985
  200       -5.207864     -5.207864
  201       -4.774183     -4.774183
  202       -4.484910     -4.484910
  203       -4.416099     -4.416099
  204       -4.349561     -4.349561
  205       -4.197489     -4.197489
  206       -4.042256     -4.042256
  207       -3.933739     -3.933739
  208       -3.718617     -3.718617
  209       -3.522028     -3.522028
  210       -3.104727     -3.104727
  211       -3.081383     -3.081383
  212       -2.814513     -2.814513
  213       -2.732803     -2.732803
  214       -2.575223     -2.575223
  215       -2.484507     -2.484507
  216       -2.417127     -2.417127
  217       -2.292876     -2.292876
  218       -2.248246     -2.248246
  219       -2.184058     -2.184058
  220       -2.069276     -2.069277
  221       -1.969385     -1.969385
  222       -1.849727     -1.849727
  223       -1.756969     -1.756969
  224       -1.577915     -1.577915
  225       -1.466614     -1.466614
  226       -1.436701     -1.436701
  227       -1.041362     -1.041362
  228       -0.966705     -0.966705
  229       -0.907236     -0.907236
  230       -0.839878     -0.839878
  231       -0.720343     -0.720343
  232       -0.654891     -0.654891
  233       -0.605155     -0.605155
  234       -0.524741     -0.524741
  235       -0.461792     -0.461792
  236       -0.360536     -0.360536
  237       -0.327551     -0.327551
  238       -0.275865     -0.275865
  239       -0.182436     -0.182437
  240       -0.125021     -0.125021
  241       -0.086712     -0.086712
  242        0.012767      0.012767
  243        0.162640      0.162640
  244        0.255603      0.255603
  245        0.351443      0.351443
  246        0.429761      0.429760
  247        0.532625      0.532624
  248        0.624655      0.624654
  249        0.637277      0.637278
  250        0.687009      0.687008
  251        0.725699      0.725696
  252        0.789417      0.789417
  253        0.833409      0.833405
  254        0.870267      0.870267
  255        0.935350      0.935349
  256        0.946684      0.946684
  257        0.988154      0.988153
  258        1.032531      1.032528
  259        1.042994      1.042994
  260        1.056589      1.056589
  261        1.066161      1.066160
  262        1.077219      1.077218
  263        1.089372      1.089371
  264        1.115877      1.115878
  265        1.129572      1.129570
  266        1.162176      1.162177
  267        1.170510      1.170510
  268        1.215694      1.215694
  269        1.251880      1.251879
  270        1.277772      1.277772
  271        1.295126      1.295125
  272        1.311658      1.311658
