 vasp.5.3.5 31Mar14 (build Feb 01 2018 12:10:03) gamma-only                     
  
 executed on             LinuxIFC date 2019.03.22  08:57:00
 running on   32 total cores
 distrk:  each k-point on   32 cores,    1 groups
 distr:  one band on NCORES_PER_BAND=   8 cores,    4 groups


--------------------------------------------------------------------------------------------------------


 INCAR:
 POTCAR:    PAW_PBE Ag 02Apr2005                  
 POTCAR:    PAW_PBE Ag 02Apr2005                  
   VRHFIN =Ag : s1 d10                                                          
   LEXCH  = PE                                                                  
   EATOM  =  1037.2675 eV,   76.2370 Ry                                         
                                                                                
   TITEL  = PAW_PBE Ag 02Apr2005                                                
   LULTRA =        F    use ultrasoft PP ?                                      
   IUNSCR =        1    unscreen: 0-lin 1-nonlin 2-no                           
   RPACOR =    2.000    partial core radius                                     
   POMASS =  107.868; ZVAL   =   11.000    mass and valenz                      
   RCORE  =    2.500    outmost cutoff radius                                   
   RWIGS  =    2.840; RWIGS  =    1.503    wigner-seitz radius (au A)           
   ENMAX  =  249.844; ENMIN  =  187.383 eV                                      
   ICORE  =        3    local potential                                         
   LCOR   =        T    correct aug charges                                     
   LPAW   =        T    paw PP                                                  
   EAUG   =  412.496                                                            
   DEXC   =    0.000                                                            
   RMAX   =    2.560    core radius for proj-oper                               
   RAUG   =    1.300    factor for augmentation sphere                          
   RDEP   =    2.576    radius for radial grids                                 
   RDEPT  =    2.072    core radius for aug-charge                              
                                                                                
   Atomic configuration                                                         
   12 entries                                                                   
     n  l   j            E        occ.                                          
     1  0  0.50    -25324.9161   2.0000                                         
     2  0  0.50     -3728.5341   2.0000                                         
     2  1  1.50     -3344.0404   6.0000                                         
     3  0  0.50      -683.5581   2.0000                                         
     3  1  1.50      -557.3225   6.0000                                         
     3  2  2.50      -358.3853  10.0000                                         
     4  0  0.50       -95.0341   2.0000                                         
     4  1  1.50       -58.5511   6.0000                                         
     4  2  2.50        -7.4440  10.0000                                         
     5  0  0.50        -4.4045   1.0000                                         
     5  1  0.50        -1.3606   0.0000                                         
     4  3  2.50        -1.3606   0.0000                                         
   Description                                                                  
     l       E           TYP  RCUT    TYP  RCUT                                 
     2     -7.4439781     23  2.400                                             
     2     -8.8045607     23  2.400                                             
     0     -4.4044681     23  2.400                                             
     0      1.9520038     23  2.400                                             
     1     -1.3605826     23  2.500                                             
     1     27.2116520     23  2.500                                             
     3     -4.0817478     23  2.400                                             
  local pseudopotential read in
  partial core-charges read in
  partial kinetic energy density read in
  atomic valenz-charges read in
  non local Contribution for L=           2  read in
    real space projection operators read in
  non local Contribution for L=           2  read in
    real space projection operators read in
  non local Contribution for L=           0  read in
    real space projection operators read in
  non local Contribution for L=           0  read in
    real space projection operators read in
  non local Contribution for L=           1  read in
    real space projection operators read in
  non local Contribution for L=           1  read in
    real space projection operators read in
    PAW grid and wavefunctions read in
 
   number of l-projection  operators is LMAX  =           6
   number of lm-projection operators is LMMAX =          18
 

 ----------------------------------------------------------------------------- 
|                                                                             |
|  ADVICE TO THIS USER RUNNING 'VASP/VAMP'   (HEAR YOUR MASTER'S VOICE ...):  |
|                                                                             |
|      You have a (more or less) 'large supercell' and for larger cells       |
|      it might be more efficient to use real space projection opertators     |
|      So try LREAL= Auto  in the INCAR   file.                               |
|      Mind: At the moment your POTCAR file does not contain real space       |
|       projectors, and has to be modified,  BUT if you                       |
|      want to do an extremely  accurate calculation you might also keep the  |
|      reciprocal projection scheme          (i.e. LREAL=.FALSE.)             |
|                                                                             |
 ----------------------------------------------------------------------------- 

  PAW_PBE Ag 02Apr2005                  :
 energy of atom  1       EATOM=-1037.2675
 kinetic energy error for atom=    0.0689 (will be added to EATOM!!)
 
 
 POSCAR: Ti28, -183.22187892 <s> Ag </s>         
  positions in direct lattice
  No initial velocities read in
 exchange correlation table for  LEXCH =        8
   RHO(1)=    0.500       N(1)  =     2000
   RHO(2)=  100.500       N(2)  =     4000
 


--------------------------------------------------------------------------------------------------------


 ion  position               nearest neighbor table
   1  0.309  0.497  0.495-   5 2.61   3 2.64   2 2.64   6 2.67   4 2.68   8 2.76
   2  0.337  0.441  0.387-   3 2.57   1 2.64   7 2.64   9 2.68   4 2.70   8 2.86
   3  0.334  0.375  0.489-   2 2.57   1 2.64   7 2.64   6 2.69  11 2.69   8 2.86
   4  0.378  0.560  0.408-  18 2.61   1 2.68   2 2.70   8 2.76   9 2.90   5 2.95  13 3.27
   5  0.394  0.572  0.546-   1 2.61  12 2.70  17 2.78   8 2.82  10 2.87  13 2.91   6 2.93   4 2.95

   6  0.371  0.442  0.590-  14 2.62   1 2.67   3 2.69   8 2.77  11 2.89   5 2.93  10 3.29
   7  0.426  0.355  0.407-  15 2.62   3 2.64   2 2.64   9 2.69  11 2.69   8 2.76
   8  0.434  0.465  0.478-   1 2.76  11 2.76   4 2.76   9 2.76   7 2.76   6 2.77  15 2.81   5 2.82
                             2 2.86   3 2.86  14 2.92  18 2.92  20 3.37  17 3.39
   9  0.456  0.464  0.349-  18 2.63   2 2.68   7 2.69   8 2.76   4 2.90  15 2.94  23 3.27
  10  0.465  0.546  0.658-  14 2.61  17 2.70  12 2.72  16 2.78   5 2.87  19 2.99   6 3.29
  11  0.450  0.347  0.532-  14 2.62   3 2.69   7 2.69   8 2.76   6 2.89  15 2.95  22 3.27
  12  0.461  0.663  0.605-  17 2.58  16 2.67  21 2.68   5 2.70  10 2.72  13 2.73
  13  0.471  0.662  0.476-  18 2.63  17 2.68  12 2.73  21 2.80   5 2.91  24 2.99   4 3.27
  14  0.495  0.441  0.599-  10 2.61   6 2.62  11 2.62  22 2.63  19 2.65   8 2.92  20 3.05  17 3.09

  15  0.540  0.395  0.436-   7 2.62  26 2.70  20 2.79   8 2.81  23 2.87  22 2.91   9 2.94  11 2.95

  16  0.570  0.626  0.659-  21 2.62  12 2.67  17 2.71  19 2.76  25 2.77  10 2.78
  17  0.525  0.575  0.550-  20 2.32  12 2.58  13 2.68  21 2.70  10 2.70  16 2.71   5 2.78  25 2.88
                            24 2.89  19 2.94  18 3.06  14 3.09   8 3.39
  18  0.501  0.563  0.408-   4 2.61  23 2.62   9 2.63  13 2.63  24 2.65   8 2.92  17 3.06  20 3.08

  19  0.598  0.500  0.641-  14 2.65  16 2.76  27 2.76  25 2.85  20 2.90  17 2.94  22 2.99  10 2.99

  20  0.588  0.497  0.504-  17 2.32  26 2.59  22 2.68  23 2.69  27 2.71  28 2.71  15 2.79  25 2.89
                            19 2.90  24 2.94  14 3.05  18 3.08   8 3.37
  21  0.573  0.693  0.555-  16 2.62  12 2.68  17 2.70  24 2.77  25 2.78  13 2.80
  22  0.598  0.384  0.560-  14 2.63  20 2.68  26 2.73  27 2.80  15 2.91  19 2.99  11 3.27
  23  0.603  0.500  0.378-  18 2.62  20 2.69  26 2.73  28 2.78  15 2.87  24 3.00   9 3.27
  24  0.603  0.623  0.448-  18 2.65  28 2.77  21 2.77  25 2.85  17 2.89  20 2.94  13 2.99  23 3.00

  25  0.659  0.595  0.568-  28 2.77  16 2.77  21 2.78  27 2.78  24 2.85  19 2.85  17 2.88  20 2.89

  26  0.664  0.416  0.454-  20 2.59  27 2.67  28 2.67  15 2.70  23 2.73  22 2.73
  27  0.698  0.470  0.563-  28 2.62  26 2.67  20 2.71  19 2.76  25 2.78  22 2.80
  28  0.701  0.537  0.459-  27 2.62  26 2.67  20 2.71  24 2.77  25 2.77  23 2.78
 
  LATTYP: Found a simple cubic cell.
 ALAT       =    21.1413664095
  
  Lattice vectors:
  
 A1 = (  21.1413664095,   0.0000000000,   0.0000000000)
 A2 = (   0.0000000000,  21.1413664095,   0.0000000000)
 A3 = (   0.0000000000,   0.0000000000,  21.1413664095)


Analysis of symmetry for initial positions (statically):
=====================================================================
 Subroutine PRICEL returns:
 Original cell was already a primitive cell.
 

 Routine SETGRP: Setting up the symmetry group for a 
 simple cubic supercell.


 Subroutine GETGRP returns: Found  1 space group operations
 (whereof  1 operations were pure point group operations)
 out of a pool of 48 trial point group operations.


The static configuration has the point symmetry C_1 .


Analysis of symmetry for dynamics (positions and initial velocities):
=====================================================================
 Subroutine PRICEL returns:
 Original cell was already a primitive cell.
 

 Routine SETGRP: Setting up the symmetry group for a 
 simple cubic supercell.


 Subroutine GETGRP returns: Found  1 space group operations
 (whereof  1 operations were pure point group operations)
 out of a pool of 48 trial point group operations.


The dynamic configuration has the point symmetry C_1 .


Analysis of magnetic symmetry:
=====================================================================
 Subroutine PRICEL returns:
 Original cell was already a primitive cell.
 

 Subroutine MAGSYM returns: Found  1 space group operations
 (whereof  1 operations were pure point group operations)
 out of a pool of  1 trial space group operations
 (whereof  1 operations were pure point group operations)
 and found also     1 'primitive' translations


The magnetic configuration has the point symmetry C_1 .
 
 
 KPOINTS: Gamma-point only                        
  k-points in reciprocal lattice
Space group operators:
 irot       det(A)        alpha          n_x          n_y          n_z        tau_x        tau_y        tau_z
    1     1.000000     0.000000     1.000000     0.000000     0.000000     0.000000     0.000000     0.000000


--------------------------------------------------------------------------------------------------------




 Dimension of arrays:
   k-points           NKPTS =      1   k-points in BZ     NKDIM =      1   number of bands    NBANDS=    200
   number of dos      NEDOS =    301   number of ions     NIONS =     28
   non local maximal  LDIM  =      6   non local SUM 2l+1 LMDIM =     18
   total plane-waves  NPLWV = 592704
   max r-space proj   IRMAX =      1   max aug-charges    IRDMAX=   3283
   dimension x,y,z NGX =    84 NGY =   84 NGZ =   84
   dimension x,y,z NGXF=   168 NGYF=  168 NGZF=  168
   support grid    NGXF=   168 NGYF=  168 NGZF=  168
   ions per type =              28
 NGX,Y,Z   is equivalent  to a cutoff of   6.61,  6.61,  6.61 a.u.
 NGXF,Y,Z  is equivalent  to a cutoff of  13.21, 13.21, 13.21 a.u.


 I would recommend the setting:
   dimension x,y,z NGX =    82 NGY =   82 NGZ =   82
 SYSTEM =  unknown system                          
 POSCAR =  Ti28, -183.22187892 <s> Ag </s>         

 Startparameter for this run:
   NWRITE =      2    write-flag & timer
   PREC   = normal    normal or accurate (medium, high low for compatibility)
   ISTART =      0    job   : 0-new  1-cont  2-samecut
   ICHARG =      2    charge: 1-file 2-atom 10-const
   ISPIN  =      2    spin polarized calculation?
   LNONCOLLINEAR =      F non collinear calculations
   LSORBIT =      F    spin-orbit coupling
   INIWAV =      1    electr: 0-lowe 1-rand  2-diag
   LASPH  =      F    aspherical Exc in radial PAW
   METAGGA=      F    non-selfconsistent MetaGGA calc.

 Electronic Relaxation 1
   ENCUT  =  249.8 eV  18.36 Ry    4.29 a.u.  27.25 27.25 27.25*2*pi/ulx,y,z
   ENINI  =  249.8     initial cutoff
   ENAUG  =  412.5 eV  augmentation charge cutoff
   NELM   =     60;   NELMIN=  2; NELMDL= -5     # of ELM steps 
   EDIFF  = 0.1E-03   stopping-criterion for ELM
   LREAL  =      F    real-space projection
   NLSPLINE    = F    spline interpolate recip. space projectors
   LCOMPAT=      F    compatible to vasp.4.4
   GGA_COMPAT  = T    GGA compatible to vasp.4.4-vasp.4.6
   LMAXPAW     = -100 max onsite density
   LMAXMIX     =    2 max onsite mixed and CHGCAR
   VOSKOWN=      0    Vosko Wilk Nusair interpolation
   ROPT   =    0.00000
 Ionic relaxation
   EDIFFG = 0.1E-02   stopping-criterion for IOM
   NSW    =   1000    number of steps for IOM
   NBLOCK =      1;   KBLOCK =   1000    inner block; outer block 
   IBRION =      2    ionic relax: 0-MD 1-quasi-New 2-CG
   NFREE  =      1    steps in history (QN), initial steepest desc. (CG)
   ISIF   =      2    stress and relaxation
   IWAVPR =     11    prediction:  0-non 1-charg 2-wave 3-comb
   ISYM   =      2    0-nonsym 1-usesym 2-fastsym
   LCORR  =      T    Harris-Foulkes like correction to forces

   POTIM  = 0.1000    time-step for ionic-motion
   TEIN   =    0.0    initial temperature
   TEBEG  =    0.0;   TEEND  =   0.0 temperature during run
   SMASS  =  -3.00    Nose mass-parameter (am)
   estimated Nose-frequenzy (Omega)   =  0.10E-29 period in steps =****** mass=  -0.102E-25a.u.
   SCALEE = 1.0000    scale energy and forces
   NPACO  =    256;   APACO  = 16.0  distance and # of slots for P.C.
   PSTRESS=    0.0 pullay stress

  Mass of Ions in am
   POMASS = 107.87
  Ionic Valenz
   ZVAL   =  11.00
  Atomic Wigner-Seitz radii
   RWIGS  =  -1.00
  virtual crystal weights 
   VCA    =   1.00
   NELECT =     308.0000    total number of electrons
   NUPDOWN=      -1.0000    fix difference up-down

 DOS related values:
   EMIN   =  10.00;   EMAX   =-10.00  energy-range for DOS
   EFERMI =   0.00
   ISMEAR =     0;   SIGMA  =   0.00  broadening in eV -4-tet -1-fermi 0-gaus

 Electronic relaxation 2 (details)
   IALGO  =     38    algorithm
   LDIAG  =      T    sub-space diagonalisation (order eigenvalues)
   LSUBROT=      F    optimize rotation matrix (better conditioning)
   TURBO    =      0    0=normal 1=particle mesh
   IRESTART =      0    0=no restart 2=restart with 2 vectors
   NREBOOT  =      0    no. of reboots
   NMIN     =      0    reboot dimension
   EREF     =   0.00    reference energy to select bands
   IMIX   =      4    mixing-type and parameters
     AMIX     =   0.40;   BMIX     =  1.00
     AMIX_MAG =   1.60;   BMIX_MAG =  1.00
     AMIN     =   0.10
     WC   =   100.;   INIMIX=   1;  MIXPRE=   1;  MAXMIX= -45

 Intra band minimization:
   WEIMIN = 0.0010     energy-eigenvalue tresh-hold
   EBREAK =  0.12E-06  absolut break condition
   DEPER  =   0.30     relativ break condition  

   TIME   =   0.40     timestep for ELM

  volume/ion in A,a.u.               =     337.47      2277.39
  Fermi-wavevector in a.u.,A,eV,Ry     =   0.522948  0.988229  3.720851  0.273475
  Thomas-Fermi vector in A             =   1.541996
 
 Write flags
   LWAVE  =      F    write WAVECAR
   LCHARG =      F    write CHGCAR
   LVTOT  =      F    write LOCPOT, total local potential
   LVHAR  =      F    write LOCPOT, Hartree potential only
   LELF   =      F    write electronic localiz. function (ELF)
   LORBIT =      0    0 simple, 1 ext, 2 COOP (PROOUT)


 Dipole corrections
   LMONO  =      F    monopole corrections only (constant potential shift)
   LDIPOL =      F    correct potential (dipole corrections)
   IDIPOL =      0    1-x, 2-y, 3-z, 4-all directions 
   EPSILON=  1.0000000 bulk dielectric constant

 Exchange correlation treatment:
   GGA     =    PE    GGA type
   LEXCH   =     8    internal setting for exchange type
   VOSKOWN=      0    Vosko Wilk Nusair interpolation
   LHFCALC =     F    Hartree Fock is set to
   LHFONE  =     F    Hartree Fock one center treatment
   AEXX    =    0.0000 exact exchange contribution

 Linear response parameters
   LEPSILON=     F    determine dielectric tensor
   LRPA    =     F    only Hartree local field effects (RPA)
   LNABLA  =     F    use nabla operator in PAW spheres
   LVEL    =     F    velocity operator in full k-point grid
   LINTERFAST=   F  fast interpolation
   KINTER  =     0    interpolate to denser k-point grid
   CSHIFT  =0.1000    complex shift for real part using Kramers Kronig
   OMEGAMAX=  -1.0    maximum frequency
   DEG_THRESHOLD= 0.2000000E-02 threshold for treating states as degnerate
   RTIME   =    0.100 relaxation time in fs

 Orbital magnetization related:
   ORBITALMAG=     F  switch on orbital magnetization
   LCHIMAG   =     F  perturbation theory with respect to B field
   DQ        =  0.001000  dq finite difference perturbation B field



--------------------------------------------------------------------------------------------------------


 conjugate gradient relaxation of ions
 charge density and potential will be updated during run
 spin polarized calculation
 Variant of blocked Davidson
 Davidson routine will perform the subspace rotation
 perform sub-space diagonalisation
    after iterative eigenvector-optimisation
 modified Broyden-mixing scheme, WC =      100.0
 initial mixing is a Kerker type mixing with AMIX =  0.4000 and BMIX =      1.0000
 Hartree-type preconditioning will be used
 using additional bands           46
 reciprocal scheme for non local part
 use partial core corrections
 calculate Harris-corrections to forces 
   (improved forces if not selfconsistent)
 use gradient corrections 
 use of overlap-Matrix (Vanderbilt PP)
 Gauss-broadening in eV      SIGMA  =   0.00


--------------------------------------------------------------------------------------------------------


  energy-cutoff  :      249.84
  volume of cell :     9449.29
      direct lattice vectors                 reciprocal lattice vectors
    21.141366410  0.000000000  0.000000000     0.047300632  0.000000000  0.000000000
     0.000000000 21.141366410  0.000000000     0.000000000  0.047300632  0.000000000
     0.000000000  0.000000000 21.141366410     0.000000000  0.000000000  0.047300632

  length of vectors
    21.141366410 21.141366410 21.141366410     0.047300632  0.047300632  0.047300632


 
 k-points in units of 2pi/SCALE and weight: Gamma-point only                        
   0.00000000  0.00000000  0.00000000       1.000
 
 k-points in reciprocal lattice and weights: Gamma-point only                        
   0.00000000  0.00000000  0.00000000       1.000
 
 position of ions in fractional coordinates (direct lattice) 
   0.30932768  0.49740439  0.49473606
   0.33708175  0.44065955  0.38688001
   0.33373818  0.37505875  0.48913519
   0.37789500  0.55964064  0.40782560
   0.39402617  0.57150161  0.54600786
   0.37116403  0.44214226  0.59027831
   0.42578717  0.35485004  0.40710511
   0.43438335  0.46465692  0.47752892
   0.45584366  0.46360295  0.34862936
   0.46520614  0.54568500  0.65848389
   0.45044230  0.34704737  0.53190630
   0.46098833  0.66282207  0.60535163
   0.47062347  0.66245169  0.47635191
   0.49490027  0.44123974  0.59935532
   0.53959632  0.39505917  0.43603894
   0.56951539  0.62597175  0.65879148
   0.52537481  0.57504151  0.54972015
   0.50135443  0.56331012  0.40757976
   0.59778651  0.49954748  0.64110906
   0.58796916  0.49688599  0.50441110
   0.57286732  0.69345553  0.55477469
   0.59787898  0.38372397  0.56031128
   0.60348809  0.49989166  0.37800369
   0.60345826  0.62324973  0.44837460
   0.65874266  0.59499460  0.56784478
   0.66438806  0.41555602  0.45425937
   0.69847352  0.46992298  0.56308137
   0.70097128  0.53654113  0.45858520
 
 position of ions in cartesian coordinates  (Angst):
   6.53960985 10.51580853 10.45939622
   7.12636875  9.31614507  8.17917212
   7.05568111  7.92925440 10.34098619
   7.98921675 11.83156792  8.62199036
   8.33025160 12.08232490 11.54335230
   7.84691480  9.34749144 12.47928996
   9.00172261  7.50201465  8.60675833
   9.18345748  9.82348228 10.09561392
   9.63715789  9.80119982  7.37050103
   9.83509340 11.53652662 13.92124928
   9.52296576  7.33705556 11.24522601
   9.74592319 14.01296422 12.79796051
   9.94962316 14.00513392 10.07073023
  10.46286786  9.32841110 12.67119047
  11.40780349  8.35209071  9.21845897
  12.04033363 13.23389815 13.92775210
  11.10714133 12.15716323 11.62183521
  10.59931764 11.90914558  8.61679300
  12.63802358 10.56111634 13.55392160
  12.43047148 10.50484880 10.66393988
  12.11119782 14.66059738 11.72869501
  12.63997860  8.11244912 11.84574597
  12.75856274 10.56839270  7.99151441
  12.75793222 13.17635095  9.47925163
  13.92671985 12.57899885 12.00501449
  14.04607135  8.78542210  9.60366369
  14.76668452  9.93481398 11.90430960
  14.81949059 11.34321260  9.69511779
 


--------------------------------------------------------------------------------------------------------


 use parallel FFT for wavefunctions z direction half grid
 k-point  1 :   0.0000 0.0000 0.0000  plane waves:   42412

 maximum and minimum number of plane-waves per node :      5306     5298

 maximum number of plane-waves:     42412
 maximum index in each direction: 
   IXMAX=   27   IYMAX=   27   IZMAX=   27
   IXMIN=  -27   IYMIN=  -27   IZMIN=    0

 WARNING: aliasing errors must be expected set NGX to 110 to avoid them
 WARNING: aliasing errors must be expected set NGY to 110 to avoid them
 WARNING: aliasing errors must be expected set NGZ to 110 to avoid them
 aliasing errors are usually negligible using standard VASP settings
 and one can safely disregard these warnings

 parallel 3D FFT for wavefunctions:
    minimum data exchange during FFTs selected (reduces bandwidth)
 parallel 3D FFT for charge:
    minimum data exchange during FFTs selected (reduces bandwidth)


 total amount of memory used by VASP on root node    67535. kBytes
========================================================================

   base      :      30000. kBytes
   nonl-proj :       3139. kBytes
   fftplans  :       7246. kBytes
   grid      :      18544. kBytes
   one-center:         62. kBytes
   wavefun   :       8544. kBytes
 
     INWAV:  cpu time    0.00: real time    0.00
 Broyden mixing: mesh for mixing (old mesh)
   NGX = 55   NGY = 55   NGZ = 55
  (NGX  =168   NGY  =168   NGZ  =168)
  gives a total of 166375 points

 initial charge density was supplied:
 charge density of overlapping atoms calculated
 number of electron     308.0000000 magnetization      28.0000000
 keeping initial charge density in first step


--------------------------------------------------------------------------------------------------------


 Maximum index for augmentation-charges          252 (set IRDMAX)


--------------------------------------------------------------------------------------------------------


 First call to EWALD:  gamma=   0.084
 Maximum number of real-space cells 3x 3x 3
 Maximum number of reciprocal cells 3x 3x 3

 FEWALD executed in parallel
    FEWALD:  cpu time    0.00: real time    0.00


----------------------------------------- Iteration    1(   1)  ---------------------------------------


    POTLOK:  cpu time    0.29: real time    0.29
    SETDIJ:  cpu time    0.01: real time    0.01
     EDDAV:  cpu time    3.40: real time    3.40
       DOS:  cpu time    0.00: real time    0.00
    --------------------------------------------
      LOOP:  cpu time    3.70: real time    4.97

 eigenvalue-minimisations  :   800
 total energy-change (2. order) : 0.2737889E+04  (-0.5835182E+04)
 number of electron     308.0000000 magnetization      28.0000000
 augmentation part      308.0000000 magnetization      28.0000000

 Free energy of the ion-electron system (eV)
  ---------------------------------------------------
  alpha Z        PSCENC =        70.57178200
  Ewald energy   TEWEN  =     64991.57212153
  -Hartree energ DENC   =    -92788.00206671
  -exchange      EXHF   =         0.00000000
  -V(xc)+E(xc)   XCENC  =      -300.25379764
  PAW double counting   =     28094.42098595   -26803.40904861
  entropy T*S    EENTRO =         0.00000000
  eigenvalues    EBANDS =       431.42694498
  atomic energy  EATOM  =     29041.56164242
  ---------------------------------------------------
  free energy    TOTEN  =      2737.88856391 eV

  energy without entropy =     2737.88856391  energy(sigma->0) =     2737.88856391


--------------------------------------------------------------------------------------------------------




----------------------------------------- Iteration    1(   2)  ---------------------------------------


     EDDAV:  cpu time    5.20: real time    5.20
       DOS:  cpu time    0.00: real time    0.00
    --------------------------------------------
      LOOP:  cpu time    5.20: real time    5.21

 eigenvalue-minimisations  :  1360
 total energy-change (2. order) :-0.2170165E+04  (-0.1949308E+04)
 number of electron     308.0000000 magnetization      28.0000000
 augmentation part      308.0000000 magnetization      28.0000000

 Free energy of the ion-electron system (eV)
  ---------------------------------------------------
  alpha Z        PSCENC =        70.57178200
  Ewald energy   TEWEN  =     64991.57212153
  -Hartree energ DENC   =    -92788.00206671
  -exchange      EXHF   =         0.00000000
  -V(xc)+E(xc)   XCENC  =      -300.25379764
  PAW double counting   =     28094.42098595   -26803.40904861
  entropy T*S    EENTRO =         0.00000000
  eigenvalues    EBANDS =     -1738.73843706
  atomic energy  EATOM  =     29041.56164242
  ---------------------------------------------------
  free energy    TOTEN  =       567.72318187 eV

  energy without entropy =      567.72318187  energy(sigma->0) =      567.72318187


--------------------------------------------------------------------------------------------------------




----------------------------------------- Iteration    1(   3)  ---------------------------------------


     EDDAV:  cpu time    4.24: real time    4.25
       DOS:  cpu time    0.00: real time    0.00
    --------------------------------------------
      LOOP:  cpu time    4.25: real time    4.25

 eigenvalue-minimisations  :  1064
 total energy-change (2. order) :-0.5946794E+03  (-0.5498124E+03)
 number of electron     308.0000000 magnetization      28.0000000
 augmentation part      308.0000000 magnetization      28.0000000

 Free energy of the ion-electron system (eV)
  ---------------------------------------------------
  alpha Z        PSCENC =        70.57178200
  Ewald energy   TEWEN  =     64991.57212153
  -Hartree energ DENC   =    -92788.00206671
  -exchange      EXHF   =         0.00000000
  -V(xc)+E(xc)   XCENC  =      -300.25379764
  PAW double counting   =     28094.42098595   -26803.40904861
  entropy T*S    EENTRO =         0.00000000
  eigenvalues    EBANDS =     -2333.41779364
  atomic energy  EATOM  =     29041.56164242
  ---------------------------------------------------
  free energy    TOTEN  =       -26.95617470 eV

  energy without entropy =      -26.95617470  energy(sigma->0) =      -26.95617470


--------------------------------------------------------------------------------------------------------




----------------------------------------- Iteration    1(   4)  ---------------------------------------


     EDDAV:  cpu time    3.68: real time    3.68
       DOS:  cpu time    0.00: real time    0.00
    --------------------------------------------
      LOOP:  cpu time    3.68: real time    3.69

 eigenvalue-minimisations  :   888
 total energy-change (2. order) :-0.2870025E+02  (-0.2839046E+02)
 number of electron     308.0000000 magnetization      28.0000000
 augmentation part      308.0000000 magnetization      28.0000000

 Free energy of the ion-electron system (eV)
  ---------------------------------------------------
  alpha Z        PSCENC =        70.57178200
  Ewald energy   TEWEN  =     64991.57212153
  -Hartree energ DENC   =    -92788.00206671
  -exchange      EXHF   =         0.00000000
  -V(xc)+E(xc)   XCENC  =      -300.25379764
  PAW double counting   =     28094.42098595   -26803.40904861
  entropy T*S    EENTRO =         0.00000000
  eigenvalues    EBANDS =     -2362.11804202
  atomic energy  EATOM  =     29041.56164242
  ---------------------------------------------------
  free energy    TOTEN  =       -55.65642309 eV

  energy without entropy =      -55.65642309  energy(sigma->0) =      -55.65642309


--------------------------------------------------------------------------------------------------------




----------------------------------------- Iteration    1(   5)  ---------------------------------------


     EDDAV:  cpu time    3.72: real time    3.72
       DOS:  cpu time    0.00: real time    0.00
    CHARGE:  cpu time    0.14: real time    0.13
    MIXING:  cpu time    0.01: real time    0.01
    --------------------------------------------
      LOOP:  cpu time    3.86: real time    3.87

 eigenvalue-minimisations  :   904
 total energy-change (2. order) :-0.4131359E+00  (-0.4126089E+00)
 number of electron     308.0000199 magnetization      24.6238048
 augmentation part      144.1536999 magnetization      23.2920531

 Broyden mixing:
  rms(total) = 0.36214E+01    rms(broyden)= 0.36210E+01
  rms(prec ) = 0.36719E+01
  weight for this iteration     100.00

 Free energy of the ion-electron system (eV)
  ---------------------------------------------------
  alpha Z        PSCENC =        70.57178200
  Ewald energy   TEWEN  =     64991.57212153
  -Hartree energ DENC   =    -92788.00206671
  -exchange      EXHF   =         0.00000000
  -V(xc)+E(xc)   XCENC  =      -300.25379764
  PAW double counting   =     28094.42098595   -26803.40904861
  entropy T*S    EENTRO =         0.00000000
  eigenvalues    EBANDS =     -2362.53117795
  atomic energy  EATOM  =     29041.56164242
  ---------------------------------------------------
  free energy    TOTEN  =       -56.06955902 eV

  energy without entropy =      -56.06955902  energy(sigma->0) =      -56.06955902


--------------------------------------------------------------------------------------------------------




----------------------------------------- Iteration    1(   6)  ---------------------------------------


    POTLOK:  cpu time    0.29: real time    0.29
    SETDIJ:  cpu time    0.00: real time    0.01
     EDDAV:  cpu time    3.44: real time    3.44
       DOS:  cpu time    0.00: real time    0.00
    CHARGE:  cpu time    0.13: real time    0.13
    MIXING:  cpu time    0.00: real time    0.01
    --------------------------------------------
      LOOP:  cpu time    3.87: real time    3.88

 eigenvalue-minimisations  :   816
 total energy-change (2. order) : 0.3451495E+02  (-0.1056557E+02)
 number of electron     308.0000205 magnetization      22.3483064
 augmentation part      147.5741690 magnetization      12.3557597

 Broyden mixing:
  rms(total) = 0.19873E+01    rms(broyden)= 0.19872E+01
  rms(prec ) = 0.20063E+01
  weight for this iteration     100.00

 eigenvalues of (default mixing * dielectric matrix)
  average eigenvalue GAMMA=   0.8957
  0.8957

 Free energy of the ion-electron system (eV)
  ---------------------------------------------------
  alpha Z        PSCENC =        70.57178200
  Ewald energy   TEWEN  =     64991.57212153
  -Hartree energ DENC   =    -92663.13840843
  -exchange      EXHF   =         0.00000000
  -V(xc)+E(xc)   XCENC  =      -285.09346944
  PAW double counting   =     29476.72419062   -28212.35449048
  entropy T*S    EENTRO =         0.00000000
  eigenvalues    EBANDS =     -2441.39797561
  atomic energy  EATOM  =     29041.56164242
  ---------------------------------------------------
  free energy    TOTEN  =       -21.55460740 eV

  energy without entropy =      -21.55460740  energy(sigma->0) =      -21.55460740


--------------------------------------------------------------------------------------------------------




----------------------------------------- Iteration    1(   7)  ---------------------------------------


    POTLOK:  cpu time    0.29: real time    0.29
    SETDIJ:  cpu time    0.01: real time    0.01
     EDDAV:  cpu time    3.51: real time    3.52
       DOS:  cpu time    0.00: real time    0.00
    CHARGE:  cpu time    0.14: real time    0.13
    MIXING:  cpu time    0.01: real time    0.01
    --------------------------------------------
      LOOP:  cpu time    3.96: real time    3.96

 eigenvalue-minimisations  :   840
 total energy-change (2. order) : 0.4345582E+01  (-0.6572411E+00)
 number of electron     308.0000204 magnetization      18.7151152
 augmentation part      147.5725843 magnetization      10.9292780

 Broyden mixing:
  rms(total) = 0.11560E+01    rms(broyden)= 0.11559E+01
  rms(prec ) = 0.11663E+01
  weight for this iteration     100.00

 eigenvalues of (default mixing * dielectric matrix)
  average eigenvalue GAMMA=   1.1518
  0.7576  1.5459

 Free energy of the ion-electron system (eV)
  ---------------------------------------------------
  alpha Z        PSCENC =        70.57178200
  Ewald energy   TEWEN  =     64991.57212153
  -Hartree energ DENC   =    -92721.90506410
  -exchange      EXHF   =         0.00000000
  -V(xc)+E(xc)   XCENC  =      -281.87310129
  PAW double counting   =     30352.40236468   -29106.14692485
  entropy T*S    EENTRO =         0.00000000
  eigenvalues    EBANDS =     -2363.39184547
  atomic energy  EATOM  =     29041.56164242
  ---------------------------------------------------
  free energy    TOTEN  =       -17.20902508 eV

  energy without entropy =      -17.20902508  energy(sigma->0) =      -17.20902508


--------------------------------------------------------------------------------------------------------




----------------------------------------- Iteration    1(   8)  ---------------------------------------


    POTLOK:  cpu time    0.29: real time    0.29
    SETDIJ:  cpu time    0.01: real time    0.01
     EDDAV:  cpu time    3.56: real time    3.56
       DOS:  cpu time    0.00: real time    0.00
    CHARGE:  cpu time    0.13: real time    0.13
    MIXING:  cpu time    0.01: real time    0.01
    --------------------------------------------
      LOOP:  cpu time    4.00: real time    5.90

 eigenvalue-minimisations  :   856
 total energy-change (2. order) : 0.5438186E+01  (-0.2295013E+00)
 number of electron     308.0000205 magnetization      16.7575688
 augmentation part      147.5081332 magnetization       9.1100612

 Broyden mixing:
  rms(total) = 0.51103E+00    rms(broyden)= 0.51101E+00
  rms(prec ) = 0.51522E+00
  weight for this iteration     100.00

 eigenvalues of (default mixing * dielectric matrix)
  average eigenvalue GAMMA=   1.2560
  2.2546  0.8900  0.6233

 Free energy of the ion-electron system (eV)
  ---------------------------------------------------
  alpha Z        PSCENC =        70.57178200
  Ewald energy   TEWEN  =     64991.57212153
  -Hartree energ DENC   =    -92796.43515641
  -exchange      EXHF   =         0.00000000
  -V(xc)+E(xc)   XCENC  =      -277.17825610
  PAW double counting   =     31300.09584723   -30071.98797931
  entropy T*S    EENTRO =         0.00000000
  eigenvalues    EBANDS =     -2269.97084029
  atomic energy  EATOM  =     29041.56164242
  ---------------------------------------------------
  free energy    TOTEN  =       -11.77083893 eV

  energy without entropy =      -11.77083893  energy(sigma->0) =      -11.77083893


--------------------------------------------------------------------------------------------------------




----------------------------------------- Iteration    1(   9)  ---------------------------------------


    POTLOK:  cpu time    0.29: real time    0.29
    SETDIJ:  cpu time    0.00: real time    0.01
     EDDAV:  cpu time    3.59: real time    3.59
       DOS:  cpu time    0.00: real time    0.00
    CHARGE:  cpu time    0.14: real time    0.13
    MIXING:  cpu time    0.01: real time    0.01
    --------------------------------------------
      LOOP:  cpu time    4.03: real time    4.05

 eigenvalue-minimisations  :   864
 total energy-change (2. order) :-0.5404389E+01  (-0.1058516E+00)
 number of electron     308.0000205 magnetization      14.8443979
 augmentation part      147.4015931 magnetization       7.3629853

 Broyden mixing:
  rms(total) = 0.31716E+00    rms(broyden)= 0.31716E+00
  rms(prec ) = 0.32135E+00
  weight for this iteration     100.00

 eigenvalues of (default mixing * dielectric matrix)
  average eigenvalue GAMMA=   1.2227
  2.2358  0.6284  0.7950  1.2318

 Free energy of the ion-electron system (eV)
  ---------------------------------------------------
  alpha Z        PSCENC =        70.57178200
  Ewald energy   TEWEN  =     64991.57212153
  -Hartree energ DENC   =    -92819.10049591
  -exchange      EXHF   =         0.00000000
  -V(xc)+E(xc)   XCENC  =      -281.16937388
  PAW double counting   =     31514.64414318   -30290.55784844
  entropy T*S    EENTRO =         0.00000000
  eigenvalues    EBANDS =     -2244.69719920
  atomic energy  EATOM  =     29041.56164242
  ---------------------------------------------------
  free energy    TOTEN  =       -17.17522831 eV

  energy without entropy =      -17.17522831  energy(sigma->0) =      -17.17522831


--------------------------------------------------------------------------------------------------------




----------------------------------------- Iteration    1(  10)  ---------------------------------------


    POTLOK:  cpu time    0.29: real time    0.29
    SETDIJ:  cpu time    0.01: real time    0.01
     EDDAV:  cpu time    3.38: real time    3.39
       DOS:  cpu time    0.00: real time    0.00
    CHARGE:  cpu time    0.14: real time    0.13
    MIXING:  cpu time    0.01: real time    0.01
    --------------------------------------------
      LOOP:  cpu time    3.82: real time    3.84

 eigenvalue-minimisations  :   800
 total energy-change (2. order) :-0.9199203E+01  (-0.2465566E+00)
 number of electron     308.0000205 magnetization      11.3745853
 augmentation part      147.3437490 magnetization       4.2399769

 Broyden mixing:
  rms(total) = 0.24118E+00    rms(broyden)= 0.24117E+00
  rms(prec ) = 0.24408E+00
  weight for this iteration     100.00

 eigenvalues of (default mixing * dielectric matrix)
  average eigenvalue GAMMA=   1.3936
  2.3353  2.3353  0.8327  0.8327  0.6320

 Free energy of the ion-electron system (eV)
  ---------------------------------------------------
  alpha Z        PSCENC =        70.57178200
  Ewald energy   TEWEN  =     64991.57212153
  -Hartree energ DENC   =    -92820.71747846
  -exchange      EXHF   =         0.00000000
  -V(xc)+E(xc)   XCENC  =      -288.24387162
  PAW double counting   =     31512.09270909   -30287.94086171
  entropy T*S    EENTRO =         0.00000000
  eigenvalues    EBANDS =     -2245.27047489
  atomic energy  EATOM  =     29041.56164242
  ---------------------------------------------------
  free energy    TOTEN  =       -26.37443164 eV

  energy without entropy =      -26.37443164  energy(sigma->0) =      -26.37443164


--------------------------------------------------------------------------------------------------------




----------------------------------------- Iteration    1(  11)  ---------------------------------------


    POTLOK:  cpu time    0.29: real time    0.29
    SETDIJ:  cpu time    0.01: real time    0.01
     EDDAV:  cpu time    3.46: real time    3.47
       DOS:  cpu time    0.00: real time    0.00
    CHARGE:  cpu time    0.13: real time    0.13
    MIXING:  cpu time    0.01: real time    0.01
    --------------------------------------------
      LOOP:  cpu time    3.90: real time    4.87

 eigenvalue-minimisations  :   824
 total energy-change (2. order) :-0.1345923E+02  (-0.6712061E+00)
 number of electron     308.0000205 magnetization      10.4930771
 augmentation part      147.3622677 magnetization       5.7996674

 Broyden mixing:
  rms(total) = 0.25095E+00    rms(broyden)= 0.25080E+00
  rms(prec ) = 0.26456E+00
  weight for this iteration     100.00

 eigenvalues of (default mixing * dielectric matrix)
  average eigenvalue GAMMA=   1.2996
  2.8129  2.3008  0.8482  0.8482  0.6372  0.3502

 Free energy of the ion-electron system (eV)
  ---------------------------------------------------
  alpha Z        PSCENC =        70.57178200
  Ewald energy   TEWEN  =     64991.57212153
  -Hartree energ DENC   =    -92814.11610892
  -exchange      EXHF   =         0.00000000
  -V(xc)+E(xc)   XCENC  =      -298.65070958
  PAW double counting   =     31483.47680029   -30259.29717846
  entropy T*S    EENTRO =         0.00000000
  eigenvalues    EBANDS =     -2254.95200600
  atomic energy  EATOM  =     29041.56164242
  ---------------------------------------------------
  free energy    TOTEN  =       -39.83365673 eV

  energy without entropy =      -39.83365673  energy(sigma->0) =      -39.83365673


--------------------------------------------------------------------------------------------------------




----------------------------------------- Iteration    1(  12)  ---------------------------------------


    POTLOK:  cpu time    0.28: real time    0.29
    SETDIJ:  cpu time    0.01: real time    0.01
     EDDAV:  cpu time    3.67: real time    3.67
       DOS:  cpu time    0.00: real time    0.00
    CHARGE:  cpu time    0.13: real time    0.13
    MIXING:  cpu time    0.01: real time    0.01
    --------------------------------------------
      LOOP:  cpu time    4.11: real time    4.14

 eigenvalue-minimisations  :   888
 total energy-change (2. order) :-0.1849969E+01  (-0.4216371E-01)
 number of electron     308.0000207 magnetization      10.5687801
 augmentation part      147.3334375 magnetization       7.9343109

 Broyden mixing:
  rms(total) = 0.30926E+00    rms(broyden)= 0.30917E+00
  rms(prec ) = 0.33562E+00
  weight for this iteration     100.00

 eigenvalues of (default mixing * dielectric matrix)
  average eigenvalue GAMMA=   1.1156
  2.8176  2.3030  0.8478  0.8478  0.6374  0.3409  0.0149

 Free energy of the ion-electron system (eV)
  ---------------------------------------------------
  alpha Z        PSCENC =        70.57178200
  Ewald energy   TEWEN  =     64991.57212153
  -Hartree energ DENC   =    -92814.69107982
  -exchange      EXHF   =         0.00000000
  -V(xc)+E(xc)   XCENC  =      -299.97758272
  PAW double counting   =     31484.71244238   -30260.74957613
  entropy T*S    EENTRO =         0.00000000
  eigenvalues    EBANDS =     -2254.68337557
  atomic energy  EATOM  =     29041.56164242
  ---------------------------------------------------
  free energy    TOTEN  =       -41.68362592 eV

  energy without entropy =      -41.68362592  energy(sigma->0) =      -41.68362592


--------------------------------------------------------------------------------------------------------




----------------------------------------- Iteration    1(  13)  ---------------------------------------


    POTLOK:  cpu time    0.28: real time    0.29
    SETDIJ:  cpu time    0.01: real time    0.01
     EDDAV:  cpu time    3.64: real time    3.65
       DOS:  cpu time    0.00: real time    0.00
    CHARGE:  cpu time    0.13: real time    0.13
    MIXING:  cpu time    0.01: real time    0.01
    --------------------------------------------
      LOOP:  cpu time    4.08: real time    4.10

 eigenvalue-minimisations  :   880
 total energy-change (2. order) : 0.1101952E+00  (-0.1698046E-02)
 number of electron     308.0000207 magnetization      10.4543705
 augmentation part      147.3293963 magnetization       7.8175759

 Broyden mixing:
  rms(total) = 0.31635E+00    rms(broyden)= 0.31634E+00
  rms(prec ) = 0.34330E+00
  weight for this iteration     100.00

 eigenvalues of (default mixing * dielectric matrix)
  average eigenvalue GAMMA=   1.0354
  2.8437  2.2935  0.8537  0.8537  0.6378  0.3757  0.2126  0.2126

 Free energy of the ion-electron system (eV)
  ---------------------------------------------------
  alpha Z        PSCENC =        70.57178200
  Ewald energy   TEWEN  =     64991.57212153
  -Hartree energ DENC   =    -92814.78670682
  -exchange      EXHF   =         0.00000000
  -V(xc)+E(xc)   XCENC  =      -299.87932147
  PAW double counting   =     31485.99840389   -30262.03949481
  entropy T*S    EENTRO =         0.00000000
  eigenvalues    EBANDS =     -2254.57185746
  atomic energy  EATOM  =     29041.56164242
  ---------------------------------------------------
  free energy    TOTEN  =       -41.57343073 eV

  energy without entropy =      -41.57343073  energy(sigma->0) =      -41.57343073


--------------------------------------------------------------------------------------------------------




----------------------------------------- Iteration    1(  14)  ---------------------------------------


    POTLOK:  cpu time    0.29: real time    0.29
    SETDIJ:  cpu time    0.00: real time    0.01
     EDDAV:  cpu time    3.62: real time    3.62
       DOS:  cpu time    0.00: real time    0.00
    CHARGE:  cpu time    0.13: real time    0.13
    MIXING:  cpu time    0.01: real time    0.01
    --------------------------------------------
      LOOP:  cpu time    4.06: real time    4.07

 eigenvalue-minimisations  :   872
 total energy-change (2. order) :-0.2090765E+00  (-0.1124595E-02)
 number of electron     308.0000207 magnetization       8.8595041
 augmentation part      147.3241383 magnetization       6.2343600

 Broyden mixing:
  rms(total) = 0.30911E+00    rms(broyden)= 0.30911E+00
  rms(prec ) = 0.33518E+00
  weight for this iteration     100.00

 eigenvalues of (default mixing * dielectric matrix)
  average eigenvalue GAMMA=   1.0970
  2.9919  2.3226  0.6382  0.6382  0.8725  0.8725  0.6222  0.4574  0.4574

 Free energy of the ion-electron system (eV)
  ---------------------------------------------------
  alpha Z        PSCENC =        70.57178200
  Ewald energy   TEWEN  =     64991.57212153
  -Hartree energ DENC   =    -92814.91102488
  -exchange      EXHF   =         0.00000000
  -V(xc)+E(xc)   XCENC  =      -300.01377441
  PAW double counting   =     31488.06461676   -30264.11648886
  entropy T*S    EENTRO =         0.00000000
  eigenvalues    EBANDS =     -2254.51138174
  atomic energy  EATOM  =     29041.56164242
  ---------------------------------------------------
  free energy    TOTEN  =       -41.78250719 eV

  energy without entropy =      -41.78250719  energy(sigma->0) =      -41.78250719


--------------------------------------------------------------------------------------------------------




----------------------------------------- Iteration    1(  15)  ---------------------------------------


    POTLOK:  cpu time    0.28: real time    0.29
    SETDIJ:  cpu time    0.01: real time    0.01
     EDDAV:  cpu time    3.47: real time    3.47
       DOS:  cpu time    0.00: real time    0.00
    CHARGE:  cpu time    0.14: real time    0.13
    MIXING:  cpu time    0.01: real time    0.01
    --------------------------------------------
      LOOP:  cpu time    3.91: real time    5.05

 eigenvalue-minimisations  :   824
 total energy-change (2. order) :-0.3127935E+01  (-0.1021756E+00)
 number of electron     308.0000207 magnetization       5.0140423
 augmentation part      147.3273994 magnetization       2.5511223

 Broyden mixing:
  rms(total) = 0.22745E+00    rms(broyden)= 0.22745E+00
  rms(prec ) = 0.24367E+00
  weight for this iteration     100.00

 eigenvalues of (default mixing * dielectric matrix)
  average eigenvalue GAMMA=   1.3785
  5.3730  2.2820  1.1196  1.1196  0.6616  0.6616  0.7056  0.7056  0.6461  0.5107

 Free energy of the ion-electron system (eV)
  ---------------------------------------------------
  alpha Z        PSCENC =        70.57178200
  Ewald energy   TEWEN  =     64991.57212153
  -Hartree energ DENC   =    -92807.72865661
  -exchange      EXHF   =         0.00000000
  -V(xc)+E(xc)   XCENC  =      -302.44955709
  PAW double counting   =     31464.90626482   -30240.65565232
  entropy T*S    EENTRO =         0.00000000
  eigenvalues    EBANDS =     -2262.68838692
  atomic energy  EATOM  =     29041.56164242
  ---------------------------------------------------
  free energy    TOTEN  =       -44.91044217 eV

  energy without entropy =      -44.91044217  energy(sigma->0) =      -44.91044217


--------------------------------------------------------------------------------------------------------




----------------------------------------- Iteration    1(  16)  ---------------------------------------


    POTLOK:  cpu time    0.28: real time    0.29
    SETDIJ:  cpu time    0.01: real time    0.01
     EDDAV:  cpu time    3.39: real time    3.39
       DOS:  cpu time    0.00: real time    0.00
    CHARGE:  cpu time    0.13: real time    0.13
    MIXING:  cpu time    0.01: real time    0.01
    --------------------------------------------
      LOOP:  cpu time    3.83: real time    3.84

 eigenvalue-minimisations  :   800
 total energy-change (2. order) :-0.4478302E+01  (-0.2283728E+00)
 number of electron     308.0000207 magnetization       4.3124865
 augmentation part      147.3790393 magnetization       2.1634038

 Broyden mixing:
  rms(total) = 0.13534E+00    rms(broyden)= 0.13532E+00
  rms(prec ) = 0.13945E+00
  weight for this iteration     100.00

 eigenvalues of (default mixing * dielectric matrix)
  average eigenvalue GAMMA=   1.3656
  5.4651  1.8140  1.5411  1.5411  0.6507  0.6507  0.9001  0.6410  0.6410  0.6468
  0.5301

 Free energy of the ion-electron system (eV)
  ---------------------------------------------------
  alpha Z        PSCENC =        70.57178200
  Ewald energy   TEWEN  =     64991.57212153
  -Hartree energ DENC   =    -92788.74304833
  -exchange      EXHF   =         0.00000000
  -V(xc)+E(xc)   XCENC  =      -306.32903996
  PAW double counting   =     31412.03216015   -30187.42876200
  entropy T*S    EENTRO =         0.00000000
  eigenvalues    EBANDS =     -2282.62559983
  atomic energy  EATOM  =     29041.56164242
  ---------------------------------------------------
  free energy    TOTEN  =       -49.38874404 eV

  energy without entropy =      -49.38874404  energy(sigma->0) =      -49.38874404


--------------------------------------------------------------------------------------------------------




----------------------------------------- Iteration    1(  17)  ---------------------------------------


    POTLOK:  cpu time    0.28: real time    0.29
    SETDIJ:  cpu time    0.01: real time    0.01
     EDDAV:  cpu time    3.57: real time    3.57
       DOS:  cpu time    0.00: real time    0.00
    CHARGE:  cpu time    0.14: real time    0.13
    MIXING:  cpu time    0.01: real time    0.01
    --------------------------------------------
      LOOP:  cpu time    4.02: real time    4.44

 eigenvalue-minimisations  :   856
 total energy-change (2. order) :-0.1406560E+01  (-0.3285210E-01)
 number of electron     308.0000207 magnetization       2.6212835
 augmentation part      147.2625608 magnetization       0.5095673

 Broyden mixing:
  rms(total) = 0.12427E+00    rms(broyden)= 0.12426E+00
  rms(prec ) = 0.13115E+00
  weight for this iteration     100.00

 eigenvalues of (default mixing * dielectric matrix)
  average eigenvalue GAMMA=   1.4457
  6.6924  2.1931  1.5466  1.5466  0.6736  0.6736  0.8644  0.7569  0.7569  0.6404
  0.5021  0.5021

 Free energy of the ion-electron system (eV)
  ---------------------------------------------------
  alpha Z        PSCENC =        70.57178200
  Ewald energy   TEWEN  =     64991.57212153
  -Hartree energ DENC   =    -92792.73789697
  -exchange      EXHF   =         0.00000000
  -V(xc)+E(xc)   XCENC  =      -307.39861395
  PAW double counting   =     31431.32650232   -30207.42962112
  entropy T*S    EENTRO =         0.00000000
  eigenvalues    EBANDS =     -2278.26122058
  atomic energy  EATOM  =     29041.56164242
  ---------------------------------------------------
  free energy    TOTEN  =       -50.79530435 eV

  energy without entropy =      -50.79530435  energy(sigma->0) =      -50.79530435


--------------------------------------------------------------------------------------------------------




----------------------------------------- Iteration    1(  18)  ---------------------------------------


    POTLOK:  cpu time    0.29: real time    0.29
    SETDIJ:  cpu time    0.01: real time    0.01
     EDDAV:  cpu time    3.47: real time    3.47
       DOS:  cpu time    0.00: real time    0.00
    CHARGE:  cpu time    0.13: real time    0.13
    MIXING:  cpu time    0.01: real time    0.01
    --------------------------------------------
      LOOP:  cpu time    3.91: real time    3.92

 eigenvalue-minimisations  :   824
 total energy-change (2. order) :-0.1275499E+01  (-0.2199680E-01)
 number of electron     308.0000207 magnetization       2.0538627
 augmentation part      147.2964219 magnetization       0.0382125

 Broyden mixing:
  rms(total) = 0.12009E+00    rms(broyden)= 0.12009E+00
  rms(prec ) = 0.13343E+00
  weight for this iteration     100.00

 eigenvalues of (default mixing * dielectric matrix)
  average eigenvalue GAMMA=   1.5312
  7.1744  2.2025  2.0547  2.0547  0.6547  0.6547  1.0998  0.8363  0.8363  0.5996
  0.5996  0.6158  0.5230

 Free energy of the ion-electron system (eV)
  ---------------------------------------------------
  alpha Z        PSCENC =        70.57178200
  Ewald energy   TEWEN  =     64991.57212153
  -Hartree energ DENC   =    -92778.45319751
  -exchange      EXHF   =         0.00000000
  -V(xc)+E(xc)   XCENC  =      -308.73760982
  PAW double counting   =     31378.88869557   -30154.40630429
  entropy T*S    EENTRO =         0.00000000
  eigenvalues    EBANDS =     -2293.06793369
  atomic energy  EATOM  =     29041.56164242
  ---------------------------------------------------
  free energy    TOTEN  =       -52.07080381 eV

  energy without entropy =      -52.07080381  energy(sigma->0) =      -52.07080381


--------------------------------------------------------------------------------------------------------




----------------------------------------- Iteration    1(  19)  ---------------------------------------


    POTLOK:  cpu time    0.28: real time    0.29
    SETDIJ:  cpu time    0.01: real time    0.01
     EDDAV:  cpu time    3.54: real time    3.55
       DOS:  cpu time    0.00: real time    0.00
    CHARGE:  cpu time    0.13: real time    0.13
    MIXING:  cpu time    0.02: real time    0.01
    --------------------------------------------
      LOOP:  cpu time    3.99: real time    4.63

 eigenvalue-minimisations  :   848
 total energy-change (2. order) :-0.1423712E+01  (-0.1798609E-01)
 number of electron     308.0000207 magnetization       2.1819500
 augmentation part      147.2874740 magnetization       0.1756223

 Broyden mixing:
  rms(total) = 0.85673E-01    rms(broyden)= 0.85667E-01
  rms(prec ) = 0.95193E-01
  weight for this iteration     100.00

 eigenvalues of (default mixing * dielectric matrix)
  average eigenvalue GAMMA=   1.5446
  7.3623  2.6025  2.1335  2.1335  1.3951  0.6549  0.6549  0.9100  0.8156  0.6698
  0.6698  0.6335  0.4948  0.4948

 Free energy of the ion-electron system (eV)
  ---------------------------------------------------
  alpha Z        PSCENC =        70.57178200
  Ewald energy   TEWEN  =     64991.57212153
  -Hartree energ DENC   =    -92767.16603158
  -exchange      EXHF   =         0.00000000
  -V(xc)+E(xc)   XCENC  =      -310.15551722
  PAW double counting   =     31349.79833681   -30125.34416044
  entropy T*S    EENTRO =         0.00000000
  eigenvalues    EBANDS =     -2304.33268913
  atomic energy  EATOM  =     29041.56164242
  ---------------------------------------------------
  free energy    TOTEN  =       -53.49451563 eV

  energy without entropy =      -53.49451563  energy(sigma->0) =      -53.49451563


--------------------------------------------------------------------------------------------------------




----------------------------------------- Iteration    1(  20)  ---------------------------------------


    POTLOK:  cpu time    0.29: real time    0.29
    SETDIJ:  cpu time    0.00: real time    0.01
     EDDAV:  cpu time    3.57: real time    3.57
       DOS:  cpu time    0.00: real time    0.00
    CHARGE:  cpu time    0.13: real time    0.13
    MIXING:  cpu time    0.02: real time    0.01
    --------------------------------------------
      LOOP:  cpu time    4.01: real time    4.04

 eigenvalue-minimisations  :   856
 total energy-change (2. order) :-0.4022871E+00  (-0.3086516E-02)
 number of electron     308.0000207 magnetization       2.2902214
 augmentation part      147.3027668 magnetization       0.2664631

 Broyden mixing:
  rms(total) = 0.58105E-01    rms(broyden)= 0.58101E-01
  rms(prec ) = 0.63747E-01
  weight for this iteration     100.00

 eigenvalues of (default mixing * dielectric matrix)
  average eigenvalue GAMMA=   1.5293
  7.4054  2.9813  1.9465  1.9465  1.7690  0.6572  0.6572  1.0815  0.7454  0.7454
  0.7992  0.6407  0.5284  0.5284  0.5073

 Free energy of the ion-electron system (eV)
  ---------------------------------------------------
  alpha Z        PSCENC =        70.57178200
  Ewald energy   TEWEN  =     64991.57212153
  -Hartree energ DENC   =    -92758.10043733
  -exchange      EXHF   =         0.00000000
  -V(xc)+E(xc)   XCENC  =      -310.62010400
  PAW double counting   =     31332.85437590   -30108.23277040
  entropy T*S    EENTRO =         0.00000000
  eigenvalues    EBANDS =     -2313.50341287
  atomic energy  EATOM  =     29041.56164242
  ---------------------------------------------------
  free energy    TOTEN  =       -53.89680276 eV

  energy without entropy =      -53.89680276  energy(sigma->0) =      -53.89680276


--------------------------------------------------------------------------------------------------------




----------------------------------------- Iteration    1(  21)  ---------------------------------------


    POTLOK:  cpu time    0.29: real time    0.29
    SETDIJ:  cpu time    0.01: real time    0.01
     EDDAV:  cpu time    3.61: real time    3.61
       DOS:  cpu time    0.00: real time    0.00
    CHARGE:  cpu time    0.13: real time    0.13
    MIXING:  cpu time    0.02: real time    0.01
    --------------------------------------------
      LOOP:  cpu time    4.05: real time    4.06

 eigenvalue-minimisations  :   864
 total energy-change (2. order) :-0.1554041E+00  (-0.7139208E-03)
 number of electron     308.0000207 magnetization       2.3683842
 augmentation part      147.3222752 magnetization       0.3349057

 Broyden mixing:
  rms(total) = 0.40823E-01    rms(broyden)= 0.40821E-01
  rms(prec ) = 0.44735E-01
  weight for this iteration     100.00

 eigenvalues of (default mixing * dielectric matrix)
  average eigenvalue GAMMA=   1.5697
  7.4153  3.4283  2.2784  2.0596  2.0596  0.6571  0.6571  1.0421  0.9116  0.9116
  0.6745  0.6745  0.7039  0.6072  0.5169  0.5169

 Free energy of the ion-electron system (eV)
  ---------------------------------------------------
  alpha Z        PSCENC =        70.57178200
  Ewald energy   TEWEN  =     64991.57212153
  -Hartree energ DENC   =    -92750.43572941
  -exchange      EXHF   =         0.00000000
  -V(xc)+E(xc)   XCENC  =      -310.84473173
  PAW double counting   =     31327.30834064   -30102.54161365
  entropy T*S    EENTRO =         0.00000000
  eigenvalues    EBANDS =     -2321.24401862
  atomic energy  EATOM  =     29041.56164242
  ---------------------------------------------------
  free energy    TOTEN  =       -54.05220683 eV

  energy without entropy =      -54.05220683  energy(sigma->0) =      -54.05220683


--------------------------------------------------------------------------------------------------------




----------------------------------------- Iteration    1(  22)  ---------------------------------------


    POTLOK:  cpu time    0.28: real time    0.29
    SETDIJ:  cpu time    0.01: real time    0.01
     EDDAV:  cpu time    3.52: real time    3.53
       DOS:  cpu time    0.00: real time    0.00
    CHARGE:  cpu time    0.13: real time    0.13
    MIXING:  cpu time    0.01: real time    0.02
    --------------------------------------------
      LOOP:  cpu time    3.97: real time    3.97

 eigenvalue-minimisations  :   840
 total energy-change (2. order) :-0.2666682E+00  (-0.1092272E-02)
 number of electron     308.0000207 magnetization       2.3939453
 augmentation part      147.3453949 magnetization       0.3490291

 Broyden mixing:
  rms(total) = 0.16992E-01    rms(broyden)= 0.16990E-01
  rms(prec ) = 0.19495E-01
  weight for this iteration     100.00

 eigenvalues of (default mixing * dielectric matrix)
  average eigenvalue GAMMA=   1.6250
  6.7507  4.8018  2.3570  2.3570  2.3472  0.6569  0.6569  1.1418  1.1418  0.9937
  0.7006  0.7006  0.7574  0.6469  0.5685  0.5233  0.5233

 Free energy of the ion-electron system (eV)
  ---------------------------------------------------
  alpha Z        PSCENC =        70.57178200
  Ewald energy   TEWEN  =     64991.57212153
  -Hartree energ DENC   =    -92736.96869461
  -exchange      EXHF   =         0.00000000
  -V(xc)+E(xc)   XCENC  =      -311.22377659
  PAW double counting   =     31328.93715830   -30104.02662622
  entropy T*S    EENTRO =        -0.00000000
  eigenvalues    EBANDS =     -2334.74248189
  atomic energy  EATOM  =     29041.56164242
  ---------------------------------------------------
  free energy    TOTEN  =       -54.31887507 eV

  energy without entropy =      -54.31887507  energy(sigma->0) =      -54.31887507


--------------------------------------------------------------------------------------------------------




----------------------------------------- Iteration    1(  23)  ---------------------------------------


    POTLOK:  cpu time    0.28: real time    0.29
    SETDIJ:  cpu time    0.01: real time    0.01
     EDDAV:  cpu time    3.48: real time    3.48
       DOS:  cpu time    0.00: real time    0.00
    CHARGE:  cpu time    0.13: real time    0.13
    MIXING:  cpu time    0.02: real time    0.02
    --------------------------------------------
      LOOP:  cpu time    3.92: real time    3.93

 eigenvalue-minimisations  :   824
 total energy-change (2. order) :-0.1867315E+00  (-0.1230953E-02)
 number of electron     308.0000207 magnetization       2.2829732
 augmentation part      147.3751712 magnetization       0.2276415

 Broyden mixing:
  rms(total) = 0.27838E-01    rms(broyden)= 0.27837E-01
  rms(prec ) = 0.30246E-01
  weight for this iteration     100.00

 eigenvalues of (default mixing * dielectric matrix)
  average eigenvalue GAMMA=   1.6213
  6.3785  5.8024  2.1989  2.1989  2.3622  1.5102  0.6569  0.6569  1.1553  1.1553
  0.7063  0.7063  0.7751  0.7174  0.6287  0.5206  0.5206  0.5337

 Free energy of the ion-electron system (eV)
  ---------------------------------------------------
  alpha Z        PSCENC =        70.57178200
  Ewald energy   TEWEN  =     64991.57212153
  -Hartree energ DENC   =    -92722.41554452
  -exchange      EXHF   =         0.00000000
  -V(xc)+E(xc)   XCENC  =      -311.52993908
  PAW double counting   =     31333.49808171   -30108.39789766
  entropy T*S    EENTRO =         0.00000000
  eigenvalues    EBANDS =     -2349.36585297
  atomic energy  EATOM  =     29041.56164242
  ---------------------------------------------------
  free energy    TOTEN  =       -54.50560657 eV

  energy without entropy =      -54.50560657  energy(sigma->0) =      -54.50560657


--------------------------------------------------------------------------------------------------------




----------------------------------------- Iteration    1(  24)  ---------------------------------------


    POTLOK:  cpu time    0.29: real time    0.29
    SETDIJ:  cpu time    0.00: real time    0.01
     EDDAV:  cpu time    3.63: real time    3.63
       DOS:  cpu time    0.00: real time    0.00
    CHARGE:  cpu time    0.13: real time    0.13
    MIXING:  cpu time    0.02: real time    0.02
    --------------------------------------------
      LOOP:  cpu time    4.07: real time    4.09

 eigenvalue-minimisations  :   872
 total energy-change (2. order) :-0.2854825E-01  (-0.1714941E-03)
 number of electron     308.0000207 magnetization       2.1220893
 augmentation part      147.3647536 magnetization       0.0686438

 Broyden mixing:
  rms(total) = 0.18583E-01    rms(broyden)= 0.18583E-01
  rms(prec ) = 0.20701E-01
  weight for this iteration     100.00

 eigenvalues of (default mixing * dielectric matrix)
  average eigenvalue GAMMA=   1.6302
  7.7981  4.1149  2.3075  2.3075  2.4211  2.4211  0.6569  0.6569  1.1551  1.1551
  0.8108  0.8108  0.7119  0.7119  0.6984  0.6283  0.5251  0.5251  0.5576

 Free energy of the ion-electron system (eV)
  ---------------------------------------------------
  alpha Z        PSCENC =        70.57178200
  Ewald energy   TEWEN  =     64991.57212153
  -Hartree energ DENC   =    -92721.55192782
  -exchange      EXHF   =         0.00000000
  -V(xc)+E(xc)   XCENC  =      -311.55008489
  PAW double counting   =     31341.22694199   -30116.18559992
  entropy T*S    EENTRO =         0.00000000
  eigenvalues    EBANDS =     -2350.17903013
  atomic energy  EATOM  =     29041.56164242
  ---------------------------------------------------
  free energy    TOTEN  =       -54.53415482 eV

  energy without entropy =      -54.53415482  energy(sigma->0) =      -54.53415482


--------------------------------------------------------------------------------------------------------




----------------------------------------- Iteration    1(  25)  ---------------------------------------


    POTLOK:  cpu time    0.28: real time    0.29
    SETDIJ:  cpu time    0.01: real time    0.01
     EDDAV:  cpu time    3.58: real time    3.58
       DOS:  cpu time    0.00: real time    0.00
    CHARGE:  cpu time    0.13: real time    0.13
    MIXING:  cpu time    0.02: real time    0.02
    --------------------------------------------
      LOOP:  cpu time    4.03: real time    4.05

 eigenvalue-minimisations  :   856
 total energy-change (2. order) :-0.2230072E-02  (-0.1358059E-03)
 number of electron     308.0000207 magnetization       2.0876955
 augmentation part      147.3571126 magnetization       0.0432551

 Broyden mixing:
  rms(total) = 0.61613E-02    rms(broyden)= 0.61602E-02
  rms(prec ) = 0.74511E-02
  weight for this iteration     100.00

 eigenvalues of (default mixing * dielectric matrix)
  average eigenvalue GAMMA=   1.6206
  7.8276  4.0523  2.8412  2.2537  2.2537  2.4329  0.6568  0.6568  1.1433  1.1433
  1.1869  0.7248  0.7248  0.8199  0.7340  0.7340  0.6260  0.5239  0.5239  0.5528

 Free energy of the ion-electron system (eV)
  ---------------------------------------------------
  alpha Z        PSCENC =        70.57178200
  Ewald energy   TEWEN  =     64991.57212153
  -Hartree energ DENC   =    -92722.14956002
  -exchange      EXHF   =         0.00000000
  -V(xc)+E(xc)   XCENC  =      -311.54140021
  PAW double counting   =     31346.48773180   -30121.50197666
  entropy T*S    EENTRO =        -0.00000000
  eigenvalues    EBANDS =     -2349.53672575
  atomic energy  EATOM  =     29041.56164242
  ---------------------------------------------------
  free energy    TOTEN  =       -54.53638489 eV

  energy without entropy =      -54.53638489  energy(sigma->0) =      -54.53638489


--------------------------------------------------------------------------------------------------------




----------------------------------------- Iteration    1(  26)  ---------------------------------------


    POTLOK:  cpu time    0.29: real time    0.29
    SETDIJ:  cpu time    0.01: real time    0.01
     EDDAV:  cpu time    3.40: real time    3.40
       DOS:  cpu time    0.00: real time    0.00
    CHARGE:  cpu time    0.13: real time    0.13
    MIXING:  cpu time    0.02: real time    0.02
    --------------------------------------------
      LOOP:  cpu time    3.85: real time    3.85

 eigenvalue-minimisations  :   800
 total energy-change (2. order) :-0.7593062E-02  (-0.6311719E-04)
 number of electron     308.0000207 magnetization       2.0236322
 augmentation part      147.3576014 magnetization      -0.0191506

 Broyden mixing:
  rms(total) = 0.52154E-02    rms(broyden)= 0.52151E-02
  rms(prec ) = 0.59358E-02
  weight for this iteration     100.00

 eigenvalues of (default mixing * dielectric matrix)
  average eigenvalue GAMMA=   1.6643
  8.0728  3.7627  3.7627  2.6844  2.3455  2.3455  1.4199  0.6569  0.6569  1.2090
  1.2090  0.9310  0.7186  0.7186  0.8055  0.8055  0.5244  0.5244  0.6262  0.6140
  0.5578

 Free energy of the ion-electron system (eV)
  ---------------------------------------------------
  alpha Z        PSCENC =        70.57178200
  Ewald energy   TEWEN  =     64991.57212153
  -Hartree energ DENC   =    -92719.80027398
  -exchange      EXHF   =         0.00000000
  -V(xc)+E(xc)   XCENC  =      -311.56036377
  PAW double counting   =     31348.45335058   -30123.47656576
  entropy T*S    EENTRO =         0.00000000
  eigenvalues    EBANDS =     -2351.86567098
  atomic energy  EATOM  =     29041.56164242
  ---------------------------------------------------
  free energy    TOTEN  =       -54.54397796 eV

  energy without entropy =      -54.54397796  energy(sigma->0) =      -54.54397796


--------------------------------------------------------------------------------------------------------




----------------------------------------- Iteration    1(  27)  ---------------------------------------


    POTLOK:  cpu time    0.29: real time    0.29
    SETDIJ:  cpu time    0.01: real time    0.01
     EDDAV:  cpu time    2.70: real time    2.70
       DOS:  cpu time    0.00: real time    0.00
    CHARGE:  cpu time    0.14: real time    0.13
    MIXING:  cpu time    0.02: real time    0.02
    --------------------------------------------
      LOOP:  cpu time    3.14: real time    3.15

 eigenvalue-minimisations  :   576
 total energy-change (2. order) :-0.9153384E-03  (-0.3225536E-04)
 number of electron     308.0000207 magnetization       2.0004170
 augmentation part      147.3547761 magnetization      -0.0402089

 Broyden mixing:
  rms(total) = 0.17947E-02    rms(broyden)= 0.17943E-02
  rms(prec ) = 0.24249E-02
  weight for this iteration     100.00

 eigenvalues of (default mixing * dielectric matrix)
  average eigenvalue GAMMA=   1.6601
  8.1830  3.8775  3.8775  2.7170  2.3430  2.3430  1.8360  0.6569  0.6569  1.1738
  1.1080  1.1080  0.7247  0.7247  0.8149  0.7533  0.7533  0.5241  0.5241  0.5532
  0.6410  0.6278

 Free energy of the ion-electron system (eV)
  ---------------------------------------------------
  alpha Z        PSCENC =        70.57178200
  Ewald energy   TEWEN  =     64991.57212153
  -Hartree energ DENC   =    -92718.50277388
  -exchange      EXHF   =         0.00000000
  -V(xc)+E(xc)   XCENC  =      -311.56160299
  PAW double counting   =     31349.73653764   -30124.78768474
  entropy T*S    EENTRO =         0.00000000
  eigenvalues    EBANDS =     -2353.13491526
  atomic energy  EATOM  =     29041.56164242
  ---------------------------------------------------
  free energy    TOTEN  =       -54.54489329 eV

  energy without entropy =      -54.54489329  energy(sigma->0) =      -54.54489329


--------------------------------------------------------------------------------------------------------




----------------------------------------- Iteration    1(  28)  ---------------------------------------


    POTLOK:  cpu time    0.28: real time    0.29
    SETDIJ:  cpu time    0.01: real time    0.01
     EDDAV:  cpu time    2.73: real time    2.73
       DOS:  cpu time    0.00: real time    0.00
    CHARGE:  cpu time    0.13: real time    0.13
    MIXING:  cpu time    0.02: real time    0.02
    --------------------------------------------
      LOOP:  cpu time    3.18: real time    3.18

 eigenvalue-minimisations  :   584
 total energy-change (2. order) :-0.6038682E-03  (-0.1156505E-04)
 number of electron     308.0000207 magnetization       1.9987263
 augmentation part      147.3557404 magnetization      -0.0401601

 Broyden mixing:
  rms(total) = 0.17428E-02    rms(broyden)= 0.17426E-02
  rms(prec ) = 0.21350E-02
  weight for this iteration     100.00

 eigenvalues of (default mixing * dielectric matrix)
  average eigenvalue GAMMA=   1.6600
  8.1630  4.5546  2.3601  2.3601  2.9437  2.6439  2.6439  1.2848  1.2141  1.2141
  0.6569  0.6569  0.8606  0.8606  0.7202  0.7202  0.8015  0.5242  0.5242  0.6691
  0.5557  0.6235  0.6235

 Free energy of the ion-electron system (eV)
  ---------------------------------------------------
  alpha Z        PSCENC =        70.57178200
  Ewald energy   TEWEN  =     64991.57212153
  -Hartree energ DENC   =    -92717.46428542
  -exchange      EXHF   =         0.00000000
  -V(xc)+E(xc)   XCENC  =      -311.56776312
  PAW double counting   =     31348.92274834   -30123.97855803
  entropy T*S    EENTRO =         0.00000000
  eigenvalues    EBANDS =     -2354.16318487
  atomic energy  EATOM  =     29041.56164242
  ---------------------------------------------------
  free energy    TOTEN  =       -54.54549716 eV

  energy without entropy =      -54.54549716  energy(sigma->0) =      -54.54549716


--------------------------------------------------------------------------------------------------------




----------------------------------------- Iteration    1(  29)  ---------------------------------------


    POTLOK:  cpu time    0.28: real time    0.29
    SETDIJ:  cpu time    0.01: real time    0.01
     EDDAV:  cpu time    2.52: real time    2.52
       DOS:  cpu time    0.00: real time    0.00
    CHARGE:  cpu time    0.13: real time    0.13
    MIXING:  cpu time    0.02: real time    0.02
    --------------------------------------------
      LOOP:  cpu time    2.97: real time    3.01

 eigenvalue-minimisations  :   520
 total energy-change (2. order) :-0.1265284E-02  (-0.5442809E-05)
 number of electron     308.0000207 magnetization       1.9949446
 augmentation part      147.3560660 magnetization      -0.0439563

 Broyden mixing:
  rms(total) = 0.98405E-03    rms(broyden)= 0.98397E-03
  rms(prec ) = 0.12462E-02
  weight for this iteration     100.00

 eigenvalues of (default mixing * dielectric matrix)
  average eigenvalue GAMMA=   1.6703
  8.1565  4.9218  3.0071  3.0071  2.3453  2.3453  2.6019  1.3667  1.3667  1.3189
  0.6569  0.6569  0.9976  0.7224  0.7224  0.8306  0.7824  0.7824  0.5242  0.5242
  0.5544  0.6439  0.6439  0.6091

 Free energy of the ion-electron system (eV)
  ---------------------------------------------------
  alpha Z        PSCENC =        70.57178200
  Ewald energy   TEWEN  =     64991.57212153
  -Hartree energ DENC   =    -92716.53137274
  -exchange      EXHF   =         0.00000000
  -V(xc)+E(xc)   XCENC  =      -311.57277365
  PAW double counting   =     31348.49542982   -30123.55585485
  entropy T*S    EENTRO =         0.00000000
  eigenvalues    EBANDS =     -2355.08773696
  atomic energy  EATOM  =     29041.56164242
  ---------------------------------------------------
  free energy    TOTEN  =       -54.54676245 eV

  energy without entropy =      -54.54676245  energy(sigma->0) =      -54.54676245


--------------------------------------------------------------------------------------------------------




----------------------------------------- Iteration    1(  30)  ---------------------------------------


    POTLOK:  cpu time    0.29: real time    0.29
    SETDIJ:  cpu time    0.00: real time    0.01
     EDDAV:  cpu time    2.70: real time    2.70
       DOS:  cpu time    0.00: real time    0.00
    CHARGE:  cpu time    0.13: real time    0.13
    MIXING:  cpu time    0.02: real time    0.02
    --------------------------------------------
      LOOP:  cpu time    3.15: real time    3.17

 eigenvalue-minimisations  :   576
 total energy-change (2. order) :-0.1148713E-02  (-0.3342776E-05)
 number of electron     308.0000207 magnetization       2.0007578
 augmentation part      147.3563842 magnetization      -0.0380217

 Broyden mixing:
  rms(total) = 0.69003E-03    rms(broyden)= 0.68997E-03
  rms(prec ) = 0.85822E-03
  weight for this iteration     100.00

 eigenvalues of (default mixing * dielectric matrix)
  average eigenvalue GAMMA=   1.7313
  8.0068  6.0133  3.3423  3.3423  2.7679  2.3114  2.3114  2.0958  0.6569  0.6569
  1.2125  1.2125  1.1226  0.7217  0.7217  0.9020  0.8029  0.8029  0.8124  0.5242
  0.5242  0.5542  0.6275  0.6275  0.6092

 Free energy of the ion-electron system (eV)
  ---------------------------------------------------
  alpha Z        PSCENC =        70.57178200
  Ewald energy   TEWEN  =     64991.57212153
  -Hartree energ DENC   =    -92715.91829623
  -exchange      EXHF   =         0.00000000
  -V(xc)+E(xc)   XCENC  =      -311.57578025
  PAW double counting   =     31348.42966328   -30123.48805998
  entropy T*S    EENTRO =         0.00000000
  eigenvalues    EBANDS =     -2355.70098391
  atomic energy  EATOM  =     29041.56164242
  ---------------------------------------------------
  free energy    TOTEN  =       -54.54791116 eV

  energy without entropy =      -54.54791116  energy(sigma->0) =      -54.54791116


--------------------------------------------------------------------------------------------------------




----------------------------------------- Iteration    1(  31)  ---------------------------------------


    POTLOK:  cpu time    0.28: real time    0.28
    SETDIJ:  cpu time    0.01: real time    0.01
     EDDAV:  cpu time    2.68: real time    2.68
       DOS:  cpu time    0.00: real time    0.00
    CHARGE:  cpu time    0.13: real time    0.13
    MIXING:  cpu time    0.02: real time    0.02
    --------------------------------------------
      LOOP:  cpu time    3.13: real time    3.13

 eigenvalue-minimisations  :   568
 total energy-change (2. order) :-0.6285793E-03  (-0.1970936E-05)
 number of electron     308.0000207 magnetization       1.9981995
 augmentation part      147.3565635 magnetization      -0.0409609

 Broyden mixing:
  rms(total) = 0.39623E-03    rms(broyden)= 0.39614E-03
  rms(prec ) = 0.48737E-03
  weight for this iteration     100.00

 eigenvalues of (default mixing * dielectric matrix)
  average eigenvalue GAMMA=   1.7402
  7.9916  6.4912  3.3203  3.3203  3.1075  2.3174  2.3174  2.1392  1.3042  1.3042
  0.6569  0.6569  1.1159  1.1159  0.8237  0.8237  0.7210  0.7210  0.7858  0.5242
  0.5242  0.7202  0.5545  0.6368  0.6368  0.6143

 Free energy of the ion-electron system (eV)
  ---------------------------------------------------
  alpha Z        PSCENC =        70.57178200
[...]
    170      -1.1696      0.00000
    171      -0.9822      0.00000
    172      -0.6261      0.00000
    173      -0.5579      0.00000
    174      -0.4457      0.00000
    175      -0.4299      0.00000
    176      -0.4144      0.00000
    177      -0.2965      0.00000
    178      -0.2458      0.00000
    179      -0.2307      0.00000
    180      -0.0987      0.00000
    181       0.0520      0.00000
    182       0.1031      0.00000
    183       0.2639      0.00000
    184       0.3631      0.00000
    185       0.4975      0.00000
    186       0.6404      0.00000
    187       0.7375      0.00000
    188       0.7816      0.00000
    189       0.7959      0.00000
    190       0.8063      0.00000
    191       0.8591      0.00000
    192       0.9132      0.00000
    193       0.9156      0.00000
    194       0.9556      0.00000
    195       1.0021      0.00000
    196       1.0352      0.00000
    197       1.0694      0.00000
    198       1.0844      0.00000
    199       1.0954      0.00000
    200       1.1256      0.00000


--------------------------------------------------------------------------------------------------------


 soft charge-density along one line, spin component           1
         0         1         2         3         4         5         6         7         8         9
 total charge-density along one line
 
 soft charge-density along one line, spin component           2
         0         1         2         3         4         5         6         7         8         9
 total charge-density along one line
 
 pseudopotential strength for first ion, spin component:           1
-10.319   0.003  -0.008  -0.006   0.004 -10.293   0.003  -0.008
  0.003 -10.300  -0.003   0.005   0.003   0.003 -10.275  -0.003
 -0.008  -0.003 -10.307   0.000   0.010  -0.008  -0.003 -10.281
 -0.006   0.005   0.000 -10.312   0.004  -0.006   0.005   0.000
  0.004   0.003   0.010   0.004 -10.321   0.004   0.002   0.009
-10.293   0.003  -0.008  -0.006   0.004 -10.243   0.003  -0.008
  0.003 -10.275  -0.003   0.005   0.002   0.003 -10.226  -0.002
 -0.008  -0.003 -10.281   0.000   0.009  -0.008  -0.002 -10.232
 -0.006   0.005   0.000 -10.287   0.004  -0.006   0.005   0.000
  0.004   0.002   0.009   0.004 -10.295   0.004   0.002   0.009
 -0.002   0.000  -0.001  -0.001   0.002  -0.002   0.000  -0.001
 -0.003   0.001  -0.002  -0.002   0.003  -0.003   0.001  -0.002
 -0.030   0.010  -0.009   0.000  -0.016  -0.028   0.009  -0.008
  0.000   0.016   0.011  -0.030  -0.000   0.000   0.015   0.011
  0.015   0.000   0.017   0.009  -0.029   0.014   0.000   0.016
 -0.036   0.012  -0.011   0.000  -0.020  -0.035   0.011  -0.010
  0.000   0.019   0.014  -0.037  -0.000   0.000   0.019   0.013
  0.018   0.000   0.020   0.011  -0.036   0.018   0.000   0.019
 pseudopotential strength for first ion, spin component:           2
-10.319   0.003  -0.008  -0.006   0.004 -10.293   0.003  -0.008
  0.003 -10.300  -0.003   0.005   0.003   0.003 -10.275  -0.003
 -0.008  -0.003 -10.307   0.000   0.010  -0.008  -0.003 -10.281
 -0.006   0.005   0.000 -10.312   0.004  -0.006   0.005   0.000
  0.004   0.003   0.010   0.004 -10.321   0.004   0.002   0.009
-10.293   0.003  -0.008  -0.006   0.004 -10.243   0.003  -0.008
  0.003 -10.275  -0.003   0.005   0.002   0.003 -10.226  -0.002
 -0.008  -0.003 -10.281   0.000   0.009  -0.008  -0.002 -10.232
 -0.006   0.005   0.000 -10.287   0.004  -0.006   0.005   0.000
  0.004   0.002   0.009   0.004 -10.295   0.004   0.002   0.009
 -0.002   0.000  -0.001  -0.001   0.002  -0.002   0.000  -0.001
 -0.003   0.001  -0.002  -0.002   0.003  -0.003   0.001  -0.002
 -0.030   0.010  -0.009   0.000  -0.016  -0.028   0.009  -0.008
  0.000   0.016   0.011  -0.030  -0.000   0.000   0.015   0.011
  0.015   0.000   0.017   0.009  -0.029   0.014   0.000   0.016
 -0.036   0.012  -0.011   0.000  -0.020  -0.035   0.011  -0.010
  0.000   0.019   0.014  -0.037  -0.000   0.000   0.019   0.013
  0.018   0.000   0.020   0.011  -0.036   0.018   0.000   0.019
 total augmentation occupancy for first ion, spin component:           1
  2.840  -0.075   0.043  -0.080   0.184  -0.826   0.077  -0.066   0.055  -0.129   0.160  -0.056  -0.179   0.028   0.005  -0.006
 -0.075   2.584   0.061  -0.148  -0.035   0.077  -0.573  -0.063   0.137   0.010   0.035   0.011   0.032   0.072   0.015   0.004
  0.043   0.061   2.656  -0.094  -0.014  -0.066  -0.063  -0.671   0.075   0.038   0.079  -0.050  -0.019   0.055   0.054  -0.004
 -0.080  -0.148  -0.094   2.932   0.016   0.055   0.137   0.075  -0.886   0.004   0.101  -0.031   0.027  -0.210   0.006  -0.001
  0.184  -0.035  -0.014   0.016   2.762  -0.129   0.010   0.038   0.004  -0.778  -0.146   0.066  -0.102  -0.014  -0.115  -0.005
 -0.826   0.077  -0.066   0.055  -0.129   0.789  -0.080   0.088  -0.033   0.083  -0.130   0.039   0.200  -0.022  -0.022  -0.012
  0.077  -0.573  -0.063   0.137   0.010  -0.080   0.533   0.066  -0.130   0.010  -0.037   0.000  -0.035  -0.079  -0.012   0.002
 -0.066  -0.063  -0.671   0.075   0.038   0.088   0.066   0.652  -0.060  -0.060  -0.049   0.027   0.027  -0.060  -0.072  -0.002
  0.055   0.137   0.075  -0.886   0.004  -0.033  -0.130  -0.060   0.821  -0.022  -0.085   0.022  -0.021   0.225  -0.015   0.001
 -0.129   0.010   0.038   0.004  -0.778   0.083   0.010  -0.060  -0.022   0.766   0.110  -0.045   0.105   0.010   0.143  -0.005
  0.160   0.035   0.079   0.101  -0.146  -0.130  -0.037  -0.049  -0.085   0.110   1.802  -0.267  -0.096  -0.055   0.238   0.009
 -0.056   0.011  -0.050  -0.031   0.066   0.039   0.000   0.027   0.022  -0.045  -0.267   0.056   0.016   0.008  -0.053  -0.001
 -0.179   0.032  -0.019   0.027  -0.102   0.200  -0.035   0.027  -0.021   0.105  -0.096   0.016   0.087  -0.012   0.006  -0.005
  0.028   0.072   0.055  -0.210  -0.014  -0.022  -0.079  -0.060   0.225   0.010  -0.055   0.008  -0.012   0.099   0.002   0.000
  0.005   0.015   0.054   0.006  -0.115  -0.022  -0.012  -0.072  -0.015   0.143   0.238  -0.053   0.006   0.002   0.072   0.000
 -0.006   0.004  -0.004  -0.001  -0.005  -0.012   0.002  -0.002   0.001  -0.005   0.009  -0.001  -0.005   0.000   0.000   0.001
 -0.001   0.005   0.003  -0.005   0.000   0.001   0.004   0.003  -0.013  -0.000   0.005  -0.001   0.000  -0.005   0.000   0.000
  0.006  -0.000   0.005   0.003  -0.008   0.003   0.001   0.005   0.002  -0.010  -0.022   0.004   0.000   0.000  -0.006  -0.000
 total augmentation occupancy for first ion, spin component:           2
  0.000   0.000  -0.000   0.000   0.000  -0.000  -0.000   0.000  -0.000  -0.000   0.000  -0.000  -0.000  -0.000  -0.000   0.000
  0.000   0.000   0.000  -0.000   0.000  -0.000  -0.000  -0.000   0.000  -0.000  -0.000   0.000   0.000  -0.000  -0.000  -0.000
 -0.000   0.000  -0.000   0.000  -0.000   0.000  -0.000   0.000  -0.000   0.000  -0.000   0.000  -0.000  -0.000  -0.000   0.000
  0.000  -0.000   0.000   0.000  -0.000  -0.000   0.000  -0.000  -0.000   0.000  -0.000   0.000  -0.000  -0.000   0.000   0.000
  0.000   0.000  -0.000  -0.000  -0.000  -0.000  -0.000   0.000   0.000   0.000   0.000  -0.000  -0.000   0.000   0.000   0.000
 -0.000  -0.000   0.000  -0.000  -0.000   0.000   0.000   0.000   0.000   0.000  -0.000   0.000  -0.000   0.000   0.000  -0.000
 -0.000  -0.000  -0.000   0.000  -0.000   0.000   0.000   0.000  -0.000   0.000   0.000  -0.000  -0.000   0.000   0.000   0.000
  0.000  -0.000   0.000  -0.000   0.000   0.000   0.000  -0.000   0.000   0.000   0.000  -0.000   0.000   0.000  -0.000  -0.000
 -0.000   0.000  -0.000  -0.000   0.000   0.000  -0.000   0.000   0.000  -0.000   0.000   0.000   0.000   0.000  -0.000  -0.000
 -0.000  -0.000   0.000   0.000   0.000   0.000   0.000   0.000  -0.000  -0.000   0.000  -0.000   0.000  -0.000  -0.000  -0.000
  0.000  -0.000  -0.000  -0.000   0.000  -0.000   0.000   0.000   0.000   0.000  -0.000   0.000  -0.000   0.000   0.000   0.000
 -0.000   0.000   0.000   0.000  -0.000   0.000  -0.000  -0.000   0.000  -0.000   0.000  -0.000  -0.000   0.000   0.000  -0.000
 -0.000   0.000  -0.000  -0.000  -0.000  -0.000  -0.000   0.000   0.000   0.000  -0.000  -0.000  -0.000   0.000   0.000   0.000
 -0.000  -0.000  -0.000  -0.000   0.000   0.000   0.000   0.000   0.000  -0.000   0.000   0.000   0.000   0.000  -0.000  -0.000
 -0.000  -0.000  -0.000   0.000   0.000   0.000   0.000  -0.000  -0.000  -0.000   0.000   0.000   0.000  -0.000   0.000   0.000
  0.000  -0.000   0.000   0.000   0.000  -0.000   0.000  -0.000  -0.000  -0.000   0.000  -0.000   0.000  -0.000   0.000  -0.000
  0.000   0.000   0.000   0.000  -0.000  -0.000  -0.000   0.000   0.000  -0.000  -0.000   0.000  -0.000  -0.000  -0.000   0.000
  0.000   0.000   0.000  -0.000  -0.000   0.000  -0.000   0.000   0.000   0.000  -0.000   0.000   0.000   0.000  -0.000  -0.000


------------------------ aborting loop because EDIFF is reached ----------------------------------------


    CHARGE:  cpu time    0.13: real time    0.13
    FORLOC:  cpu time    0.02: real time    0.02
    FORNL :  cpu time    2.30: real time    2.30
    STRESS:  cpu time    2.84: real time    2.84
    FORCOR:  cpu time    0.29: real time    0.29
    FORHAR:  cpu time    0.05: real time    0.05
    MIXING:  cpu time    0.01: real time    0.01
    OFIELD:  cpu time    0.00: real time    0.00

  FORCE on cell =-STRESS in cart. coord.  units (eV):
  Direction    XX          YY          ZZ          XY          YZ          ZX
  --------------------------------------------------------------------------------------
  Alpha Z    70.57178    70.57178    70.57178
  Ewald   27400.22375 18484.31169 13431.49068  3551.85332  4698.95690  2854.24908
  Hartree 36220.82966 27804.28298 23142.25303  3368.42886  4260.02294  2687.58207
  E(xc)   -1622.88527 -1623.53430 -1624.11624     0.14488     0.71192     0.17399
  Local  -68181.45722-50847.91072-41143.85777 -6930.51811 -8947.24238 -5547.53039
  n-local  -301.32158  -303.50233  -302.05397     3.39392    -1.41652     2.18111
  augment  2571.96461  2572.47725  2575.22989     1.81665    -3.04921     0.90643
  Kinetic  3832.42542  3833.53181  3840.87471     5.05899    -8.08066     2.59534
  Fock        0.00000     0.00000     0.00000     0.00000     0.00000     0.00000
  -------------------------------------------------------------------------------------
  Total      -9.64883    -9.77185    -9.60788     0.17851    -0.09702     0.15764
  in kB      -1.63601    -1.65687    -1.62907     0.03027    -0.01645     0.02673
  external pressure =       -1.64 kB  Pullay stress =        0.00 kB


 VOLUME and BASIS-vectors are now :
 -----------------------------------------------------------------------------
  energy-cutoff  :      249.84
  volume of cell :     9449.29
      direct lattice vectors                 reciprocal lattice vectors
    21.141366410  0.000000000  0.000000000     0.047300632  0.000000000  0.000000000
     0.000000000 21.141366410  0.000000000     0.000000000  0.047300632  0.000000000
     0.000000000  0.000000000 21.141366410     0.000000000  0.000000000  0.047300632

  length of vectors
    21.141366410 21.141366410 21.141366410     0.047300632  0.047300632  0.047300632


 FORCES acting on ions
    electron-ion (+dipol)            ewald-force                    non-local-force                 convergence-correction
 -----------------------------------------------------------------------------------------------
   0.142E+04 -.210E+03 -.628E+02   -.142E+04 0.208E+03 0.614E+02   -.487E+01 0.239E+01 0.146E+01   0.214E-01 0.508E-02 -.805E-02
   0.100E+04 0.228E+03 0.102E+04   -.998E+03 -.228E+03 -.101E+04   -.306E+01 -.649E+00 -.306E+01   -.450E-02 -.644E-02 0.406E-02
   0.105E+04 0.969E+03 -.174E+03   -.105E+04 -.966E+03 0.173E+03   -.317E+01 -.295E+01 0.530E+00   -.129E-01 0.328E-02 -.111E-01
   0.857E+03 -.821E+03 0.856E+03   -.856E+03 0.819E+03 -.853E+03   -.162E+01 0.224E+01 -.313E+01   0.210E-02 0.504E-02 -.817E-02
   0.100E+04 -.661E+03 -.367E+03   -.100E+04 0.660E+03 0.366E+03   -.218E+01 0.139E+01 0.894E+00   0.161E-02 -.594E-02 -.485E-02
   0.949E+03 0.387E+03 -.104E+04   -.947E+03 -.386E+03 0.104E+04   -.204E+01 -.179E+01 0.303E+01   -.827E-03 -.817E-03 0.541E-02
   0.298E+03 0.120E+04 0.787E+03   -.299E+03 -.120E+04 -.784E+03   0.976E+00 -.468E+01 -.297E+01   -.389E-02 0.976E-02 0.899E-02
   0.530E+03 0.302E+03 0.220E+03   -.529E+03 -.301E+03 -.220E+03   -.880E+00 -.507E+00 -.361E+00   0.180E-01 0.133E-01 0.604E-02
   0.586E+02 0.173E+03 0.145E+04   -.583E+02 -.174E+03 -.144E+04   -.317E+00 0.488E+00 -.408E+01   0.184E-04 0.685E-03 -.545E-02
   0.519E+03 -.675E+02 -.139E+04   -.518E+03 0.670E+02 0.139E+04   -.129E+01 0.532E+00 0.437E+01   -.106E-01 -.198E-02 0.481E-03
   0.142E+03 0.138E+04 -.441E+03   -.142E+03 -.138E+04 0.439E+03   -.708E+00 -.345E+01 0.216E+01   0.118E-02 -.201E-02 0.107E-01
   0.622E+03 -.114E+04 -.738E+03   -.619E+03 0.114E+04 0.735E+03   -.285E+01 0.468E+01 0.278E+01   -.203E-01 0.240E-01 0.864E-02
   0.442E+03 -.132E+04 0.530E+03   -.440E+03 0.132E+04 -.528E+03   -.137E+01 0.426E+01 -.134E+01   -.284E-02 -.343E-02 -.112E-01
   0.134E+03 0.593E+03 -.795E+03   -.134E+03 -.593E+03 0.796E+03   -.253E+00 0.336E+00 -.906E+00   0.451E-03 0.422E-02 -.184E-02
   -.354E+03 0.101E+04 0.650E+03   0.354E+03 -.101E+04 -.649E+03   0.793E+00 -.218E+01 -.142E+01   -.306E-02 -.385E-02 0.151E-01
   -.395E+03 -.679E+03 -.126E+04   0.394E+03 0.677E+03 0.126E+04   0.782E+00 0.252E+01 0.372E+01   -.317E-02 0.404E-02 0.127E-01
   -.489E+02 -.548E+03 -.362E+03   0.486E+02 0.546E+03 0.361E+03   0.187E+00 0.153E+01 0.103E+01   0.438E-01 -.519E-01 -.414E-01
   0.617E+02 -.493E+03 0.880E+03   -.614E+02 0.493E+03 -.881E+03   -.258E+00 -.637E+00 0.704E+00   -.346E-02 -.125E-01 0.139E-01
   -.555E+03 0.353E+03 -.130E+04   0.554E+03 -.352E+03 0.130E+04   0.422E+00 -.130E+01 0.270E+01   0.880E-02 0.648E-02 -.461E-02
   -.629E+03 0.162E+03 0.834E+02   0.627E+03 -.161E+03 -.832E+02   0.177E+01 -.423E+00 -.186E+00   -.470E-01 0.480E-01 0.352E-01
   -.437E+03 -.140E+04 -.152E+03   0.436E+03 0.140E+04 0.151E+03   0.689E+00 0.442E+01 0.105E+01   0.111E-01 0.924E-02 0.183E-02
   -.561E+03 0.125E+04 -.590E+03   0.559E+03 -.125E+04 0.589E+03   0.218E+01 -.364E+01 0.174E+01   -.111E-01 -.160E-02 -.249E-02
   -.641E+03 0.236E+01 0.135E+04   0.639E+03 -.221E+01 -.134E+04   0.223E+01 -.145E+00 -.404E+01   -.480E-03 -.143E-02 -.104E-01
   -.633E+03 -.103E+04 0.815E+03   0.632E+03 0.103E+04 -.813E+03   0.630E+00 0.187E+01 -.227E+01   0.837E-02 -.223E-02 0.714E-02
   -.118E+04 -.675E+03 -.490E+03   0.118E+04 0.673E+03 0.489E+03   0.223E+01 0.126E+01 0.982E+00   -.295E-01 -.189E-01 -.134E-01
   -.105E+04 0.912E+03 0.542E+03   0.104E+04 -.909E+03 -.540E+03   0.415E+01 -.382E+01 -.252E+01   0.167E-01 -.274E-01 -.145E-01
   -.128E+04 0.431E+03 -.573E+03   0.128E+04 -.429E+03 0.571E+03   0.410E+01 -.162E+01 0.110E+01   0.172E-01 0.415E-02 0.963E-02
   -.132E+04 -.304E+03 0.562E+03   0.132E+04 0.304E+03 -.561E+03   0.433E+01 0.386E-01 -.167E+01   0.113E-01 0.801E-02 -.102E-02
 -----------------------------------------------------------------------------------------------
   -.553E+00 -.189E+00 -.255E+00   -.114E-11 -.171E-12 0.125E-11   0.614E+00 0.171E+00 0.301E+00   0.833E-02 0.485E-02 0.131E-02
 
 
 POSITION                                       TOTAL-FORCE (eV/Angst)
 -----------------------------------------------------------------------------------
      6.16769     10.42615     10.30561        -0.025494     -0.022960      0.006117
      6.93933      9.39737      7.77378        -0.001616      0.009149     -0.011094
      6.82921      7.66594     10.55133         0.012655     -0.013960      0.014546
      7.87569     12.05259      8.59983        -0.011120     -0.002349      0.010052
      8.49189     11.97458     11.40509         0.000248     -0.000883     -0.001650
      7.70354      9.51921     12.63348        -0.004401      0.006282     -0.002742
      8.71959      7.29402      8.45081        -0.001499     -0.008499     -0.012896
      8.70883      9.58466      9.89339        -0.010874     -0.002652     -0.004479
      9.78388      9.73766      7.19713        -0.001581     -0.000240     -0.000150
      9.73776     11.44652     14.02680         0.021735     -0.014559      0.005845
      9.62396      7.13401     11.21996         0.003672     -0.004154     -0.014603
      9.72577     14.20273     12.99284         0.015791     -0.007745      0.009437
      9.92822     14.07980     10.00903         0.002825      0.006358      0.007183
     10.41656      9.62556     12.11140         0.002195     -0.001314     -0.013214
     11.27763      8.54182      9.33171        -0.004786      0.008226     -0.009510
     12.22058     13.23933     14.25107         0.024456      0.001211     -0.008190
     11.23704     12.37321     11.82127         0.002214     -0.006415     -0.000051
     10.54895     11.56421      9.12646        -0.004846      0.009427     -0.001104
     12.65761     10.52575     13.58709        -0.016742     -0.006954     -0.002613
     12.76064     10.51605     10.66303        -0.005253      0.009902      0.002864
     12.32568     14.90243     11.71505        -0.000738     -0.001231     -0.000823
     12.57384      7.97057     11.88140         0.010219      0.006661      0.004000
     12.77064     10.59615      7.85773        -0.004656      0.008212      0.003541
     12.81534     13.21948      9.50230        -0.011897     -0.003350     -0.003581
     14.10769     12.63356     12.09640         0.013694      0.009756      0.009670
     14.25760      8.63341      9.54842         0.003508      0.018927      0.003144
     14.99566      9.85874     12.12937        -0.010031      0.001688      0.002159
     15.07577     11.53236      9.57768         0.002320      0.001466      0.008143
 -----------------------------------------------------------------------------------
    total drift:                                0.068840     -0.013255      0.046682


--------------------------------------------------------------------------------------------------------



  FREE ENERGIE OF THE ION-ELECTRON SYSTEM (eV)
  ---------------------------------------------------
  free  energy   TOTEN  =       -57.66630706 eV

  energy  without entropy=      -57.66630706  energy(sigma->0) =      -57.66630706
 
 d Force = 0.7477511E-04[-0.132E-03, 0.282E-03]  d Energy = 0.7210947E-04 0.267E-05
 d Force = 0.1737461E+01[ 0.173E+01, 0.174E+01]  d Ewald  = 0.1737461E+01-0.815E-07


--------------------------------------------------------------------------------------------------------


    POTLOK:  cpu time    0.30: real time    0.30


--------------------------------------------------------------------------------------------------------




--------------------------------------------------------------------------------------------------------


  
 reached required accuracy - stopping structural energy minimisation
     LOOP+:  cpu time   13.60: real time   14.86
    4ORBIT:  cpu time    0.00: real time    0.00

 total amount of memory used by VASP on root node    67535. kBytes
========================================================================

   base      :      30000. kBytes
   nonl-proj :       3139. kBytes
   fftplans  :       7246. kBytes
   grid      :      18544. kBytes
   one-center:         62. kBytes
   wavefun   :       8544. kBytes
 
  
  
 General timing and accounting informations for this job:
 ========================================================
  
                  Total CPU time used (sec):     1333.991
                            User time (sec):     1325.515
                          System time (sec):        8.477
                         Elapsed time (sec):     1410.978
  
                   Maximum memory used (kb):       84764.
                   Average memory used (kb):           0.
  
                          Minor page faults:      1505918
                          Major page faults:            0
                 Voluntary context switches:         9101
