<?xml version="1.0" encoding="ISO-8859-1"?>
<modeling>
 <generator>
  <i name="program" type="string">vasp </i>
  <i name="version" type="string">5.3.5  </i>
  <i name="subversion" type="string">31Mar14 (build Feb 01 2018 12:10:03) gamma-only                       parallel </i>
  <i name="platform" type="string">LinuxIFC </i>
  <i name="date" type="string">2019 03 22 </i>
  <i name="time" type="string">08:47:41 </i>
 </generator>
 <incar>
  <i type="string" name="PREC">normal</i>
  <i type="int" name="ISPIN">     2</i>
  <i type="int" name="IBRION">     2</i>
  <i type="int" name="NSW">  1000</i>
  <i type="int" name="ISIF">     2</i>
  <i name="POTIM">      0.10000000</i>
  <i type="logical" name="LPLANE"> T  </i>
  <i type="int" name="ISMEAR">     0</i>
  <i name="SIGMA">      0.00010000</i>
  <i type="logical" name="LWAVE"> F  </i>
  <i type="logical" name="LCHARG"> F  </i>
  <i type="logical" name="LVTOT"> F  </i>
  <i type="string" name="GGA"> PE</i>
 </incar>
 <kpoints>
  <varray name="kpointlist" >
   <v>       0.00000000       0.00000000       0.00000000 </v>
  </varray>
  <varray name="weights" >
   <v>       1.00000000 </v>
  </varray>
 </kpoints>
 <parameters>
  <separator name="general" >
   <i type="string" name="SYSTEM">unknown system</i>
   <i type="logical" name="LCOMPAT"> F  </i>
  </separator>
  <separator name="electronic" >
   <i type="string" name="PREC">normal</i>
   <i name="ENMAX">    249.84400000</i>
   <i name="ENAUG">    412.49600000</i>
   <i name="EDIFF">      0.00010000</i>
   <i type="int" name="IALGO">    38</i>
   <i type="int" name="IWAVPR">    11</i>
   <i type="int" name="NBANDS">   200</i>
   <i name="NELECT">    308.00000000</i>
   <i type="int" name="TURBO">     0</i>
   <i type="int" name="IRESTART">     0</i>
   <i type="int" name="NREBOOT">     0</i>
   <i type="int" name="NMIN">     0</i>
   <i name="EREF">      0.00000000</i>
   <separator name="electronic smearing" >
    <i type="int" name="ISMEAR">     0</i>
    <i name="SIGMA">      0.00010000</i>
    <i name="KSPACING">      0.50000000</i>
    <i type="logical" name="KGAMMA"> T  </i>
   </separator>
   <separator name="electronic projectors" >
    <i type="logical" name="LREAL"> F  </i>
    <v name="ROPT">      0.00000000</v>
    <i type="int" name="LMAXPAW">  -100</i>
    <i type="int" name="LMAXMIX">     2</i>
    <i type="logical" name="NLSPLINE"> F  </i>
   </separator>
   <separator name="electronic startup" >
    <i type="int" name="ISTART">     0</i>
    <i type="int" name="ICHARG">     2</i>
    <i type="int" name="INIWAV">     1</i>
   </separator>
   <separator name="electronic spin" >
    <i type="int" name="ISPIN">     2</i>
    <i type="logical" name="LNONCOLLINEAR"> F  </i>
    <v name="MAGMOM">      1.00000000      1.00000000      1.00000000      1.00000000      1.00000000      1.00000000      1.00000000      1.00000000      1.00000000      1.00000000      1.00000000      1.00000000      1.00000000      1.00000000      1.00000000      1.00000000      1.00000000      1.00000000      1.00000000      1.00000000
      1.00000000      1.00000000      1.00000000      1.00000000      1.00000000      1.00000000      1.00000000      1.00000000</v>
    <i name="NUPDOWN">     -1.00000000</i>
    <i type="logical" name="LSORBIT"> F  </i>
    <v name="SAXIS">      0.00000000      0.00000000      1.00000000</v>
    <i type="logical" name="LSPIRAL"> F  </i>
    <v name="QSPIRAL">      0.00000000      0.00000000      0.00000000</v>
    <i type="logical" name="LZEROZ"> F  </i>
   </separator>
   <separator name="electronic exchange-correlation" >
    <i type="logical" name="LASPH"> F  </i>
    <i type="logical" name="LMETAGGA"> F  </i>
   </separator>
   <separator name="electronic convergence" >
    <i type="int" name="NELM">    60</i>
    <i type="int" name="NELMDL">    -5</i>
    <i type="int" name="NELMIN">     2</i>
    <i name="ENINI">    249.84400000</i>
    <separator name="electronic convergence detail" >
     <i type="logical" name="LDIAG"> T  </i>
     <i type="logical" name="LSUBROT"> F  </i>
     <i name="WEIMIN">      0.00100000</i>
     <i name="EBREAK">      0.00000012</i>
     <i name="DEPER">      0.30000000</i>
     <i type="int" name="NRMM">     4</i>
     <i name="TIME">      0.40000000</i>
    </separator>
   </separator>
   <separator name="electronic mixer" >
    <i name="AMIX">      0.40000000</i>
    <i name="BMIX">      1.00000000</i>
    <i name="AMIN">      0.10000000</i>
    <i name="AMIX_MAG">      1.60000000</i>
    <i name="BMIX_MAG">      1.00000000</i>
    <separator name="electronic mixer details" >
     <i type="int" name="IMIX">     4</i>
     <i type="int" name="MAXMIX">   -45</i>
     <i name="WC">    100.00000000</i>
     <i type="int" name="INIMIX">     1</i>
     <i type="int" name="MIXPRE">     1</i>
     <i type="int" name="MREMOVE">     5</i>
    </separator>
   </separator>
   <separator name="electronic dipolcorrection" >
    <i type="logical" name="LDIPOL"> F  </i>
    <i type="logical" name="LMONO"> F  </i>
    <i type="int" name="IDIPOL">     0</i>
    <i name="EPSILON">      1.00000000</i>
    <v name="DIPOL">   -100.00000000   -100.00000000   -100.00000000</v>
    <i name="EFIELD">      0.00000000</i>
   </separator>
  </separator>
  <separator name="grids" >
   <i type="int" name="NGX">    84</i>
   <i type="int" name="NGY">    84</i>
   <i type="int" name="NGZ">    84</i>
   <i type="int" name="NGXF">   168</i>
   <i type="int" name="NGYF">   168</i>
   <i type="int" name="NGZF">   168</i>
   <i type="logical" name="ADDGRID"> F  </i>
  </separator>
  <separator name="ionic" >
   <i type="int" name="NSW">  1000</i>
   <i type="int" name="IBRION">     2</i>
   <i type="int" name="ISIF">     2</i>
   <i name="PSTRESS">      0.00000000</i>
   <i name="EDIFFG">      0.00100000</i>
   <i type="int" name="NFREE">     1</i>
   <i name="POTIM">      0.10000000</i>
   <i name="SMASS">     -3.00000000</i>
   <i name="SCALEE">      1.00000000</i>
  </separator>
  <separator name="ionic md" >
   <i name="TEBEG">      0.00010000</i>
   <i name="TEEND">      0.00010000</i>
   <i type="int" name="NBLOCK">     1</i>
   <i type="int" name="KBLOCK">  1000</i>
   <i type="int" name="NPACO">   256</i>
   <i name="APACO">     16.00000000</i>
  </separator>
  <separator name="symmetry" >
   <i type="int" name="ISYM">     2</i>
   <i name="SYMPREC">      0.00001000</i>
  </separator>
  <separator name="dos" >
   <i type="logical" name="LORBIT"> F  </i>
   <v name="RWIGS">     -1.00000000</v>
   <i type="int" name="NEDOS">   301</i>
   <i name="EMIN">     10.00000000</i>
   <i name="EMAX">    -10.00000000</i>
   <i name="EFERMI">      0.00000000</i>
  </separator>
  <separator name="writing" >
   <i type="int" name="NWRITE">     2</i>
   <i type="logical" name="LWAVE"> F  </i>
   <i type="logical" name="LCHARG"> F  </i>
   <i type="logical" name="LPARD"> F  </i>
   <i type="logical" name="LVTOT"> F  </i>
   <i type="logical" name="LVHAR"> F  </i>
   <i type="logical" name="LELF"> F  </i>
   <i type="logical" name="LOPTICS"> F  </i>
   <v name="STM">      0.00000000      0.00000000      0.00000000      0.00000000      0.00000000      0.00000000      0.00000000</v>
  </separator>
  <separator name="performance" >
   <i type="int" name="NPAR">     4</i>
   <i type="int" name="NSIM">     4</i>
   <i type="int" name="NBLK">    -1</i>
   <i type="logical" name="LPLANE"> T  </i>
   <i type="logical" name="LSCALAPACK"> T  </i>
   <i type="logical" name="LSCAAWARE"> F  </i>
   <i type="logical" name="LSCALU"> F  </i>
   <i type="logical" name="LASYNC"> F  </i>
   <i type="logical" name="LORBITALREAL"> F  </i>
  </separator>
  <separator name="miscellaneous" >
   <i type="int" name="IDIOT">     3</i>
   <i type="logical" name="LMUSIC"> F  </i>
   <v name="POMASS">    107.86800000</v>
   <v name="DARWINR">      0.00000000</v>
   <v name="DARWINV">      1.00000000</v>
   <i type="logical" name="LCORR"> T  </i>
  </separator>
  <i type="logical" name="GGA_COMPAT"> T  </i>
  <i type="logical" name="LBERRY"> F  </i>
  <i type="int" name="ICORELEVEL">     0</i>
  <i type="logical" name="LDAU"> F  </i>
  <i type="int" name="I_CONSTRAINED_M">     0</i>
  <separator name="electronic exchange-correlation" >
   <i type="string" name="GGA">PE</i>
   <i type="int" name="VOSKOWN">     0</i>
   <i type="logical" name="LHFCALC"> F  </i>
   <i type="string" name="PRECFOCK"></i>
   <i type="logical" name="LSYMGRAD"> F  </i>
   <i type="logical" name="LHFONE"> F  </i>
   <i type="logical" name="LRHFCALC"> F  </i>
   <i type="logical" name="LTHOMAS"> F  </i>
   <i type="logical" name="LMODELHF"> F  </i>
   <i name="ENCUT4O">     -1.00000000</i>
   <i type="int" name="EXXOEP">     0</i>
   <i type="int" name="FOURORBIT">     0</i>
   <i name="AEXX">      0.00000000</i>
   <i name="HFALPHA">      0.00000000</i>
   <i name="MCALPHA">      0.00000000</i>
   <i name="ALDAX">      1.00000000</i>
   <i name="AGGAX">      1.00000000</i>
   <i name="ALDAC">      1.00000000</i>
   <i name="AGGAC">      1.00000000</i>
   <i type="int" name="NKREDX">     1</i>
   <i type="int" name="NKREDY">     1</i>
   <i type="int" name="NKREDZ">     1</i>
   <i type="logical" name="SHIFTRED"> F  </i>
   <i type="logical" name="ODDONLY"> F  </i>
   <i type="logical" name="EVENONLY"> F  </i>
   <i type="int" name="LMAXFOCK">     0</i>
   <i type="int" name="NMAXFOCKAE">     0</i>
   <i type="logical" name="LFOCKAEDFT"> F  </i>
   <i name="HFSCREEN">      0.00000000</i>
   <i name="HFSCREENC">      0.00000000</i>
   <i type="int" name="NBANDSGWLOW">     0</i>
  </separator>
  <separator name="vdW DFT" >
   <i type="logical" name="LUSE_VDW"> F  </i>
   <i name="Zab_VDW">     -0.84910000</i>
   <i name="PARAM1">      0.12340000</i>
   <i name="PARAM2">      1.00000000</i>
   <i name="PARAM3">      0.00000000</i>
  </separator>
  <separator name="model GW" >
   <i type="int" name="MODEL_GW">     0</i>
   <i name="MODEL_EPS0">    215.07278960</i>
   <i name="MODEL_ALPHA">      1.00000000</i>
  </separator>
  <separator name="linear response parameters" >
   <i type="logical" name="LEPSILON"> F  </i>
   <i type="logical" name="LRPA"> F  </i>
   <i type="logical" name="LNABLA"> F  </i>
   <i type="logical" name="LVEL"> F  </i>
   <i type="int" name="KINTER">     0</i>
   <i name="CSHIFT">      0.10000000</i>
   <i name="OMEGAMAX">     -1.00000000</i>
   <i name="DEG_THRESHOLD">      0.00200000</i>
  </separator>
  <separator name="orbital magnetization" >
   <i type="logical" name="NUCIND"> F  </i>
   <v name="MAGPOS">      0.00000000      0.00000000      0.00000000</v>
   <i type="logical" name="LNICSALL"> T  </i>
   <i type="logical" name="ORBITALMAG"> F  </i>
   <i type="logical" name="LMAGBLOCH"> F  </i>
   <i type="logical" name="LCHIMAG"> F  </i>
   <i type="logical" name="LGAUGE"> T  </i>
   <i type="int" name="MAGATOM">     0</i>
   <v name="MAGDIPOL">      0.00000000      0.00000000      0.00000000</v>
   <v name="AVECCONST">      0.00000000      0.00000000      0.00000000</v>
  </separator>
  <separator name="response functions" >
   <i type="logical" name="LADDER"> F  </i>
   <i type="logical" name="LFXC"> F  </i>
   <i type="logical" name="LHARTREE"> T  </i>
   <i type="int" name="IBSE">     0</i>
   <i type="logical" name="LTCTE"> F  </i>
   <i type="logical" name="LTETE"> F  </i>
   <i type="logical" name="LTRIPLET"> F  </i>
   <i type="logical" name="LFXCEPS"> F  </i>
   <i type="logical" name="LFXHEG"> F  </i>
   <i type="logical" name="L2ORDER"> F  </i>
   <i type="logical" name="LUSEW"> F  </i>
   <i name="ENCUTGW">     -2.00000000</i>
   <i name="ENCUTGWSOFT">     -2.00000000</i>
   <i name="ENCUTLF">     -1.00000000</i>
   <i type="int" name="LMAXMP2">    -1</i>
   <i name="SCISSOR">      0.00000000</i>
   <i type="int" name="NOMEGA">     0</i>
   <i type="int" name="NOMEGAR">     0</i>
   <i type="int" name="NBANDSGW">    -1</i>
   <i type="int" name="NBANDSO">    -1</i>
   <i type="int" name="NBANDSV">    -1</i>
   <i type="int" name="NELM">     1</i>
   <i type="int" name="DIM">     3</i>
   <i type="int" name="ANTIRES">     0</i>
   <i name="OMEGAMAX">    -30.00000000</i>
   <i name="OMEGAMIN">    -30.00000000</i>
   <i name="OMEGATL">   -200.00000000</i>
   <i type="int" name="OMEGAGRID">     0</i>
   <i name="CSHIFT">     -0.10000000</i>
   <i type="logical" name="SELFENERGY"> F  </i>
   <i type="logical" name="LSPECTRAL"> F  </i>
   <i type="logical" name="ODDONLYGW"> F  </i>
   <i type="logical" name="EVENONLYGW"> F  </i>
   <i type="int" name="NKREDLFX">     1</i>
   <i type="int" name="NKREDLFY">     1</i>
   <i type="int" name="NKREDLFZ">     1</i>
   <i type="int" name="MAXMEM">  1800</i>
   <i type="int" name="TELESCOPE">     0</i>
   <i type="int" name="TAUPAR">     1</i>
  </separator>
  <separator name="External order field" >
   <i name="OFIELD_KAPPA">      0.00000000</i>
   <v name="OFIELD_K">      0.00000000      0.00000000      0.00000000</v>
   <i name="OFIELD_Q6_NEAR">      0.00000000</i>
   <i name="OFIELD_Q6_FAR">      0.00000000</i>
   <i name="OFIELD_A">      0.00000000</i>
  </separator>
 </parameters>
 <atominfo>
  <atoms>      28 </atoms>
  <types>       1 </types>
  <array name="atoms" >
   <dimension dim="1">ion</dimension>
   <field type="string">element</field>
   <field type="int">atomtype</field>
   <set>
    <rc><c>Ag</c><c>   1</c></rc>
    <rc><c>Ag</c><c>   1</c></rc>
    <rc><c>Ag</c><c>   1</c></rc>
    <rc><c>Ag</c><c>   1</c></rc>
    <rc><c>Ag</c><c>   1</c></rc>
    <rc><c>Ag</c><c>   1</c></rc>
    <rc><c>Ag</c><c>   1</c></rc>
    <rc><c>Ag</c><c>   1</c></rc>
    <rc><c>Ag</c><c>   1</c></rc>
    <rc><c>Ag</c><c>   1</c></rc>
    <rc><c>Ag</c><c>   1</c></rc>
    <rc><c>Ag</c><c>   1</c></rc>
    <rc><c>Ag</c><c>   1</c></rc>
    <rc><c>Ag</c><c>   1</c></rc>
    <rc><c>Ag</c><c>   1</c></rc>
    <rc><c>Ag</c><c>   1</c></rc>
    <rc><c>Ag</c><c>   1</c></rc>
    <rc><c>Ag</c><c>   1</c></rc>
    <rc><c>Ag</c><c>   1</c></rc>
    <rc><c>Ag</c><c>   1</c></rc>
    <rc><c>Ag</c><c>   1</c></rc>
    <rc><c>Ag</c><c>   1</c></rc>
    <rc><c>Ag</c><c>   1</c></rc>
    <rc><c>Ag</c><c>   1</c></rc>
    <rc><c>Ag</c><c>   1</c></rc>
    <rc><c>Ag</c><c>   1</c></rc>
    <rc><c>Ag</c><c>   1</c></rc>
    <rc><c>Ag</c><c>   1</c></rc>
   </set>
  </array>
  <array name="atomtypes" >
   <dimension dim="1">type</dimension>
   <field type="int">atomspertype</field>
   <field type="string">element</field>
   <field>mass</field>
   <field>valence</field>
   <field type="string">pseudopotential</field>
   <set>
    <rc><c>  28</c><c>Ag</c><c>    107.86800000</c><c>     11.00000000</c><c>  PAW_PBE Ag 02Apr2005                  </c></rc>
   </set>
  </array>
 </atominfo>
 <structure name="initialpos" >
  <crystal>
   <varray name="basis" >
    <v>      21.57069226       0.00000000       0.00000000 </v>
    <v>       0.00000000      21.57069226       0.00000000 </v>
    <v>       0.00000000       0.00000000      21.57069226 </v>
   </varray>
   <i name="volume">  10036.73018155 </i>
   <varray name="rec_basis" >
    <v>       0.04635920       0.00000000       0.00000000 </v>
    <v>       0.00000000       0.04635920       0.00000000 </v>
    <v>       0.00000000       0.00000000       0.04635920 </v>
   </varray>
  </crystal>
  <varray name="positions" >
   <v>       0.61424181       0.36872480       0.37378382 </v>
   <v>       0.57667804       0.48599140       0.37706283 </v>
   <v>       0.49986792       0.36264741       0.42160692 </v>
   <v>       0.52783947       0.33158029       0.54013926 </v>
   <v>       0.61716816       0.60109985       0.40847009 </v>
   <v>       0.64044876       0.37759133       0.49344061 </v>
   <v>       0.66884883       0.50026507       0.46855573 </v>
   <v>       0.44319286       0.46805990       0.39685263 </v>
   <v>       0.49584424       0.58481046       0.38656739 </v>
   <v>       0.37266332       0.56660251       0.36586400 </v>
   <v>       0.43218500       0.41958094       0.52265104 </v>
   <v>       0.62284663       0.36338262       0.61910869 </v>
   <v>       0.50928701       0.42510291       0.62543905 </v>
   <v>       0.54827762       0.46380558       0.49951299 </v>
   <v>       0.38475187       0.53642450       0.49007235 </v>
   <v>       0.42077114       0.51476475       0.60851389 </v>
   <v>       0.64361413       0.48606806       0.59000908 </v>
   <v>       0.50239955       0.57317814       0.52923786 </v>
   <v>       0.62580677       0.60135375       0.53793967 </v>
   <v>       0.54101774       0.68093309       0.46492696 </v>
   <v>       0.60491390       0.45690703       0.70579472 </v>
   <v>       0.40617312       0.66021865       0.44078229 </v>
   <v>       0.48852433       0.50717325       0.72038132 </v>
   <v>       0.39959045       0.64061547       0.56734088 </v>
   <v>       0.57162568       0.57258725       0.64998771 </v>
   <v>       0.53220873       0.68072786       0.59411953 </v>
   <v>       0.45590040       0.61957937       0.67790995 </v>
   <v>       0.44983544       0.74674670       0.52045166 </v>
  </varray>
 </structure>
 <calculation>
  <scstep>
   <time name="dav">    3.45    3.46</time>
   <time name="total">    3.75    3.78</time>
   <energy>
    <i name="alphaZ">     66.44128058 </i>
    <i name="ewald">  61164.91492352 </i>
    <i name="hartreedc"> -88999.27252081 </i>
    <i name="XCdc">   -305.59837825 </i>
    <i name="pawpsdc">  28094.42098595 </i>
    <i name="pawaedc"> -26803.40904861 </i>
    <i name="eentropy">      0.00000000 </i>
    <i name="bandstr">    450.80199145 </i>
    <i name="atom">  29041.56164242 </i>
    <i name="e_fr_energy">   2709.86087624 </i>
    <i name="e_wo_entrp">   2709.86087624 </i>
    <i name="e_0_energy">   2709.86087624 </i>
   </energy>
  </scstep>
  <scstep>
   <time name="dav">    5.36    5.36</time>
   <time name="total">    5.36    5.37</time>
   <energy>
    <i name="e_fr_energy">    598.64647999 </i>
    <i name="e_wo_entrp">    598.64647999 </i>
    <i name="e_0_energy">    598.64647999 </i>
   </energy>
  </scstep>
  <scstep>
   <time name="dav">    4.31    4.31</time>
   <time name="total">    4.31    7.43</time>
   <energy>
    <i name="e_fr_energy">    -23.34224831 </i>
    <i name="e_wo_entrp">    -23.34224831 </i>
    <i name="e_0_energy">    -23.34224831 </i>
   </energy>
  </scstep>
  <scstep>
   <time name="dav">    3.73    3.73</time>
   <time name="total">    3.73    3.74</time>
   <energy>
    <i name="e_fr_energy">    -56.99015966 </i>
    <i name="e_wo_entrp">    -56.99015966 </i>
    <i name="e_0_energy">    -56.99015966 </i>
   </energy>
  </scstep>
  <scstep>
   <time name="dav">    3.90    3.90</time>
   <time name="total">    4.05    4.05</time>
   <energy>
    <i name="e_fr_energy">    -57.47292385 </i>
    <i name="e_wo_entrp">    -57.47292385 </i>
    <i name="e_0_energy">    -57.47292385 </i>
   </energy>
  </scstep>
  <scstep>
   <time name="dav">    3.51    3.52</time>
   <time name="total">    3.95    5.19</time>
   <energy>
    <i name="e_fr_energy">    -23.12523817 </i>
    <i name="e_wo_entrp">    -23.12523817 </i>
    <i name="e_0_energy">    -23.12523817 </i>
   </energy>
  </scstep>
  <scstep>
   <time name="dav">    3.75    3.75</time>
   <time name="total">    4.19    4.20</time>
   <energy>
    <i name="e_fr_energy">    -16.23171404 </i>
    <i name="e_wo_entrp">    -16.23171404 </i>
    <i name="e_0_energy">    -16.23171404 </i>
   </energy>
  </scstep>
  <scstep>
   <time name="dav">    3.72    3.73</time>
   <time name="total">    4.16    4.20</time>
   <energy>
    <i name="e_fr_energy">    -17.39405254 </i>
    <i name="e_wo_entrp">    -17.39405254 </i>
    <i name="e_0_energy">    -17.39405254 </i>
   </energy>
  </scstep>
  <scstep>
   <time name="dav">    3.70    3.71</time>
   <time name="total">    4.14    4.17</time>
   <energy>
    <i name="e_fr_energy">    -21.62951310 </i>
    <i name="e_wo_entrp">    -21.62951310 </i>
    <i name="e_0_energy">    -21.62951310 </i>
   </energy>
  </scstep>
  <scstep>
   <time name="dav">    3.58    3.58</time>
   <time name="total">    4.02    4.04</time>
   <energy>
    <i name="e_fr_energy">    -30.56534678 </i>
    <i name="e_wo_entrp">    -30.56534678 </i>
    <i name="e_0_energy">    -30.56534678 </i>
   </energy>
  </scstep>
  <scstep>
   <time name="dav">    3.66    3.66</time>
   <time name="total">    4.10    4.11</time>
   <energy>
    <i name="e_fr_energy">    -43.88593674 </i>
    <i name="e_wo_entrp">    -43.88593674 </i>
    <i name="e_0_energy">    -43.88593674 </i>
   </energy>
  </scstep>
  <scstep>
   <time name="dav">    4.06    4.06</time>
   <time name="total">    4.50    4.51</time>
   <energy>
    <i name="e_fr_energy">    -44.03770390 </i>
    <i name="e_wo_entrp">    -44.03770390 </i>
    <i name="e_0_energy">    -44.03770390 </i>
   </energy>
  </scstep>
  <scstep>
   <time name="dav">    3.83    3.83</time>
   <time name="total">    4.27    4.29</time>
   <energy>
    <i name="e_fr_energy">    -43.95952312 </i>
    <i name="e_wo_entrp">    -43.95952312 </i>
    <i name="e_0_energy">    -43.95952312 </i>
   </energy>
  </scstep>
  <scstep>
   <time name="dav">    3.70    3.70</time>
   <time name="total">    4.14    4.16</time>
   <energy>
    <i name="e_fr_energy">    -44.78580793 </i>
    <i name="e_wo_entrp">    -44.78580793 </i>
    <i name="e_0_energy">    -44.78580793 </i>
   </energy>
  </scstep>
  <scstep>
   <time name="dav">    3.55    3.55</time>
   <time name="total">    4.00    4.07</time>
   <energy>
    <i name="e_fr_energy">    -50.65318279 </i>
    <i name="e_wo_entrp">    -50.65318279 </i>
    <i name="e_0_energy">    -50.65318279 </i>
   </energy>
  </scstep>
  <scstep>
   <time name="dav">    3.62    3.62</time>
   <time name="total">    4.07    4.07</time>
   <energy>
    <i name="e_fr_energy">    -52.93055850 </i>
    <i name="e_wo_entrp">    -52.93055850 </i>
    <i name="e_0_energy">    -52.93055850 </i>
   </energy>
  </scstep>
  <scstep>
   <time name="dav">    3.67    3.68</time>
   <time name="total">    4.12    4.16</time>
   <energy>
    <i name="e_fr_energy">    -53.98485449 </i>
    <i name="e_wo_entrp">    -53.98485449 </i>
    <i name="e_0_energy">    -53.98485449 </i>
   </energy>
  </scstep>
  <scstep>
   <time name="dav">    3.86    3.86</time>
   <time name="total">    4.31    4.31</time>
   <energy>
    <i name="e_fr_energy">    -53.98155893 </i>
    <i name="e_wo_entrp">    -53.98155893 </i>
    <i name="e_0_energy">    -53.98155893 </i>
   </energy>
  </scstep>
  <scstep>
   <time name="dav">    3.23    3.23</time>
   <time name="total">    3.68    3.71</time>
   <energy>
    <i name="e_fr_energy">    -54.01188706 </i>
    <i name="e_wo_entrp">    -54.01188706 </i>
    <i name="e_0_energy">    -54.01188706 </i>
   </energy>
  </scstep>
  <scstep>
   <time name="dav">    3.60    3.60</time>
   <time name="total">    4.05    4.05</time>
   <energy>
    <i name="e_fr_energy">    -54.88200913 </i>
    <i name="e_wo_entrp">    -54.88200913 </i>
    <i name="e_0_energy">    -54.88200913 </i>
   </energy>
  </scstep>
  <scstep>
   <time name="dav">    3.68    3.69</time>
   <time name="total">    4.13    4.20</time>
   <energy>
    <i name="e_fr_energy">    -55.69296278 </i>
    <i name="e_wo_entrp">    -55.69296278 </i>
    <i name="e_0_energy">    -55.69296278 </i>
   </energy>
  </scstep>
  <scstep>
   <time name="dav">    3.74    3.74</time>
   <time name="total">    4.19    4.22</time>
   <energy>
    <i name="e_fr_energy">    -56.12212377 </i>
    <i name="e_wo_entrp">    -56.12212377 </i>
    <i name="e_0_energy">    -56.12212377 </i>
   </energy>
  </scstep>
  <scstep>
   <time name="dav">    3.82    3.82</time>
   <time name="total">    4.27    4.29</time>
   <energy>
    <i name="e_fr_energy">    -56.25922990 </i>
    <i name="e_wo_entrp">    -56.25922990 </i>
    <i name="e_0_energy">    -56.25922990 </i>
   </energy>
  </scstep>
  <scstep>
   <time name="dav">    3.71    3.72</time>
   <time name="total">    4.16    4.17</time>
   <energy>
    <i name="e_fr_energy">    -56.49900230 </i>
    <i name="e_wo_entrp">    -56.49900230 </i>
    <i name="e_0_energy">    -56.49900230 </i>
   </energy>
  </scstep>
  <scstep>
   <time name="dav">    3.74    3.74</time>
   <time name="total">    4.19    4.20</time>
   <energy>
    <i name="e_fr_energy">    -56.61950758 </i>
    <i name="e_wo_entrp">    -56.61950758 </i>
    <i name="e_0_energy">    -56.61950758 </i>
   </energy>
  </scstep>
  <scstep>
   <time name="dav">    3.72    3.72</time>
   <time name="total">    4.17    4.22</time>
   <energy>
    <i name="e_fr_energy">    -56.67308629 </i>
    <i name="e_wo_entrp">    -56.67308629 </i>
    <i name="e_0_energy">    -56.67308629 </i>
   </energy>
  </scstep>
  <scstep>
   <time name="dav">    3.83    3.83</time>
   <time name="total">    4.28    4.68</time>
   <energy>
    <i name="e_fr_energy">    -56.68882137 </i>
    <i name="e_wo_entrp">    -56.68882137 </i>
    <i name="e_0_energy">    -56.68882137 </i>
   </energy>
  </scstep>
  <scstep>
   <time name="dav">    2.88    2.88</time>
   <time name="total">    3.33    4.87</time>
   <energy>
    <i name="e_fr_energy">    -56.69023471 </i>
    <i name="e_wo_entrp">    -56.69023471 </i>
    <i name="e_0_energy">    -56.69023471 </i>
   </energy>
  </scstep>
  <scstep>
   <time name="dav">    2.75    2.75</time>
   <time name="total">    3.21   11.19</time>
   <energy>
    <i name="e_fr_energy">    -56.69553315 </i>
    <i name="e_wo_entrp">    -56.69553315 </i>
    <i name="e_0_energy">    -56.69553315 </i>
   </energy>
  </scstep>
  <scstep>
   <time name="dav">    2.80    2.81</time>
   <time name="total">    3.26    3.26</time>
   <energy>
    <i name="e_fr_energy">    -56.69879621 </i>
    <i name="e_wo_entrp">    -56.69879621 </i>
    <i name="e_0_energy">    -56.69879621 </i>
   </energy>
  </scstep>
  <scstep>
   <time name="dav">    2.89    2.89</time>
   <time name="total">    3.35    3.42</time>
   <energy>
    <i name="e_fr_energy">    -56.70014724 </i>
    <i name="e_wo_entrp">    -56.70014724 </i>
    <i name="e_0_energy">    -56.70014724 </i>
   </energy>
  </scstep>
  <scstep>
   <time name="dav">    2.81    2.81</time>
   <time name="total">    3.27    3.27</time>
   <energy>
    <i name="e_fr_energy">    -56.70242173 </i>
    <i name="e_wo_entrp">    -56.70242173 </i>
    <i name="e_0_energy">    -56.70242173 </i>
   </energy>
  </scstep>
  <scstep>
   <time name="dav">    2.84    2.84</time>
   <time name="total">    3.30    3.30</time>
   <energy>
    <i name="e_fr_energy">    -56.70303079 </i>
    <i name="e_wo_entrp">    -56.70303079 </i>
    <i name="e_0_energy">    -56.70303079 </i>
   </energy>
  </scstep>
  <scstep>
   <time name="dav">    2.76    2.77</time>
   <time name="total">    3.23    3.41</time>
   <energy>
    <i name="e_fr_energy">    -56.70321109 </i>
    <i name="e_wo_entrp">    -56.70321109 </i>
    <i name="e_0_energy">    -56.70321109 </i>
   </energy>
  </scstep>
  <scstep>
   <time name="dav">    2.73    2.74</time>
   <time name="total">    3.20    3.22</time>
   <energy>
    <i name="e_fr_energy">    -56.70335358 </i>
    <i name="e_wo_entrp">    -56.70335358 </i>
    <i name="e_0_energy">    -56.70335358 </i>
   </energy>
  </scstep>
  <scstep>
   <time name="dav">    2.76    2.76</time>
   <time name="total">    3.06    3.11</time>
   <energy>
    <i name="alphaZ">     66.44128058 </i>
    <i name="ewald">  61164.91492352 </i>
    <i name="hartreedc"> -88948.04457955 </i>
    <i name="XCdc">   -316.22521992 </i>
    <i name="pawpsdc">  30574.17119374 </i>
    <i name="pawaedc"> -29338.74208214 </i>
    <i name="eentropy">      0.00000000 </i>
    <i name="bandstr">  -2300.78057369 </i>
    <i name="atom">  29041.56164242 </i>
    <i name="e_fr_energy">    -56.70341505 </i>
    <i name="e_wo_entrp">    -56.70341505 </i>
    <i name="e_0_energy">    -56.70341505 </i>
   </energy>
  </scstep>
  <structure>
   <crystal>
    <varray name="basis" >
     <v>      21.57069226       0.00000000       0.00000000 </v>
     <v>       0.00000000      21.57069226       0.00000000 </v>
     <v>       0.00000000       0.00000000      21.57069226 </v>
    </varray>
    <i name="volume">  10036.73018155 </i>
    <varray name="rec_basis" >
     <v>       0.04635920       0.00000000       0.00000000 </v>
     <v>       0.00000000       0.04635920       0.00000000 </v>
     <v>       0.00000000       0.00000000       0.04635920 </v>
    </varray>
   </crystal>
   <varray name="positions" >
    <v>       0.61424181       0.36872480       0.37378382 </v>
    <v>       0.57667804       0.48599140       0.37706283 </v>
    <v>       0.49986792       0.36264741       0.42160692 </v>
    <v>       0.52783947       0.33158029       0.54013926 </v>
    <v>       0.61716816       0.60109985       0.40847009 </v>
    <v>       0.64044876       0.37759133       0.49344061 </v>
    <v>       0.66884883       0.50026507       0.46855573 </v>
    <v>       0.44319286       0.46805990       0.39685263 </v>
    <v>       0.49584424       0.58481046       0.38656739 </v>
    <v>       0.37266332       0.56660251       0.36586400 </v>
    <v>       0.43218500       0.41958094       0.52265104 </v>
    <v>       0.62284663       0.36338262       0.61910869 </v>
    <v>       0.50928701       0.42510291       0.62543905 </v>
    <v>       0.54827762       0.46380558       0.49951299 </v>
    <v>       0.38475187       0.53642450       0.49007235 </v>
    <v>       0.42077114       0.51476475       0.60851389 </v>
    <v>       0.64361413       0.48606806       0.59000908 </v>
    <v>       0.50239955       0.57317814       0.52923786 </v>
    <v>       0.62580677       0.60135375       0.53793967 </v>
    <v>       0.54101774       0.68093309       0.46492696 </v>
    <v>       0.60491390       0.45690703       0.70579472 </v>
    <v>       0.40617312       0.66021865       0.44078229 </v>
    <v>       0.48852433       0.50717325       0.72038132 </v>
    <v>       0.39959045       0.64061547       0.56734088 </v>
    <v>       0.57162568       0.57258725       0.64998771 </v>
    <v>       0.53220873       0.68072786       0.59411953 </v>
    <v>       0.45590040       0.61957937       0.67790995 </v>
    <v>       0.44983544       0.74674670       0.52045166 </v>
   </varray>
  </structure>
  <varray name="forces" >
   <v>       0.46825084      -0.40668104      -0.38548136 </v>
   <v>      -0.23467104      -0.17799956      -0.24449926 </v>
   <v>       0.08777735      -0.36528935       0.21337877 </v>
   <v>      -0.09181704      -0.23504480      -0.25797544 </v>
   <v>       0.69432069       0.22905251      -0.04090660 </v>
   <v>       0.19073837      -0.20495501       0.11534061 </v>
   <v>       0.49909713       0.14141692      -0.41268512 </v>
   <v>      -0.14626303       0.02636765      -0.08729876 </v>
   <v>      -0.18287387      -0.01587119       0.04350405 </v>
   <v>      -0.43333671      -0.11384108      -0.34817706 </v>
   <v>      -0.36151004      -0.29637425      -0.29491248 </v>
   <v>       0.18895863      -0.28385290       0.33651506 </v>
   <v>       0.20425725       0.09937102       0.11180698 </v>
   <v>      -0.09019722      -0.35793147      -0.02691912 </v>
   <v>      -0.40056305       0.16123416      -0.27827865 </v>
   <v>      -0.23348207       0.05774275       0.30196296 </v>
   <v>       0.04858704      -0.26104196       0.02380954 </v>
   <v>      -0.10469708       0.18939011      -0.04521669 </v>
   <v>       0.27358455       0.44471387      -0.29984535 </v>
   <v>       0.02427695       0.17824971       0.15269129 </v>
   <v>       0.26761662      -0.10499233       0.29678825 </v>
   <v>       0.00148162       0.16036978       0.01951476 </v>
   <v>      -0.20945331      -0.23181276       0.32647746 </v>
   <v>      -0.28586892       0.04999742       0.12515879 </v>
   <v>       0.01972167      -0.14731917       0.13952845 </v>
   <v>       0.10520571       0.44224765      -0.05628277 </v>
   <v>      -0.27282328       0.43078568       0.25150974 </v>
   <v>      -0.02631776       0.59206764       0.32049194 </v>
  </varray>
  <varray name="stress" >
   <v>       0.15712291      -0.47616756      -0.12893768 </v>
   <v>      -0.47616754       0.66147093       0.30829898 </v>
   <v>      -0.12893769       0.30829898      -0.28527798 </v>
  </varray>
  <energy>
   <i name="e_fr_energy">    -56.70341505 </i>
   <i name="e_wo_entrp">    -56.70341505 </i>
   <i name="e_0_energy">      0.00000000 </i>
  </energy>
  <time name="totalsc">  148.18  165.89</time>
 </calculation>
 <calculation>
  <scstep>
   <time name="dav">    3.74    3.74</time>
   <time name="total">    4.18    4.22</time>
   <energy>
    <i name="alphaZ">     66.44128058 </i>
    <i name="ewald">  61048.71367334 </i>
    <i name="hartreedc"> -88832.57925660 </i>
    <i name="XCdc">   -316.37284813 </i>
    <i name="pawpsdc">  30574.05176409 </i>
    <i name="pawaedc"> -29338.62310196 </i>
    <i name="eentropy">      0.00000000 </i>
    <i name="bandstr">  -2299.94795830 </i>
    <i name="atom">  29041.56164242 </i>
    <i name="e_fr_energy">    -56.75480457 </i>
    <i name="e_wo_entrp">    -56.75480457 </i>
    <i name="e_0_energy">    -56.75480457 </i>
   </energy>
  </scstep>
  <scstep>
   <time name="dav">    3.84    3.84</time>
   <time name="total">    4.28    4.29</time>
   <energy>
    <i name="e_fr_energy">    -56.75652421 </i>
    <i name="e_wo_entrp">    -56.75652421 </i>
    <i name="e_0_energy">    -56.75652421 </i>
   </energy>
  </scstep>
  <scstep>
   <time name="dav">    2.92    2.92</time>
   <time name="total">    3.22    3.22</time>
   <energy>
    <i name="alphaZ">     66.44128058 </i>
    <i name="ewald">  61048.71367334 </i>
    <i name="hartreedc"> -88833.46517204 </i>
    <i name="XCdc">   -316.35113891 </i>
    <i name="pawpsdc">  30561.48231527 </i>
    <i name="pawaedc"> -29325.84878264 </i>
    <i name="eentropy">      0.00000000 </i>
    <i name="bandstr">  -2299.29029098 </i>
    <i name="atom">  29041.56164242 </i>
    <i name="e_fr_energy">    -56.75647296 </i>
    <i name="e_wo_entrp">    -56.75647296 </i>
    <i name="e_0_energy">    -56.75647296 </i>
   </energy>
  </scstep>
  <structure>
   <crystal>
    <varray name="basis" >
     <v>      21.57069226       0.00000000       0.00000000 </v>
     <v>       0.00000000      21.57069226       0.00000000 </v>
     <v>       0.00000000       0.00000000      21.57069226 </v>
    </varray>
    <i name="volume">  10036.73018155 </i>
    <varray name="rec_basis" >
     <v>       0.04635920       0.00000000       0.00000000 </v>
     <v>       0.00000000       0.04635920       0.00000000 </v>
     <v>       0.00000000       0.00000000       0.04635920 </v>
    </varray>
   </crystal>
   <varray name="positions" >
    <v>       0.61445126       0.36854289       0.37361139 </v>
    <v>       0.57657307       0.48591178       0.37695347 </v>
    <v>       0.49990718       0.36248402       0.42170236 </v>
    <v>       0.52779841       0.33147516       0.54002387 </v>
    <v>       0.61747873       0.60120231       0.40845180 </v>
    <v>       0.64053408       0.37749965       0.49349220 </v>
    <v>       0.66907208       0.50032833       0.46837114 </v>
    <v>       0.44312744       0.46807170       0.39681358 </v>
    <v>       0.49576244       0.58480336       0.38658685 </v>
    <v>       0.37246949       0.56655159       0.36570826 </v>
    <v>       0.43202330       0.41944837       0.52251913 </v>
    <v>       0.62293115       0.36325565       0.61925922 </v>
    <v>       0.50937837       0.42514736       0.62548906 </v>
    <v>       0.54823728       0.46364548       0.49950095 </v>
    <v>       0.38457269       0.53649662       0.48994788 </v>
    <v>       0.42066670       0.51479057       0.60864895 </v>
    <v>       0.64363587       0.48595130       0.59001973 </v>
    <v>       0.50235272       0.57326286       0.52921764 </v>
    <v>       0.62592914       0.60155267       0.53780555 </v>
    <v>       0.54102860       0.68101282       0.46499526 </v>
    <v>       0.60503361       0.45686007       0.70592748 </v>
    <v>       0.40617378       0.66029038       0.44079102 </v>
    <v>       0.48843064       0.50706956       0.72052735 </v>
    <v>       0.39946258       0.64063784       0.56739686 </v>
    <v>       0.57163450       0.57252135       0.65005012 </v>
    <v>       0.53225579       0.68092568       0.59409435 </v>
    <v>       0.45577836       0.61977206       0.67802245 </v>
    <v>       0.44982367       0.74701153       0.52059501 </v>
   </varray>
  </structure>
  <varray name="forces" >
   <v>       0.43968989      -0.38036282      -0.35144838 </v>
   <v>      -0.22116005      -0.16672348      -0.21850441 </v>
   <v>       0.09374734      -0.33605908       0.17969658 </v>
   <v>      -0.07736965      -0.21981487      -0.22268730 </v>
   <v>       0.62764637       0.21671611      -0.04714104 </v>
   <v>       0.17843587      -0.18612257       0.10165047 </v>
   <v>       0.45658995       0.12256320      -0.37808085 </v>
   <v>      -0.13328650       0.01076553      -0.07987796 </v>
   <v>      -0.15163145      -0.01292821       0.05118686 </v>
   <v>      -0.40611271      -0.09963647      -0.32272915 </v>
   <v>      -0.33972869      -0.26597741      -0.26697479 </v>
   <v>       0.17200551      -0.27809068       0.31540804 </v>
   <v>       0.19287402       0.09699269       0.08879157 </v>
   <v>      -0.08058921      -0.32772533      -0.02724024 </v>
   <v>      -0.37150377       0.15173805      -0.24696202 </v>
   <v>      -0.21720950       0.05430269       0.26378066 </v>
   <v>       0.03915949      -0.23690668      -0.00191778 </v>
   <v>      -0.09583477       0.16604220      -0.03895217 </v>
   <v>       0.25295155       0.40926954      -0.26937238 </v>
   <v>       0.02240874       0.16569932       0.13861028 </v>
   <v>       0.25056623      -0.09765124       0.28195219 </v>
   <v>       0.00318823       0.15342932       0.02336435 </v>
   <v>      -0.19666648      -0.20784455       0.30335227 </v>
   <v>      -0.27182784       0.05377275       0.11231171 </v>
   <v>       0.00514135      -0.13483603       0.11722664 </v>
   <v>       0.09985421       0.40542813      -0.04439932 </v>
   <v>      -0.24398182       0.39619657       0.23663162 </v>
   <v>      -0.02735632       0.54776332       0.30232456 </v>
  </varray>
  <varray name="stress" >
   <v>       0.04990071      -0.46674317      -0.12804577 </v>
   <v>      -0.46674317       0.53482053       0.29930332 </v>
   <v>      -0.12804576       0.29930331      -0.37721033 </v>
  </varray>
  <energy>
   <i name="e_fr_energy">    -56.75647296 </i>
   <i name="e_wo_entrp">    -56.75647296 </i>
   <i name="e_0_energy">      0.00000000 </i>
  </energy>
  <time name="totalsc">   18.32   18.49</time>
 </calculation>
 <calculation>
  <scstep>
   <time name="dav">    3.63    3.63</time>
   <time name="total">    4.07    5.10</time>
   <energy>
    <i name="alphaZ">     66.44128058 </i>
    <i name="ewald">  60701.54419895 </i>
    <i name="hartreedc"> -88488.87169078 </i>
    <i name="XCdc">   -316.78226076 </i>
    <i name="pawpsdc">  30553.87855810 </i>
    <i name="pawaedc"> -29318.11709264 </i>
    <i name="eentropy">      0.00000000 </i>
    <i name="bandstr">  -2296.53567844 </i>
    <i name="atom">  29041.56164242 </i>
    <i name="e_fr_energy">    -56.88104258 </i>
    <i name="e_wo_entrp">    -56.88104258 </i>
    <i name="e_0_energy">    -56.88104258 </i>
   </energy>
  </scstep>
  <scstep>
   <time name="dav">    3.80    3.80</time>
   <time name="total">    4.24    4.24</time>
   <energy>
    <i name="e_fr_energy">    -56.89630012 </i>
    <i name="e_wo_entrp">    -56.89630012 </i>
    <i name="e_0_energy">    -56.89630012 </i>
   </energy>
  </scstep>
  <scstep>
   <time name="dav">    3.85    3.85</time>
   <time name="total">    4.29    4.49</time>
   <energy>
    <i name="e_fr_energy">    -56.89592060 </i>
    <i name="e_wo_entrp">    -56.89592060 </i>
    <i name="e_0_energy">    -56.89592060 </i>
   </energy>
  </scstep>
  <scstep>
   <time name="dav">    3.69    3.69</time>
   <time name="total">    4.13    6.83</time>
   <energy>
    <i name="e_fr_energy">    -56.89566887 </i>
    <i name="e_wo_entrp">    -56.89566887 </i>
    <i name="e_0_energy">    -56.89566887 </i>
   </energy>
  </scstep>
  <scstep>
   <time name="dav">    2.74    2.74</time>
   <time name="total">    3.03    3.04</time>
   <energy>
    <i name="alphaZ">     66.44128058 </i>
    <i name="ewald">  60701.54419895 </i>
    <i name="hartreedc"> -88492.48521094 </i>
    <i name="XCdc">   -316.69725006 </i>
    <i name="pawpsdc">  30491.81398044 </i>
    <i name="pawaedc"> -29255.03272481 </i>
    <i name="eentropy">      0.00000000 </i>
    <i name="bandstr">  -2294.04156567 </i>
    <i name="atom">  29041.56164242 </i>
    <i name="e_fr_energy">    -56.89564909 </i>
    <i name="e_wo_entrp">    -56.89564909 </i>
    <i name="e_0_energy">    -56.89564909 </i>
   </energy>
  </scstep>
  <structure>
   <crystal>
    <varray name="basis" >
     <v>      21.57069226       0.00000000       0.00000000 </v>
     <v>       0.00000000      21.57069226       0.00000000 </v>
     <v>       0.00000000       0.00000000      21.57069226 </v>
    </varray>
    <i name="volume">  10036.73018155 </i>
    <varray name="rec_basis" >
     <v>       0.04635920       0.00000000       0.00000000 </v>
     <v>       0.00000000       0.04635920       0.00000000 </v>
     <v>       0.00000000       0.00000000       0.04635920 </v>
    </varray>
   </crystal>
   <varray name="positions" >
    <v>       0.61507960       0.36799716       0.37309412 </v>
    <v>       0.57625816       0.48567292       0.37662538 </v>
    <v>       0.50002497       0.36199384       0.42198869 </v>
    <v>       0.52767520       0.33115975       0.53967769 </v>
    <v>       0.61841044       0.60150967       0.40839690 </v>
    <v>       0.64079003       0.37722462       0.49364697 </v>
    <v>       0.66974182       0.50051809       0.46781736 </v>
    <v>       0.44293117       0.46810708       0.39669644 </v>
    <v>       0.49551704       0.58478206       0.38664522 </v>
    <v>       0.37188800       0.56639883       0.36524104 </v>
    <v>       0.43153819       0.41905067       0.52212339 </v>
    <v>       0.62318472       0.36287475       0.61971078 </v>
    <v>       0.50965246       0.42528070       0.62563910 </v>
    <v>       0.54811624       0.46316517       0.49946483 </v>
    <v>       0.38403518       0.53671298       0.48957446 </v>
    <v>       0.42035339       0.51486806       0.60905416 </v>
    <v>       0.64370107       0.48560100       0.59005168 </v>
    <v>       0.50221223       0.57351700       0.52915696 </v>
    <v>       0.62629626       0.60214943       0.53740319 </v>
    <v>       0.54106118       0.68125201       0.46520015 </v>
    <v>       0.60539272       0.45671918       0.70632574 </v>
    <v>       0.40617577       0.66050558       0.44081720 </v>
    <v>       0.48814958       0.50675849       0.72096545 </v>
    <v>       0.39907897       0.64070493       0.56756481 </v>
    <v>       0.57166097       0.57232367       0.65023736 </v>
    <v>       0.53239697       0.68151913       0.59401883 </v>
    <v>       0.45541226       0.62035013       0.67835995 </v>
    <v>       0.44978835       0.74780602       0.52102508 </v>
   </varray>
  </structure>
  <varray name="forces" >
   <v>       0.38953172      -0.33356684      -0.28260142 </v>
   <v>      -0.20171972      -0.15013123      -0.16765412 </v>
   <v>       0.11325702      -0.27842613       0.09906920 </v>
   <v>      -0.04331839      -0.19461059      -0.14242660 </v>
   <v>       0.49628458       0.19685987      -0.06491828 </v>
   <v>       0.15844508      -0.14940326       0.07159237 </v>
   <v>       0.37102100       0.08171243      -0.30769367 </v>
   <v>      -0.10749279      -0.02858176      -0.06551863 </v>
   <v>      -0.08393940      -0.00529313       0.07338569 </v>
   <v>      -0.35794224      -0.07116370      -0.27724143 </v>
   <v>      -0.30113575      -0.20167758      -0.21194466 </v>
   <v>       0.13789716      -0.28481352       0.27960541 </v>
   <v>       0.17677453       0.09818707       0.03732954 </v>
   <v>      -0.06054630      -0.26619873      -0.02975650 </v>
   <v>      -0.31651216       0.13722853      -0.18163718 </v>
   <v>      -0.18588091       0.04896412       0.17965553 </v>
   <v>       0.01699715      -0.19040678      -0.06868198 </v>
   <v>      -0.07816963       0.11651881      -0.02708499 </v>
   <v>       0.21353584       0.34298339      -0.20727708 </v>
   <v>       0.02006777       0.14418800       0.11233380 </v>
   <v>       0.22132361      -0.08451507       0.26048801 </v>
   <v>       0.00794666       0.14701227       0.03581370 </v>
   <v>      -0.17509761      -0.16188419       0.26178871 </v>
   <v>      -0.25470551       0.06658077       0.08632924 </v>
   <v>      -0.03155237      -0.11042710       0.06862490 </v>
   <v>       0.09093380       0.33695435      -0.01661715 </v>
   <v>      -0.18461064       0.33112372       0.21197338 </v>
   <v>      -0.03139247       0.46278630       0.27306419 </v>
  </varray>
  <varray name="stress" >
   <v>      -0.22263832      -0.44659443      -0.12098176 </v>
   <v>      -0.44659442       0.22026022       0.27032940 </v>
   <v>      -0.12098175       0.27032940      -0.61335814 </v>
  </varray>
  <energy>
   <i name="e_fr_energy">    -56.89564909 </i>
   <i name="e_wo_entrp">    -56.89564909 </i>
   <i name="e_0_energy">      0.00000000 </i>
  </energy>
  <time name="totalsc">   26.42   33.53</time>
 </calculation>
 <calculation>
  <scstep>
   <time name="dav">    3.58    3.58</time>
   <time name="total">    4.02    4.65</time>
   <energy>
    <i name="alphaZ">     66.44128058 </i>
    <i name="ewald">  60013.60664973 </i>
    <i name="hartreedc"> -87808.59493840 </i>
    <i name="XCdc">   -317.53567160 </i>
    <i name="pawpsdc">  30492.44460604 </i>
    <i name="pawaedc"> -29255.67198951 </i>
    <i name="eentropy">      0.00000000 </i>
    <i name="bandstr">  -2289.28389795 </i>
    <i name="atom">  29041.56164242 </i>
    <i name="e_fr_energy">    -57.03231869 </i>
    <i name="e_wo_entrp">    -57.03231869 </i>
    <i name="e_0_energy">    -57.03231869 </i>
   </energy>
  </scstep>
  <scstep>
   <time name="dav">    3.80    3.80</time>
   <time name="total">    4.24    4.25</time>
   <energy>
    <i name="e_fr_energy">    -57.09308143 </i>
    <i name="e_wo_entrp">    -57.09308143 </i>
    <i name="e_0_energy">    -57.09308143 </i>
   </energy>
  </scstep>
  <scstep>
   <time name="dav">    3.82    3.82</time>
   <time name="total">    4.26    4.48</time>
   <energy>
    <i name="e_fr_energy">    -57.09195433 </i>
    <i name="e_wo_entrp">    -57.09195433 </i>
    <i name="e_0_energy">    -57.09195433 </i>
   </energy>
  </scstep>
  <scstep>
   <time name="dav">    3.80    3.80</time>
   <time name="total">    4.24    4.24</time>
   <energy>
    <i name="e_fr_energy">    -57.09062996 </i>
    <i name="e_wo_entrp">    -57.09062996 </i>
    <i name="e_0_energy">    -57.09062996 </i>
   </energy>
  </scstep>
  <scstep>
   <time name="dav">    2.82    2.82</time>
   <time name="total">    3.12    3.12</time>
   <energy>
    <i name="alphaZ">     66.44128058 </i>
    <i name="ewald">  60013.60664973 </i>
    <i name="hartreedc"> -87815.85453765 </i>
    <i name="XCdc">   -317.37186732 </i>
    <i name="pawpsdc">  30378.11799486 </i>
    <i name="pawaedc"> -29139.42823302 </i>
    <i name="eentropy">      0.00000000 </i>
    <i name="bandstr">  -2284.16354896 </i>
    <i name="atom">  29041.56164242 </i>
    <i name="e_fr_energy">    -57.09061937 </i>
    <i name="e_wo_entrp">    -57.09061937 </i>
    <i name="e_0_energy">    -57.09061937 </i>
   </energy>
  </scstep>
  <structure>
   <crystal>
    <varray name="basis" >
     <v>      21.57069226       0.00000000       0.00000000 </v>
     <v>       0.00000000      21.57069226       0.00000000 </v>
     <v>       0.00000000       0.00000000      21.57069226 </v>
    </varray>
    <i name="volume">  10036.73018155 </i>
    <varray name="rec_basis" >
     <v>       0.04635920       0.00000000       0.00000000 </v>
     <v>       0.00000000       0.04635920       0.00000000 </v>
     <v>       0.00000000       0.00000000       0.04635920 </v>
    </varray>
   </crystal>
   <varray name="positions" >
    <v>       0.61633629       0.36690572       0.37205957 </v>
    <v>       0.57562836       0.48519521       0.37596919 </v>
    <v>       0.50026054       0.36101348       0.42256136 </v>
    <v>       0.52742878       0.33052894       0.53898534 </v>
    <v>       0.62027385       0.60212440       0.40828712 </v>
    <v>       0.64130193       0.37667457       0.49395652 </v>
    <v>       0.67108129       0.50089763       0.46670980 </v>
    <v>       0.44253863       0.46817784       0.39646215 </v>
    <v>       0.49502625       0.58473946       0.38676198 </v>
    <v>       0.37072501       0.56609330       0.36430661 </v>
    <v>       0.43056797       0.41825526       0.52133190 </v>
    <v>       0.62369184       0.36211295       0.62061392 </v>
    <v>       0.51020065       0.42554740       0.62593916 </v>
    <v>       0.54787417       0.46220456       0.49939258 </v>
    <v>       0.38296015       0.53714570       0.48882762 </v>
    <v>       0.41972678       0.51502303       0.60986456 </v>
    <v>       0.64383146       0.48490042       0.59011558 </v>
    <v>       0.50193125       0.57402528       0.52903561 </v>
    <v>       0.62703050       0.60334294       0.53659847 </v>
    <v>       0.54112633       0.68173039       0.46560994 </v>
    <v>       0.60611095       0.45643741       0.70712225 </v>
    <v>       0.40617975       0.66093598       0.44086958 </v>
    <v>       0.48758745       0.50613635       0.72184165 </v>
    <v>       0.39831176       0.64083911       0.56790071 </v>
    <v>       0.57171390       0.57192829       0.65061182 </v>
    <v>       0.53267932       0.68270602       0.59386777 </v>
    <v>       0.45468006       0.62150627       0.67903495 </v>
    <v>       0.44971772       0.74939501       0.52188521 </v>
   </varray>
  </structure>
  <varray name="forces" >
   <v>       0.26245774      -0.22922177      -0.13117024 </v>
   <v>      -0.15339850      -0.11834154      -0.07584446 </v>
   <v>       0.14073167      -0.14980277      -0.07220381 </v>
   <v>       0.02911487      -0.14485142       0.04219055 </v>
   <v>       0.25345228       0.15369123      -0.10080949 </v>
   <v>       0.11294746      -0.07588557       0.01358175 </v>
   <v>       0.19768644      -0.00121112      -0.15690592 </v>
   <v>      -0.05663410      -0.09893670      -0.03332138 </v>
   <v>       0.03212781       0.00717936       0.11047917 </v>
   <v>      -0.25297135      -0.01913722      -0.19170856 </v>
   <v>      -0.21335015      -0.07348377      -0.10004262 </v>
   <v>       0.07316808      -0.27239127       0.20131905 </v>
   <v>       0.14165293       0.09906101      -0.05843370 </v>
   <v>      -0.02568144      -0.14117695      -0.03510414 </v>
   <v>      -0.19745691       0.10290758      -0.05934410 </v>
   <v>      -0.11108834       0.03967790       0.01566613 </v>
   <v>      -0.02761020      -0.09997824      -0.18612634 </v>
   <v>      -0.04513406       0.01992087      -0.00101739 </v>
   <v>       0.12562976       0.19353388      -0.08275808 </v>
   <v>       0.01246569       0.10010471       0.05239932 </v>
   <v>       0.15763345      -0.05466310       0.22094063 </v>
   <v>       0.01756061       0.13807698       0.06108971 </v>
   <v>      -0.12597475      -0.07695000       0.16525225 </v>
   <v>      -0.21674167       0.08499357       0.03263665 </v>
   <v>      -0.10057464      -0.06452803      -0.02526464 </v>
   <v>       0.06642632       0.19602073       0.03992122 </v>
   <v>      -0.06176871       0.19263556       0.15230708 </v>
   <v>      -0.03467029       0.29275610       0.20227135 </v>
  </varray>
  <varray name="stress" >
   <v>      -0.75093387      -0.40480497      -0.10606154 </v>
   <v>      -0.40480497      -0.39141031       0.21299187 </v>
   <v>      -0.10606154       0.21299187      -1.06095319 </v>
  </varray>
  <energy>
   <i name="e_fr_energy">    -57.09061937 </i>
   <i name="e_wo_entrp">    -57.09061937 </i>
   <i name="e_0_energy">      0.00000000 </i>
  </energy>
  <time name="totalsc">   26.53   33.86</time>
 </calculation>
 <calculation>
  <scstep>
   <time name="dav">    3.58    3.59</time>
   <time name="total">    4.03    4.04</time>
   <energy>
    <i name="alphaZ">     66.44128058 </i>
    <i name="ewald">  58662.89579315 </i>
    <i name="hartreedc"> -86472.24398737 </i>
    <i name="XCdc">   -318.92459101 </i>
    <i name="pawpsdc">  30379.48429843 </i>
    <i name="pawaedc"> -29140.80995561 </i>
    <i name="eentropy">      0.00000000 </i>
    <i name="bandstr">  -2275.36007666 </i>
    <i name="atom">  29041.56164242 </i>
    <i name="e_fr_energy">    -56.95559608 </i>
    <i name="e_wo_entrp">    -56.95559608 </i>
    <i name="e_0_energy">    -56.95559608 </i>
   </energy>
  </scstep>
  <scstep>
   <time name="dav">    3.82    3.83</time>
   <time name="total">    4.27    4.27</time>
   <energy>
    <i name="e_fr_energy">    -57.20378286 </i>
    <i name="e_wo_entrp">    -57.20378286 </i>
    <i name="e_0_energy">    -57.20378286 </i>
   </energy>
  </scstep>
  <scstep>
   <time name="dav">    3.88    3.88</time>
   <time name="total">    4.32    4.43</time>
   <energy>
    <i name="e_fr_energy">    -57.20233689 </i>
    <i name="e_wo_entrp">    -57.20233689 </i>
    <i name="e_0_energy">    -57.20233689 </i>
   </energy>
  </scstep>
  <scstep>
   <time name="dav">    3.80    3.80</time>
   <time name="total">    4.24    4.26</time>
   <energy>
    <i name="e_fr_energy">    -57.19546965 </i>
    <i name="e_wo_entrp">    -57.19546965 </i>
    <i name="e_0_energy">    -57.19546965 </i>
   </energy>
  </scstep>
  <scstep>
   <time name="dav">    3.82    3.83</time>
   <time name="total">    4.26    6.53</time>
   <energy>
    <i name="e_fr_energy">    -57.19566201 </i>
    <i name="e_wo_entrp">    -57.19566201 </i>
    <i name="e_0_energy">    -57.19566201 </i>
   </energy>
  </scstep>
  <scstep>
   <time name="dav">    3.74    3.75</time>
   <time name="total">    4.19    4.19</time>
   <energy>
    <i name="e_fr_energy">    -57.19546820 </i>
    <i name="e_wo_entrp">    -57.19546820 </i>
    <i name="e_0_energy">    -57.19546820 </i>
   </energy>
  </scstep>
  <scstep>
   <time name="dav">    2.77    2.77</time>
   <time name="total">    3.06    3.15</time>
   <energy>
    <i name="alphaZ">     66.44128058 </i>
    <i name="ewald">  58662.89579315 </i>
    <i name="hartreedc"> -86485.61933203 </i>
    <i name="XCdc">   -318.60887109 </i>
    <i name="pawpsdc">  30184.59624929 </i>
    <i name="pawaedc"> -28942.49017781 </i>
    <i name="eentropy">      0.00000000 </i>
    <i name="bandstr">  -2265.97205851 </i>
    <i name="atom">  29041.56164242 </i>
    <i name="e_fr_energy">    -57.19547400 </i>
    <i name="e_wo_entrp">    -57.19547400 </i>
    <i name="e_0_energy">    -57.19547400 </i>
   </energy>
  </scstep>
  <structure>
   <crystal>
    <varray name="basis" >
     <v>      21.57069226       0.00000000       0.00000000 </v>
     <v>       0.00000000      21.57069226       0.00000000 </v>
     <v>       0.00000000       0.00000000      21.57069226 </v>
    </varray>
    <i name="volume">  10036.73018155 </i>
    <varray name="rec_basis" >
     <v>       0.04635920       0.00000000       0.00000000 </v>
     <v>       0.00000000       0.04635920       0.00000000 </v>
     <v>       0.00000000       0.00000000       0.04635920 </v>
    </varray>
   </crystal>
   <varray name="positions" >
    <v>       0.61884966       0.36472283       0.36999047 </v>
    <v>       0.57436874       0.48423978       0.37465682 </v>
    <v>       0.50073169       0.35905276       0.42370668 </v>
    <v>       0.52693594       0.32926732       0.53760064 </v>
    <v>       0.62400067       0.60335386       0.40806755 </v>
    <v>       0.64232574       0.37557445       0.49457562 </v>
    <v>       0.67376023       0.50165669       0.46449468 </v>
    <v>       0.44175355       0.46831938       0.39599356 </v>
    <v>       0.49404466       0.58465428       0.38699549 </v>
    <v>       0.36839904       0.56548225       0.36243774 </v>
    <v>       0.42862754       0.41666445       0.51974894 </v>
    <v>       0.62470609       0.36058935       0.62242019 </v>
    <v>       0.51129701       0.42608078       0.62653930 </v>
    <v>       0.54739003       0.46028334       0.49924809 </v>
    <v>       0.38081010       0.53801113       0.48733394 </v>
    <v>       0.41847354       0.51533297       0.61148537 </v>
    <v>       0.64409226       0.48349926       0.59024338 </v>
    <v>       0.50136928       0.57504185       0.52879291 </v>
    <v>       0.62849899       0.60572998       0.53498902 </v>
    <v>       0.54125664       0.68268716       0.46642953 </v>
    <v>       0.60754740       0.45587385       0.70871529 </v>
    <v>       0.40618770       0.66179678       0.44097432 </v>
    <v>       0.48646320       0.50489208       0.72359404 </v>
    <v>       0.39677734       0.64110748       0.56857251 </v>
    <v>       0.57181975       0.57113755       0.65136075 </v>
    <v>       0.53324402       0.68507982       0.59356567 </v>
    <v>       0.45321566       0.62381855       0.68038494 </v>
    <v>       0.44957646       0.75257298       0.52360548 </v>
   </varray>
  </structure>
  <varray name="forces" >
   <v>       0.03191645      -0.03979292       0.13014056 </v>
   <v>      -0.05269297      -0.07975390       0.07572689 </v>
   <v>       0.15204346       0.10219663      -0.43667190 </v>
   <v>       0.16620346      -0.07602079       0.45195788 </v>
   <v>      -0.12000618       0.09129539      -0.16357677 </v>
   <v>       0.02421370       0.02518158      -0.08674115 </v>
   <v>      -0.02714610      -0.14912308       0.09853471 </v>
   <v>       0.01896012      -0.20213122       0.02962045 </v>
   <v>       0.17141335       0.02526127       0.16396673 </v>
   <v>      -0.06957583       0.05046478      -0.06865957 </v>
   <v>      -0.06776574       0.13434020       0.06365048 </v>
   <v>      -0.02217417      -0.20832251       0.07774317 </v>
   <v>       0.08533684       0.10507425      -0.20221310 </v>
   <v>       0.01452720       0.06639324      -0.04036808 </v>
   <v>       0.00697610       0.04203664       0.13294138 </v>
   <v>       0.03640507       0.03348696      -0.23392582 </v>
   <v>      -0.11227402       0.02869297      -0.35600783 </v>
   <v>      -0.00263577      -0.13325961       0.05162917 </v>
   <v>      -0.05226491      -0.08487930       0.12446545 </v>
   <v>      -0.01069286       0.02953802      -0.07041409 </v>
   <v>       0.03980559      -0.00474299       0.15156372 </v>
   <v>       0.03484278       0.10996222       0.11276658 </v>
   <v>      -0.03416730       0.03698089      -0.02097968 </v>
   <v>      -0.10494323       0.10282500      -0.05841173 </v>
   <v>      -0.21726474      -0.00074730      -0.17265938 </v>
   <v>       0.01531994       0.00303537       0.14340870 </v>
   <v>       0.13486632      -0.01695495       0.02906082 </v>
   <v>      -0.03922656       0.00896316       0.07345239 </v>
  </varray>
  <varray name="stress" >
   <v>      -1.62523155      -0.32371500      -0.06557900 </v>
   <v>      -0.32371500      -1.40200139       0.10086831 </v>
   <v>      -0.06557899       0.10086830      -1.74965101 </v>
  </varray>
  <energy>
   <i name="e_fr_energy">    -57.19547400 </i>
   <i name="e_wo_entrp">    -57.19547400 </i>
   <i name="e_0_energy">      0.00000000 </i>
  </energy>
  <time name="totalsc">   35.03   37.78</time>
 </calculation>
 <calculation>
  <scstep>
   <time name="dav">    3.58    3.58</time>
   <time name="total">    4.02    4.59</time>
   <energy>
    <i name="alphaZ">     66.44128058 </i>
    <i name="ewald">  58899.70826884 </i>
    <i name="hartreedc"> -86721.73015350 </i>
    <i name="XCdc">   -318.33747041 </i>
    <i name="pawpsdc">  30185.23528842 </i>
    <i name="pawaedc"> -28943.12218003 </i>
    <i name="eentropy">      0.00000000 </i>
    <i name="bandstr">  -2266.95023766 </i>
    <i name="atom">  29041.56164242 </i>
    <i name="e_fr_energy">    -57.19356134 </i>
    <i name="e_wo_entrp">    -57.19356134 </i>
    <i name="e_0_energy">    -57.19356134 </i>
   </energy>
  </scstep>
  <scstep>
   <time name="dav">    3.85    3.85</time>
   <time name="total">    4.29    4.30</time>
   <energy>
    <i name="e_fr_energy">    -57.20160243 </i>
    <i name="e_wo_entrp">    -57.20160243 </i>
    <i name="e_0_energy">    -57.20160243 </i>
   </energy>
  </scstep>
  <scstep>
   <time name="dav">    3.85    3.85</time>
   <time name="total">    4.30    4.61</time>
   <energy>
    <i name="e_fr_energy">    -57.20150898 </i>
    <i name="e_wo_entrp">    -57.20150898 </i>
    <i name="e_0_energy">    -57.20150898 </i>
   </energy>
  </scstep>
  <scstep>
   <time name="dav">    3.60    3.60</time>
   <time name="total">    3.89    6.36</time>
   <energy>
    <i name="alphaZ">     66.44128058 </i>
    <i name="ewald">  58899.70826884 </i>
    <i name="hartreedc"> -86719.80358092 </i>
    <i name="XCdc">   -318.39206495 </i>
    <i name="pawpsdc">  30215.17781912 </i>
    <i name="pawaedc"> -28973.59508288 </i>
    <i name="eentropy">      0.00000000 </i>
    <i name="bandstr">  -2268.29974691 </i>
    <i name="atom">  29041.56164242 </i>
    <i name="e_fr_energy">    -57.20146470 </i>
    <i name="e_wo_entrp">    -57.20146470 </i>
    <i name="e_0_energy">    -57.20146470 </i>
   </energy>
  </scstep>
  <structure>
   <crystal>
    <varray name="basis" >
     <v>      21.57069226       0.00000000       0.00000000 </v>
     <v>       0.00000000      21.57069226       0.00000000 </v>
     <v>       0.00000000       0.00000000      21.57069226 </v>
    </varray>
    <i name="volume">  10036.73018155 </i>
    <varray name="rec_basis" >
     <v>       0.04635920       0.00000000       0.00000000 </v>
     <v>       0.00000000       0.04635920       0.00000000 </v>
     <v>       0.00000000       0.00000000       0.04635920 </v>
    </varray>
   </crystal>
   <varray name="positions" >
    <v>       0.61840452       0.36510944       0.37035693 </v>
    <v>       0.57459183       0.48440900       0.37488926 </v>
    <v>       0.50064825       0.35940002       0.42350383 </v>
    <v>       0.52702323       0.32949077       0.53784588 </v>
    <v>       0.62334061       0.60313611       0.40810644 </v>
    <v>       0.64214441       0.37576930       0.49446597 </v>
    <v>       0.67328576       0.50152225       0.46488700 </v>
    <v>       0.44189260       0.46829431       0.39607655 </v>
    <v>       0.49421851       0.58466936       0.38695413 </v>
    <v>       0.36881100       0.56559048       0.36276874 </v>
    <v>       0.42897121       0.41694620       0.52002930 </v>
    <v>       0.62452646       0.36085919       0.62210028 </v>
    <v>       0.51110283       0.42598631       0.62643301 </v>
    <v>       0.54747578       0.46062361       0.49927368 </v>
    <v>       0.38119090       0.53785785       0.48759848 </v>
    <v>       0.41869551       0.51527807       0.61119831 </v>
    <v>       0.64404607       0.48374742       0.59022075 </v>
    <v>       0.50146881       0.57486180       0.52883589 </v>
    <v>       0.62823891       0.60530721       0.53527407 </v>
    <v>       0.54123356       0.68251771       0.46628437 </v>
    <v>       0.60729299       0.45597366       0.70843314 </v>
    <v>       0.40618629       0.66164432       0.44095577 </v>
    <v>       0.48666231       0.50511245       0.72328367 </v>
    <v>       0.39704910       0.64105995       0.56845353 </v>
    <v>       0.57180101       0.57127759       0.65122811 </v>
    <v>       0.53314400       0.68465940       0.59361918 </v>
    <v>       0.45347502       0.62340902       0.68014584 </v>
    <v>       0.44960148       0.75201013       0.52330080 </v>
   </varray>
  </structure>
  <varray name="forces" >
   <v>       0.06742693      -0.06731567       0.08944106 </v>
   <v>      -0.06934028      -0.08415993       0.05230953 </v>
   <v>       0.15465635       0.05923162      -0.36607714 </v>
   <v>       0.14243077      -0.08281209       0.37631296 </v>
   <v>      -0.07686595       0.10116673      -0.15336113 </v>
   <v>       0.03923524       0.00965231      -0.07076925 </v>
   <v>       0.01046467      -0.12661014       0.05894905 </v>
   <v>       0.00854723      -0.18698310       0.01913527 </v>
   <v>       0.15540903       0.02270424       0.15630924 </v>
   <v>      -0.09869342       0.04460105      -0.08952834 </v>
   <v>      -0.08962516       0.10273841       0.04114077 </v>
   <v>      -0.00829734      -0.22342321       0.09656384 </v>
   <v>       0.09390914       0.10377475      -0.18188703 </v>
   <v>       0.00969173       0.03487363      -0.04053405 </v>
   <v>      -0.02339607       0.05045764       0.10387177 </v>
   <v>       0.01255530       0.03327880      -0.19877188 </v>
   <v>      -0.09844923       0.01162560      -0.33233562 </v>
   <v>      -0.00784118      -0.10993020       0.04253105 </v>
   <v>      -0.02287316      -0.04207935       0.09081862 </v>
   <v>      -0.00634967       0.03999442      -0.04917938 </v>
   <v>       0.05866554      -0.01171666       0.16425328 </v>
   <v>       0.03245171       0.11500737       0.10341256 </v>
   <v>      -0.04981362       0.01716970       0.01072083 </v>
   <v>      -0.12582235       0.10098294      -0.04432999 </v>
   <v>      -0.19920653      -0.00954223      -0.15074006 </v>
   <v>       0.02438900       0.03432701       0.12591202 </v>
   <v>       0.10559260       0.00882263       0.05175510 </v>
   <v>      -0.03885128       0.05416371       0.09407693 </v>
  </varray>
  <varray name="stress" >
   <v>      -1.46536432      -0.33641374      -0.07422715 </v>
   <v>      -0.33641375      -1.22414139       0.11999561 </v>
   <v>      -0.07422716       0.11999561      -1.62467765 </v>
  </varray>
  <energy>
   <i name="e_fr_energy">    -57.20146470 </i>
   <i name="e_wo_entrp">    -57.20146470 </i>
   <i name="e_0_energy">      0.00000000 </i>
  </energy>
  <time name="totalsc">   23.16   26.67</time>
 </calculation>
 <calculation>
  <scstep>
   <time name="dav">    3.58    3.58</time>
   <time name="total">    4.02    4.03</time>
   <energy>
    <i name="alphaZ">     66.44128058 </i>
    <i name="ewald">  58767.83072475 </i>
    <i name="hartreedc"> -86588.91486206 </i>
    <i name="XCdc">   -318.59282871 </i>
    <i name="pawpsdc">  30217.35821736 </i>
    <i name="pawaedc"> -28975.82102600 </i>
    <i name="eentropy">      0.00000000 </i>
    <i name="bandstr">  -2267.09733913 </i>
    <i name="atom">  29041.56164242 </i>
    <i name="e_fr_energy">    -57.23419079 </i>
    <i name="e_wo_entrp">    -57.23419079 </i>
    <i name="e_0_energy">    -57.23419079 </i>
   </energy>
  </scstep>
  <scstep>
   <time name="dav">    3.77    3.77</time>
   <time name="total">    4.21    4.22</time>
   <energy>
    <i name="e_fr_energy">    -57.24292452 </i>
    <i name="e_wo_entrp">    -57.24292452 </i>
    <i name="e_0_energy">    -57.24292452 </i>
   </energy>
  </scstep>
  <scstep>
   <time name="dav">    3.79    3.80</time>
   <time name="total">    4.24    4.24</time>
   <energy>
    <i name="e_fr_energy">    -57.24280373 </i>
    <i name="e_wo_entrp">    -57.24280373 </i>
    <i name="e_0_energy">    -57.24280373 </i>
   </energy>
  </scstep>
  <scstep>
   <time name="dav">    3.80    3.80</time>
   <time name="total">    4.24    4.27</time>
   <energy>
    <i name="e_fr_energy">    -57.24260858 </i>
    <i name="e_wo_entrp">    -57.24260858 </i>
    <i name="e_0_energy">    -57.24260858 </i>
   </energy>
  </scstep>
  <scstep>
   <time name="dav">    2.50    2.50</time>
   <time name="total">    2.80    3.88</time>
   <energy>
    <i name="alphaZ">     66.44128058 </i>
    <i name="ewald">  58767.83072475 </i>
    <i name="hartreedc"> -86590.83630775 </i>
    <i name="XCdc">   -318.55268196 </i>
    <i name="pawpsdc">  30188.76515497 </i>
    <i name="pawaedc"> -28946.75208343 </i>
    <i name="eentropy">      0.00000000 </i>
    <i name="bandstr">  -2265.70034654 </i>
    <i name="atom">  29041.56164242 </i>
    <i name="e_fr_energy">    -57.24261695 </i>
    <i name="e_wo_entrp">    -57.24261695 </i>
    <i name="e_0_energy">    -57.24261695 </i>
   </energy>
  </scstep>
  <structure>
   <crystal>
    <varray name="basis" >
     <v>      21.57069226       0.00000000       0.00000000 </v>
     <v>       0.00000000      21.57069226       0.00000000 </v>
     <v>       0.00000000       0.00000000      21.57069226 </v>
    </varray>
    <i name="volume">  10036.73018155 </i>
    <varray name="rec_basis" >
     <v>       0.04635920       0.00000000       0.00000000 </v>
     <v>       0.00000000       0.04635920       0.00000000 </v>
     <v>       0.00000000       0.00000000       0.04635920 </v>
    </varray>
   </crystal>
   <varray name="positions" >
    <v>       0.61874876       0.36479176       0.37038312 </v>
    <v>       0.57434338       0.48415313       0.37489643 </v>
    <v>       0.50101610       0.35937033       0.42281321 </v>
    <v>       0.52728817       0.32921338       0.53853931 </v>
    <v>       0.62347334       0.60345013       0.40776139 </v>
    <v>       0.64230977       0.37570227       0.49436415 </v>
    <v>       0.67352154       0.50131231       0.46483643 </v>
    <v>       0.44184831       0.46790622       0.39608009 </v>
    <v>       0.49447223       0.58471107       0.38730659 </v>
    <v>       0.36841490       0.56563705       0.36242864 </v>
    <v>       0.42862520       0.41703889       0.51999106 </v>
    <v>       0.62458954       0.36026062       0.62245043 </v>
    <v>       0.51139075       0.42625045       0.62609234 </v>
    <v>       0.54745791       0.46054503       0.49917560 </v>
    <v>       0.38096964       0.53803457       0.48770134 </v>
    <v>       0.41862248       0.51537384       0.61090289 </v>
    <v>       0.64385658       0.48366062       0.58952112 </v>
    <v>       0.50140729       0.57470800       0.52890740 </v>
    <v>       0.62830704       0.60540751       0.53533983 </v>
    <v>       0.54123038       0.68267935       0.46624462 </v>
    <v>       0.60753273       0.45590374       0.70891087 </v>
    <v>       0.40625623       0.66195853       0.44118499 </v>
    <v>       0.48646635       0.50505000       0.72344618 </v>
    <v>       0.39665812       0.64129701       0.56841237 </v>
    <v>       0.57138397       0.57119422       0.65096582 </v>
    <v>       0.53324108       0.68492183       0.59386404 </v>
    <v>       0.45358389       0.62361207       0.68036393 </v>
    <v>       0.44950724       0.75237899       0.52363878 </v>
   </varray>
  </structure>
  <varray name="forces" >
   <v>       0.07516751      -0.05564347       0.07438639 </v>
   <v>      -0.04937336      -0.08167242       0.05392773 </v>
   <v>       0.16922722       0.02743437      -0.21449991 </v>
   <v>       0.08985153      -0.02644460       0.21248123 </v>
   <v>      -0.06494204       0.05706854      -0.10875235 </v>
   <v>       0.02118029       0.00376136      -0.04402675 </v>
   <v>      -0.00776223      -0.08327565       0.01882801 </v>
   <v>      -0.02422047      -0.10303180       0.01984308 </v>
   <v>       0.09363710      -0.00337476       0.16166404 </v>
   <v>      -0.02399923       0.03788069      -0.03117249 </v>
   <v>      -0.03878732       0.07498746       0.02585868 </v>
   <v>      -0.00231680      -0.15622166       0.09481173 </v>
   <v>       0.10617064       0.12673141      -0.15300012 </v>
   <v>      -0.01223778       0.00748504      -0.05052718 </v>
   <v>      -0.01787656       0.04955165       0.05269688 </v>
   <v>       0.01794386       0.03533044      -0.15581253 </v>
   <v>      -0.12251882      -0.02876436      -0.23607838 </v>
   <v>      -0.00357779      -0.06594522       0.04703261 </v>
   <v>      -0.03233686      -0.04530077       0.05905723 </v>
   <v>      -0.01552575       0.03852417      -0.01222166 </v>
   <v>       0.04205673      -0.00526679       0.08672667 </v>
   <v>       0.03100288       0.08303036       0.07479414 </v>
   <v>      -0.03555171       0.01033161      -0.01727942 </v>
   <v>      -0.09255573       0.08618777      -0.01552186 </v>
   <v>      -0.18075574      -0.04347947      -0.14460271 </v>
   <v>       0.01159405       0.02765862       0.09123832 </v>
   <v>       0.08448048       0.00079975       0.02230223 </v>
   <v>      -0.01797412       0.03165774       0.08784640 </v>
  </varray>
  <varray name="stress" >
   <v>      -1.57598977      -0.30936862      -0.08865666 </v>
   <v>      -0.30936861      -1.37825705       0.12564174 </v>
   <v>      -0.08865666       0.12564176      -1.79231060 </v>
  </varray>
  <energy>
   <i name="e_fr_energy">    -57.24261695 </i>
   <i name="e_wo_entrp">    -57.24261695 </i>
   <i name="e_0_energy">      0.00000000 </i>
  </energy>
  <time name="totalsc">   26.15   28.76</time>
 </calculation>
 <calculation>
  <scstep>
   <time name="dav">    3.58    3.58</time>
   <time name="total">    4.02    4.03</time>
   <energy>
    <i name="alphaZ">     66.44128058 </i>
    <i name="ewald">  58452.86586416 </i>
    <i name="hartreedc"> -86277.74440616 </i>
    <i name="XCdc">   -319.00659887 </i>
    <i name="pawpsdc">  30189.11863971 </i>
    <i name="pawaedc"> -28947.10930083 </i>
    <i name="eentropy">      0.00000000 </i>
    <i name="bandstr">  -2263.36276766 </i>
    <i name="atom">  29041.56164242 </i>
    <i name="e_fr_energy">    -57.23564665 </i>
    <i name="e_wo_entrp">    -57.23564665 </i>
    <i name="e_0_energy">    -57.23564665 </i>
   </energy>
  </scstep>
  <scstep>
   <time name="dav">    3.85    3.85</time>
   <time name="total">    4.29    4.30</time>
   <energy>
    <i name="e_fr_energy">    -57.28692283 </i>
    <i name="e_wo_entrp">    -57.28692283 </i>
    <i name="e_0_energy">    -57.28692283 </i>
   </energy>
  </scstep>
  <scstep>
   <time name="dav">    3.86    3.86</time>
   <time name="total">    4.30    4.30</time>
   <energy>
    <i name="e_fr_energy">    -57.28646794 </i>
    <i name="e_wo_entrp">    -57.28646794 </i>
    <i name="e_0_energy">    -57.28646794 </i>
   </energy>
  </scstep>
  <scstep>
   <time name="dav">    3.80    3.80</time>
   <time name="total">    4.24    4.26</time>
   <energy>
    <i name="e_fr_energy">    -57.28526194 </i>
    <i name="e_wo_entrp">    -57.28526194 </i>
    <i name="e_0_energy">    -57.28526194 </i>
   </energy>
  </scstep>
  <scstep>
   <time name="dav">    3.74    3.74</time>
   <time name="total">    4.04    6.11</time>
   <energy>
    <i name="alphaZ">     66.44128058 </i>
    <i name="ewald">  58452.86586416 </i>
    <i name="hartreedc"> -86281.77052983 </i>
    <i name="XCdc">   -318.91146712 </i>
    <i name="pawpsdc">  30128.78623637 </i>
    <i name="pawaedc"> -28885.72559407 </i>
    <i name="eentropy">      0.00000000 </i>
    <i name="bandstr">  -2260.53274778 </i>
    <i name="atom">  29041.56164242 </i>
    <i name="e_fr_energy">    -57.28531527 </i>
    <i name="e_wo_entrp">    -57.28531527 </i>
    <i name="e_0_energy">    -57.28531527 </i>
   </energy>
  </scstep>
  <structure>
   <crystal>
    <varray name="basis" >
     <v>      21.57069226       0.00000000       0.00000000 </v>
     <v>       0.00000000      21.57069226       0.00000000 </v>
     <v>       0.00000000       0.00000000      21.57069226 </v>
    </varray>
    <i name="volume">  10036.73018155 </i>
    <varray name="rec_basis" >
     <v>       0.04635920       0.00000000       0.00000000 </v>
     <v>       0.00000000       0.04635920       0.00000000 </v>
     <v>       0.00000000       0.00000000       0.04635920 </v>
    </varray>
   </crystal>
   <varray name="positions" >
    <v>       0.61957623       0.36402815       0.37044607 </v>
    <v>       0.57374619       0.48353810       0.37491367 </v>
    <v>       0.50190031       0.35929894       0.42115313 </v>
    <v>       0.52792502       0.32854664       0.54020609 </v>
    <v>       0.62379240       0.60420495       0.40693201 </v>
    <v>       0.64270726       0.37554115       0.49411938 </v>
    <v>       0.67408827       0.50080767       0.46471488 </v>
    <v>       0.44174185       0.46697337       0.39608860 </v>
    <v>       0.49508212       0.58481132       0.38815378 </v>
    <v>       0.36746280       0.56574902       0.36161112 </v>
    <v>       0.42779348       0.41726171       0.51989914 </v>
    <v>       0.62474117       0.35882182       0.62329207 </v>
    <v>       0.51208282       0.42688536       0.62527347 </v>
    <v>       0.54741495       0.46035616       0.49893983 </v>
    <v>       0.38043780       0.53845934       0.48794857 </v>
    <v>       0.41844695       0.51560405       0.61019280 </v>
    <v>       0.64340109       0.48345199       0.58783942 </v>
    <v>       0.50125942       0.57433830       0.52907927 </v>
    <v>       0.62847083       0.60564859       0.53549787 </v>
    <v>       0.54122274       0.68306790       0.46614909 </v>
    <v>       0.60810899       0.45573567       0.71005919 </v>
    <v>       0.40642436       0.66271381       0.44173596 </v>
    <v>       0.48599532       0.50489987       0.72383680 </v>
    <v>       0.39571832       0.64186683       0.56831343 </v>
    <v>       0.57038154       0.57099380       0.65033535 </v>
    <v>       0.53347443       0.68555264       0.59445260 </v>
    <v>       0.45384556       0.62410016       0.68088816 </v>
    <v>       0.44928073       0.75326563       0.52445119 </v>
   </varray>
  </structure>
  <varray name="forces" >
   <v>       0.08858661      -0.03694154       0.04054563 </v>
   <v>      -0.00082079      -0.07816244       0.05423670 </v>
   <v>       0.18255948      -0.02862663       0.08569960 </v>
   <v>      -0.00711088       0.07243824      -0.10028677 </v>
   <v>      -0.04265828      -0.04672723      -0.00486073 </v>
   <v>      -0.02358008      -0.00921379       0.01296308 </v>
   <v>      -0.05390356       0.01430222      -0.07536059 </v>
   <v>      -0.09769740       0.09135943       0.02360979 </v>
   <v>      -0.04003122      -0.05867099       0.17207176 </v>
   <v>       0.14052898       0.02449433       0.10285515 </v>
   <v>       0.07345678       0.02215369      -0.00009626 </v>
   <v>       0.01167317       0.00374526       0.09219493 </v>
   <v>       0.12804447       0.17591398      -0.09111503 </v>
   <v>      -0.06605986      -0.05189341      -0.07882720 </v>
   <v>      -0.00133083       0.04709013      -0.06328404 </v>
   <v>       0.03027675       0.03875694      -0.05195758 </v>
   <v>      -0.16658683      -0.10112157      -0.01274707 </v>
   <v>       0.00845341       0.03389839       0.05884048 </v>
   <v>      -0.05896994      -0.05618491      -0.00999327 </v>
   <v>      -0.03630047       0.03627620       0.07017666 </v>
   <v>      -0.00772779       0.00631173      -0.09917206 </v>
   <v>       0.02788138       0.00819361       0.01019037 </v>
   <v>       0.00124327      -0.00085736      -0.08836560 </v>
   <v>      -0.00699870       0.05434783       0.04795053 </v>
   <v>      -0.13066858      -0.11606083      -0.12886482 </v>
   <v>      -0.02016700       0.00518986       0.01287769 </v>
   <v>       0.03739375      -0.01731658      -0.04699280 </v>
   <v>       0.03051416      -0.03269457       0.06771145 </v>
  </varray>
  <varray name="stress" >
[...]
       <r>    -0.5141     0.0000   174.0000 </r>
       <r>    -0.4750     0.0000   175.0000 </r>
       <r>    -0.4358     0.0000   175.0000 </r>
       <r>    -0.3967     0.0000   175.0000 </r>
       <r>    -0.3576     0.0000   176.0000 </r>
       <r>    -0.3184     0.0000   177.0000 </r>
       <r>    -0.2793     0.0000   177.0000 </r>
       <r>    -0.2402     0.0000   177.0000 </r>
       <r>    -0.2010     0.0000   178.0000 </r>
       <r>    -0.1619     0.0000   178.0000 </r>
       <r>    -0.1227     0.0000   179.0000 </r>
       <r>    -0.0836     0.0000   179.0000 </r>
       <r>    -0.0445     0.0000   180.0000 </r>
       <r>    -0.0053     0.0000   180.0000 </r>
       <r>     0.0338     0.0000   180.0000 </r>
       <r>     0.0730     0.0000   180.0000 </r>
       <r>     0.1121     0.0000   180.0000 </r>
       <r>     0.1512     0.0000   180.0000 </r>
       <r>     0.1904     0.0000   181.0000 </r>
       <r>     0.2295     0.0000   181.0000 </r>
       <r>     0.2687     0.0000   181.0000 </r>
       <r>     0.3078     0.0000   181.0000 </r>
       <r>     0.3469     0.0000   182.0000 </r>
       <r>     0.3861     0.0000   183.0000 </r>
       <r>     0.4252     0.0000   183.0000 </r>
       <r>     0.4644     0.0000   183.0000 </r>
       <r>     0.5035     0.0000   185.0000 </r>
       <r>     0.5426     0.0000   185.0000 </r>
       <r>     0.5818     0.0000   186.0000 </r>
       <r>     0.6209     0.0000   186.0000 </r>
       <r>     0.6600     0.0000   187.0000 </r>
       <r>     0.6992     0.0000   188.0000 </r>
       <r>     0.7383     0.0000   189.0000 </r>
       <r>     0.7775     0.0000   190.0000 </r>
       <r>     0.8166     0.0000   192.0000 </r>
       <r>     0.8557     0.0000   192.0000 </r>
       <r>     0.8949     0.0000   193.0000 </r>
       <r>     0.9340     0.0000   193.0000 </r>
       <r>     0.9732     0.0000   196.0000 </r>
       <r>     1.0123     0.0000   197.0000 </r>
       <r>     1.0514     0.0000   199.0000 </r>
       <r>     1.0906     0.0000   200.0000 </r>
       <r>     1.1297     0.0000   200.0000 </r>
       <r>     1.1689     0.0000   200.0000 </r>
       <r>     1.2080     0.0000   200.0000 </r>
       <r>     1.2471     0.0000   200.0000 </r>
       <r>     1.2863     0.0000   200.0000 </r>
       <r>     1.3254     0.0000   200.0000 </r>
       <r>     1.3645     0.0000   200.0000 </r>
       <r>     1.4037     0.0000   200.0000 </r>
       <r>     1.4428     0.0000   200.0000 </r>
       <r>     1.4820     0.0000   200.0000 </r>
       <r>     1.5211     0.0000   200.0000 </r>
       <r>     1.5602     0.0000   200.0000 </r>
       <r>     1.5994     0.0000   200.0000 </r>
      </set>
      <set comment="spin 2">
       <r>   -10.1423     0.0000     0.0000 </r>
       <r>   -10.1032     0.0000     0.0000 </r>
       <r>   -10.0641     0.0000     0.0000 </r>
       <r>   -10.0249     0.0000     0.0000 </r>
       <r>    -9.9858     0.0000     0.0000 </r>
       <r>    -9.9466     0.0000     0.0000 </r>
       <r>    -9.9075     0.0000     0.0000 </r>
       <r>    -9.8684     0.0000     0.0000 </r>
       <r>    -9.8292     0.0000     0.0000 </r>
       <r>    -9.7901     0.0000     0.0000 </r>
       <r>    -9.7509     0.0000     0.0000 </r>
       <r>    -9.7118     0.0000     0.0000 </r>
       <r>    -9.6727     0.0000     0.0000 </r>
       <r>    -9.6335     0.0000     0.0000 </r>
       <r>    -9.5944     0.0000     1.0000 </r>
       <r>    -9.5553     0.0000     1.0000 </r>
       <r>    -9.5161     0.0000     1.0000 </r>
       <r>    -9.4770     0.0000     1.0000 </r>
       <r>    -9.4378     0.0000     1.0000 </r>
       <r>    -9.3987     0.0000     1.0000 </r>
       <r>    -9.3596     0.0000     1.0000 </r>
       <r>    -9.3204     0.0000     1.0000 </r>
       <r>    -9.2813     0.0000     1.0000 </r>
       <r>    -9.2421     0.0000     1.0000 </r>
       <r>    -9.2030     0.0000     1.0000 </r>
       <r>    -9.1639     0.0000     1.0000 </r>
       <r>    -9.1247     0.0000     2.0000 </r>
       <r>    -9.0856     0.0000     4.0000 </r>
       <r>    -9.0464     0.0000     5.0000 </r>
       <r>    -9.0073     0.0000     8.0000 </r>
       <r>    -8.9682     0.0000     8.0000 </r>
       <r>    -8.9290     0.0000    10.0000 </r>
       <r>    -8.8899     0.0000    11.0000 </r>
       <r>    -8.8507     0.0000    13.0000 </r>
       <r>    -8.8116     0.0000    13.0000 </r>
       <r>    -8.7725     3.4347    14.1344 </r>
       <r>    -8.7333     0.0000    15.0000 </r>
       <r>    -8.6942     0.0000    17.0000 </r>
       <r>    -8.6551     0.0000    18.0000 </r>
       <r>    -8.6159     0.0000    20.0000 </r>
       <r>    -8.5768     0.0000    22.0000 </r>
       <r>    -8.5376     0.0000    23.0000 </r>
       <r>    -8.4985     0.0000    24.0000 </r>
       <r>    -8.4594     0.0000    26.0000 </r>
       <r>    -8.4202     0.0000    28.0000 </r>
       <r>    -8.3811     0.0000    30.0000 </r>
       <r>    -8.3419     0.0000    31.0000 </r>
       <r>    -8.3028     0.0000    32.0000 </r>
       <r>    -8.2637     0.0000    34.0000 </r>
       <r>    -8.2245     0.0000    36.0000 </r>
       <r>    -8.1854     0.0000    37.0000 </r>
       <r>    -8.1462     0.0000    39.0000 </r>
       <r>    -8.1071     0.0000    41.0000 </r>
       <r>    -8.0680     0.0000    43.0000 </r>
       <r>    -8.0288     0.0000    45.0000 </r>
       <r>    -7.9897     0.0000    46.0000 </r>
       <r>    -7.9505     0.0000    48.0000 </r>
       <r>    -7.9114     0.0000    50.0000 </r>
       <r>    -7.8723     0.0000    51.0000 </r>
       <r>    -7.8331     0.0000    53.0000 </r>
       <r>    -7.7940     0.0000    56.0000 </r>
       <r>    -7.7549     0.0000    57.0000 </r>
       <r>    -7.7157     0.0000    59.0000 </r>
       <r>    -7.6766     0.0000    60.0000 </r>
       <r>    -7.6374     0.0000    63.0000 </r>
       <r>    -7.5983     0.0000    65.0000 </r>
       <r>    -7.5592     0.0000    66.0000 </r>
       <r>    -7.5200     0.0000    68.0000 </r>
       <r>    -7.4809     0.0000    70.0000 </r>
       <r>    -7.4417     0.0000    72.0000 </r>
       <r>    -7.4026     0.0000    74.0000 </r>
       <r>    -7.3635     0.0000    75.0000 </r>
       <r>    -7.3243     0.0000    76.0000 </r>
       <r>    -7.2852     0.0000    78.0000 </r>
       <r>    -7.2460     0.0000    78.0000 </r>
       <r>    -7.2069     0.0000    80.0000 </r>
       <r>    -7.1678     0.0000    83.0000 </r>
       <r>    -7.1286     0.0000    85.0000 </r>
       <r>    -7.0895     0.0000    88.0000 </r>
       <r>    -7.0504     0.0000    90.0000 </r>
       <r>    -7.0112     0.0000    93.0000 </r>
       <r>    -6.9721     0.0000    95.0000 </r>
       <r>    -6.9329     0.0000    98.0000 </r>
       <r>    -6.8938     0.0000   101.0000 </r>
       <r>    -6.8547     0.0000   104.0000 </r>
       <r>    -6.8155     0.0000   107.0000 </r>
       <r>    -6.7764     0.0000   108.0000 </r>
       <r>    -6.7372     0.0000   113.0000 </r>
       <r>    -6.6981     0.0000   115.0000 </r>
       <r>    -6.6590     0.0000   119.0000 </r>
       <r>    -6.6198    25.5499   122.0000 </r>
       <r>    -6.5807     0.0000   125.0000 </r>
       <r>    -6.5415     0.0000   127.0000 </r>
       <r>    -6.5024     0.0000   130.0000 </r>
       <r>    -6.4633     0.0000   132.0000 </r>
       <r>    -6.4241     0.0000   135.0000 </r>
       <r>    -6.3850     0.0000   136.0000 </r>
       <r>    -6.3458     0.0000   138.0000 </r>
       <r>    -6.3067     0.0000   139.0000 </r>
       <r>    -6.2676    25.5499   142.0000 </r>
       <r>    -6.2284     0.0000   143.0000 </r>
       <r>    -6.1893     0.0000   144.0000 </r>
       <r>    -6.1502     0.0000   144.0000 </r>
       <r>    -6.1110     0.0000   144.0000 </r>
       <r>    -6.0719     0.0000   144.0000 </r>
       <r>    -6.0327     0.0000   144.0000 </r>
       <r>    -5.9936     0.0000   144.0000 </r>
       <r>    -5.9545     0.0000   144.0000 </r>
       <r>    -5.9153     0.0000   144.0000 </r>
       <r>    -5.8762     0.0000   144.0000 </r>
       <r>    -5.8370     0.0000   144.0000 </r>
       <r>    -5.7979     0.0000   145.0000 </r>
       <r>    -5.7588     0.0000   145.0000 </r>
       <r>    -5.7196     0.0000   145.0000 </r>
       <r>    -5.6805    25.5499   146.0000 </r>
       <r>    -5.6413     0.0000   146.0000 </r>
       <r>    -5.6022     0.0000   146.0000 </r>
       <r>    -5.5631     0.0000   146.0000 </r>
       <r>    -5.5239     0.0000   146.0000 </r>
       <r>    -5.4848     0.0000   146.0000 </r>
       <r>    -5.4456     0.0000   146.0000 </r>
       <r>    -5.4065     0.0000   146.0000 </r>
       <r>    -5.3674     0.0000   146.0000 </r>
       <r>    -5.3282     0.0000   146.0000 </r>
       <r>    -5.2891     0.0000   147.0000 </r>
       <r>    -5.2500     0.0000   147.0000 </r>
       <r>    -5.2108     0.0000   147.0000 </r>
       <r>    -5.1717     0.0000   147.0000 </r>
       <r>    -5.1325     0.0000   147.0000 </r>
       <r>    -5.0934     0.0000   147.0000 </r>
       <r>    -5.0543     0.0000   148.0000 </r>
       <r>    -5.0151     0.0000   148.0000 </r>
       <r>    -4.9760     0.0000   148.0000 </r>
       <r>    -4.9368     0.0000   148.0000 </r>
       <r>    -4.8977     0.0000   148.0000 </r>
       <r>    -4.8586     0.0000   149.0000 </r>
       <r>    -4.8194     0.0000   149.0000 </r>
       <r>    -4.7803     0.0000   149.0000 </r>
       <r>    -4.7411     0.0000   149.0000 </r>
       <r>    -4.7020     0.0000   149.0000 </r>
       <r>    -4.6629     0.0000   149.0000 </r>
       <r>    -4.6237     0.0000   149.0000 </r>
       <r>    -4.5846     0.0000   149.0000 </r>
       <r>    -4.5455     0.0000   149.0000 </r>
       <r>    -4.5063     0.0000   149.0000 </r>
       <r>    -4.4672     0.0000   149.0000 </r>
       <r>    -4.4280     0.0000   149.0000 </r>
       <r>    -4.3889     0.0000   149.0000 </r>
       <r>    -4.3498     0.0000   149.0000 </r>
       <r>    -4.3106     0.0000   149.0000 </r>
       <r>    -4.2715     0.0000   150.0000 </r>
       <r>    -4.2323     0.0000   150.0000 </r>
       <r>    -4.1932     0.0000   151.0000 </r>
       <r>    -4.1541     0.0000   151.0000 </r>
       <r>    -4.1149     0.0000   151.0000 </r>
       <r>    -4.0758     0.0000   151.0000 </r>
       <r>    -4.0366     0.0000   151.0000 </r>
       <r>    -3.9975     0.0000   151.0000 </r>
       <r>    -3.9584     0.0000   151.0000 </r>
       <r>    -3.9192     0.0000   151.0000 </r>
       <r>    -3.8801     0.0000   152.0000 </r>
       <r>    -3.8409     0.0000   152.0000 </r>
       <r>    -3.8018     0.0000   152.0000 </r>
       <r>    -3.7627     0.0000   153.0000 </r>
       <r>    -3.7235     0.0000   153.0000 </r>
       <r>    -3.6844     0.0000   153.0000 </r>
       <r>    -3.6453     0.0000   154.0000 </r>
       <r>    -3.6061     0.0000   154.0000 </r>
       <r>    -3.5670     0.0000   154.0000 </r>
       <r>    -3.5278     0.0000   154.0000 </r>
       <r>    -3.4887     0.0000   154.0000 </r>
       <r>    -3.4496     0.0000   154.0000 </r>
       <r>    -3.4104     0.0000   155.0000 </r>
       <r>    -3.3713     0.0000   155.0000 </r>
       <r>    -3.3321     0.0000   155.0000 </r>
       <r>    -3.2930     0.0000   155.0000 </r>
       <r>    -3.2539     0.0000   155.0000 </r>
       <r>    -3.2147     0.0000   155.0000 </r>
       <r>    -3.1756     0.0000   155.0000 </r>
       <r>    -3.1364     0.0000   155.0000 </r>
       <r>    -3.0973     0.0000   155.0000 </r>
       <r>    -3.0582     0.0000   155.0000 </r>
       <r>    -3.0190     0.0000   156.0000 </r>
       <r>    -2.9799     0.0000   156.0000 </r>
       <r>    -2.9407     0.0000   156.0000 </r>
       <r>    -2.9016     0.0000   156.0000 </r>
       <r>    -2.8625     0.0000   157.0000 </r>
       <r>    -2.8233     0.0000   157.0000 </r>
       <r>    -2.7842     0.0000   157.0000 </r>
       <r>    -2.7451     0.0000   157.0000 </r>
       <r>    -2.7059     0.0000   157.0000 </r>
       <r>    -2.6668     0.0000   157.0000 </r>
       <r>    -2.6276     0.0000   157.0000 </r>
       <r>    -2.5885     0.0000   158.0000 </r>
       <r>    -2.5494     0.0000   159.0000 </r>
       <r>    -2.5102     0.0000   159.0000 </r>
       <r>    -2.4711     0.0000   159.0000 </r>
       <r>    -2.4319     0.0000   159.0000 </r>
       <r>    -2.3928     0.0000   159.0000 </r>
       <r>    -2.3537     0.0000   160.0000 </r>
       <r>    -2.3145     0.0000   161.0000 </r>
       <r>    -2.2754     0.0000   161.0000 </r>
       <r>    -2.2362     0.0000   161.0000 </r>
       <r>    -2.1971     0.0000   161.0000 </r>
       <r>    -2.1580     0.0000   161.0000 </r>
       <r>    -2.1188     0.0000   161.0000 </r>
       <r>    -2.0797     0.0000   161.0000 </r>
       <r>    -2.0406     0.0000   162.0000 </r>
       <r>    -2.0014     0.0000   162.0000 </r>
       <r>    -1.9623     0.0000   162.0000 </r>
       <r>    -1.9231     0.0000   163.0000 </r>
       <r>    -1.8840     0.0000   164.0000 </r>
       <r>    -1.8449     0.0000   164.0000 </r>
       <r>    -1.8057     0.0000   165.0000 </r>
       <r>    -1.7666     0.0000   165.0000 </r>
       <r>    -1.7274     0.0000   165.0000 </r>
       <r>    -1.6883     0.0000   165.0000 </r>
       <r>    -1.6492     0.0000   165.0000 </r>
       <r>    -1.6100     0.0000   165.0000 </r>
       <r>    -1.5709     0.0000   166.0000 </r>
       <r>    -1.5317     0.0000   166.0000 </r>
       <r>    -1.4926     0.0000   166.0000 </r>
       <r>    -1.4535     0.0000   166.0000 </r>
       <r>    -1.4143     0.0000   167.0000 </r>
       <r>    -1.3752     0.0000   167.0000 </r>
       <r>    -1.3360     0.0000   167.0000 </r>
       <r>    -1.2969     0.0000   168.0000 </r>
       <r>    -1.2578     0.0000   168.0000 </r>
       <r>    -1.2186     0.0000   169.0000 </r>
       <r>    -1.1795     0.0000   169.0000 </r>
       <r>    -1.1404     0.0000   169.0000 </r>
       <r>    -1.1012     0.0000   169.0000 </r>
       <r>    -1.0621     0.0000   169.0000 </r>
       <r>    -1.0229     0.0000   170.0000 </r>
       <r>    -0.9838     0.0000   170.0000 </r>
       <r>    -0.9447     0.0000   170.0000 </r>
       <r>    -0.9055     0.0000   170.0000 </r>
       <r>    -0.8664     0.0000   170.0000 </r>
       <r>    -0.8272     0.0000   171.0000 </r>
       <r>    -0.7881     0.0000   171.0000 </r>
       <r>    -0.7490     0.0000   171.0000 </r>
       <r>    -0.7098     0.0000   172.0000 </r>
       <r>    -0.6707     0.0000   172.0000 </r>
       <r>    -0.6315     0.0000   173.0000 </r>
       <r>    -0.5924     0.0000   174.0000 </r>
       <r>    -0.5533     0.0000   174.0000 </r>
       <r>    -0.5141     0.0000   174.0000 </r>
       <r>    -0.4750     0.0000   175.0000 </r>
       <r>    -0.4358     0.0000   175.0000 </r>
       <r>    -0.3967     0.0000   175.0000 </r>
       <r>    -0.3576     0.0000   176.0000 </r>
       <r>    -0.3184     0.0000   177.0000 </r>
       <r>    -0.2793     0.0000   177.0000 </r>
       <r>    -0.2402     0.0000   177.0000 </r>
       <r>    -0.2010     0.0000   178.0000 </r>
       <r>    -0.1619     0.0000   178.0000 </r>
       <r>    -0.1227     0.0000   179.0000 </r>
       <r>    -0.0836     0.0000   179.0000 </r>
       <r>    -0.0445     0.0000   180.0000 </r>
       <r>    -0.0053     0.0000   180.0000 </r>
       <r>     0.0338     0.0000   180.0000 </r>
       <r>     0.0730     0.0000   180.0000 </r>
       <r>     0.1121     0.0000   180.0000 </r>
       <r>     0.1512     0.0000   180.0000 </r>
       <r>     0.1904     0.0000   181.0000 </r>
       <r>     0.2295     0.0000   181.0000 </r>
       <r>     0.2687     0.0000   181.0000 </r>
       <r>     0.3078     0.0000   181.0000 </r>
       <r>     0.3469     0.0000   182.0000 </r>
       <r>     0.3861     0.0000   183.0000 </r>
       <r>     0.4252     0.0000   183.0000 </r>
       <r>     0.4644     0.0000   183.0000 </r>
       <r>     0.5035     0.0000   185.0000 </r>
       <r>     0.5426     0.0000   185.0000 </r>
       <r>     0.5818     0.0000   186.0000 </r>
       <r>     0.6209     0.0000   186.0000 </r>
       <r>     0.6600     0.0000   187.0000 </r>
       <r>     0.6992     0.0000   188.0000 </r>
       <r>     0.7383     0.0000   189.0000 </r>
       <r>     0.7775     0.0000   190.0000 </r>
       <r>     0.8166     0.0000   192.0000 </r>
       <r>     0.8557     0.0000   192.0000 </r>
       <r>     0.8949     0.0000   193.0000 </r>
       <r>     0.9340     0.0000   193.0000 </r>
       <r>     0.9732     0.0000   196.0000 </r>
       <r>     1.0123     0.0000   197.0000 </r>
       <r>     1.0514     0.0000   199.0000 </r>
       <r>     1.0906     0.0000   200.0000 </r>
       <r>     1.1297     0.0000   200.0000 </r>
       <r>     1.1689     0.0000   200.0000 </r>
       <r>     1.2080     0.0000   200.0000 </r>
       <r>     1.2471     0.0000   200.0000 </r>
       <r>     1.2863     0.0000   200.0000 </r>
       <r>     1.3254     0.0000   200.0000 </r>
       <r>     1.3645     0.0000   200.0000 </r>
       <r>     1.4037     0.0000   200.0000 </r>
       <r>     1.4428     0.0000   200.0000 </r>
       <r>     1.4820     0.0000   200.0000 </r>
       <r>     1.5211     0.0000   200.0000 </r>
       <r>     1.5602     0.0000   200.0000 </r>
       <r>     1.5994     0.0000   200.0000 </r>
      </set>
     </set>
    </array>
   </total>
  </dos>
 </calculation>
 <structure name="finalpos" >
  <crystal>
   <varray name="basis" >
    <v>      21.57069226       0.00000000       0.00000000 </v>
    <v>       0.00000000      21.57069226       0.00000000 </v>
    <v>       0.00000000       0.00000000      21.57069226 </v>
   </varray>
   <i name="volume">  10036.73018155 </i>
   <varray name="rec_basis" >
    <v>       0.04635920       0.00000000       0.00000000 </v>
    <v>       0.00000000       0.04635920       0.00000000 </v>
    <v>       0.00000000       0.00000000       0.04635920 </v>
   </varray>
  </crystal>
  <varray name="positions" >
   <v>       0.64599323       0.37790349       0.37921701 </v>
   <v>       0.56797351       0.47958953       0.37004555 </v>
   <v>       0.52253583       0.36938032       0.42677731 </v>
   <v>       0.52032171       0.31919682       0.54424971 </v>
   <v>       0.62193384       0.59812140       0.40152360 </v>
   <v>       0.62835356       0.37277692       0.50313941 </v>
   <v>       0.66916276       0.48769295       0.45463279 </v>
   <v>       0.43905911       0.46488465       0.39274066 </v>
   <v>       0.49316670       0.58247117       0.40503074 </v>
   <v>       0.37144017       0.57394977       0.36270219 </v>
   <v>       0.43284351       0.41539648       0.51496667 </v>
   <v>       0.62135391       0.34915457       0.62890874 </v>
   <v>       0.52034385       0.43088614       0.61326064 </v>
   <v>       0.53845514       0.49393237       0.49727148 </v>
   <v>       0.38094042       0.53572223       0.48410745 </v>
   <v>       0.41885513       0.51300514       0.60315310 </v>
   <v>       0.64526692       0.47381094       0.58245818 </v>
   <v>       0.48494195       0.60418301       0.53940012 </v>
   <v>       0.62782211       0.59327557       0.52662520 </v>
   <v>       0.54581815       0.68867872       0.46792029 </v>
   <v>       0.60740621       0.45481801       0.70535110 </v>
   <v>       0.40543201       0.66647636       0.45252402 </v>
   <v>       0.48517894       0.50928691       0.71404199 </v>
   <v>       0.35969448       0.63051364       0.57161763 </v>
   <v>       0.56807917       0.56218360       0.63606832 </v>
   <v>       0.56714664       0.68852726       0.59734494 </v>
   <v>       0.45676491       0.63247486       0.66198671 </v>
   <v>       0.45023907       0.72823010       0.55945736 </v>
  </varray>
 </structure>
</modeling>
