  35  35   0   0
  0.3105949E+03  0.2215240E-08  0.2215240E-08  0.2215240E-08  0.1000000E-15
  1.000000000000000E-004
  CAR 
 unknown system                          
      1.93713422    -10.24490942  301     -3.40266158      1.00000000
    -10.245  0.0000E+00  0.0000E+00  0.0000E+00  0.0000E+00
    -10.204  0.0000E+00  0.0000E+00  0.0000E+00  0.0000E+00
    -10.164  0.0000E+00  0.0000E+00  0.0000E+00  0.0000E+00
    -10.123  0.0000E+00  0.0000E+00  0.0000E+00  0.0000E+00
    -10.082  0.0000E+00  0.0000E+00  0.0000E+00  0.0000E+00
    -10.042  0.0000E+00  0.0000E+00  0.0000E+00  0.0000E+00
    -10.001  0.0000E+00  0.0000E+00  0.0000E+00  0.0000E+00
     -9.961  0.0000E+00  0.0000E+00  0.0000E+00  0.0000E+00
     -9.920  0.0000E+00  0.0000E+00  0.0000E+00  0.0000E+00
     -9.879  0.0000E+00  0.0000E+00  0.0000E+00  0.0000E+00
     -9.839  0.0000E+00  0.0000E+00  0.0000E+00  0.0000E+00
     -9.798  0.0000E+00  0.0000E+00  0.0000E+00  0.0000E+00
     -9.758  0.0000E+00  0.0000E+00  0.0000E+00  0.0000E+00
     -9.717  0.0000E+00  0.0000E+00  0.0000E+00  0.0000E+00
     -9.676  0.0000E+00  0.0000E+00  0.1000E-02  0.0000E+00
     -9.636  0.0000E+00  0.0000E+00  0.1000E-02  0.1000E-02
     -9.595  0.0000E+00  0.0000E+00  0.1000E-02  0.1000E-02
     -9.555  0.0000E+00  0.0000E+00  0.1000E-02  0.1000E-02
     -9.514  0.0000E+00  0.0000E+00  0.1000E-02  0.1000E-02
     -9.473  0.0000E+00  0.0000E+00  0.1000E-02  0.1000E-02
     -9.433  0.0000E+00  0.0000E+00  0.1000E-02  0.1000E-02
     -9.392  0.0000E+00  0.0000E+00  0.1000E-02  0.1000E-02
     -9.352  0.0000E+00  0.0000E+00  0.1000E-02  0.1000E-02
     -9.311  0.0000E+00  0.0000E+00  0.1000E-02  0.1000E-02
     -9.270  0.0000E+00  0.0000E+00  0.1000E-02  0.1000E-02
     -9.230  0.0000E+00  0.0000E+00  0.1000E-02  0.1000E-02
     -9.189  0.0000E+00  0.0000E+00  0.2000E-02  0.1000E-02
     -9.149  0.0000E+00  0.0000E+00  0.2000E-02  0.2000E-02
     -9.108  0.0000E+00  0.0000E+00  0.4000E-02  0.3000E-02
     -9.067  0.0000E+00  0.0000E+00  0.4000E-02  0.4000E-02
     -9.027  0.0000E+00  0.0000E+00  0.5000E-02  0.5000E-02
     -8.986  0.0000E+00  0.0000E+00  0.7000E-02  0.7000E-02
     -8.945  0.0000E+00  0.0000E+00  0.8000E-02  0.7000E-02
     -8.905  0.0000E+00  0.0000E+00  0.9000E-02  0.9000E-02
     -8.864  0.0000E+00  0.0000E+00  0.1000E-01  0.1000E-01
     -8.824  0.0000E+00  0.0000E+00  0.1200E-01  0.1100E-01
     -8.783  0.0000E+00  0.0000E+00  0.1300E-01  0.1300E-01
     -8.742  0.0000E+00  0.0000E+00  0.1500E-01  0.1400E-01
     -8.702  0.0000E+00  0.0000E+00  0.1700E-01  0.1600E-01
     -8.661  0.0000E+00  0.0000E+00  0.1800E-01  0.1700E-01
     -8.621  0.0000E+00  0.2463E-01  0.2000E-01  0.1900E-01
     -8.580  0.1679E-04  0.0000E+00  0.2000E-01  0.2000E-01
     -8.539  0.0000E+00  0.0000E+00  0.2300E-01  0.2200E-01
     -8.499  0.2232E-01  0.0000E+00  0.2691E-01  0.2600E-01
     -8.458  0.0000E+00  0.2463E-01  0.2900E-01  0.2900E-01
     -8.418  0.0000E+00  0.0000E+00  0.3100E-01  0.3100E-01
     -8.377  0.0000E+00  0.0000E+00  0.3300E-01  0.3200E-01
     -8.336  0.0000E+00  0.0000E+00  0.3500E-01  0.3500E-01
     -8.296  0.0000E+00  0.0000E+00  0.3700E-01  0.3600E-01
     -8.255  0.3941E-02  0.1271E-01  0.3916E-01  0.3852E-01
     -8.215  0.0000E+00  0.0000E+00  0.4100E-01  0.4100E-01
     -8.174  0.0000E+00  0.0000E+00  0.4400E-01  0.4300E-01
     -8.133  0.0000E+00  0.0000E+00  0.4600E-01  0.4600E-01
     -8.093  0.0000E+00  0.0000E+00  0.4900E-01  0.4900E-01
     -8.052  0.0000E+00  0.0000E+00  0.5000E-01  0.5000E-01
     -8.012  0.0000E+00  0.0000E+00  0.5300E-01  0.5300E-01
     -7.971  0.0000E+00  0.0000E+00  0.5600E-01  0.5600E-01
     -7.930  0.0000E+00  0.2463E-01  0.5800E-01  0.5800E-01
     -7.890  0.0000E+00  0.0000E+00  0.6100E-01  0.6000E-01
     -7.849  0.0000E+00  0.0000E+00  0.6200E-01  0.6200E-01
     -7.809  0.0000E+00  0.0000E+00  0.6400E-01  0.6400E-01
     -7.768  0.0000E+00  0.0000E+00  0.6600E-01  0.6600E-01
     -7.727  0.0000E+00  0.0000E+00  0.6900E-01  0.6800E-01
     -7.687  0.0000E+00  0.0000E+00  0.7100E-01  0.7100E-01
     -7.646  0.0000E+00  0.0000E+00  0.7400E-01  0.7300E-01
     -7.605  0.0000E+00  0.2463E-01  0.7600E-01  0.7600E-01
     -7.565  0.0000E+00  0.0000E+00  0.7800E-01  0.7800E-01
     -7.524  0.0000E+00  0.0000E+00  0.8000E-01  0.7900E-01
     -7.484  0.0000E+00  0.0000E+00  0.8200E-01  0.8200E-01
     -7.443  0.0000E+00  0.0000E+00  0.8400E-01  0.8400E-01
     -7.402  0.0000E+00  0.0000E+00  0.8700E-01  0.8700E-01
     -7.362  0.4511E-16  0.0000E+00  0.8800E-01  0.8700E-01
     -7.321  0.0000E+00  0.0000E+00  0.9200E-01  0.9100E-01
     -7.281  0.0000E+00  0.0000E+00  0.9400E-01  0.9400E-01
     -7.240  0.0000E+00  0.0000E+00  0.9700E-01  0.9600E-01
     -7.199  0.0000E+00  0.0000E+00  0.9800E-01  0.9800E-01
     -7.159  0.2443E-01  0.0000E+00  0.1010E+00  0.1000E+00
     -7.118  0.0000E+00  0.0000E+00  0.1030E+00  0.1020E+00
     -7.078  0.0000E+00  0.0000E+00  0.1050E+00  0.1050E+00
     -7.037  0.0000E+00  0.0000E+00  0.1100E+00  0.1080E+00
     -6.996  0.0000E+00  0.0000E+00  0.1120E+00  0.1120E+00
     -6.956  0.0000E+00  0.0000E+00  0.1140E+00  0.1130E+00
     -6.915  0.0000E+00  0.0000E+00  0.1170E+00  0.1160E+00
     -6.875  0.0000E+00  0.0000E+00  0.1200E+00  0.1200E+00
     -6.834  0.0000E+00  0.0000E+00  0.1230E+00  0.1230E+00
     -6.793  0.0000E+00  0.0000E+00  0.1280E+00  0.1260E+00
     -6.753  0.0000E+00  0.0000E+00  0.1310E+00  0.1310E+00
     -6.712  0.0000E+00  0.0000E+00  0.1350E+00  0.1340E+00
     -6.672  0.0000E+00  0.0000E+00  0.1390E+00  0.1380E+00
     -6.631  0.0000E+00  0.0000E+00  0.1430E+00  0.1420E+00
     -6.590  0.2463E-01  0.2463E-01  0.1460E+00  0.1450E+00
     -6.550  0.0000E+00  0.0000E+00  0.1510E+00  0.1500E+00
     -6.509  0.0000E+00  0.0000E+00  0.1540E+00  0.1530E+00
     -6.468  0.1933E-01  0.0000E+00  0.1578E+00  0.1570E+00
     -6.428  0.1367E-17  0.2463E-01  0.1600E+00  0.1600E+00
     -6.387  0.0000E+00  0.0000E+00  0.1650E+00  0.1640E+00
     -6.347  0.0000E+00  0.0000E+00  0.1670E+00  0.1670E+00
     -6.306  0.0000E+00  0.0000E+00  0.1690E+00  0.1690E+00
     -6.265  0.2463E-01  0.0000E+00  0.1730E+00  0.1720E+00
     -6.225  0.0000E+00  0.0000E+00  0.1750E+00  0.1750E+00
     -6.184  0.0000E+00  0.0000E+00  0.1760E+00  0.1760E+00
     -6.144  0.0000E+00  0.0000E+00  0.1770E+00  0.1770E+00
     -6.103  0.0000E+00  0.0000E+00  0.1790E+00  0.1790E+00
     -6.062  0.0000E+00  0.0000E+00  0.1790E+00  0.1790E+00
     -6.022  0.0000E+00  0.0000E+00  0.1790E+00  0.1790E+00
     -5.981  0.0000E+00  0.0000E+00  0.1790E+00  0.1790E+00
     -5.941  0.0000E+00  0.0000E+00  0.1790E+00  0.1790E+00
     -5.900  0.0000E+00  0.0000E+00  0.1790E+00  0.1790E+00
     -5.859  0.0000E+00  0.0000E+00  0.1800E+00  0.1800E+00
     -5.819  0.0000E+00  0.0000E+00  0.1800E+00  0.1800E+00
     -5.778  0.0000E+00  0.0000E+00  0.1800E+00  0.1800E+00
     -5.738  0.0000E+00  0.0000E+00  0.1800E+00  0.1800E+00
     -5.697  0.0000E+00  0.0000E+00  0.1810E+00  0.1810E+00
     -5.656  0.0000E+00  0.0000E+00  0.1810E+00  0.1810E+00
     -5.616  0.0000E+00  0.0000E+00  0.1820E+00  0.1810E+00
     -5.575  0.0000E+00  0.0000E+00  0.1820E+00  0.1820E+00
     -5.535  0.0000E+00  0.0000E+00  0.1820E+00  0.1820E+00
     -5.494  0.0000E+00  0.0000E+00  0.1830E+00  0.1830E+00
     -5.453  0.0000E+00  0.0000E+00  0.1840E+00  0.1830E+00
     -5.413  0.0000E+00  0.0000E+00  0.1840E+00  0.1840E+00
     -5.372  0.0000E+00  0.0000E+00  0.1840E+00  0.1840E+00
     -5.331  0.0000E+00  0.0000E+00  0.1840E+00  0.1840E+00
     -5.291  0.0000E+00  0.0000E+00  0.1840E+00  0.1840E+00
     -5.250  0.0000E+00  0.0000E+00  0.1840E+00  0.1840E+00
     -5.210  0.0000E+00  0.0000E+00  0.1840E+00  0.1840E+00
     -5.169  0.0000E+00  0.0000E+00  0.1840E+00  0.1840E+00
     -5.128  0.0000E+00  0.0000E+00  0.1840E+00  0.1840E+00
     -5.088  0.0000E+00  0.0000E+00  0.1840E+00  0.1840E+00
     -5.047  0.0000E+00  0.0000E+00  0.1840E+00  0.1840E+00
     -5.007  0.0000E+00  0.0000E+00  0.1850E+00  0.1840E+00
     -4.966  0.0000E+00  0.0000E+00  0.1850E+00  0.1850E+00
     -4.925  0.0000E+00  0.0000E+00  0.1850E+00  0.1850E+00
     -4.885  0.0000E+00  0.0000E+00  0.1850E+00  0.1850E+00
     -4.844  0.0000E+00  0.0000E+00  0.1850E+00  0.1850E+00
     -4.804  0.0000E+00  0.0000E+00  0.1850E+00  0.1850E+00
     -4.763  0.0000E+00  0.0000E+00  0.1850E+00  0.1850E+00
     -4.722  0.0000E+00  0.0000E+00  0.1850E+00  0.1850E+00
     -4.682  0.0000E+00  0.0000E+00  0.1850E+00  0.1850E+00
     -4.641  0.0000E+00  0.0000E+00  0.1850E+00  0.1850E+00
     -4.601  0.0000E+00  0.0000E+00  0.1850E+00  0.1850E+00
     -4.560  0.0000E+00  0.0000E+00  0.1850E+00  0.1850E+00
     -4.519  0.0000E+00  0.0000E+00  0.1850E+00  0.1850E+00
     -4.479  0.0000E+00  0.0000E+00  0.1850E+00  0.1850E+00
     -4.438  0.0000E+00  0.0000E+00  0.1850E+00  0.1850E+00
     -4.398  0.0000E+00  0.0000E+00  0.1860E+00  0.1850E+00
     -4.357  0.0000E+00  0.0000E+00  0.1860E+00  0.1860E+00
     -4.316  0.0000E+00  0.0000E+00  0.1860E+00  0.1860E+00
     -4.276  0.0000E+00  0.0000E+00  0.1870E+00  0.1860E+00
     -4.235  0.0000E+00  0.0000E+00  0.1870E+00  0.1870E+00
     -4.194  0.0000E+00  0.0000E+00  0.1880E+00  0.1870E+00
     -4.154  0.0000E+00  0.0000E+00  0.1890E+00  0.1880E+00
     -4.113  0.0000E+00  0.0000E+00  0.1890E+00  0.1890E+00
     -4.073  0.0000E+00  0.0000E+00  0.1890E+00  0.1890E+00
     -4.032  0.0000E+00  0.0000E+00  0.1890E+00  0.1890E+00
     -3.991  0.0000E+00  0.0000E+00  0.1890E+00  0.1890E+00
     -3.951  0.0000E+00  0.0000E+00  0.1890E+00  0.1890E+00
     -3.910  0.0000E+00  0.0000E+00  0.1900E+00  0.1900E+00
     -3.870  0.0000E+00  0.0000E+00  0.1900E+00  0.1900E+00
     -3.829  0.0000E+00  0.0000E+00  0.1900E+00  0.1900E+00
     -3.788  0.0000E+00  0.0000E+00  0.1910E+00  0.1900E+00
     -3.748  0.0000E+00  0.0000E+00  0.1910E+00  0.1910E+00
     -3.707  0.0000E+00  0.0000E+00  0.1910E+00  0.1910E+00
     -3.667  0.0000E+00  0.0000E+00  0.1920E+00  0.1920E+00
     -3.626  0.0000E+00  0.0000E+00  0.1920E+00  0.1920E+00
     -3.585  0.0000E+00  0.0000E+00  0.1920E+00  0.1920E+00
     -3.545  0.0000E+00  0.0000E+00  0.1920E+00  0.1920E+00
     -3.504  0.0000E+00  0.0000E+00  0.1920E+00  0.1920E+00
     -3.464  0.0000E+00  0.0000E+00  0.1920E+00  0.1920E+00
     -3.423  0.0000E+00  0.0000E+00  0.1920E+00  0.1920E+00
     -3.382  0.0000E+00  0.0000E+00  0.1930E+00  0.1920E+00
     -3.342  0.0000E+00  0.0000E+00  0.1930E+00  0.1920E+00
     -3.301  0.0000E+00  0.0000E+00  0.1930E+00  0.1930E+00
     -3.261  0.0000E+00  0.0000E+00  0.1930E+00  0.1930E+00
     -3.220  0.0000E+00  0.0000E+00  0.1930E+00  0.1930E+00
     -3.179  0.0000E+00  0.0000E+00  0.1940E+00  0.1940E+00
     -3.139  0.0000E+00  0.0000E+00  0.1940E+00  0.1940E+00
     -3.098  0.0000E+00  0.0000E+00  0.1940E+00  0.1940E+00
     -3.058  0.0000E+00  0.0000E+00  0.1940E+00  0.1940E+00
     -3.017  0.0000E+00  0.0000E+00  0.1940E+00  0.1940E+00
     -2.976  0.0000E+00  0.0000E+00  0.1940E+00  0.1940E+00
     -2.936  0.0000E+00  0.0000E+00  0.1950E+00  0.1940E+00
     -2.895  0.0000E+00  0.0000E+00  0.1950E+00  0.1950E+00
     -2.854  0.0000E+00  0.0000E+00  0.1950E+00  0.1950E+00
     -2.814  0.0000E+00  0.0000E+00  0.1950E+00  0.1950E+00
     -2.773  0.0000E+00  0.0000E+00  0.1950E+00  0.1950E+00
     -2.733  0.0000E+00  0.0000E+00  0.1950E+00  0.1950E+00
     -2.692  0.0000E+00  0.0000E+00  0.1950E+00  0.1950E+00
     -2.651  0.0000E+00  0.0000E+00  0.1950E+00  0.1950E+00
     -2.611  0.0000E+00  0.0000E+00  0.1960E+00  0.1950E+00
     -2.570  0.0000E+00  0.0000E+00  0.1960E+00  0.1960E+00
     -2.530  0.0000E+00  0.0000E+00  0.1960E+00  0.1960E+00
     -2.489  0.0000E+00  0.0000E+00  0.1970E+00  0.1960E+00
     -2.448  0.0000E+00  0.0000E+00  0.1970E+00  0.1970E+00
     -2.408  0.0000E+00  0.0000E+00  0.1980E+00  0.1970E+00
     -2.367  0.0000E+00  0.0000E+00  0.1980E+00  0.1980E+00
     -2.327  0.0000E+00  0.0000E+00  0.1990E+00  0.1990E+00
     -2.286  0.0000E+00  0.0000E+00  0.1990E+00  0.1990E+00
     -2.245  0.0000E+00  0.0000E+00  0.1990E+00  0.1990E+00
     -2.205  0.0000E+00  0.0000E+00  0.2000E+00  0.1990E+00
     -2.164  0.0000E+00  0.0000E+00  0.2020E+00  0.2010E+00
     -2.124  0.0000E+00  0.0000E+00  0.2020E+00  0.2020E+00
     -2.083  0.0000E+00  0.0000E+00  0.2020E+00  0.2020E+00
     -2.042  0.0000E+00  0.0000E+00  0.2020E+00  0.2020E+00
     -2.002  0.0000E+00  0.0000E+00  0.2030E+00  0.2020E+00
     -1.961  0.0000E+00  0.0000E+00  0.2040E+00  0.2040E+00
     -1.921  0.0000E+00  0.0000E+00  0.2040E+00  0.2040E+00
     -1.880  0.0000E+00  0.0000E+00  0.2040E+00  0.2040E+00
     -1.839  0.0000E+00  0.0000E+00  0.2050E+00  0.2040E+00
     -1.799  0.0000E+00  0.0000E+00  0.2050E+00  0.2050E+00
     -1.758  0.0000E+00  0.0000E+00  0.2060E+00  0.2050E+00
     -1.717  0.0000E+00  0.0000E+00  0.2060E+00  0.2060E+00
     -1.677  0.0000E+00  0.0000E+00  0.2060E+00  0.2060E+00
     -1.636  0.0000E+00  0.0000E+00  0.2070E+00  0.2070E+00
     -1.596  0.0000E+00  0.0000E+00  0.2070E+00  0.2070E+00
     -1.555  0.0000E+00  0.0000E+00  0.2070E+00  0.2070E+00
     -1.514  0.0000E+00  0.0000E+00  0.2070E+00  0.2070E+00
     -1.474  0.0000E+00  0.0000E+00  0.2080E+00  0.2070E+00
     -1.433  0.0000E+00  0.0000E+00  0.2080E+00  0.2070E+00
     -1.393  0.0000E+00  0.0000E+00  0.2090E+00  0.2090E+00
     -1.352  0.0000E+00  0.0000E+00  0.2090E+00  0.2090E+00
     -1.311  0.0000E+00  0.0000E+00  0.2090E+00  0.2090E+00
     -1.271  0.0000E+00  0.0000E+00  0.2090E+00  0.2090E+00
     -1.230  0.0000E+00  0.0000E+00  0.2090E+00  0.2090E+00
     -1.190  0.0000E+00  0.0000E+00  0.2090E+00  0.2090E+00
     -1.149  0.0000E+00  0.0000E+00  0.2100E+00  0.2090E+00
     -1.108  0.0000E+00  0.0000E+00  0.2100E+00  0.2100E+00
     -1.068  0.0000E+00  0.0000E+00  0.2100E+00  0.2100E+00
     -1.027  0.0000E+00  0.0000E+00  0.2110E+00  0.2100E+00
     -0.987  0.0000E+00  0.0000E+00  0.2110E+00  0.2110E+00
     -0.946  0.0000E+00  0.0000E+00  0.2110E+00  0.2110E+00
     -0.905  0.0000E+00  0.0000E+00  0.2110E+00  0.2110E+00
     -0.865  0.0000E+00  0.0000E+00  0.2110E+00  0.2110E+00
     -0.824  0.0000E+00  0.0000E+00  0.2110E+00  0.2110E+00
     -0.784  0.0000E+00  0.0000E+00  0.2120E+00  0.2120E+00
     -0.743  0.0000E+00  0.0000E+00  0.2120E+00  0.2120E+00
     -0.702  0.0000E+00  0.0000E+00  0.2130E+00  0.2120E+00
     -0.662  0.0000E+00  0.0000E+00  0.2140E+00  0.2130E+00
     -0.621  0.0000E+00  0.0000E+00  0.2140E+00  0.2140E+00
     -0.580  0.0000E+00  0.0000E+00  0.2140E+00  0.2140E+00
     -0.540  0.0000E+00  0.0000E+00  0.2140E+00  0.2140E+00
     -0.499  0.0000E+00  0.0000E+00  0.2150E+00  0.2140E+00
     -0.459  0.0000E+00  0.0000E+00  0.2150E+00  0.2150E+00
     -0.418  0.0000E+00  0.0000E+00  0.2160E+00  0.2150E+00
     -0.377  0.0000E+00  0.0000E+00  0.2160E+00  0.2160E+00
     -0.337  0.0000E+00  0.0000E+00  0.2160E+00  0.2160E+00
     -0.296  0.0000E+00  0.0000E+00  0.2180E+00  0.2160E+00
     -0.256  0.0000E+00  0.0000E+00  0.2180E+00  0.2180E+00
     -0.215  0.0000E+00  0.0000E+00  0.2190E+00  0.2190E+00
     -0.174  0.0000E+00  0.0000E+00  0.2190E+00  0.2190E+00
     -0.134  0.0000E+00  0.0000E+00  0.2200E+00  0.2190E+00
     -0.093  0.0000E+00  0.0000E+00  0.2210E+00  0.2200E+00
     -0.053  0.0000E+00  0.0000E+00  0.2210E+00  0.2210E+00
     -0.012  0.0000E+00  0.0000E+00  0.2210E+00  0.2210E+00
      0.029  0.0000E+00  0.0000E+00  0.2220E+00  0.2220E+00
      0.069  0.0000E+00  0.0000E+00  0.2230E+00  0.2220E+00
      0.110  0.0000E+00  0.0000E+00  0.2240E+00  0.2230E+00
      0.150  0.0000E+00  0.0000E+00  0.2250E+00  0.2240E+00
      0.191  0.0000E+00  0.0000E+00  0.2250E+00  0.2250E+00
      0.232  0.0000E+00  0.0000E+00  0.2260E+00  0.2250E+00
      0.272  0.0000E+00  0.0000E+00  0.2270E+00  0.2260E+00
      0.313  0.0000E+00  0.0000E+00  0.2270E+00  0.2270E+00
      0.353  0.0000E+00  0.0000E+00  0.2280E+00  0.2270E+00
      0.394  0.0000E+00  0.0000E+00  0.2280E+00  0.2280E+00
      0.435  0.0000E+00  0.0000E+00  0.2280E+00  0.2280E+00
      0.475  0.0000E+00  0.0000E+00  0.2280E+00  0.2280E+00
      0.516  0.0000E+00  0.0000E+00  0.2280E+00  0.2280E+00
      0.557  0.0000E+00  0.0000E+00  0.2290E+00  0.2290E+00
      0.597  0.0000E+00  0.0000E+00  0.2300E+00  0.2290E+00
      0.638  0.0000E+00  0.0000E+00  0.2300E+00  0.2300E+00
      0.678  0.0000E+00  0.2059E-14  0.2310E+00  0.2300E+00
      0.719  0.0000E+00  0.0000E+00  0.2310E+00  0.2310E+00
      0.760  0.0000E+00  0.0000E+00  0.2320E+00  0.2310E+00
      0.800  0.0000E+00  0.0000E+00  0.2330E+00  0.2320E+00
      0.841  0.0000E+00  0.0000E+00  0.2340E+00  0.2340E+00
      0.881  0.0000E+00  0.0000E+00  0.2340E+00  0.2340E+00
      0.922  0.0000E+00  0.0000E+00  0.2350E+00  0.2350E+00
      0.963  0.0000E+00  0.0000E+00  0.2350E+00  0.2360E+00
      1.003  0.0000E+00  0.0000E+00  0.2370E+00  0.2370E+00
      1.044  0.0000E+00  0.0000E+00  0.2390E+00  0.2380E+00
      1.084  0.0000E+00  0.0000E+00  0.2410E+00  0.2410E+00
      1.125  0.0000E+00  0.0000E+00  0.2430E+00  0.2420E+00
      1.166  0.0000E+00  0.2463E-01  0.2450E+00  0.2450E+00
      1.206  0.0000E+00  0.0000E+00  0.2460E+00  0.2460E+00
      1.247  0.0000E+00  0.0000E+00  0.2480E+00  0.2480E+00
      1.287  0.0000E+00  0.0000E+00  0.2490E+00  0.2490E+00
      1.328  0.0000E+00  0.0000E+00  0.2500E+00  0.2490E+00
      1.369  0.0000E+00  0.0000E+00  0.2500E+00  0.2510E+00
      1.409  0.0000E+00  0.0000E+00  0.2520E+00  0.2520E+00
      1.450  0.0000E+00  0.0000E+00  0.2520E+00  0.2520E+00
      1.490  0.0000E+00  0.0000E+00  0.2520E+00  0.2520E+00
      1.531  0.0000E+00  0.0000E+00  0.2520E+00  0.2520E+00
      1.572  0.0000E+00  0.0000E+00  0.2520E+00  0.2520E+00
      1.612  0.0000E+00  0.0000E+00  0.2520E+00  0.2520E+00
      1.653  0.0000E+00  0.0000E+00  0.2520E+00  0.2520E+00
      1.693  0.0000E+00  0.0000E+00  0.2520E+00  0.2520E+00
      1.734  0.0000E+00  0.0000E+00  0.2520E+00  0.2520E+00
      1.775  0.0000E+00  0.0000E+00  0.2520E+00  0.2520E+00
      1.815  0.0000E+00  0.0000E+00  0.2520E+00  0.2520E+00
      1.856  0.0000E+00  0.0000E+00  0.2520E+00  0.2520E+00
      1.897  0.0000E+00  0.0000E+00  0.2520E+00  0.2520E+00
      1.937  0.0000E+00  0.0000E+00  0.2520E+00  0.2520E+00
