       N       E                     dE             d eps       ncg     rms          rms(c)
DAV:   1     0.111982300587E+04    0.11198E+04   -0.21507E+04   352   0.544E+02
DAV:   2     0.348054670746E+03   -0.77177E+03   -0.68467E+03   656   0.109E+02
DAV:   3    -0.133995446021E+02   -0.36145E+03   -0.33522E+03   528   0.881E+01
DAV:   4    -0.510239244408E+02   -0.37624E+02   -0.33832E+02   448   0.293E+01
DAV:   5    -0.530525964075E+02   -0.20287E+01   -0.16265E+01   416   0.669E+00    0.226E+01
DAV:   6    -0.463995319992E+02    0.66531E+01   -0.17099E+01   352   0.135E+01    0.148E+01
DAV:   7    -0.447060644652E+02    0.16935E+01   -0.23444E+01   368   0.296E+01    0.183E+01
DAV:   8    -0.403872625332E+02    0.43188E+01   -0.37257E+00   384   0.145E+01    0.835E+00
DAV:   9    -0.413933585731E+02   -0.10061E+01   -0.27616E+00   400   0.101E+01    0.710E+00
DAV:  10    -0.422660047391E+02   -0.87265E+00   -0.19471E+00   376   0.769E+00    0.735E+00
DAV:  11    -0.427668213362E+02   -0.50082E+00   -0.71078E-01   352   0.541E+00    0.281E+00
DAV:  12    -0.435997622635E+02   -0.83294E+00   -0.30617E-01   368   0.244E+00    0.263E+00
DAV:  13    -0.443824190256E+02   -0.78266E+00   -0.20619E-01   368   0.215E+00    0.195E+00
DAV:  14    -0.454753098860E+02   -0.10929E+01   -0.27477E-01   376   0.184E+00    0.198E+00
DAV:  15    -0.461765716284E+02   -0.70126E+00   -0.24555E-01   352   0.172E+00    0.333E+00
DAV:  16    -0.463116652037E+02   -0.13509E+00   -0.87285E-02   352   0.102E+00    0.114E+00
DAV:  17    -0.474697676157E+02   -0.11581E+01   -0.20196E-01   360   0.118E+00    0.921E-01
DAV:  18    -0.478922407895E+02   -0.42247E+00   -0.62085E-02   384   0.714E-01    0.130E+00
DAV:  19    -0.479358206204E+02   -0.43580E-01   -0.67298E-03   360   0.346E-01    0.112E+00
DAV:  20    -0.482939065273E+02   -0.35809E+00   -0.33880E-02   360   0.519E-01    0.115E+00
DAV:  21    -0.484794348254E+02   -0.18553E+00   -0.14630E-02   408   0.435E-01    0.653E-01
DAV:  22    -0.488471352245E+02   -0.36770E+00   -0.38816E-02   376   0.566E-01    0.595E-01
DAV:  23    -0.489753396962E+02   -0.12820E+00   -0.11752E-02   408   0.397E-01    0.777E-01
DAV:  24    -0.490517107800E+02   -0.76371E-01   -0.46555E-03   376   0.303E-01    0.741E-01
DAV:  25    -0.490945539072E+02   -0.42843E-01   -0.26599E-03   416   0.221E-01    0.457E-01
DAV:  26    -0.491899762927E+02   -0.95422E-01   -0.55633E-03   392   0.202E-01    0.415E-01
DAV:  27    -0.492307275990E+02   -0.40751E-01   -0.23914E-03   424   0.125E-01    0.267E-01
DAV:  28    -0.492548862540E+02   -0.24159E-01   -0.14036E-03   376   0.902E-02    0.252E-01
DAV:  29    -0.492626622412E+02   -0.77760E-02   -0.55621E-04   336   0.560E-02    0.186E-01
DAV:  30    -0.492654118568E+02   -0.27496E-02   -0.25104E-04   304   0.393E-02    0.151E-01
DAV:  31    -0.492664988963E+02   -0.10870E-02   -0.13726E-04   272   0.324E-02    0.112E-01
DAV:  32    -0.492674675933E+02   -0.96870E-03   -0.10770E-04   248   0.313E-02    0.764E-02
DAV:  33    -0.492681431056E+02   -0.67551E-03   -0.45695E-05   232   0.218E-02    0.558E-02
DAV:  34    -0.492689884102E+02   -0.84530E-03   -0.68817E-05   240   0.235E-02    0.312E-02
DAV:  35    -0.492692581179E+02   -0.26971E-03   -0.25749E-05   256   0.136E-02    0.200E-02
DAV:  36    -0.492693591363E+02   -0.10102E-03   -0.19325E-05   248   0.113E-02    0.117E-02
DAV:  37    -0.492693699066E+02   -0.10770E-04   -0.99414E-06   240   0.863E-03
   1 F= -.49269370E+02 E0= -.49269370E+02  d E =-.492694E+02  mag=     5.9997
       N       E                     dE             d eps       ncg     rms          rms(c)
DAV:   1    -0.493673284431E+02   -0.97969E-01   -0.68568E+00   352   0.708E+00    0.800E-01
DAV:   2    -0.493773107789E+02   -0.99823E-02   -0.13939E-01   368   0.136E+00    0.131E+00
DAV:   3    -0.493780051837E+02   -0.69440E-03   -0.14996E-01   368   0.131E+00    0.300E+00
DAV:   4    -0.492856331909E+02    0.92372E-01   -0.32118E-02   368   0.680E-01    0.163E+00
DAV:   5    -0.493545779091E+02   -0.68945E-01   -0.11284E-01   352   0.668E-01    0.274E+00
DAV:   6    -0.492758992587E+02    0.78679E-01   -0.55457E-02   352   0.626E-01    0.169E+00
DAV:   7    -0.493222693022E+02   -0.46370E-01   -0.14948E-01   360   0.645E-01    0.247E+00
DAV:   8    -0.492928738358E+02    0.29395E-01   -0.15291E-01   360   0.854E-01    0.300E+00
DAV:   9    -0.492535819718E+02    0.39292E-01   -0.59060E-02   352   0.615E-01    0.759E-01
DAV:  10    -0.493628502691E+02   -0.10927E+00   -0.20443E-02   360   0.709E-01    0.253E+00
DAV:  11    -0.492743758554E+02    0.88474E-01   -0.80843E-02   352   0.548E-01    0.545E-01
DAV:  12    -0.493667721999E+02   -0.92396E-01   -0.27633E-02   352   0.492E-01    0.296E+00
DAV:  13    -0.492501751068E+02    0.11660E+00   -0.12383E-01   352   0.585E-01    0.705E-01
DAV:  14    -0.493605064727E+02   -0.11033E+00   -0.26252E-02   352   0.578E-01    0.295E+00
DAV:  15    -0.492481364675E+02    0.11237E+00   -0.11991E-01   352   0.572E-01    0.651E-01
DAV:  16    -0.493617516800E+02   -0.11362E+00   -0.24394E-02   352   0.574E-01    0.297E+00
DAV:  17    -0.492468093944E+02    0.11494E+00   -0.12125E-01   352   0.573E-01    0.650E-01
DAV:  18    -0.493608752879E+02   -0.11407E+00   -0.24520E-02   352   0.574E-01    0.299E+00
DAV:  19    -0.492441918444E+02    0.11668E+00   -0.12030E-01   352   0.575E-01    0.678E-01
DAV:  20    -0.493586110446E+02   -0.11442E+00   -0.25801E-02   352   0.574E-01    0.303E+00
DAV:  21    -0.492405757016E+02    0.11804E+00   -0.11935E-01   352   0.575E-01    0.725E-01
DAV:  22    -0.493558946997E+02   -0.11532E+00   -0.27602E-02   352   0.573E-01    0.308E+00
DAV:  23    -0.492369964238E+02    0.11890E+00   -0.11823E-01   352   0.575E-01    0.770E-01
DAV:  24    -0.493532598798E+02   -0.11626E+00   -0.28917E-02   352   0.573E-01    0.312E+00
DAV:  25    -0.492337842139E+02    0.11948E+00   -0.11647E-01   352   0.575E-01    0.815E-01
DAV:  26    -0.493508492915E+02   -0.11707E+00   -0.30354E-02   352   0.573E-01    0.316E+00
DAV:  27    -0.492310156469E+02    0.11983E+00   -0.11497E-01   352   0.576E-01    0.857E-01
DAV:  28    -0.493486838526E+02   -0.11767E+00   -0.32008E-02   352   0.573E-01    0.319E+00
DAV:  29    -0.492286006386E+02    0.12008E+00   -0.11384E-01   352   0.576E-01    0.896E-01
DAV:  30    -0.493466924168E+02   -0.11809E+00   -0.33555E-02   352   0.573E-01    0.322E+00
DAV:  31    -0.492264967585E+02    0.12020E+00   -0.11288E-01   352   0.575E-01    0.933E-01
DAV:  32    -0.493448497715E+02   -0.11835E+00   -0.34869E-02   352   0.573E-01    0.325E+00
DAV:  33    -0.492246471217E+02    0.12020E+00   -0.11198E-01   352   0.575E-01    0.965E-01
DAV:  34    -0.493432120229E+02   -0.11856E+00   -0.35976E-02   352   0.574E-01    0.327E+00
DAV:  35    -0.492230447981E+02    0.12017E+00   -0.11110E-01   352   0.575E-01    0.995E-01
DAV:  36    -0.493416864685E+02   -0.11864E+00   -0.36949E-02   352   0.574E-01    0.329E+00
DAV:  37    -0.492216230929E+02    0.12006E+00   -0.11024E-01   352   0.575E-01    0.102E+00
DAV:  38    -0.493403165726E+02   -0.11869E+00   -0.37845E-02   352   0.574E-01    0.331E+00
DAV:  39    -0.492203534761E+02    0.11996E+00   -0.10942E-01   352   0.575E-01    0.105E+00
DAV:  40    -0.493390559373E+02   -0.11870E+00   -0.38705E-02   352   0.574E-01    0.333E+00
DAV:  41    -0.492192186399E+02    0.11984E+00   -0.10862E-01   352   0.575E-01    0.107E+00
DAV:  42    -0.493378626086E+02   -0.11864E+00   -0.39548E-02   352   0.574E-01    0.334E+00
DAV:  43    -0.492181715082E+02    0.11969E+00   -0.10783E-01   352   0.575E-01    0.109E+00
DAV:  44    -0.493367283751E+02   -0.11856E+00   -0.40379E-02   352   0.574E-01    0.335E+00
DAV:  45    -0.492172083747E+02    0.11952E+00   -0.10707E-01   352   0.575E-01    0.112E+00
DAV:  46    -0.493356361192E+02   -0.11843E+00   -0.41194E-02   352   0.574E-01    0.337E+00
DAV:  47    -0.492263120590E+02    0.10932E+00   -0.99054E-02   352   0.586E-01    0.958E-01
DAV:  48    -0.493443331097E+02   -0.11802E+00   -0.38571E-02   352   0.588E-01    0.328E+00
DAV:  49    -0.492317862813E+02    0.11255E+00   -0.11018E-01   352   0.580E-01    0.943E-01
DAV:  50    -0.493528963475E+02   -0.12111E+00   -0.39725E-02   352   0.587E-01    0.315E+00
DAV:  51    -0.492414250926E+02    0.11147E+00   -0.11225E-01   352   0.577E-01    0.809E-01
DAV:  52    -0.493629630492E+02   -0.12154E+00   -0.12428E-02   360   0.633E-01    0.785E-01
DAV:  53    -0.493582743587E+02    0.46887E-02   -0.25172E-03   376   0.151E-01    0.288E-01
DAV:  54    -0.493662692578E+02   -0.79949E-02   -0.10411E-02   368   0.193E-01    0.301E+00
DAV:  55    -0.492573871454E+02    0.10888E+00   -0.11813E-01   360   0.596E-01    0.682E-01
DAV:  56    -0.493642940545E+02   -0.10691E+00   -0.19628E-02   360   0.578E-01    0.292E+00
DAV:  57    -0.492526491686E+02    0.11164E+00   -0.12472E-01   360   0.574E-01    0.598E-01
DAV:  58    -0.493677663804E+02   -0.11512E+00   -0.21569E-02   360   0.576E-01    0.290E+00
DAV:  59    -0.492542443706E+02    0.11352E+00   -0.12903E-01   360   0.574E-01    0.571E-01
DAV:  60    -0.493688980764E+02   -0.11465E+00   -0.17340E-02   360   0.575E-01
   2 F= -.49368898E+02 E0= -.49368898E+02  d E =-.995282E-01  mag=     6.0000
       N       E                     dE             d eps       ncg     rms          rms(c)
DAV:   1    -0.493986202608E+02   -0.14438E+00   -0.61930E+01   352   0.213E+01    0.352E+00
DAV:   2    -0.497616538625E+02   -0.36303E+00   -0.29501E+00   376   0.667E+00    0.864E+00
DAV:   3    -0.494592416207E+02    0.30241E+00   -0.27401E+00   376   0.699E+00    0.382E+00
DAV:   4    -0.495947811802E+02   -0.13554E+00   -0.37620E-01   360   0.363E+00    0.374E+00
DAV:   5    -0.495385963491E+02    0.56185E-01   -0.17092E-01   368   0.207E+00    0.217E+00
DAV:   6    -0.495787097309E+02   -0.40113E-01   -0.28307E-01   360   0.183E+00    0.245E+00
DAV:   7    -0.495444601651E+02    0.34250E-01   -0.25388E-02   352   0.110E+00    0.201E+00
DAV:   8    -0.495344170997E+02    0.10043E-01   -0.28834E-02   384   0.957E-01    0.174E+00
DAV:   9    -0.495450147602E+02   -0.10598E-01   -0.14756E-02   376   0.658E-01    0.185E+00
DAV:  10    -0.495652443869E+02   -0.20230E-01   -0.11211E-02   352   0.633E-01    0.106E+00
DAV:  11    -0.495645227921E+02    0.72159E-03   -0.24525E-03   384   0.348E-01    0.140E+00
DAV:  12    -0.495498515007E+02    0.14671E-01   -0.20206E-02   368   0.176E-01    0.176E+00
DAV:  13    -0.495638788121E+02   -0.14027E-01   -0.68723E-02   360   0.545E-01    0.157E+00
DAV:  14    -0.495646961804E+02   -0.81737E-03   -0.38657E-02   368   0.511E-01    0.170E+00
DAV:  15    -0.495618059118E+02    0.28903E-02   -0.68285E-02   352   0.491E-01    0.164E+00
DAV:  16    -0.495627492071E+02   -0.94330E-03   -0.43672E-02   368   0.505E-01    0.167E+00
DAV:  17    -0.495626282192E+02    0.12099E-03   -0.68428E-02   352   0.500E-01    0.164E+00
DAV:  18    -0.495621202102E+02    0.50801E-03   -0.42482E-02   352   0.503E-01    0.165E+00
DAV:  19    -0.495632735901E+02   -0.11534E-02   -0.69171E-02   360   0.502E-01    0.164E+00
DAV:  20    -0.495617028543E+02    0.15707E-02   -0.41642E-02   352   0.503E-01    0.164E+00
DAV:  21    -0.495637032478E+02   -0.20004E-02   -0.69158E-02   360   0.501E-01    0.165E+00
DAV:  22    -0.495614594656E+02    0.22438E-02   -0.41488E-02   352   0.503E-01    0.164E+00
DAV:  23    -0.495640139187E+02   -0.25545E-02   -0.69604E-02   360   0.501E-01    0.165E+00
DAV:  24    -0.495612452777E+02    0.27686E-02   -0.41175E-02   352   0.503E-01    0.163E+00
DAV:  25    -0.495642125217E+02   -0.29672E-02   -0.69751E-02   352   0.502E-01    0.166E+00
DAV:  26    -0.495610782538E+02    0.31343E-02   -0.40801E-02   352   0.503E-01    0.163E+00
DAV:  27    -0.495643424670E+02   -0.32642E-02   -0.69731E-02   352   0.502E-01    0.166E+00
DAV:  28    -0.495609544013E+02    0.33881E-02   -0.40531E-02   352   0.503E-01    0.163E+00
DAV:  29    -0.495644315828E+02   -0.34772E-02   -0.69699E-02   352   0.502E-01    0.166E+00
DAV:  30    -0.495608726304E+02    0.35590E-02   -0.40354E-02   352   0.503E-01    0.162E+00
DAV:  31    -0.495644936322E+02   -0.36210E-02   -0.69682E-02   352   0.502E-01    0.166E+00
DAV:  32    -0.495608183949E+02    0.36752E-02   -0.40242E-02   352   0.503E-01    0.162E+00
DAV:  33    -0.495645351413E+02   -0.37167E-02   -0.69667E-02   352   0.502E-01    0.166E+00
DAV:  34    -0.495607835469E+02    0.37516E-02   -0.40170E-02   352   0.504E-01    0.162E+00
DAV:  35    -0.495645613034E+02   -0.37778E-02   -0.69646E-02   352   0.503E-01    0.166E+00
DAV:  36    -0.495607629496E+02    0.37984E-02   -0.40124E-02   352   0.504E-01    0.162E+00
DAV:  37    -0.495645758304E+02   -0.38129E-02   -0.69617E-02   352   0.503E-01    0.166E+00
DAV:  38    -0.495607522316E+02    0.38236E-02   -0.40094E-02   352   0.504E-01    0.162E+00
DAV:  39    -0.495645822790E+02   -0.38300E-02   -0.69580E-02   352   0.503E-01    0.166E+00
DAV:  40    -0.495607491029E+02    0.38332E-02   -0.40076E-02   352   0.504E-01    0.162E+00
DAV:  41    -0.495645820872E+02   -0.38330E-02   -0.69539E-02   352   0.503E-01    0.166E+00
DAV:  42    -0.495607512958E+02    0.38308E-02   -0.40067E-02   352   0.504E-01    0.162E+00
DAV:  43    -0.495645771919E+02   -0.38259E-02   -0.69494E-02   352   0.503E-01    0.166E+00
DAV:  44    -0.495607575505E+02    0.38196E-02   -0.40065E-02   352   0.504E-01    0.162E+00
DAV:  45    -0.495645686469E+02   -0.38111E-02   -0.69446E-02   352   0.503E-01    0.166E+00
DAV:  46    -0.495607667281E+02    0.38019E-02   -0.40069E-02   352   0.504E-01    0.162E+00
DAV:  47    -0.495645389843E+02   -0.37723E-02   -0.69431E-02   352   0.503E-01    0.166E+00
DAV:  48    -0.495607604054E+02    0.37786E-02   -0.40242E-02   352   0.504E-01    0.162E+00
DAV:  49    -0.495645247450E+02   -0.37643E-02   -0.69471E-02   352   0.503E-01    0.166E+00
DAV:  50    -0.495607515492E+02    0.37732E-02   -0.40393E-02   352   0.504E-01    0.162E+00
DAV:  51    -0.495645293038E+02   -0.37778E-02   -0.69333E-02   352   0.503E-01    0.166E+00
DAV:  52    -0.495606204851E+02    0.39088E-02   -0.39647E-02   352   0.504E-01    0.162E+00
DAV:  53    -0.495644311818E+02   -0.38107E-02   -0.66986E-02   352   0.504E-01    0.166E+00
DAV:  54    -0.495605853211E+02    0.38459E-02   -0.37073E-02   352   0.505E-01    0.161E+00
DAV:  55    -0.495644054538E+02   -0.38201E-02   -0.63949E-02   352   0.504E-01    0.165E+00
DAV:  56    -0.495608678866E+02    0.35376E-02   -0.38366E-02   352   0.505E-01    0.162E+00
DAV:  57    -0.495644360255E+02   -0.35681E-02   -0.67320E-02   352   0.504E-01    0.165E+00
DAV:  58    -0.495609250745E+02    0.35110E-02   -0.40202E-02   352   0.505E-01    0.162E+00
DAV:  59    -0.495643301222E+02   -0.34050E-02   -0.68615E-02   352   0.505E-01    0.166E+00
DAV:  60    -0.495608137273E+02    0.35164E-02   -0.39044E-02   352   0.506E-01
   3 F= -.49560814E+02 E0= -.49560814E+02  d E =-.291444E+00  mag=     6.0000
       N       E                     dE             d eps       ncg     rms          rms(c)
DAV:   1    -0.492786131417E+02    0.28572E+00   -0.24956E+02   352   0.431E+01    0.405E+00
DAV:   2    -0.497127151077E+02   -0.43410E+00   -0.51434E+00   368   0.787E+00    0.804E+00
DAV:   3    -0.494956400717E+02    0.21708E+00   -0.28646E+00   368   0.672E+00    0.393E+00
DAV:   4    -0.495926538049E+02   -0.97014E-01   -0.42826E-01   360   0.399E+00    0.350E+00
DAV:   5    -0.495370915249E+02    0.55562E-01   -0.22346E-01   368   0.297E+00    0.271E+00
DAV:   6    -0.495537438431E+02   -0.16652E-01   -0.26323E-01   368   0.185E+00    0.314E+00
DAV:   7    -0.495075487690E+02    0.46195E-01   -0.11714E-01   360   0.136E+00    0.165E+00
DAV:   8    -0.495608718495E+02   -0.53323E-01   -0.11098E-01   368   0.145E+00    0.229E+00
DAV:   9    -0.495162616479E+02    0.44610E-01   -0.19122E-02   360   0.957E-01    0.207E+00
DAV:  10    -0.494986807205E+02    0.17581E-01   -0.22208E-02   376   0.806E-01    0.172E+00
DAV:  11    -0.495080382217E+02   -0.93575E-02   -0.55045E-03   368   0.519E-01    0.154E+00
DAV:  12    -0.495163308859E+02   -0.82927E-02   -0.13039E-02   384   0.389E-01    0.152E+00
DAV:  13    -0.495475391827E+02   -0.31208E-01   -0.10317E-02   352   0.577E-01    0.918E-01
DAV:  14    -0.495435679481E+02    0.39712E-02   -0.69422E-04   336   0.149E-01    0.120E+00
DAV:  15    -0.495270358188E+02    0.16532E-01   -0.42691E-04   312   0.103E-01    0.521E-01
DAV:  16    -0.495570088655E+02   -0.29973E-01   -0.19216E-03   360   0.220E-01    0.113E+00
DAV:  17    -0.495377903013E+02    0.19219E-01   -0.17770E-02   360   0.199E-01    0.164E+00
DAV:  18    -0.495372215684E+02    0.56873E-03   -0.74150E-02   360   0.507E-01    0.125E+00
DAV:  19    -0.495500220050E+02   -0.12800E-01   -0.27039E-02   352   0.483E-01    0.158E+00
DAV:  20    -0.495370512163E+02    0.12971E-01   -0.69833E-02   352   0.484E-01    0.128E+00
DAV:  21    -0.495490261691E+02   -0.11975E-01   -0.26602E-02   368   0.485E-01    0.153E+00
DAV:  22    -0.495381625356E+02    0.10864E-01   -0.70962E-02   352   0.480E-01    0.130E+00
DAV:  23    -0.495480859824E+02   -0.99234E-02   -0.28734E-02   352   0.482E-01    0.151E+00
DAV:  24    -0.495387716789E+02    0.93143E-02   -0.71125E-02   360   0.481E-01    0.130E+00
DAV:  25    -0.495479034819E+02   -0.91318E-02   -0.29028E-02   368   0.482E-01    0.150E+00
DAV:  26    -0.495392902171E+02    0.86133E-02   -0.70911E-02   360   0.481E-01    0.131E+00
DAV:  27    -0.495477051728E+02   -0.84150E-02   -0.29056E-02   352   0.482E-01    0.149E+00
DAV:  28    -0.495396666404E+02    0.80385E-02   -0.70833E-02   352   0.481E-01    0.132E+00
DAV:  29    -0.495475172120E+02   -0.78506E-02   -0.29053E-02   352   0.482E-01    0.149E+00
DAV:  30    -0.495399841778E+02    0.75330E-02   -0.70836E-02   352   0.481E-01    0.132E+00
DAV:  31    -0.495473261897E+02   -0.73420E-02   -0.29029E-02   352   0.482E-01    0.149E+00
DAV:  32    -0.495402542730E+02    0.70719E-02   -0.70854E-02   352   0.481E-01    0.132E+00
DAV:  33    -0.495471432873E+02   -0.68890E-02   -0.29001E-02   352   0.482E-01    0.148E+00
DAV:  34    -0.495404889204E+02    0.66544E-02   -0.70876E-02   352   0.482E-01    0.133E+00
DAV:  35    -0.495469713740E+02   -0.64825E-02   -0.28976E-02   352   0.482E-01    0.148E+00
DAV:  36    -0.495406967405E+02    0.62746E-02   -0.70898E-02   352   0.482E-01    0.133E+00
DAV:  37    -0.495468099185E+02   -0.61132E-02   -0.28949E-02   352   0.482E-01    0.147E+00
DAV:  38    -0.495408861122E+02    0.59238E-02   -0.70920E-02   352   0.482E-01    0.133E+00
DAV:  39    -0.495466547873E+02   -0.57687E-02   -0.28921E-02   352   0.482E-01    0.147E+00
DAV:  40    -0.495410611692E+02    0.55936E-02   -0.70943E-02   352   0.482E-01    0.134E+00
DAV:  41    -0.495465064151E+02   -0.54452E-02   -0.28895E-02   352   0.482E-01    0.147E+00
DAV:  42    -0.495412259383E+02    0.52805E-02   -0.70968E-02   352   0.482E-01    0.134E+00
DAV:  43    -0.495463640016E+02   -0.51381E-02   -0.28868E-02   352   0.483E-01    0.147E+00
DAV:  44    -0.495413824686E+02    0.49815E-02   -0.70991E-02   352   0.482E-01    0.134E+00
DAV:  45    -0.495462248507E+02   -0.48424E-02   -0.28847E-02   352   0.483E-01    0.146E+00
DAV:  46    -0.495415285198E+02    0.46963E-02   -0.71014E-02   352   0.482E-01    0.134E+00
DAV:  47    -0.495461081066E+02   -0.45796E-02   -0.28659E-02   352   0.483E-01    0.146E+00
DAV:  48    -0.495416460786E+02    0.44620E-02   -0.70788E-02   352   0.482E-01    0.134E+00
DAV:  49    -0.495460310423E+02   -0.43850E-02   -0.28399E-02   352   0.482E-01    0.146E+00
DAV:  50    -0.495417296317E+02    0.43014E-02   -0.70452E-02   352   0.482E-01    0.134E+00
DAV:  51    -0.495459993987E+02   -0.42698E-02   -0.28071E-02   352   0.482E-01    0.146E+00
DAV:  52    -0.495416600349E+02    0.43394E-02   -0.69879E-02   352   0.482E-01    0.134E+00
DAV:  53    -0.495460846080E+02   -0.44246E-02   -0.28250E-02   352   0.482E-01    0.146E+00
DAV:  54    -0.495416512402E+02    0.44334E-02   -0.70705E-02   352   0.482E-01    0.134E+00
DAV:  55    -0.495459892944E+02   -0.43381E-02   -0.29576E-02   352   0.483E-01    0.146E+00
DAV:  56    -0.495418882644E+02    0.41010E-02   -0.72356E-02   352   0.483E-01    0.136E+00
DAV:  57    -0.495457320203E+02   -0.38438E-02   -0.28769E-02   352   0.484E-01    0.146E+00
DAV:  58    -0.495419708143E+02    0.37612E-02   -0.70943E-02   352   0.483E-01    0.135E+00
DAV:  59    -0.495456826610E+02   -0.37118E-02   -0.28086E-02   352   0.483E-01    0.146E+00
DAV:  60    -0.495419875870E+02    0.36951E-02   -0.70676E-02   352   0.483E-01
   4 F= -.49541988E+02 E0= -.49541988E+02  d E =-.272618E+00  mag=     6.0000
       N       E                     dE             d eps       ncg     rms          rms(c)
DAV:   1    -0.495488609939E+02   -0.31783E-02   -0.63134E+01   352   0.215E+01    0.244E+00
DAV:   2    -0.497401307060E+02   -0.19127E+00   -0.21485E+00   376   0.531E+00    0.574E+00
DAV:   3    -0.495733844238E+02    0.16675E+00   -0.58348E-01   376   0.499E+00    0.278E+00
DAV:   4    -0.496332257080E+02   -0.59841E-01   -0.22713E-01   368   0.255E+00    0.280E+00
DAV:   5    -0.496064878289E+02    0.26738E-01   -0.36911E-02   352   0.125E+00    0.195E+00
DAV:   6    -0.496004566577E+02    0.60312E-02   -0.10341E-02   368   0.706E-01    0.171E+00
DAV:   7    -0.496071368759E+02   -0.66802E-02   -0.18917E-02   384   0.666E-01    0.129E+00
DAV:   8    -0.496163268464E+02   -0.91900E-02   -0.20282E-02   384   0.755E-01    0.962E-01
DAV:   9    -0.496245421513E+02   -0.82153E-02   -0.86742E-03   392   0.628E-01    0.704E-01
DAV:  10    -0.496343622093E+02   -0.98201E-02   -0.82123E-03   360   0.427E-01    0.203E+00
DAV:  11    -0.495940636698E+02    0.40299E-01   -0.33304E-02   360   0.507E-01    0.916E-01
DAV:  12    -0.496411683047E+02   -0.47105E-01   -0.65549E-02   360   0.512E-01    0.229E+00
DAV:  13    -0.495772458391E+02    0.63922E-01   -0.40038E-02   360   0.539E-01    0.908E-01
DAV:  14    -0.496436222283E+02   -0.66376E-01   -0.56138E-02   360   0.523E-01    0.218E+00
DAV:  15    -0.495850153446E+02    0.58607E-01   -0.43094E-02   360   0.508E-01    0.984E-01
DAV:  16    -0.496420127965E+02   -0.56997E-01   -0.61048E-02   360   0.495E-01    0.206E+00
DAV:  17    -0.495872740374E+02    0.54739E-01   -0.42103E-02   360   0.492E-01    0.101E+00
DAV:  18    -0.496410203787E+02   -0.53746E-01   -0.59405E-02   360   0.493E-01    0.202E+00
DAV:  19    -0.495888049589E+02    0.52215E-01   -0.43004E-02   360   0.491E-01    0.104E+00
DAV:  20    -0.496400164110E+02   -0.51211E-01   -0.58602E-02   360   0.494E-01    0.199E+00
DAV:  21    -0.495899187619E+02    0.50098E-01   -0.43143E-02   360   0.492E-01    0.105E+00
DAV:  22    -0.496392750577E+02   -0.49356E-01   -0.57869E-02   360   0.493E-01    0.197E+00
DAV:  23    -0.495912397783E+02    0.48035E-01   -0.43224E-02   352   0.491E-01    0.107E+00
DAV:  24    -0.496385955389E+02   -0.47356E-01   -0.56398E-02   352   0.493E-01    0.195E+00
DAV:  25    -0.495922471515E+02    0.46348E-01   -0.43562E-02   352   0.491E-01    0.108E+00
DAV:  26    -0.496380228196E+02   -0.45776E-01   -0.55857E-02   352   0.493E-01    0.194E+00
DAV:  27    -0.495930369876E+02    0.44986E-01   -0.44431E-02   352   0.491E-01    0.110E+00
DAV:  28    -0.496374662830E+02   -0.44429E-01   -0.55583E-02   352   0.493E-01    0.192E+00
DAV:  29    -0.495937044304E+02    0.43762E-01   -0.45060E-02   352   0.491E-01    0.111E+00
DAV:  30    -0.496369719821E+02   -0.43268E-01   -0.55171E-02   352   0.493E-01    0.191E+00
DAV:  31    -0.495943283727E+02    0.42644E-01   -0.45555E-02   352   0.491E-01    0.112E+00
DAV:  32    -0.496365434501E+02   -0.42215E-01   -0.54724E-02   352   0.493E-01    0.190E+00
DAV:  33    -0.495949155885E+02    0.41628E-01   -0.45996E-02   352   0.491E-01    0.113E+00
DAV:  34    -0.496361553959E+02   -0.41240E-01   -0.54254E-02   352   0.493E-01    0.189E+00
DAV:  35    -0.495954660992E+02    0.40689E-01   -0.46389E-02   352   0.491E-01    0.114E+00
DAV:  36    -0.496357949107E+02   -0.40329E-01   -0.53799E-02   352   0.492E-01    0.188E+00
DAV:  37    -0.495959604996E+02    0.39834E-01   -0.46760E-02   352   0.491E-01    0.114E+00
DAV:  38    -0.496354546288E+02   -0.39494E-01   -0.53381E-02   352   0.492E-01    0.188E+00
DAV:  39    -0.495964138849E+02    0.39041E-01   -0.47122E-02   352   0.491E-01    0.115E+00
DAV:  40    -0.496351346416E+02   -0.38721E-01   -0.52997E-02   352   0.492E-01    0.187E+00
DAV:  41    -0.495968364593E+02    0.38298E-01   -0.47475E-02   352   0.491E-01    0.116E+00
DAV:  42    -0.496348344631E+02   -0.37998E-01   -0.52640E-02   352   0.492E-01    0.186E+00
DAV:  43    -0.495972407694E+02    0.37594E-01   -0.47812E-02   352   0.491E-01    0.116E+00
DAV:  44    -0.496345487922E+02   -0.37308E-01   -0.52307E-02   352   0.492E-01    0.186E+00
DAV:  45    -0.495976282489E+02    0.36921E-01   -0.48136E-02   352   0.491E-01    0.117E+00
DAV:  46    -0.496342753752E+02   -0.36647E-01   -0.51992E-02   352   0.492E-01    0.185E+00
DAV:  47    -0.495980002963E+02    0.36275E-01   -0.48440E-02   352   0.491E-01    0.117E+00
DAV:  48    -0.496340412066E+02   -0.36041E-01   -0.51630E-02   352   0.492E-01    0.185E+00
DAV:  49    -0.495983218767E+02    0.35719E-01   -0.48627E-02   352   0.491E-01    0.118E+00
DAV:  50    -0.496338344278E+02   -0.35513E-01   -0.51345E-02   352   0.492E-01    0.184E+00
DAV:  51    -0.495986015278E+02    0.35233E-01   -0.48845E-02   352   0.491E-01    0.118E+00
DAV:  52    -0.496336790899E+02   -0.35078E-01   -0.51423E-02   352   0.491E-01    0.184E+00
DAV:  53    -0.495988473438E+02    0.34832E-01   -0.49343E-02   352   0.491E-01    0.119E+00
DAV:  54    -0.496334952562E+02   -0.34648E-01   -0.51400E-02   352   0.491E-01    0.184E+00
DAV:  55    -0.495991393816E+02    0.34356E-01   -0.49980E-02   352   0.491E-01    0.119E+00
DAV:  56    -0.496334847176E+02   -0.34345E-01   -0.51711E-02   352   0.492E-01    0.183E+00
DAV:  57    -0.495993457110E+02    0.34139E-01   -0.50624E-02   352   0.491E-01    0.120E+00
DAV:  58    -0.496333631677E+02   -0.34017E-01   -0.52834E-02   352   0.492E-01    0.184E+00
DAV:  59    -0.495994162537E+02    0.33947E-01   -0.52957E-02   352   0.493E-01    0.121E+00
DAV:  60    -0.496331273496E+02   -0.33711E-01   -0.53070E-02   352   0.494E-01
   5 F= -.49633127E+02 E0= -.49633127E+02  d E =-.363757E+00  mag=     6.0000
       N       E                     dE             d eps       ncg     rms          rms(c)
DAV:   1    -0.496064828233E+02   -0.70666E-02   -0.21630E+00   352   0.399E+00    0.185E+00
DAV:   2    -0.498286313692E+02   -0.22215E+00   -0.15114E+00   408   0.504E+00    0.787E+00
DAV:   3    -0.494920799937E+02    0.33655E+00   -0.13323E+00   392   0.461E+00    0.218E+00
DAV:   4    -0.496397326710E+02   -0.14765E+00   -0.75362E-02   360   0.184E+00    0.103E+00
DAV:   5    -0.496402298703E+02   -0.49720E-03   -0.22274E-02   376   0.906E-01    0.813E-01
DAV:   6    -0.496462141583E+02   -0.59843E-02   -0.68764E-02   376   0.661E-01    0.268E+00
DAV:   7    -0.495997137677E+02    0.46500E-01   -0.60474E-02   360   0.845E-01    0.100E+00
DAV:   8    -0.496456314908E+02   -0.45918E-01   -0.43580E-02   368   0.590E-01    0.207E+00
DAV:   9    -0.496127331102E+02    0.32898E-01   -0.90793E-02   368   0.544E-01    0.131E+00
DAV:  10    -0.496384832524E+02   -0.25750E-01   -0.24157E-02   360   0.513E-01    0.183E+00
DAV:  11    -0.496131549521E+02    0.25328E-01   -0.76261E-02   368   0.492E-01    0.127E+00
DAV:  12    -0.496381291338E+02   -0.24974E-01   -0.24895E-02   360   0.491E-01    0.181E+00
DAV:  13    -0.496127539233E+02    0.25375E-01   -0.81807E-02   368   0.494E-01    0.127E+00
DAV:  14    -0.496380883926E+02   -0.25334E-01   -0.25502E-02   360   0.494E-01    0.180E+00
DAV:  15    -0.496114961608E+02    0.26592E-01   -0.80403E-02   360   0.495E-01    0.125E+00
DAV:  16    -0.496388905793E+02   -0.27394E-01   -0.26752E-02   360   0.492E-01    0.182E+00
DAV:  17    -0.496112334789E+02    0.27657E-01   -0.79525E-02   360   0.493E-01    0.125E+00
DAV:  18    -0.496387723831E+02   -0.27539E-01   -0.25853E-02   360   0.491E-01    0.181E+00
DAV:  19    -0.496119773460E+02    0.26795E-01   -0.81148E-02   360   0.491E-01    0.126E+00
DAV:  20    -0.496387955139E+02   -0.26818E-01   -0.26894E-02   360   0.490E-01    0.181E+00
DAV:  21    -0.496123523819E+02    0.26443E-01   -0.81754E-02   360   0.491E-01    0.127E+00
DAV:  22    -0.496383246993E+02   -0.25972E-01   -0.25646E-02   360   0.490E-01    0.180E+00
DAV:  23    -0.496126969893E+02    0.25628E-01   -0.81717E-02   360   0.491E-01    0.127E+00
DAV:  24    -0.496379815737E+02   -0.25285E-01   -0.25117E-02   352   0.490E-01    0.179E+00
DAV:  25    -0.496129388920E+02    0.25043E-01   -0.81675E-02   352   0.491E-01    0.127E+00
DAV:  26    -0.496377350592E+02   -0.24796E-01   -0.24807E-02   352   0.490E-01    0.178E+00
DAV:  27    -0.496131939148E+02    0.24541E-01   -0.81769E-02   352   0.491E-01    0.128E+00
DAV:  28    -0.496374854849E+02   -0.24292E-01   -0.24460E-02   352   0.490E-01    0.178E+00
DAV:  29    -0.496134582979E+02    0.24027E-01   -0.81916E-02   352   0.491E-01    0.128E+00
DAV:  30    -0.496372284641E+02   -0.23770E-01   -0.24092E-02   352   0.490E-01    0.177E+00
DAV:  31    -0.496137185369E+02    0.23510E-01   -0.82084E-02   352   0.491E-01    0.128E+00
DAV:  32    -0.496369758117E+02   -0.23257E-01   -0.23735E-02   352   0.490E-01    0.177E+00
DAV:  33    -0.496139682045E+02    0.23008E-01   -0.82248E-02   352   0.491E-01    0.129E+00
DAV:  34    -0.496367356160E+02   -0.22767E-01   -0.23395E-02   352   0.490E-01    0.176E+00
DAV:  35    -0.496142051667E+02    0.22530E-01   -0.82408E-02   352   0.491E-01    0.129E+00
DAV:  36    -0.496365094868E+02   -0.22304E-01   -0.23075E-02   352   0.490E-01    0.176E+00
DAV:  37    -0.496144350373E+02    0.22074E-01   -0.82558E-02   352   0.491E-01    0.129E+00
DAV:  38    -0.496362934846E+02   -0.21858E-01   -0.22770E-02   352   0.490E-01    0.175E+00
DAV:  39    -0.496146747265E+02    0.21619E-01   -0.82679E-02   352   0.491E-01    0.130E+00
DAV:  40    -0.496360879379E+02   -0.21413E-01   -0.22475E-02   352   0.490E-01    0.175E+00
DAV:  41    -0.496148867621E+02    0.21201E-01   -0.82806E-02   352   0.491E-01    0.130E+00
DAV:  42    -0.496358937733E+02   -0.21007E-01   -0.22195E-02   352   0.490E-01    0.174E+00
DAV:  43    -0.496150907909E+02    0.20803E-01   -0.82937E-02   352   0.491E-01    0.130E+00
DAV:  44    -0.496357073085E+02   -0.20617E-01   -0.21933E-02   352   0.490E-01    0.174E+00
DAV:  45    -0.496152913340E+02    0.20416E-01   -0.83066E-02   352   0.491E-01    0.130E+00
DAV:  46    -0.496355275420E+02   -0.20236E-01   -0.21681E-02   352   0.490E-01    0.174E+00
DAV:  47    -0.496153886751E+02    0.20139E-01   -0.82619E-02   352   0.492E-01    0.131E+00
DAV:  48    -0.496353252398E+02   -0.19937E-01   -0.20322E-02   352   0.490E-01    0.173E+00
DAV:  49    -0.496155826286E+02    0.19743E-01   -0.81235E-02   352   0.491E-01    0.130E+00
DAV:  50    -0.496352953754E+02   -0.19713E-01   -0.18343E-02   352   0.490E-01    0.172E+00
DAV:  51    -0.496158876864E+02    0.19408E-01   -0.80598E-02   352   0.492E-01    0.131E+00
DAV:  52    -0.496353026856E+02   -0.19415E-01   -0.20794E-02   352   0.490E-01    0.173E+00
DAV:  53    -0.496157617287E+02    0.19541E-01   -0.84153E-02   352   0.491E-01    0.131E+00
DAV:  54    -0.496350439191E+02   -0.19282E-01   -0.22669E-02   352   0.492E-01    0.173E+00
DAV:  55    -0.496158592569E+02    0.19185E-01   -0.83772E-02   352   0.493E-01    0.132E+00
DAV:  56    -0.496348820922E+02   -0.19023E-01   -0.20842E-02   352   0.492E-01    0.172E+00
DAV:  57    -0.496161089619E+02    0.18773E-01   -0.82610E-02   352   0.492E-01    0.132E+00
DAV:  58    -0.496348651132E+02   -0.18756E-01   -0.21342E-02   352   0.490E-01    0.172E+00
DAV:  59    -0.496161075226E+02    0.18758E-01   -0.84438E-02   352   0.493E-01    0.132E+00
DAV:  60    -0.496348755310E+02   -0.18768E-01   -0.23691E-02   352   0.491E-01
   6 F= -.49634876E+02 E0= -.49634876E+02  d E =-.174818E-02  mag=     6.0000
       N       E                     dE             d eps       ncg     rms          rms(c)
DAV:   1    -0.496173754850E+02   -0.12680E-02   -0.11667E-01   352   0.634E-01    0.133E+00
DAV:   2    -0.497249926750E+02   -0.10762E+00   -0.83405E-01   416   0.324E+00    0.546E+00
DAV:   3    -0.495383809380E+02    0.18661E+00   -0.40537E-01   400   0.318E+00    0.154E+00
DAV:   4    -0.496488629730E+02   -0.11048E+00   -0.30452E-02   360   0.110E+00    0.754E-01
DAV:   5    -0.496457393085E+02    0.31237E-02   -0.11022E-02   384   0.524E-01    0.252E+00
DAV:   6    -0.495966593372E+02    0.49080E-01   -0.62614E-02   360   0.687E-01    0.939E-01
DAV:   7    -0.496503273499E+02   -0.53668E-01   -0.42986E-02   360   0.530E-01    0.212E+00
DAV:   8    -0.496002196082E+02    0.50108E-01   -0.79911E-02   360   0.521E-01    0.109E+00
DAV:   9    -0.496477409102E+02   -0.47521E-01   -0.30541E-02   360   0.499E-01    0.202E+00
DAV:  10    -0.496015214240E+02    0.46219E-01   -0.75631E-02   368   0.495E-01    0.110E+00
DAV:  11    -0.496464056018E+02   -0.44884E-01   -0.33252E-02   360   0.495E-01    0.199E+00
DAV:  12    -0.496024973724E+02    0.43908E-01   -0.78376E-02   360   0.495E-01    0.112E+00
DAV:  13    -0.496453011509E+02   -0.42804E-01   -0.28853E-02   360   0.496E-01    0.196E+00
DAV:  14    -0.496033704200E+02    0.41931E-01   -0.78838E-02   360   0.497E-01    0.113E+00
DAV:  15    -0.496448139233E+02   -0.41444E-01   -0.28712E-02   360   0.495E-01    0.194E+00
DAV:  16    -0.496039532658E+02    0.40861E-01   -0.79055E-02   360   0.495E-01    0.113E+00
DAV:  17    -0.496445842302E+02   -0.40631E-01   -0.29074E-02   360   0.494E-01    0.194E+00
DAV:  18    -0.496048425610E+02    0.39742E-01   -0.80480E-02   360   0.495E-01    0.115E+00
DAV:  19    -0.496438145317E+02   -0.38972E-01   -0.26322E-02   360   0.495E-01    0.192E+00
DAV:  20    -0.496053085376E+02    0.38506E-01   -0.79616E-02   352   0.496E-01    0.115E+00
DAV:  21    -0.496434952452E+02   -0.38187E-01   -0.26099E-02   352   0.494E-01    0.191E+00
DAV:  22    -0.496057573383E+02    0.37738E-01   -0.79910E-02   352   0.495E-01    0.115E+00
DAV:  23    -0.496433887036E+02   -0.37631E-01   -0.26440E-02   352   0.493E-01    0.191E+00
DAV:  24    -0.496062915719E+02    0.37097E-01   -0.80758E-02   352   0.495E-01    0.116E+00
DAV:  25    -0.496429395520E+02   -0.36648E-01   -0.25188E-02   352   0.494E-01    0.190E+00
DAV:  26    -0.496067884908E+02    0.36151E-01   -0.81233E-02   352   0.494E-01    0.117E+00
DAV:  27    -0.496425801623E+02   -0.35792E-01   -0.25110E-02   352   0.493E-01    0.189E+00
DAV:  28    -0.496072218804E+02    0.35358E-01   -0.81940E-02   352   0.494E-01    0.118E+00
DAV:  29    -0.496422985081E+02   -0.35077E-01   -0.25119E-02   352   0.493E-01    0.188E+00
DAV:  30    -0.496076482102E+02    0.34650E-01   -0.82592E-02   352   0.494E-01    0.118E+00
DAV:  31    -0.496419794676E+02   -0.34331E-01   -0.24496E-02   352   0.493E-01    0.187E+00
DAV:  32    -0.496080565348E+02    0.33923E-01   -0.82715E-02   352   0.494E-01    0.119E+00
DAV:  33    -0.496416746654E+02   -0.33618E-01   -0.23802E-02   352   0.493E-01    0.186E+00
DAV:  34    -0.496084132744E+02    0.33261E-01   -0.82652E-02   352   0.494E-01    0.119E+00
DAV:  35    -0.496414089540E+02   -0.32996E-01   -0.23232E-02   352   0.493E-01    0.186E+00
DAV:  36    -0.496087351879E+02    0.32674E-01   -0.82662E-02   352   0.494E-01    0.120E+00
DAV:  37    -0.496411704004E+02   -0.32435E-01   -0.22785E-02   352   0.493E-01    0.185E+00
DAV:  38    -0.496090491717E+02    0.32121E-01   -0.82785E-02   352   0.494E-01    0.120E+00
DAV:  39    -0.496409435008E+02   -0.31894E-01   -0.22413E-02   352   0.493E-01    0.185E+00
DAV:  40    -0.496093618021E+02    0.31582E-01   -0.82989E-02   352   0.494E-01    0.120E+00
DAV:  41    -0.496407205171E+02   -0.31359E-01   -0.22075E-02   352   0.493E-01    0.184E+00
DAV:  42    -0.496096820838E+02    0.31038E-01   -0.83223E-02   352   0.494E-01    0.121E+00
DAV:  43    -0.496405002751E+02   -0.30818E-01   -0.21753E-02   352   0.492E-01    0.184E+00
DAV:  44    -0.496099949461E+02    0.30505E-01   -0.83478E-02   352   0.493E-01    0.121E+00
DAV:  45    -0.496402804514E+02   -0.30286E-01   -0.21432E-02   352   0.492E-01    0.183E+00
DAV:  46    -0.496103016000E+02    0.29979E-01   -0.83729E-02   352   0.493E-01    0.122E+00
DAV:  47    -0.496401224355E+02   -0.29821E-01   -0.20773E-02   352   0.492E-01    0.183E+00
DAV:  48    -0.496106962667E+02    0.29426E-01   -0.83254E-02   352   0.493E-01    0.122E+00
DAV:  49    -0.496399554872E+02   -0.29259E-01   -0.20552E-02   352   0.492E-01    0.182E+00
DAV:  50    -0.496109523562E+02    0.29003E-01   -0.84584E-02   352   0.494E-01    0.123E+00
DAV:  51    -0.496398073556E+02   -0.28855E-01   -0.23058E-02   352   0.494E-01    0.182E+00
DAV:  52    -0.496110387398E+02    0.28769E-01   -0.85940E-02   352   0.494E-01    0.123E+00
DAV:  53    -0.496395993275E+02   -0.28561E-01   -0.22785E-02   352   0.493E-01    0.182E+00
DAV:  54    -0.496112222973E+02    0.28377E-01   -0.84440E-02   352   0.495E-01    0.123E+00
DAV:  55    -0.496394296489E+02   -0.28207E-01   -0.18726E-02   352   0.493E-01    0.181E+00
DAV:  56    -0.496115943228E+02    0.27835E-01   -0.82349E-02   352   0.493E-01    0.123E+00
DAV:  57    -0.496393805386E+02   -0.27786E-01   -0.17183E-02   352   0.492E-01    0.181E+00
DAV:  58    -0.496117730153E+02    0.27608E-01   -0.83588E-02   352   0.493E-01    0.123E+00
DAV:  59    -0.496392729549E+02   -0.27500E-01   -0.19042E-02   352   0.492E-01    0.181E+00
DAV:  60    -0.496118038663E+02    0.27469E-01   -0.86130E-02   352   0.494E-01
   7 F= -.49611804E+02 E0= -.49611804E+02  d E =0.213235E-01  mag=     6.0000
       N       E                     dE             d eps       ncg     rms          rms(c)
DAV:   1    -0.496398076701E+02   -0.53472E-03   -0.92502E-02   352   0.939E-01    0.112E+00
DAV:   2    -0.497232496639E+02   -0.83442E-01   -0.69743E-01   416   0.292E+00    0.511E+00
DAV:   3    -0.495509155341E+02    0.17233E+00   -0.34413E-01   400   0.291E+00    0.145E+00
DAV:   4    -0.496508216363E+02   -0.99906E-01   -0.24957E-02   360   0.980E-01    0.732E-01
DAV:   5    -0.496467555444E+02    0.40661E-02   -0.46975E-03   384   0.447E-01    0.550E-01
DAV:   6    -0.496493947497E+02   -0.26392E-02   -0.23710E-02   384   0.309E-01    0.257E+00
DAV:   7    -0.495942993724E+02    0.55095E-01   -0.74590E-02   368   0.638E-01    0.880E-01
DAV:   8    -0.496515388602E+02   -0.57239E-01   -0.26749E-02   368   0.523E-01    0.215E+00
DAV:   9    -0.496019687679E+02    0.49570E-01   -0.91428E-02   360   0.506E-01    0.109E+00
DAV:  10    -0.496480125032E+02   -0.46044E-01   -0.19495E-02   360   0.501E-01    0.201E+00
DAV:  11    -0.496021316664E+02    0.45881E-01   -0.85298E-02   360   0.495E-01    0.107E+00
DAV:  12    -0.496475611793E+02   -0.45430E-01   -0.19955E-02   360   0.496E-01    0.200E+00
DAV:  13    -0.496034277855E+02    0.44133E-01   -0.88835E-02   368   0.497E-01    0.109E+00
DAV:  14    -0.496468613876E+02   -0.43434E-01   -0.18079E-02   360   0.494E-01    0.198E+00
DAV:  15    -0.496042120747E+02    0.42649E-01   -0.90969E-02   360   0.495E-01    0.111E+00
DAV:  16    -0.496464485958E+02   -0.42237E-01   -0.18168E-02   360   0.495E-01    0.197E+00
DAV:  17    -0.496046446208E+02    0.41804E-01   -0.91041E-02   360   0.496E-01    0.111E+00
DAV:  18    -0.496458572815E+02   -0.41213E-01   -0.15948E-02   360   0.495E-01    0.195E+00
DAV:  19    -0.496054232714E+02    0.40434E-01   -0.92015E-02   360   0.495E-01    0.112E+00
DAV:  20    -0.496456561562E+02   -0.40233E-01   -0.17401E-02   352   0.494E-01    0.194E+00
DAV:  21    -0.496059573525E+02    0.39699E-01   -0.92856E-02   352   0.496E-01    0.113E+00
DAV:  22    -0.496451674596E+02   -0.39210E-01   -0.15980E-02   352   0.494E-01    0.193E+00
DAV:  23    -0.496067087001E+02    0.38459E-01   -0.93123E-02   352   0.495E-01    0.114E+00
DAV:  24    -0.496447075092E+02   -0.37999E-01   -0.15062E-02   352   0.494E-01    0.192E+00
DAV:  25    -0.496072315401E+02    0.37476E-01   -0.93155E-02   352   0.494E-01    0.115E+00
DAV:  26    -0.496443028191E+02   -0.37071E-01   -0.14213E-02   352   0.493E-01    0.191E+00
DAV:  27    -0.496076974402E+02    0.36605E-01   -0.93133E-02   352   0.494E-01    0.115E+00
DAV:  28    -0.496439535549E+02   -0.36256E-01   -0.13567E-02   352   0.493E-01    0.190E+00
DAV:  29    -0.496081376950E+02    0.35816E-01   -0.93191E-02   352   0.494E-01    0.116E+00
DAV:  30    -0.496436406575E+02   -0.35503E-01   -0.13022E-02   352   0.493E-01    0.189E+00
DAV:  31    -0.496085639487E+02    0.35077E-01   -0.93338E-02   352   0.494E-01    0.116E+00
DAV:  32    -0.496433424211E+02   -0.34778E-01   -0.12532E-02   352   0.493E-01    0.188E+00
DAV:  33    -0.496090005625E+02    0.34342E-01   -0.93527E-02   352   0.493E-01    0.117E+00
DAV:  34    -0.496430541281E+02   -0.34054E-01   -0.12070E-02   352   0.492E-01    0.187E+00
DAV:  35    -0.496094328459E+02    0.33621E-01   -0.93740E-02   352   0.493E-01    0.117E+00
DAV:  36    -0.496427752305E+02   -0.33342E-01   -0.11628E-02   352   0.492E-01    0.187E+00
DAV:  37    -0.496098625552E+02    0.32913E-01   -0.93931E-02   352   0.493E-01    0.118E+00
DAV:  38    -0.496425046359E+02   -0.32642E-01   -0.11204E-02   352   0.492E-01    0.186E+00
DAV:  39    -0.496103016746E+02    0.32203E-01   -0.94087E-02   352   0.492E-01    0.118E+00
DAV:  40    -0.496422370488E+02   -0.31935E-01   -0.10793E-02   352   0.491E-01    0.185E+00
DAV:  41    -0.496107702756E+02    0.31467E-01   -0.94155E-02   352   0.492E-01    0.119E+00
DAV:  42    -0.496419755323E+02   -0.31205E-01   -0.10394E-02   352   0.491E-01    0.184E+00
DAV:  43    -0.496113074137E+02    0.30668E-01   -0.94049E-02   352   0.491E-01    0.119E+00
DAV:  44    -0.496417131410E+02   -0.30406E-01   -0.10001E-02   352   0.490E-01    0.183E+00
DAV:  45    -0.496119653845E+02    0.29748E-01   -0.93657E-02   352   0.490E-01    0.120E+00
DAV:  46    -0.496414383456E+02   -0.29473E-01   -0.96036E-03   352   0.489E-01    0.181E+00
DAV:  47    -0.496128429187E+02    0.28595E-01   -0.92133E-02   352   0.487E-01    0.120E+00
DAV:  48    -0.496411727582E+02   -0.28330E-01   -0.77686E-03   352   0.486E-01    0.149E+00
DAV:  49    -0.496261771149E+02    0.14996E-01   -0.64373E-02   352   0.431E-01    0.118E+00
DAV:  50    -0.496394788506E+02   -0.13302E-01   -0.46950E-03   352   0.433E-01    0.174E-01
DAV:  51    -0.496535772972E+02   -0.14098E-01   -0.21476E-03   360   0.162E-01    0.109E+00
DAV:  52    -0.496285199276E+02    0.25057E-01   -0.10683E-03   352   0.186E-01    0.106E+00
DAV:  53    -0.496221100481E+02    0.64099E-02   -0.59294E-05   256   0.342E-02    0.106E+00
DAV:  54    -0.496205431779E+02    0.15669E-02   -0.94905E-06   224   0.103E-02    0.106E+00
DAV:  55    -0.496198926191E+02    0.65056E-03   -0.40398E-06   216   0.776E-03    0.106E+00
DAV:  56    -0.496198626030E+02    0.30016E-04   -0.54311E-06   232   0.120E-02
   8 F= -.49619863E+02 E0= -.49619863E+02  d E =0.132647E-01  mag=     6.0000
       N       E                     dE             d eps       ncg     rms          rms(c)
DAV:   1    -0.496236740058E+02   -0.37814E-02   -0.34620E-01   360   0.159E+00    0.112E+00
DAV:   2    -0.497317161747E+02   -0.10804E+00   -0.70611E-01   416   0.299E+00    0.527E+00
DAV:   3    -0.495508090001E+02    0.18091E+00   -0.38660E-01   392   0.295E+00    0.142E+00
DAV:   4    -0.496542592840E+02   -0.10345E+00   -0.25778E-02   360   0.990E-01    0.723E-01
DAV:   5    -0.496506551452E+02    0.36041E-02   -0.50121E-03   384   0.452E-01    0.548E-01
DAV:   6    -0.496510330506E+02   -0.37791E-03   -0.28566E-03   384   0.317E-01    0.378E-01
DAV:   7    -0.496544027908E+02   -0.33697E-02   -0.10029E-03   368   0.161E-01    0.221E-01
DAV:   8    -0.496566098136E+02   -0.22070E-02   -0.78068E-03   360   0.193E-01    0.274E+00
DAV:   9    -0.495748618124E+02    0.81748E-01   -0.83963E-02   368   0.590E-01    0.650E-01
DAV:  10    -0.496596148583E+02   -0.84753E-01   -0.29162E-02   360   0.512E-01    0.249E+00
DAV:  11    -0.495794822844E+02    0.80133E-01   -0.90324E-02   360   0.516E-01    0.776E-01
DAV:  12    -0.496582062839E+02   -0.78724E-01   -0.17628E-02   360   0.511E-01    0.234E+00
DAV:  13    -0.495842401337E+02    0.73966E-01   -0.97318E-02   360   0.506E-01    0.828E-01
DAV:  14    -0.496572991827E+02   -0.73059E-01   -0.15107E-02   360   0.507E-01    0.229E+00
DAV:  15    -0.495875984892E+02    0.69701E-01   -0.10012E-01   360   0.506E-01    0.863E-01
DAV:  16    -0.496561451789E+02   -0.68547E-01   -0.87004E-03   360   0.505E-01    0.195E+00
DAV:  17    -0.496031223560E+02    0.53023E-01   -0.75856E-02   360   0.451E-01    0.849E-01
DAV:  18    -0.496551807900E+02   -0.52058E-01   -0.77243E-03   360   0.453E-01    0.205E+00
DAV:  19    -0.495996858039E+02    0.55495E-01   -0.86454E-02   360   0.472E-01    0.871E-01
DAV:  20    -0.496548030250E+02   -0.55117E-01   -0.67539E-03   360   0.471E-01    0.137E+00
DAV:  21    -0.496282119374E+02    0.26591E-01   -0.35352E-02   360   0.352E-01    0.811E-01
DAV:  22    -0.496525664825E+02   -0.24355E-01   -0.32860E-03   360   0.358E-01    0.111E-01
DAV:  23    -0.496575080779E+02   -0.49416E-02   -0.76902E-04   312   0.102E-01    0.699E-01
DAV:  24    -0.496457468001E+02    0.11761E-01   -0.46600E-04   328   0.121E-01    0.671E-01
DAV:  25    -0.496426283729E+02    0.31184E-02   -0.27790E-05   248   0.223E-02    0.674E-01
DAV:  26    -0.496419267368E+02    0.70164E-03   -0.49949E-06   216   0.718E-03    0.675E-01
DAV:  27    -0.496413981623E+02    0.52857E-03   -0.49294E-06   200   0.114E-02    0.686E-01
DAV:  28    -0.496403264211E+02    0.10717E-02   -0.21366E-05   224   0.252E-02    0.714E-01
DAV:  29    -0.496403721325E+02   -0.45711E-04   -0.34709E-06   216   0.744E-03
   9 F= -.49640372E+02 E0= -.49640372E+02  d E =-.724478E-02  mag=     6.0000
       N       E                     dE             d eps       ncg     rms          rms(c)
DAV:   1    -0.496455584116E+02   -0.52320E-02   -0.13844E+00   352   0.317E+00    0.846E-01
DAV:   2    -0.497158727927E+02   -0.70314E-01   -0.50328E-01   392   0.241E+00    0.472E+00
DAV:   3    -0.495587292015E+02    0.15714E+00   -0.31016E-01   368   0.237E+00    0.110E+00
DAV:   4    -0.496625750405E+02   -0.10385E+00   -0.18899E-02   360   0.806E-01    0.566E-01
DAV:   5    -0.496597075411E+02    0.28675E-02   -0.26922E-03   376   0.305E-01    0.451E-01
DAV:   6    -0.496590741644E+02    0.63338E-03   -0.10627E-03   384   0.205E-01    0.346E-01
DAV:   7    -0.496612361500E+02   -0.21620E-02   -0.66377E-04   352   0.121E-01    0.210E-01
DAV:   8    -0.496623137611E+02   -0.10776E-02   -0.34324E-04   304   0.126E-01    0.176E-01
DAV:   9    -0.496624381413E+02   -0.12438E-03   -0.22807E-04   256   0.127E-01    0.114E-01
DAV:  10    -0.496630921133E+02   -0.65397E-03   -0.10515E-04   248   0.770E-02    0.854E-02
DAV:  11    -0.496632174101E+02   -0.12530E-03   -0.61263E-05   240   0.530E-02    0.540E-02
DAV:  12    -0.496633733991E+02   -0.15599E-03   -0.30725E-05   240   0.344E-02    0.298E-02
DAV:  13    -0.496634817667E+02   -0.10837E-03   -0.18782E-05   256   0.230E-02    0.164E-02
DAV:  14    -0.496635430457E+02   -0.61279E-04   -0.63357E-06   248   0.135E-02
  10 F= -.49663543E+02 E0= -.49663543E+02  d E =-.304157E-01  mag=     6.0000
       N       E                     dE             d eps       ncg     rms          rms(c)
DAV:   1    -0.496646172444E+02   -0.11355E-02   -0.55366E+00   352   0.634E+00    0.509E-01
DAV:   2    -0.496891158870E+02   -0.24499E-01   -0.24358E-01   376   0.164E+00    0.384E+00
DAV:   3    -0.495634901738E+02    0.12563E+00   -0.19194E-01   368   0.124E+00    0.783E-01
DAV:   4    -0.496633207651E+02   -0.99831E-01   -0.17582E-02   360   0.815E-01    0.318E-01
DAV:   5    -0.496701625669E+02   -0.68418E-02   -0.37735E-03   368   0.338E-01    0.240E-01
DAV:   6    -0.496699080849E+02    0.25448E-03   -0.11154E-03   360   0.218E-01    0.150E-01
DAV:   7    -0.496702621609E+02   -0.35408E-03   -0.73705E-04   368   0.171E-01    0.131E-01
DAV:   8    -0.496702493580E+02    0.12803E-04   -0.38853E-04   280   0.155E-01
  11 F= -.49670249E+02 E0= -.49670249E+02  d E =-.371220E-01  mag=     6.0000
       N       E                     dE             d eps       ncg     rms          rms(c)
DAV:   1    -0.496788206539E+02   -0.85585E-02   -0.35964E+00   352   0.510E+00    0.437E-01
DAV:   2    -0.496893930589E+02   -0.10572E-01   -0.78473E-02   376   0.127E+00    0.129E+00
DAV:   3    -0.496766659442E+02    0.12727E-01   -0.26990E-02   376   0.107E+00    0.367E-01
DAV:   4    -0.496829196676E+02   -0.62537E-02   -0.55344E-03   360   0.460E-01    0.259E-01
DAV:   5    -0.496826268774E+02    0.29279E-03   -0.12337E-03   368   0.247E-01    0.122E-01
DAV:   6    -0.496828935633E+02   -0.26669E-03   -0.54551E-04   360   0.177E-01    0.126E-01
DAV:   7    -0.496828729543E+02    0.20609E-04   -0.39561E-04   304   0.141E-01
  12 F= -.49682873E+02 E0= -.49682873E+02  d E =-.126236E-01  mag=     6.0000
       N       E                     dE             d eps       ncg     rms          rms(c)
DAV:   1    -0.496758719552E+02    0.70216E-02   -0.16179E+01   352   0.108E+01    0.969E-01
DAV:   2    -0.497263668333E+02   -0.50495E-01   -0.37365E-01   376   0.281E+00    0.281E+00
DAV:   3    -0.496717776243E+02    0.54589E-01   -0.11374E-01   360   0.240E+00    0.738E-01
DAV:   4    -0.496929737160E+02   -0.21196E-01   -0.24313E-02   352   0.992E-01    0.543E-01
DAV:   5    -0.496914923504E+02    0.14814E-02   -0.54121E-03   368   0.524E-01    0.264E-01
DAV:   6    -0.496924478822E+02   -0.95553E-03   -0.25181E-03   368   0.376E-01    0.281E-01
DAV:   7    -0.496922872133E+02    0.16067E-03   -0.20811E-03   392   0.316E-01    0.157E-01
DAV:   8    -0.496924399785E+02   -0.15277E-03   -0.88099E-04   368   0.173E-01    0.887E-02
DAV:   9    -0.496926390108E+02   -0.19903E-03   -0.21347E-04   272   0.985E-02    0.491E-02
DAV:  10    -0.496927501047E+02   -0.11109E-03   -0.90615E-05   248   0.569E-02    0.422E-02
DAV:  11    -0.496928032489E+02   -0.53144E-04   -0.24727E-05   224   0.309E-02
  13 F= -.49692803E+02 E0= -.49692803E+02  d E =-.225539E-01  mag=     6.0000
       N       E                     dE             d eps       ncg     rms          rms(c)
DAV:   1    -0.496939909544E+02   -0.12408E-02   -0.12466E+00   352   0.302E+00    0.225E-01
DAV:   2    -0.496957830178E+02   -0.17921E-02   -0.22589E-02   368   0.661E-01    0.462E-01
DAV:   3    -0.496948154807E+02    0.96754E-03   -0.54024E-03   360   0.516E-01    0.192E-01
DAV:   4    -0.496953207101E+02   -0.50523E-03   -0.13548E-03   368   0.203E-01    0.173E-01
DAV:   5    -0.496952904297E+02    0.30280E-04   -0.65978E-04   248   0.147E-01
  14 F= -.49695290E+02 E0= -.49695290E+02  d E =-.248718E-02  mag=     6.0000
       N       E                     dE             d eps       ncg     rms          rms(c)
DAV:   1    -0.496918207367E+02    0.35000E-02   -0.48816E+00   352   0.597E+00    0.451E-01
DAV:   2    -0.496985562370E+02   -0.67355E-02   -0.87405E-02   368   0.127E+00    0.917E-01
DAV:   3    -0.496947331018E+02    0.38231E-02   -0.20801E-02   360   0.995E-01    0.339E-01
DAV:   4    -0.496968267334E+02   -0.20936E-02   -0.45797E-03   368   0.378E-01    0.361E-01
DAV:   5    -0.496963956730E+02    0.43106E-03   -0.30389E-03   360   0.303E-01    0.171E-01
DAV:   6    -0.496970719796E+02   -0.67631E-03   -0.12191E-03   360   0.206E-01    0.184E-01
DAV:   7    -0.496970219671E+02    0.50012E-04   -0.70315E-04   344   0.181E-01
  15 F= -.49697022E+02 E0= -.49697022E+02  d E =-.421872E-02  mag=     6.0000
       N       E                     dE             d eps       ncg     rms          rms(c)
DAV:   1    -0.496974903351E+02   -0.41836E-03   -0.58636E-01   368   0.207E+00    0.168E-01
DAV:   2    -0.496985165516E+02   -0.10262E-02   -0.11361E-02   368   0.489E-01    0.320E-01
DAV:   3    -0.496979912244E+02    0.52533E-03   -0.35332E-03   368   0.374E-01    0.118E-01
DAV:   4    -0.496982566497E+02   -0.26543E-03   -0.68644E-04   280   0.140E-01    0.133E-01
DAV:   5    -0.496981787332E+02    0.77917E-04   -0.27554E-04   240   0.106E-01
  16 F= -.49698179E+02 E0= -.49698179E+02  d E =-.115677E-02  mag=     6.0000
       N       E                     dE             d eps       ncg     rms          rms(c)
DAV:   1    -0.496963293115E+02    0.19273E-02   -0.26628E+00   352   0.441E+00    0.357E-01
DAV:   2    -0.497010531372E+02   -0.47238E-02   -0.51262E-02   368   0.104E+00    0.748E-01
DAV:   3    -0.496975255490E+02    0.35276E-02   -0.14175E-02   368   0.806E-01    0.190E-01
DAV:   4    -0.496990647950E+02   -0.15392E-02   -0.17609E-03   368   0.218E-01    0.224E-01
DAV:   5    -0.496988669666E+02    0.19783E-03   -0.11486E-03   312   0.205E-01    0.146E-01
DAV:   6    -0.496991726621E+02   -0.30570E-03   -0.88764E-04   352   0.158E-01    0.120E-01
DAV:   7    -0.496991766772E+02   -0.40152E-05   -0.27164E-04   280   0.133E-01
  17 F= -.49699177E+02 E0= -.49699177E+02  d E =-.215471E-02  mag=     6.0000
       N       E                     dE             d eps       ncg     rms          rms(c)
DAV:   1    -0.496987548517E+02    0.41781E-03   -0.11305E+00   352   0.287E+00    0.221E-01
DAV:   2    -0.497003110839E+02   -0.15562E-02   -0.21769E-02   360   0.642E-01    0.417E-01
DAV:   3    -0.496995862154E+02    0.72487E-03   -0.66857E-03   360   0.481E-01    0.197E-01
DAV:   4    -0.496999044218E+02   -0.31821E-03   -0.14750E-03   360   0.212E-01    0.177E-01
DAV:   5    -0.496998620802E+02    0.42342E-04   -0.42365E-04   256   0.141E-01
  18 F= -.49699862E+02 E0= -.49699862E+02  d E =-.685403E-03  mag=     6.0000
       N       E                     dE             d eps       ncg     rms          rms(c)
DAV:   1    -0.496996422365E+02    0.26219E-03   -0.45931E-01   368   0.183E+00    0.154E-01
DAV:   2    -0.497003714748E+02   -0.72924E-03   -0.90797E-03   360   0.415E-01    0.313E-01
DAV:   3    -0.496997596250E+02    0.61185E-03   -0.28666E-03   360   0.321E-01    0.103E-01
DAV:   4    -0.497001491994E+02   -0.38957E-03   -0.54672E-04   256   0.128E-01    0.140E-01
DAV:   5    -0.497000622457E+02    0.86954E-04   -0.27302E-04   232   0.108E-01
  19 F= -.49700062E+02 E0= -.49700062E+02  d E =-.885568E-03  mag=     6.0000
