 running on   32 total cores
 distrk:  each k-point on   32 cores,    1 groups
 distr:  one band on    8 cores,    4 groups
 using from now: INCAR     
 vasp.5.3.5 31Mar14 (build Feb 01 2018 12:10:03) gamma-only                     
  
 POSCAR found type information on POSCAR  Ag
 POSCAR found :  1 types and       9 ions
 scaLAPACK will be used
 LDA part: xc-table for Pade appr. of Perdew
 POSCAR, INCAR and KPOINTS ok, starting setup
 WARNING: small aliasing (wrap around) errors must be expected
 FFT: planning ...
 WAVECAR not read
 entering main loop
       N       E                     dE             d eps       ncg     rms          rms(c)
DAV:   1     0.876494472881E+03    0.87649E+03   -0.14968E+04   256   0.546E+02
DAV:   2     0.339488518157E+03   -0.53701E+03   -0.47651E+03   480   0.988E+01
DAV:   3     0.227455831311E+02   -0.31674E+03   -0.29477E+03   384   0.908E+01
DAV:   4    -0.132638021070E+02   -0.36009E+02   -0.34388E+02   280   0.351E+01
DAV:   5    -0.141208099508E+02   -0.85701E+00   -0.85377E+00   280   0.624E+00    0.166E+01
DAV:   6    -0.249345262055E+01    0.11627E+02   -0.36703E+01   264   0.148E+01    0.791E+00
DAV:   7    -0.236256906329E+01    0.13088E+00   -0.16318E+00   288   0.585E+00    0.432E+00
DAV:   8    -0.528634527692E+01   -0.29238E+01   -0.16304E+00   280   0.361E+00    0.210E+00
DAV:   9    -0.747195556640E+01   -0.21856E+01   -0.66635E-01   272   0.202E+00    0.966E-01
DAV:  10    -0.974868721775E+01   -0.22767E+01   -0.61806E-01   256   0.187E+00    0.237E+00
DAV:  11    -0.975483080447E+01   -0.61436E-02   -0.11384E-02   296   0.379E-01    0.239E+00
DAV:  12    -0.974631929495E+01    0.85115E-02   -0.66468E-04   216   0.101E-01    0.237E+00
DAV:  13    -0.977031196417E+01   -0.23993E-01   -0.24845E-02   288   0.757E-01    0.260E+00
DAV:  14    -0.977709734731E+01   -0.67854E-02   -0.10168E-03   288   0.170E-01    0.259E+00
DAV:  15    -0.993495853822E+01   -0.15786E+00   -0.76578E-03   272   0.239E-01    0.259E+00
DAV:  16    -0.100749836728E+02   -0.14003E+00   -0.19933E-01   272   0.147E+00    0.294E+00
DAV:  17    -0.990049217494E+01    0.17449E+00   -0.74909E-02   272   0.763E-01    0.316E+00
DAV:  18    -0.111685953051E+02   -0.12681E+01   -0.60476E-01   256   0.153E+00    0.307E+00
DAV:  19    -0.122794683685E+02   -0.11109E+01   -0.73752E-01   272   0.261E+00    0.223E+00
DAV:  20    -0.127509838557E+02   -0.47152E+00   -0.43664E-01   288   0.383E+00    0.113E+00
DAV:  21    -0.127475908877E+02    0.33930E-02   -0.59488E-02   296   0.116E+00    0.117E+00
DAV:  22    -0.127564843574E+02   -0.88935E-02   -0.20840E-03   288   0.205E-01    0.114E+00
DAV:  23    -0.133557168846E+02   -0.59923E+00   -0.12411E-01   256   0.924E-01    0.719E-01
DAV:  24    -0.137339652833E+02   -0.37825E+00   -0.51059E-02   272   0.555E-01    0.447E-01
DAV:  25    -0.139012440928E+02   -0.16728E+00   -0.15376E-02   272   0.315E-01    0.382E-01
DAV:  26    -0.139961102172E+02   -0.94866E-01   -0.14904E-02   280   0.416E-01    0.293E-01
DAV:  27    -0.140171446782E+02   -0.21034E-01   -0.14302E-03   280   0.144E-01    0.231E-01
DAV:  28    -0.140380440892E+02   -0.20899E-01   -0.14525E-03   248   0.158E-01    0.183E-01
DAV:  29    -0.140465163301E+02   -0.84722E-02   -0.13750E-03   272   0.188E-01    0.104E-01
DAV:  30    -0.140475691978E+02   -0.10529E-02   -0.28044E-04   208   0.576E-02    0.768E-02
DAV:  31    -0.140480506406E+02   -0.48144E-03   -0.34492E-04   176   0.947E-02    0.454E-02
DAV:  32    -0.140487099526E+02   -0.65931E-03   -0.17602E-04   192   0.517E-02    0.263E-02
DAV:  33    -0.140496158825E+02   -0.90593E-03   -0.55567E-05   176   0.205E-02    0.257E-02
DAV:  34    -0.140503030117E+02   -0.68713E-03   -0.10755E-04   176   0.505E-02    0.126E-02
DAV:  35    -0.140503970014E+02   -0.93990E-04   -0.33920E-05   176   0.254E-02
   1 F= -.14050397E+02 E0= -.14050397E+02  d E =-.140504E+02  mag=     0.9984
 curvature:   0.00 expect dE= 0.000E+00 dE for cont linesearch  0.000E+00
 trial: gam= 0.00000 g(F)=  0.461E-01 g(S)=  0.000E+00 ort = 0.000E+00 (trialstep = 0.100E+01)
 search vector abs. value=  0.461E-01
 bond charge predicted
       N       E                     dE             d eps       ncg     rms          rms(c)
DAV:   1    -0.140926997214E+02   -0.42397E-01   -0.31223E+00   272   0.598E+00    0.217E-01
DAV:   2    -0.140940511615E+02   -0.13514E-02   -0.15807E-02   272   0.588E-01    0.144E-01
DAV:   3    -0.140937506570E+02    0.30050E-03   -0.45229E-04   264   0.984E-02    0.719E-02
DAV:   4    -0.140937361408E+02    0.14516E-04   -0.12196E-04   176   0.403E-02
   2 F= -.14093736E+02 E0= -.14093736E+02  d E =-.433391E-01  mag=     0.9994
 ZBRENT: can't locate minimum, use default step
 trial-energy change:   -0.043339  1 .order   -0.043697   -0.046099   -0.041295
 step:   4.0000(harm=  9.5963)  dis= 0.02939  next Energy=   -14.271588 (dE=-0.221E+00)
 bond charge predicted
       N       E                     dE             d eps       ncg     rms          rms(c)
DAV:   1    -0.141849664375E+02   -0.91216E-01   -0.28138E+01   264   0.180E+01    0.583E-01
DAV:   2    -0.141974875463E+02   -0.12521E-01   -0.13930E-01   264   0.176E+00    0.412E-01
DAV:   3    -0.141964573371E+02    0.10302E-02   -0.32127E-03   264   0.267E-01    0.222E-01
DAV:   4    -0.141964556907E+02    0.16464E-05   -0.10053E-03   264   0.118E-01    0.474E-02
DAV:   5    -0.141970505259E+02   -0.59484E-03   -0.90318E-05   200   0.345E-02    0.208E-02
DAV:   6    -0.141975220783E+02   -0.47155E-03   -0.57977E-05   176   0.231E-02    0.915E-03
DAV:   7    -0.141977572425E+02   -0.23516E-03   -0.13069E-05   176   0.118E-02    0.431E-03
DAV:   8    -0.141979399847E+02   -0.18274E-03   -0.50857E-06   176   0.639E-03    0.281E-03
DAV:   9    -0.141980905431E+02   -0.15056E-03   -0.54386E-06   176   0.407E-03    0.189E-03
DAV:  10    -0.141981898445E+02   -0.99301E-04   -0.46178E-06   176   0.433E-03
   3 F= -.14198190E+02 E0= -.14198190E+02  d E =-.147793E+00  mag=     1.0000
 curvature:  -2.76 expect dE=-0.507E-01 dE for cont linesearch -0.482E-01
 ZBRENT: increasing intervall
 opt :  10.0000  next Energy=   -14.290493 (dE=-0.240E+00)
 bond charge predicted
       N       E                     dE             d eps       ncg     rms          rms(c)
DAV:   1    -0.142486502139E+02   -0.50560E-01   -0.11317E+02   256   0.363E+01    0.936E-01
DAV:   2    -0.143004497108E+02   -0.51799E-01   -0.54538E-01   272   0.353E+00    0.748E-01
DAV:   3    -0.142996008110E+02    0.84890E-03   -0.99654E-03   272   0.463E-01    0.475E-01
DAV:   4    -0.142988563752E+02    0.74444E-03   -0.46097E-03   264   0.245E-01    0.913E-02
DAV:   5    -0.142995356595E+02   -0.67928E-03   -0.21891E-04   192   0.656E-02    0.353E-02
DAV:   6    -0.143000321137E+02   -0.49645E-03   -0.10686E-04   168   0.333E-02    0.194E-02
DAV:   7    -0.143003682664E+02   -0.33615E-03   -0.48627E-05   176   0.237E-02    0.692E-03
DAV:   8    -0.143005924390E+02   -0.22417E-03   -0.11179E-05   168   0.109E-02    0.390E-03
DAV:   9    -0.143007380526E+02   -0.14561E-03   -0.54414E-06   176   0.573E-03    0.241E-03
DAV:  10    -0.143008766200E+02   -0.13857E-03   -0.54324E-06   168   0.433E-03    0.162E-03
DAV:  11    -0.143009857211E+02   -0.10910E-03   -0.68918E-06   176   0.378E-03    0.978E-04
DAV:  12    -0.143010244154E+02   -0.38694E-04   -0.26526E-06   176   0.242E-03
   4 F= -.14301024E+02 E0= -.14301024E+02  d E =-.250627E+00  mag=     1.0000
 curvature:  -5.30 expect dE=-0.268E-01 dE for cont linesearch -0.570E-02
 ZBRENT: extrapolating
 opt :  11.9845  next Energy=   -14.308013 (dE=-0.258E+00)
 bond charge predicted
       N       E                     dE             d eps       ncg     rms          rms(c)
DAV:   1    -0.143034370135E+02   -0.24513E-02   -0.12301E+01   256   0.119E+01    0.290E-01
DAV:   2    -0.143093177310E+02   -0.58807E-02   -0.60568E-02   264   0.116E+00    0.203E-01
DAV:   3    -0.143092040434E+02    0.11369E-03   -0.11293E-03   272   0.151E-01    0.125E-01
DAV:   4    -0.143091058239E+02    0.98220E-04   -0.40984E-04   248   0.764E-02
   5 F= -.14309106E+02 E0= -.14309106E+02  d E =-.258709E+00  mag=     1.0000
 curvature:  -6.49 expect dE=-0.336E-01 dE for cont linesearch -0.304E-03
 trial: gam= 0.08045 g(F)=  0.518E-02 g(S)=  0.000E+00 ort = 0.147E-02 (trialstep = 0.320E+01)
 search vector abs. value=  0.571E-02
 bond charge predicted
       N       E                     dE             d eps       ncg     rms          rms(c)
DAV:   1    -0.143224698419E+02   -0.13266E-01   -0.39356E+00   264   0.670E+00    0.113E-01
DAV:   2    -0.143244744989E+02   -0.20047E-02   -0.19736E-02   272   0.664E-01    0.900E-02
DAV:   3    -0.143244930093E+02   -0.18510E-04   -0.33732E-04   232   0.884E-02
   6 F= -.14324493E+02 E0= -.14324493E+02  d E =-.153872E-01  mag=     1.0000
 trial-energy change:   -0.015387  1 .order   -0.014965   -0.016930   -0.013001
 step:   7.4316(harm= 13.7756)  dis= 0.01908  next Energy=   -14.334085 (dE=-0.250E-01)
 bond charge predicted
       N       E                     dE             d eps       ncg     rms          rms(c)
DAV:   1    -0.143363225491E+02   -0.11848E-01   -0.69293E+00   272   0.889E+00    0.159E-01
DAV:   2    -0.143396422585E+02   -0.33197E-02   -0.34304E-02   280   0.875E-01    0.127E-01
DAV:   3    -0.143396173871E+02    0.24871E-04   -0.60368E-04   288   0.114E-01
   7 F= -.14339617E+02 E0= -.14339617E+02  d E =-.305116E-01  mag=     1.0000
 curvature:  -4.76 expect dE=-0.107E-01 dE for cont linesearch -0.685E-02
 ZBRENT: increasing intervall
 opt :  15.9011  next Energy=   -14.353768 (dE=-0.447E-01)
 bond charge predicted
       N       E                     dE             d eps       ncg     rms          rms(c)
DAV:   1    -0.143396731927E+02   -0.30934E-04   -0.27720E+01   256   0.178E+01    0.297E-01
DAV:   2    -0.143530774451E+02   -0.13404E-01   -0.13777E-01   280   0.176E+00    0.244E-01
DAV:   3    -0.143530895314E+02   -0.12086E-04   -0.24162E-03   280   0.228E-01    0.157E-01
DAV:   4    -0.143529189913E+02    0.17054E-03   -0.71344E-04   264   0.122E-01    0.665E-02
DAV:   5    -0.143530109587E+02   -0.91967E-04   -0.11634E-04   176   0.503E-02
   8 F= -.14353011E+02 E0= -.14353011E+02  d E =-.439051E-01  mag=     1.0000
 curvature:  -9.82 expect dE=-0.346E-01 dE for cont linesearch -0.254E-03
 trial: gam= 0.64732 g(F)=  0.352E-02 g(S)=  0.000E+00 ort = 0.384E-03 (trialstep = 0.511E+01)
 search vector abs. value=  0.641E-02
 bond charge predicted
       N       E                     dE             d eps       ncg     rms          rms(c)
DAV:   1    -0.143652410463E+02   -0.12322E-01   -0.11216E+01   256   0.113E+01    0.134E-01
DAV:   2    -0.143708695485E+02   -0.56285E-02   -0.54682E-02   280   0.111E+00    0.112E-01
DAV:   3    -0.143708830641E+02   -0.13516E-04   -0.91588E-04   280   0.144E-01
   9 F= -.14370883E+02 E0= -.14370883E+02  d E =-.178721E-01  mag=     1.0000
 ZBRENT: can't locate minimum, use default step
 trial-energy change:   -0.017872  1 .order   -0.017864   -0.019268   -0.016460
 step:  20.4481(harm= 35.0765)  dis= 0.07805  next Energy=   -14.419116 (dE=-0.661E-01)
 bond charge predicted
       N       E                     dE             d eps       ncg     rms          rms(c)
DAV:   1    -0.143585269874E+02    0.12343E-01   -0.10180E+02   256   0.342E+01    0.439E-01
DAV:   2    -0.144077565996E+02   -0.49230E-01   -0.49018E-01   272   0.335E+00    0.366E-01
DAV:   3    -0.144075072116E+02    0.24939E-03   -0.81218E-03   288   0.426E-01    0.252E-01
DAV:   4    -0.144064808151E+02    0.10264E-02   -0.20376E-03   264   0.170E-01    0.138E-01
DAV:   5    -0.144065792753E+02   -0.98460E-04   -0.11863E-03   272   0.123E-01    0.430E-02
DAV:   6    -0.144068874479E+02   -0.30817E-03   -0.35710E-05   168   0.219E-02    0.279E-02
DAV:   7    -0.144073139077E+02   -0.42646E-03   -0.48714E-05   176   0.223E-02    0.889E-03
DAV:   8    -0.144076425492E+02   -0.32864E-03   -0.14300E-05   184   0.119E-02    0.328E-03
DAV:   9    -0.144079281280E+02   -0.28558E-03   -0.93921E-06   176   0.723E-03    0.245E-03
DAV:  10    -0.144081340207E+02   -0.20589E-03   -0.74164E-06   184   0.476E-03    0.165E-03
DAV:  11    -0.144082860258E+02   -0.15201E-03   -0.91196E-06   176   0.446E-03    0.983E-04
DAV:  12    -0.144083213589E+02   -0.35333E-04   -0.37456E-06   176   0.300E-03
  10 F= -.14408321E+02 E0= -.14408321E+02  d E =-.553104E-01  mag=     1.0000
 curvature: -22.72 expect dE=-0.418E-01 dE for cont linesearch -0.814E-02
 ZBRENT: increasing intervall
 opt :  51.1202  next Energy=   -14.402500 (dE=-0.495E-01)
 bond charge predicted
       N       E                     dE             d eps       ncg     rms          rms(c)
DAV:   1    -0.141884069842E+02    0.21988E+00   -0.41700E+02   256   0.706E+01    0.120E+00
DAV:   2    -0.143954633792E+02   -0.20706E+00   -0.20677E+00   280   0.701E+00    0.759E-01
DAV:   3    -0.143946826629E+02    0.78072E-03   -0.34600E-02   272   0.891E-01    0.473E-01
DAV:   4    -0.143916902239E+02    0.29924E-02   -0.58280E-03   280   0.296E-01    0.280E-01
DAV:   5    -0.143915437826E+02    0.14644E-03   -0.36533E-03   272   0.212E-01    0.760E-02
DAV:   6    -0.143920231055E+02   -0.47932E-03   -0.88920E-05   192   0.373E-02    0.489E-02
DAV:   7    -0.143926951450E+02   -0.67204E-03   -0.97597E-05   176   0.312E-02    0.169E-02
DAV:   8    -0.143931765186E+02   -0.48137E-03   -0.22917E-05   184   0.155E-02    0.610E-03
DAV:   9    -0.143935809546E+02   -0.40444E-03   -0.13839E-05   184   0.906E-03    0.294E-03
DAV:  10    -0.143938515115E+02   -0.27056E-03   -0.84456E-06   184   0.549E-03    0.219E-03
DAV:  11    -0.143941214329E+02   -0.26992E-03   -0.14834E-05   176   0.557E-03    0.164E-03
DAV:  12    -0.143942176227E+02   -0.96190E-04   -0.91958E-06   176   0.461E-03
  11 F= -.14394218E+02 E0= -.14394218E+02  d E =-.412067E-01  mag=     1.0000
 curvature:  16.26 expect dE= 0.201E+00 dE for cont linesearch  0.144E-01
 ZBRENT: bracketing found
 ZBRENT: interpolating
 opt :  32.3650  next Energy=   -14.417349 (dE=-0.643E-01)
 bond charge predicted
       N       E                     dE             d eps       ncg     rms          rms(c)
DAV:   1    -0.143416209270E+02    0.52501E-01   -0.15285E+02   256   0.420E+01    0.559E-01
DAV:   2    -0.144171379937E+02   -0.75517E-01   -0.75052E-01   288   0.415E+00    0.443E-01
DAV:   3    -0.144169751563E+02    0.16284E-03   -0.12347E-02   288   0.521E-01    0.297E-01
DAV:   4    -0.144156317693E+02    0.13434E-02   -0.25319E-03   280   0.190E-01    0.168E-01
DAV:   5    -0.144155687009E+02    0.63068E-04   -0.16134E-03   272   0.141E-01    0.500E-02
DAV:   6    -0.144157985488E+02   -0.22985E-03   -0.38543E-05   184   0.250E-02    0.335E-02
DAV:   7    -0.144161367768E+02   -0.33823E-03   -0.52848E-05   168   0.245E-02    0.113E-02
DAV:   8    -0.144164041309E+02   -0.26735E-03   -0.12492E-05   184   0.128E-02    0.375E-03
DAV:   9    -0.144166058188E+02   -0.20169E-03   -0.44055E-06   192   0.639E-03    0.197E-03
DAV:  10    -0.144167531412E+02   -0.14732E-03   -0.25627E-06   192   0.353E-03    0.130E-03
DAV:  11    -0.144168951797E+02   -0.14204E-03   -0.37040E-06   176   0.301E-03    0.934E-04
DAV:  12    -0.144169629230E+02   -0.67743E-04   -0.25718E-06   176   0.243E-03
  12 F= -.14416963E+02 E0= -.14416963E+02  d E =-.639520E-01  mag=     1.0000
 curvature: -10.18 expect dE=-0.368E-01 dE for cont linesearch -0.440E-05
 trial: gam= 1.09350 g(F)=  0.362E-02 g(S)=  0.000E+00 ort =-0.526E-04 (trialstep = 0.606E+01)
 search vector abs. value=  0.112E-01
 bond charge predicted
       N       E                     dE             d eps       ncg     rms          rms(c)
DAV:   1    -0.144239122196E+02   -0.70170E-02   -0.27556E+01   256   0.177E+01    0.192E-01
DAV:   2    -0.144374943651E+02   -0.13582E-01   -0.13395E-01   272   0.173E+00    0.165E-01
DAV:   3    -0.144373893559E+02    0.10501E-03   -0.21078E-03   280   0.210E-01    0.120E-01
DAV:   4    -0.144370442201E+02    0.34514E-03   -0.44954E-04   272   0.807E-02    0.686E-02
DAV:   5    -0.144369681142E+02    0.76106E-04   -0.42962E-04   264   0.725E-02
  13 F= -.14436968E+02 E0= -.14436968E+02  d E =-.200052E-01  mag=     1.0000
 ZBRENT: can't locate minimum, use default step
 trial-energy change:   -0.020005  1 .order   -0.020848   -0.021590   -0.020106
 step:  24.2510(harm= 88.1710)  dis= 0.10610  next Energy=   -14.573958 (dE=-0.157E+00)
 bond charge predicted
       N       E                     dE             d eps       ncg     rms          rms(c)
DAV:   1    -0.143553090077E+02    0.81735E-01   -0.25273E+02   256   0.542E+01    0.743E-01
DAV:   2    -0.144869924950E+02   -0.13168E+00   -0.12585E+00   280   0.540E+00    0.541E-01
DAV:   3    -0.144872336753E+02   -0.24118E-03   -0.20262E-02   272   0.657E-01    0.364E-01
DAV:   4    -0.144853055072E+02    0.19282E-02   -0.33148E-03   272   0.224E-01    0.225E-01
DAV:   5    -0.144852454649E+02    0.60042E-04   -0.31752E-03   264   0.196E-01    0.639E-02
DAV:   6    -0.144856470114E+02   -0.40155E-03   -0.54569E-05   192   0.309E-02    0.419E-02
DAV:   7    -0.144861969541E+02   -0.54994E-03   -0.57319E-05   168   0.233E-02    0.153E-02
DAV:   8    -0.144866070236E+02   -0.41007E-03   -0.22901E-05   176   0.152E-02    0.510E-03
DAV:   9    -0.144869765686E+02   -0.36954E-03   -0.14692E-05   176   0.901E-03    0.286E-03
DAV:  10    -0.144871881411E+02   -0.21157E-03   -0.85208E-06   176   0.541E-03    0.225E-03
DAV:  11    -0.144873382543E+02   -0.15011E-03   -0.84679E-06   176   0.477E-03    0.149E-03
DAV:  12    -0.144874087668E+02   -0.70512E-04   -0.88433E-06   176   0.422E-03
  14 F= -.14487409E+02 E0= -.14487409E+02  d E =-.704458E-01  mag=     1.0000
 curvature: -54.48 expect dE=-0.230E+00 dE for cont linesearch -0.260E-01
 ZBRENT: increasing intervall
 opt :  60.6275  next Energy=   -14.534732 (dE=-0.118E+00)
 bond charge predicted
       N       E                     dE             d eps       ncg     rms          rms(c)
DAV:   1    -0.139373171334E+02    0.55002E+00   -0.10748E+03   256   0.117E+02    0.255E+00
DAV:   2    -0.145244473837E+02   -0.58713E+00   -0.57388E+00   280   0.121E+01    0.153E+00
DAV:   3    -0.145235182620E+02    0.92912E-03   -0.10048E-01   272   0.151E+00    0.876E-01
DAV:   4    -0.145180988037E+02    0.54195E-02   -0.83545E-03   288   0.374E-01    0.650E-01
DAV:   5    -0.145162973486E+02    0.18015E-02   -0.13255E-02   264   0.401E-01    0.155E-01
DAV:   6    -0.145169252039E+02   -0.62786E-03   -0.20614E-04   200   0.663E-02    0.854E-02
DAV:   7    -0.145176422098E+02   -0.71701E-03   -0.81973E-05   184   0.345E-02    0.379E-02
DAV:   8    -0.145182567078E+02   -0.61450E-03   -0.52712E-05   176   0.238E-02    0.107E-02
DAV:   9    -0.145187279969E+02   -0.47129E-03   -0.27048E-05   184   0.152E-02    0.448E-03
DAV:  10    -0.145189884230E+02   -0.26043E-03   -0.12982E-05   176   0.743E-03    0.390E-03
DAV:  11    -0.145191447178E+02   -0.15629E-03   -0.82907E-06   176   0.571E-03    0.288E-03
DAV:  12    -0.145193033974E+02   -0.15868E-03   -0.20103E-05   176   0.633E-03    0.136E-03
DAV:  13    -0.145193185259E+02   -0.15128E-04   -0.34254E-06   184   0.324E-03
  15 F= -.14519319E+02 E0= -.14519319E+02  d E =-.102356E+00  mag=     1.0000
 curvature: -99.18 expect dE=-0.168E+01 dE for cont linesearch -0.856E-02
 ZBRENT: bracketing found
 ZBRENT: interpolating
 opt :  49.7739  next Energy=   -14.524646 (dE=-0.108E+00)
 bond charge predicted
       N       E                     dE             d eps       ncg     rms          rms(c)
DAV:   1    -0.144794096213E+02    0.39894E-01   -0.88861E+01   256   0.318E+01    0.367E-01
DAV:   2    -0.145237417184E+02   -0.44332E-01   -0.43431E-01   280   0.312E+00    0.293E-01
DAV:   3    -0.145237877832E+02   -0.46065E-04   -0.67328E-03   280   0.372E-01    0.210E-01
DAV:   4    -0.145230930915E+02    0.69469E-03   -0.13327E-03   272   0.133E-01    0.119E-01
DAV:   5    -0.145230634536E+02    0.29638E-04   -0.11258E-03   264   0.115E-01    0.363E-02
DAV:   6    -0.145231607569E+02   -0.97303E-04   -0.18620E-05   184   0.171E-02
  16 F= -.14523161E+02 E0= -.14523161E+02  d E =-.106198E+00  mag=     1.0000
 curvature: -61.74 expect dE=-0.679E+00 dE for cont linesearch -0.477E-04
 trial: gam= 2.98499 g(F)=  0.110E-01 g(S)=  0.000E+00 ort = 0.929E-04 (trialstep = 0.149E+01)
 search vector abs. value=  0.111E+00
 bond charge predicted
       N       E                     dE             d eps       ncg     rms          rms(c)
DAV:   1    -0.145319455296E+02   -0.88821E-02   -0.16542E+01   256   0.136E+01    0.124E-01
DAV:   2    -0.145404057668E+02   -0.84602E-02   -0.80428E-02   280   0.133E+00    0.114E-01
DAV:   3    -0.145404705006E+02   -0.64734E-04   -0.12379E-03   296   0.158E-01    0.881E-02
DAV:   4    -0.145403826066E+02    0.87894E-04   -0.14946E-04   176   0.489E-02
  17 F= -.14540383E+02 E0= -.14540383E+02  d E =-.172218E-01  mag=     1.0000
 ZBRENT: can't locate minimum, use default step
 trial-energy change:   -0.017222  1 .order   -0.016884   -0.016795   -0.016973
 step:   5.9548(harm=  5.9548)  dis= 0.05633  next Energy=   -14.591762 (dE=-0.686E-01)
 bond charge predicted
       N       E                     dE             d eps       ncg     rms          rms(c)
DAV:   1    -0.145091211700E+02    0.31349E-01   -0.15056E+02   256   0.415E+01    0.467E-01
DAV:   2    -0.145860397966E+02   -0.76919E-01   -0.74644E-01   288   0.410E+00    0.366E-01
DAV:   3    -0.145861789953E+02   -0.13920E-03   -0.11513E-02   296   0.487E-01    0.258E-01
DAV:   4    -0.145850725954E+02    0.11064E-02   -0.14097E-03   272   0.143E-01    0.170E-01
DAV:   5    -0.145847574722E+02    0.31512E-03   -0.23313E-03   272   0.164E-01    0.482E-02
DAV:   6    -0.145848988283E+02   -0.14136E-03   -0.28423E-05   184   0.232E-02    0.330E-02
DAV:   7    -0.145851230641E+02   -0.22424E-03   -0.25206E-05   168   0.161E-02    0.131E-02
DAV:   8    -0.145852975769E+02   -0.17451E-03   -0.14294E-05   184   0.124E-02    0.388E-03
DAV:   9    -0.145854598220E+02   -0.16225E-03   -0.73717E-06   176   0.725E-03    0.226E-03
DAV:  10    -0.145855506417E+02   -0.90820E-04   -0.34097E-06   192   0.366E-03
  18 F= -.14585551E+02 E0= -.14585551E+02  d E =-.623899E-01  mag=     1.0000
 curvature: -44.20 expect dE=-0.453E+00 dE for cont linesearch -0.353E-01
 ZBRENT: increasing intervall
 opt :  14.8869  next Energy=   -14.651980 (dE=-0.129E+00)
 bond charge predicted
       N       E                     dE             d eps       ncg     rms          rms(c)
DAV:   1    -0.143271406682E+02    0.25832E+00   -0.62544E+02   256   0.870E+01    0.142E+00
DAV:   2    -0.146662333726E+02   -0.33909E+00   -0.32436E+00   280   0.885E+00    0.928E-01
DAV:   3    -0.146667489017E+02   -0.51553E-03   -0.53266E-02   288   0.109E+00    0.571E-01
DAV:   4    -0.146633728084E+02    0.33761E-02   -0.42710E-03   288   0.261E-01    0.427E-01
DAV:   5    -0.146618404707E+02    0.15323E-02   -0.77467E-03   272   0.303E-01    0.119E-01
DAV:   6    -0.146622068446E+02   -0.36637E-03   -0.16078E-04   192   0.564E-02    0.673E-02
DAV:   7    -0.146626897035E+02   -0.48286E-03   -0.66506E-05   176   0.322E-02    0.298E-02
DAV:   8    -0.146631186705E+02   -0.42897E-03   -0.35416E-05   184   0.186E-02    0.956E-03
DAV:   9    -0.146635031025E+02   -0.38443E-03   -0.25685E-05   184   0.148E-02    0.481E-03
DAV:  10    -0.146637285476E+02   -0.22545E-03   -0.11331E-05   192   0.685E-03    0.405E-03
DAV:  11    -0.146638282058E+02   -0.99658E-04   -0.45360E-06   192   0.479E-03
  19 F= -.14663828E+02 E0= -.14663828E+02  d E =-.140667E+00  mag=     1.0000
 curvature: -83.18 expect dE=-0.800E+00 dE for cont linesearch -0.336E-01
 ZBRENT: increasing intervall
 opt :  32.7513  next Energy=   -14.734848 (dE=-0.212E+00)
 bond charge predicted
       N       E                     dE             d eps       ncg     rms          rms(c)
DAV:   1    -0.125688103046E+02    0.20949E+01   -0.28370E+03   256   0.202E+02    0.738E+00
DAV:   2    -0.146549591160E+02   -0.20861E+01   -0.21528E+01   272   0.239E+01    0.437E+00
DAV:   3    -0.146083974434E+02    0.46562E-01   -0.48373E-01   272   0.348E+00    0.227E+00
DAV:   4    -0.145951356987E+02    0.13262E-01   -0.25532E-02   280   0.611E-01    0.164E+00
DAV:   5    -0.145892488400E+02    0.58869E-02   -0.21770E-02   272   0.598E-01    0.630E-01
DAV:   6    -0.145901012887E+02   -0.85245E-03   -0.42638E-03   280   0.264E-01    0.153E-01
DAV:   7    -0.145912579485E+02   -0.11567E-02   -0.18223E-04   184   0.516E-02    0.696E-02
DAV:   8    -0.145925119309E+02   -0.12540E-02   -0.11622E-04   184   0.365E-02    0.179E-02
DAV:   9    -0.145932078567E+02   -0.69593E-03   -0.32420E-05   192   0.159E-02    0.723E-03
DAV:  10    -0.145938453442E+02   -0.63749E-03   -0.26980E-05   184   0.113E-02    0.535E-03
DAV:  11    -0.145943020658E+02   -0.45672E-03   -0.22261E-05   184   0.846E-03    0.369E-03
DAV:  12    -0.145946050370E+02   -0.30297E-03   -0.20190E-05   176   0.675E-03    0.211E-03
DAV:  13    -0.145947090466E+02   -0.10401E-03   -0.11715E-05   184   0.505E-03    0.127E-03
DAV:  14    -0.145947223582E+02   -0.13312E-04   -0.27374E-06   184   0.293E-03
  20 F= -.14594722E+02 E0= -.14594722E+02  d E =-.715616E-01  mag=     1.0000
 curvature: ****** expect dE=-0.325E+01 dE for cont linesearch -0.833E+00
 ZBRENT: bracketing found
 ZBRENT: interpolating
 opt :  18.9235  next Energy=   -14.677345 (dE=-0.154E+00)
 bond charge predicted
       N       E                     dE             d eps       ncg     rms          rms(c)
DAV:   1    -0.137499782586E+02    0.84473E+00   -0.15990E+03   256   0.146E+02    0.352E+00
DAV:   2    -0.146903560188E+02   -0.94038E+00   -0.92569E+00   288   0.156E+01    0.220E+00
DAV:   3    -0.146890236572E+02    0.13324E-02   -0.17506E-01   280   0.207E+00    0.124E+00
DAV:   4    -0.146833075106E+02    0.57161E-02   -0.96206E-03   280   0.408E-01    0.969E-01
DAV:   5    -0.146797144684E+02    0.35930E-02   -0.19408E-02   264   0.526E-01    0.239E-01
DAV:   6    -0.146806539210E+02   -0.93945E-03   -0.74914E-04   272   0.118E-01    0.971E-02
DAV:   7    -0.146816411641E+02   -0.98724E-03   -0.92051E-05   168   0.357E-02    0.467E-02
DAV:   8    -0.146826371988E+02   -0.99603E-03   -0.88022E-05   176   0.278E-02    0.125E-02
DAV:   9    -0.146832218572E+02   -0.58466E-03   -0.19291E-05   184   0.142E-02    0.578E-03
DAV:  10    -0.146837153294E+02   -0.49347E-03   -0.16816E-05   176   0.870E-03    0.360E-03
DAV:  11    -0.146841186509E+02   -0.40332E-03   -0.16591E-05   184   0.674E-03    0.361E-03
DAV:  12    -0.146844269519E+02   -0.30830E-03   -0.21904E-05   176   0.709E-03    0.154E-03
DAV:  13    -0.146844806926E+02   -0.53741E-04   -0.45265E-06   192   0.366E-03
  21 F= -.14684481E+02 E0= -.14684481E+02  d E =-.161320E+00  mag=     1.0000
 curvature:  -2.85 expect dE=-0.256E-01 dE for cont linesearch -0.286E-03
 trial: gam= 0.07148 g(F)=  0.897E-02 g(S)=  0.000E+00 ort = 0.333E-02 (trialstep = 0.498E+01)
 search vector abs. value=  0.100E-01
 bond charge predicted
       N       E                     dE             d eps       ncg     rms          rms(c)
DAV:   1    -0.147167308104E+02   -0.32304E-01   -0.16779E+01   256   0.138E+01    0.219E-01
DAV:   2    -0.147251841209E+02   -0.84533E-02   -0.84804E-02   280   0.135E+00    0.161E-01
DAV:   3    -0.147251190252E+02    0.65096E-04   -0.13580E-03   280   0.154E-01    0.109E-01
DAV:   4    -0.147249508950E+02    0.16813E-03   -0.52407E-04   280   0.834E-02    0.319E-02
DAV:   5    -0.147249967393E+02   -0.45844E-04   -0.23065E-05   192   0.263E-02
  22 F= -.14724997E+02 E0= -.14724997E+02  d E =-.405160E-01  mag=     1.0000
 ZBRENT: can't locate minimum, use default step
 trial-energy change:   -0.040516  1 .order   -0.040928   -0.045813   -0.036043
 step:  19.9027(harm= 23.3327)  dis= 0.08120  next Energy=   -14.791897 (dE=-0.107E+00)
 bond charge predicted
       N       E                     dE             d eps       ncg     rms          rms(c)
DAV:   1    -0.147093708394E+02    0.15580E-01   -0.15263E+02   256   0.421E+01    0.735E-01
DAV:   2    -0.147877126179E+02   -0.78342E-01   -0.78600E-01   288   0.414E+00    0.467E-01
DAV:   3    -0.147875826428E+02    0.12998E-03   -0.12649E-02   280   0.480E-01    0.316E-01
DAV:   4    -0.147866507093E+02    0.93193E-03   -0.40114E-03   280   0.228E-01    0.980E-02
DAV:   5    -0.147869802472E+02   -0.32954E-03   -0.21272E-04   184   0.749E-02    0.350E-02
DAV:   6    -0.147873051653E+02   -0.32492E-03   -0.56639E-05   176   0.271E-02    0.214E-02
DAV:   7    -0.147877764422E+02   -0.47128E-03   -0.75829E-05   168   0.262E-02    0.756E-03
DAV:   8    -0.147880310873E+02   -0.25465E-03   -0.10056E-05   192   0.113E-02    0.358E-03
DAV:   9    -0.147882784110E+02   -0.24732E-03   -0.61937E-06   192   0.568E-03    0.193E-03
DAV:  10    -0.147884387627E+02   -0.16035E-03   -0.34101E-06   192   0.329E-03    0.133E-03
DAV:  11    -0.147886072949E+02   -0.16853E-03   -0.54769E-06   192   0.344E-03    0.886E-04
DAV:  12    -0.147886898095E+02   -0.82515E-04   -0.39114E-06   184   0.276E-03
  23 F= -.14788690E+02 E0= -.14788690E+02  d E =-.104209E+00  mag=     1.0000
 curvature: -12.24 expect dE=-0.932E-01 dE for cont linesearch -0.219E-02
 trial: gam= 0.70464 g(F)=  0.761E-02 g(S)=  0.000E+00 ort = 0.134E-02 (trialstep = 0.551E+01)
 search vector abs. value=  0.145E-01
 bond charge predicted
       N       E                     dE             d eps       ncg     rms          rms(c)
DAV:   1    -0.148171247658E+02   -0.28517E-01   -0.29724E+01   256   0.182E+01    0.240E-01
DAV:   2    -0.148328096404E+02   -0.15685E-01   -0.15077E-01   280   0.183E+00    0.198E-01
DAV:   3    -0.148329207378E+02   -0.11110E-03   -0.25288E-03   280   0.224E-01    0.137E-01
DAV:   4    -0.148326659113E+02    0.25483E-03   -0.61367E-04   280   0.995E-02    0.665E-02
DAV:   5    -0.148326735319E+02   -0.76206E-05   -0.22414E-04   208   0.580E-02
  24 F= -.14832674E+02 E0= -.14832674E+02  d E =-.439837E-01  mag=     1.0000
 ZBRENT: can't locate minimum, use default step
 trial-energy change:   -0.043984  1 .order   -0.044474   -0.047133   -0.041815
 step:  22.0371(harm= 48.8246)  dis= 0.09556  next Energy=   -14.997544 (dE=-0.209E+00)
 bond charge predicted
       N       E                     dE             d eps       ncg     rms          rms(c)
DAV:   1    -0.147775936900E+02    0.55072E-01   -0.27367E+02   256   0.562E+01    0.953E-01
DAV:   2    -0.149208690158E+02   -0.14328E+00   -0.14244E+00   280   0.570E+00    0.590E-01
DAV:   3    -0.149207943004E+02    0.74715E-04   -0.23897E-02   280   0.698E-01    0.386E-01
DAV:   4    -0.149189991360E+02    0.17952E-02   -0.43192E-03   272   0.257E-01    0.189E-01
DAV:   5    -0.149190944017E+02   -0.95266E-04   -0.15028E-03   264   0.148E-01    0.511E-02
DAV:   6    -0.149192387097E+02   -0.14431E-03   -0.11384E-04   168   0.363E-02    0.319E-02
DAV:   7    -0.149194410425E+02   -0.20233E-03   -0.77553E-05   168   0.295E-02    0.113E-02
DAV:   8    -0.149196170760E+02   -0.17603E-03   -0.11951E-05   176   0.118E-02    0.423E-03
DAV:   9    -0.149197332807E+02   -0.11620E-03   -0.42170E-06   184   0.570E-03    0.226E-03
DAV:  10    -0.149198146906E+02   -0.81410E-04   -0.20178E-06   192   0.333E-03
  25 F= -.14919815E+02 E0= -.14919815E+02  d E =-.131125E+00  mag=     1.0000
 curvature: -25.50 expect dE=-0.118E+00 dE for cont linesearch -0.146E-01
 ZBRENT: increasing intervall
 opt :  55.0927  next Energy=   -14.859251 (dE=-0.706E-01)
 bond charge predicted
       N       E                     dE             d eps       ncg     rms          rms(c)
DAV:   1    -0.141494819863E+02    0.77025E+00   -0.11778E+03   256   0.123E+02    0.353E+00
DAV:   2    -0.148381372748E+02   -0.68866E+00   -0.68966E+00   288   0.131E+01    0.159E+00
DAV:   3    -0.148379374519E+02    0.19982E-03   -0.12914E-01   272   0.172E+00    0.891E-01
DAV:   4    -0.148331732952E+02    0.47642E-02   -0.10519E-02   272   0.401E-01    0.559E-01
DAV:   5    -0.148327012731E+02    0.47202E-03   -0.78488E-03   272   0.349E-01    0.117E-01
DAV:   6    -0.148331956118E+02   -0.49434E-03   -0.24806E-04   200   0.661E-02    0.567E-02
DAV:   7    -0.148338249555E+02   -0.62934E-03   -0.17130E-04   160   0.397E-02    0.265E-02
DAV:   8    -0.148342747447E+02   -0.44979E-03   -0.35588E-05   168   0.215E-02    0.117E-02
DAV:   9    -0.148347293614E+02   -0.45462E-03   -0.18876E-05   176   0.105E-02    0.431E-03
DAV:  10    -0.148349733422E+02   -0.24398E-03   -0.74591E-06   176   0.606E-03    0.276E-03
DAV:  11    -0.148353234666E+02   -0.35012E-03   -0.20396E-05   176   0.709E-03    0.204E-03
DAV:  12    -0.148354325093E+02   -0.10904E-03   -0.69997E-06   176   0.403E-03    0.116E-03
DAV:  13    -0.148354691757E+02   -0.36666E-04   -0.25427E-06   184   0.253E-03
  26 F= -.14835469E+02 E0= -.14835469E+02  d E =-.467794E-01  mag=     1.0000
 curvature: 105.74 expect dE= 0.224E+01 dE for cont linesearch  0.553E+00
 ZBRENT: bracketing found
 ZBRENT: interpolating
 opt :  30.2570  next Energy=   -14.931647 (dE=-0.143E+00)
 bond charge predicted
       N       E                     dE             d eps       ncg     rms          rms(c)
DAV:   1    -0.145958355421E+02    0.23960E+00   -0.63818E+02   256   0.883E+01    0.151E+00
DAV:   2    -0.149344399256E+02   -0.33860E+00   -0.33017E+00   288   0.892E+00    0.125E+00
DAV:   3    -0.149358192889E+02   -0.13794E-02   -0.55049E-02   288   0.107E+00    0.850E-01
DAV:   4    -0.149314187885E+02    0.44005E-02   -0.85235E-03   280   0.385E-01    0.531E-01
DAV:   5    -0.149311271871E+02    0.29160E-03   -0.66893E-03   272   0.303E-01    0.128E-01
DAV:   6    -0.149314594309E+02   -0.33224E-03   -0.22819E-04   208   0.548E-02    0.788E-02
DAV:   7    -0.149318646253E+02   -0.40519E-03   -0.19226E-04   160   0.472E-02    0.339E-02
DAV:   8    -0.149322457663E+02   -0.38114E-03   -0.52919E-05   176   0.288E-02    0.118E-02
DAV:   9    -0.149324801560E+02   -0.23439E-03   -0.10917E-05   176   0.114E-02    0.424E-03
DAV:  10    -0.149326209819E+02   -0.14083E-03   -0.35587E-06   184   0.563E-03    0.223E-03
DAV:  11    -0.149328240593E+02   -0.20308E-03   -0.73402E-06   176   0.512E-03    0.163E-03
DAV:  12    -0.149329384428E+02   -0.11438E-03   -0.59835E-06   184   0.359E-03    0.171E-03
DAV:  13    -0.149329627485E+02   -0.24306E-04   -0.99198E-07   192   0.182E-03
  27 F= -.14932963E+02 E0= -.14932963E+02  d E =-.144273E+00  mag=     1.0000
 curvature:  -2.26 expect dE=-0.136E-01 dE for cont linesearch -0.122E-04
 trial: gam= 0.68349 g(F)=  0.601E-02 g(S)=  0.000E+00 ort = 0.280E-03 (trialstep = 0.105E+02)
 search vector abs. value=  0.131E-01
 bond charge predicted
       N       E                     dE             d eps       ncg     rms          rms(c)
DAV:   1    -0.149286508551E+02    0.42876E-02   -0.98235E+01   256   0.331E+01    0.488E-01
DAV:   2    -0.149767767430E+02   -0.48126E-01   -0.49878E-01   280   0.333E+00    0.338E-01
DAV:   3    -0.149766123419E+02    0.16440E-03   -0.85703E-03   288   0.442E-01    0.217E-01
DAV:   4    -0.149758478199E+02    0.76452E-03   -0.14425E-03   272   0.152E-01    0.117E-01
DAV:   5    -0.149758088909E+02    0.38929E-04   -0.80388E-04   280   0.102E-01
  28 F= -.14975809E+02 E0= -.14975809E+02  d E =-.428461E-01  mag=     1.0000
 trial-energy change:   -0.042846  1 .order   -0.043900   -0.064822   -0.022978
 step:  18.2599(harm= 16.2019)  dis= 0.05585  next Energy=   -14.983941 (dE=-0.510E-01)
 bond charge predicted
       N       E                     dE             d eps       ncg     rms          rms(c)
DAV:   1    -0.149531623967E+02    0.22685E-01   -0.54276E+01   256   0.246E+01    0.362E-01
DAV:   2    -0.149795908181E+02   -0.26428E-01   -0.27498E-01   272   0.248E+00    0.261E-01
DAV:   3    -0.149796228371E+02   -0.32019E-04   -0.48611E-03   272   0.337E-01    0.163E-01
DAV:   4    -0.149793273356E+02    0.29550E-03   -0.80200E-04   264   0.117E-01    0.862E-02
DAV:   5    -0.149794870687E+02   -0.15973E-03   -0.43300E-04   264   0.754E-02    0.237E-02
DAV:   6    -0.149796307855E+02   -0.14372E-03   -0.23951E-05   176   0.157E-02    0.145E-02
DAV:   7    -0.149798164910E+02   -0.18571E-03   -0.22772E-05   176   0.150E-02    0.509E-03
DAV:   8    -0.149800088743E+02   -0.19238E-03   -0.82860E-06   176   0.749E-03    0.205E-03
DAV:   9    -0.149801319507E+02   -0.12308E-03   -0.33861E-06   192   0.400E-03    0.159E-03
DAV:  10    -0.149802444518E+02   -0.11250E-03   -0.32608E-06   192   0.277E-03    0.930E-04
DAV:  11    -0.149803514744E+02   -0.10702E-03   -0.73761E-06   176   0.330E-03    0.660E-04
DAV:  12    -0.149803640992E+02   -0.12625E-04   -0.71324E-07   192   0.148E-03
  29 F= -.14980364E+02 E0= -.14980364E+02  d E =-.474014E-01  mag=     1.0000
 curvature: -14.98 expect dE=-0.515E-01 dE for cont linesearch -0.130E-02
 ZBRENT: interpolating
 opt :  15.7086  next Energy=   -14.981726 (dE=-0.488E-01)
 bond charge predicted
       N       E                     dE             d eps       ncg     rms          rms(c)
DAV:   1    -0.149790201586E+02    0.13313E-02   -0.57675E+00   256   0.801E+00    0.101E-01
DAV:   2    -0.149817735855E+02   -0.27534E-02   -0.28038E-02   280   0.790E-01    0.890E-02
DAV:   3    -0.149817691208E+02    0.44647E-05   -0.48771E-04   280   0.105E-01
  30 F= -.14981769E+02 E0= -.14981769E+02  d E =-.488064E-01  mag=     1.0000
 curvature: -15.71 expect dE=-0.448E-01 dE for cont linesearch -0.258E-06
 trial: gam= 0.24849 g(F)=  0.285E-02 g(S)=  0.000E+00 ort = 0.147E-04 (trialstep = 0.115E+02)
 search vector abs. value=  0.367E-02
 bond charge predicted
       N       E                     dE             d eps       ncg     rms          rms(c)
DAV:   1    -0.149902898990E+02   -0.85163E-02   -0.32707E+01   256   0.194E+01    0.288E-01
DAV:   2    -0.150058169304E+02   -0.15527E-01   -0.15925E-01   272   0.192E+00    0.235E-01
DAV:   3    -0.150057751542E+02    0.41776E-04   -0.28507E-03   288   0.261E-01    0.154E-01
DAV:   4    -0.150054867136E+02    0.28844E-03   -0.74858E-04   272   0.110E-01    0.733E-02
DAV:   5    -0.150055137843E+02   -0.27071E-04   -0.20839E-04   176   0.569E-02
  31 F= -.15005514E+02 E0= -.15005514E+02  d E =-.237447E-01  mag=     1.0000
 trial-energy change:   -0.023745  1 .order   -0.024641   -0.032868   -0.016414
 step:  22.9900(harm= 22.9900)  dis= 0.06701  next Energy=   -15.014598 (dE=-0.328E-01)
 bond charge predicted
       N       E                     dE             d eps       ncg     rms          rms(c)
DAV:   1    -0.149967744953E+02    0.87122E-02   -0.32549E+01   256   0.193E+01    0.295E-01
DAV:   2    -0.150120547182E+02   -0.15280E-01   -0.15854E-01   272   0.191E+00    0.236E-01
DAV:   3    -0.150120206404E+02    0.34078E-04   -0.28355E-03   280   0.261E-01    0.153E-01
DAV:   4    -0.150118321866E+02    0.18845E-03   -0.74143E-04   264   0.111E-01    0.701E-02
DAV:   5    -0.150119579358E+02   -0.12575E-03   -0.18388E-04   176   0.541E-02    0.185E-02
DAV:   6    -0.150120607251E+02   -0.10279E-03   -0.22420E-05   176   0.183E-02    0.124E-02
DAV:   7    -0.150122101683E+02   -0.14944E-03   -0.14913E-05   176   0.122E-02    0.428E-03
DAV:   8    -0.150123439094E+02   -0.13374E-03   -0.50531E-06   176   0.657E-03    0.181E-03
DAV:   9    -0.150124616588E+02   -0.11775E-03   -0.28534E-06   184   0.352E-03    0.123E-03
DAV:  10    -0.150125547384E+02   -0.93080E-04   -0.20681E-06   192   0.231E-03
  32 F= -.15012555E+02 E0= -.15012555E+02  d E =-.307856E-01  mag=     1.0000
 curvature: -14.78 expect dE=-0.265E-01 dE for cont linesearch -0.189E-03
 trial: gam= 0.65237 g(F)=  0.179E-02 g(S)=  0.000E+00 ort =-0.217E-03 (trialstep = 0.138E+02)
 search vector abs. value=  0.307E-02
 bond charge predicted
       N       E                     dE             d eps       ncg     rms          rms(c)
DAV:   1    -0.150074210053E+02    0.50407E-02   -0.39529E+01   256   0.213E+01    0.307E-01
DAV:   2    -0.150267133748E+02   -0.19292E-01   -0.19669E-01   264   0.214E+00    0.272E-01
DAV:   3    -0.150266755455E+02    0.37829E-04   -0.35968E-03   280   0.292E-01    0.175E-01
DAV:   4    -0.150262262646E+02    0.44928E-03   -0.92557E-04   264   0.128E-01    0.965E-02
DAV:   5    -0.150262042384E+02    0.22026E-04   -0.38057E-04   232   0.750E-02
  33 F= -.15026204E+02 E0= -.15026204E+02  d E =-.136495E-01  mag=     1.0000
 trial-energy change:   -0.013649  1 .order   -0.014212   -0.022815   -0.005610
 step:  20.1068(harm= 18.3060)  dis= 0.03704  next Energy=   -15.027431 (dE=-0.149E-01)
 bond charge predicted
       N       E                     dE             d eps       ncg     rms          rms(c)
DAV:   1    -0.150225842417E+02    0.36420E-02   -0.82083E+00   256   0.969E+00    0.143E-01
DAV:   2    -0.150265165856E+02   -0.39323E-02   -0.41114E-02   256   0.976E-01    0.124E-01
DAV:   3    -0.150265162883E+02    0.29725E-06   -0.75751E-04   288   0.136E-01
  34 F= -.15026516E+02 E0= -.15026516E+02  d E =-.139615E-01  mag=     1.0000
 curvature: -14.30 expect dE=-0.177E-01 dE for cont linesearch -0.416E-03
 trial: gam= 0.68835 g(F)=  0.124E-02 g(S)=  0.000E+00 ort =-0.299E-03 (trialstep = 0.151E+02)
 search vector abs. value=  0.228E-02
 bond charge predicted
       N       E                     dE             d eps       ncg     rms          rms(c)
DAV:   1    -0.150191162922E+02    0.74003E-02   -0.35031E+01   256   0.200E+01    0.304E-01
DAV:   2    -0.150361334521E+02   -0.17017E-01   -0.17284E-01   256   0.198E+00    0.238E-01
DAV:   3    -0.150359747734E+02    0.15868E-03   -0.30035E-03   280   0.254E-01    0.155E-01
DAV:   4    -0.150356522818E+02    0.32249E-03   -0.10048E-03   272   0.119E-01    0.690E-02
DAV:   5    -0.150357385337E+02   -0.86252E-04   -0.18416E-04   168   0.559E-02
  35 F= -.15035739E+02 E0= -.15035739E+02  d E =-.922225E-02  mag=     1.0000
 trial-energy change:   -0.009222  1 .order   -0.009601   -0.015570   -0.003632
 step:  19.6494(harm= 19.6494)  dis= 0.02971  next Energy=   -15.036670 (dE=-0.102E-01)
 bond charge predicted
       N       E                     dE             d eps       ncg     rms          rms(c)
DAV:   1    -0.150344425002E+02    0.12098E-02   -0.32255E+00   256   0.605E+00    0.923E-02
DAV:   2    -0.150360148765E+02   -0.15724E-02   -0.16057E-02   256   0.601E-01    0.715E-02
DAV:   3    -0.150360285533E+02   -0.13677E-04   -0.25846E-04   200   0.798E-02
  36 F= -.15036029E+02 E0= -.15036029E+02  d E =-.951226E-02  mag=     1.0000
 curvature: -21.71 expect dE=-0.188E-01 dE for cont linesearch -0.734E-03
 trial: gam= 0.53133 g(F)=  0.864E-03 g(S)=  0.000E+00 ort =-0.278E-03 (trialstep = 0.160E+02)
 search vector abs. value=  0.121E-02
 bond charge predicted
       N       E                     dE             d eps       ncg     rms          rms(c)
DAV:   1    -0.150337172941E+02    0.22976E-02   -0.20900E+01   256   0.155E+01    0.186E-01
DAV:   2    -0.150439315801E+02   -0.10214E-01   -0.10121E-01   272   0.149E+00    0.156E-01
DAV:   3    -0.150438863635E+02    0.45217E-04   -0.15292E-03   280   0.171E-01    0.112E-01
DAV:   4    -0.150437012793E+02    0.18508E-03   -0.59696E-04   272   0.892E-02    0.501E-02
DAV:   5    -0.150437439163E+02   -0.42637E-04   -0.14146E-04   176   0.499E-02
  37 F= -.15043744E+02 E0= -.15043744E+02  d E =-.771536E-02  mag=     1.0000
 trial-energy change:   -0.007715  1 .order   -0.007389   -0.011450   -0.003328
 step:  22.5317(harm= 22.5317)  dis= 0.03627  next Energy=   -15.044100 (dE=-0.807E-02)
 bond charge predicted
       N       E                     dE             d eps       ncg     rms          rms(c)
DAV:   1    -0.150423397059E+02    0.13616E-02   -0.34966E+00   256   0.632E+00    0.824E-02
DAV:   2    -0.150440709361E+02   -0.17312E-02   -0.17145E-02   272   0.610E-01    0.614E-02
DAV:   3    -0.150440722375E+02   -0.13013E-05   -0.23101E-04   168   0.706E-02
  38 F= -.15044072E+02 E0= -.15044072E+02  d E =-.804368E-02  mag=     1.0000
 curvature: -19.08 expect dE=-0.121E-01 dE for cont linesearch -0.944E-03
 trial: gam= 0.00000 g(F)=  0.632E-03 g(S)=  0.000E+00 ort =-0.245E-03 (trialstep = 0.173E+02)
 search vector abs. value=  0.632E-03
 bond charge predicted
       N       E                     dE             d eps       ncg     rms          rms(c)
DAV:   1    -0.150408064063E+02    0.32645E-02   -0.12761E+01   256   0.120E+01    0.205E-01
DAV:   2    -0.150465566632E+02   -0.57503E-02   -0.62865E-02   272   0.117E+00    0.151E-01
DAV:   3    -0.150465306383E+02    0.26025E-04   -0.11494E-03   280   0.160E-01    0.929E-02
DAV:   4    -0.150464336806E+02    0.96958E-04   -0.22353E-04   208   0.802E-02
  39 F= -.15046434E+02 E0= -.15046434E+02  d E =-.236144E-02  mag=     1.0000
 trial-energy change:   -0.002361  1 .order   -0.003036   -0.010934    0.004862
 step:  10.9400(harm= 11.9695)  dis= 0.01615  next Energy=   -15.047360 (dE=-0.329E-02)
 bond charge predicted
       N       E                     dE             d eps       ncg     rms          rms(c)
DAV:   1    -0.150465287770E+02    0.18613E-05   -0.17197E+00   280   0.440E+00    0.741E-02
DAV:   2    -0.150473944703E+02   -0.86569E-03   -0.82891E-03   264   0.428E-01    0.584E-02
DAV:   3    -0.150474341717E+02   -0.39701E-04   -0.13957E-04   176   0.572E-02
  40 F= -.15047434E+02 E0= -.15047434E+02  d E =-.336193E-02  mag=     1.0000
 curvature:  -5.76 expect dE=-0.123E-02 dE for cont linesearch -0.116E-03
 trial: gam= 0.15876 g(F)=  0.213E-03 g(S)=  0.000E+00 ort = 0.113E-03 (trialstep = 0.160E+02)
 search vector abs. value=  0.265E-03
 bond charge predicted
       N       E                     dE             d eps       ncg     rms          rms(c)
DAV:   1    -0.150477713617E+02   -0.37689E-03   -0.45578E+00   272   0.723E+00    0.913E-02
DAV:   2    -0.150499866125E+02   -0.22153E-02   -0.22372E-02   264   0.717E-01    0.755E-02
DAV:   3    -0.150499722993E+02    0.14313E-04   -0.37489E-04   240   0.957E-02
  41 F= -.15049972E+02 E0= -.15049972E+02  d E =-.253813E-02  mag=     1.0000
 trial-energy change:   -0.002538  1 .order   -0.002431   -0.003707   -0.001154
 step:  23.2675(harm= 23.2675)  dis= 0.01390  next Energy=   -15.050126 (dE=-0.269E-02)
 bond charge predicted
       N       E                     dE             d eps       ncg     rms          rms(c)
DAV:   1    -0.150500453293E+02   -0.58717E-04   -0.93976E-01   272   0.329E+00    0.523E-02
DAV:   2    -0.150504587169E+02   -0.41339E-03   -0.44042E-03   272   0.318E-01    0.452E-02
DAV:   3    -0.150504418245E+02    0.16892E-04   -0.68898E-05   168   0.406E-02
  42 F= -.15050442E+02 E0= -.15050442E+02  d E =-.300765E-02  mag=     1.0000
 curvature: -13.34 expect dE=-0.137E-02 dE for cont linesearch -0.190E-04
 trial: gam= 0.34837 g(F)=  0.103E-03 g(S)=  0.000E+00 ort = 0.194E-04 (trialstep = 0.175E+02)
 search vector abs. value=  0.149E-03
 bond charge predicted
       N       E                     dE             d eps       ncg     rms          rms(c)
DAV:   1    -0.150504168922E+02    0.41825E-04   -0.30456E+00   256   0.591E+00    0.721E-02
DAV:   2    -0.150519080773E+02   -0.14912E-02   -0.14514E-02   264   0.563E-01    0.562E-02
DAV:   3    -0.150519053633E+02    0.27140E-05   -0.19396E-04   168   0.635E-02
  43 F= -.15051905E+02 E0= -.15051905E+02  d E =-.146354E-02  mag=     1.0000
 trial-energy change:   -0.001464  1 .order   -0.000899   -0.001916    0.000118
 step:  17.0859(harm= 16.4592)  dis= 0.00929  next Energy=   -15.051907 (dE=-0.146E-02)
 bond charge predicted
       N       E                     dE             d eps       ncg     rms          rms(c)
DAV:   1    -0.150518855000E+02    0.22577E-04   -0.12667E-03   272   0.116E-01    0.113E-02
DAV:   2    -0.150519056344E+02   -0.20134E-04   -0.11527E-05   176   0.186E-02
  44 F= -.15051906E+02 E0= -.15051906E+02  d E =-.146381E-02  mag=     1.0000
 curvature:  -6.87 expect dE=-0.516E-03 dE for cont linesearch -0.117E-03
 trial: gam= 0.00000 g(F)=  0.751E-04 g(S)=  0.000E+00 ort = 0.503E-04 (trialstep = 0.174E+02)
 search vector abs. value=  0.751E-04
 bond charge predicted
       N       E                     dE             d eps       ncg     rms          rms(c)
DAV:   1    -0.150520164080E+02   -0.13091E-03   -0.15292E+00   256   0.418E+00    0.679E-02
DAV:   2    -0.150527608635E+02   -0.74446E-03   -0.74490E-03   272   0.406E-01    0.520E-02
DAV:   3    -0.150527548759E+02    0.59876E-05   -0.11042E-04   168   0.496E-02
  45 F= -.15052755E+02 E0= -.15052755E+02  d E =-.849242E-03  mag=     1.0000
 trial-energy change:   -0.000849  1 .order   -0.000595   -0.001307    0.000116
 step:  15.9730(harm= 15.9730)  dis= 0.00512  next Energy=   -15.052506 (dE=-0.600E-03)
 bond charge predicted
       N       E                     dE             d eps       ncg     rms          rms(c)
DAV:   1    -0.150527126018E+02    0.48262E-04   -0.96072E-03   272   0.329E-01    0.746E-03
DAV:   2    -0.150527269831E+02   -0.14381E-04   -0.47455E-05   168   0.365E-02
  46 F= -.15052727E+02 E0= -.15052727E+02  d E =-.821349E-03  mag=     1.0000
 curvature:  -7.99 expect dE=-0.558E-03 dE for cont linesearch -0.101E-03
 trial: gam= 0.00000 g(F)=  0.699E-04 g(S)=  0.000E+00 ort = 0.308E-04 (trialstep = 0.171E+02)
 search vector abs. value=  0.699E-04
 reached required accuracy - stopping structural energy minimisation
Application 91111134 resources: utime ~8166s, stime ~163s, Rss ~54320, inblocks ~82215, outblocks ~153054
