unknown system                          
           1
    20.615935    0.000000    0.000000
     0.000000   20.615935    0.000000
     0.000000    0.000000   20.615935
   Ag
  28
Direct configuration=     1
   0.51622702  0.65825194  0.68970804
   0.43867555  0.55206197  0.69489134
   0.45943257  0.60425137  0.57356501
   0.56771166  0.54497840  0.64369262
   0.56745540  0.68453340  0.57101105
   0.36458482  0.44312323  0.70416452
   0.36422779  0.50993897  0.58275556
   0.39740740  0.55881399  0.46372853
   0.50265594  0.64317495  0.45583031
   0.60365143  0.56202864  0.51708373
   0.63152677  0.68407308  0.45276410
   0.49668176  0.43427058  0.65235713
   0.49472163  0.48046325  0.52560190
   0.39099733  0.37625117  0.59530971
   0.36342068  0.43022707  0.47502455
   0.44328419  0.60218728  0.34126228
   0.62068283  0.43679966  0.59475460
   0.57281416  0.64081424  0.34036109
   0.73652176  0.61637543  0.49361364
   0.41756045  0.30535587  0.48870590
   0.41585772  0.47526501  0.35639052
   0.53613324  0.51865771  0.39643591
   0.53478874  0.35030476  0.54440351
   0.66876812  0.54963831  0.40038408
   0.72053422  0.48726542  0.52199982
   0.37635274  0.34830831  0.37036306
   0.49901478  0.38943395  0.41672387
   0.61685453  0.43179157  0.45653477
Direct configuration=     2
   0.51622303  0.65840941  0.68973943
   0.43859026  0.55198577  0.69494694
   0.45952885  0.60436597  0.57371636
   0.56765199  0.54526695  0.64377684
   0.56756258  0.68454323  0.57102225
   0.36456369  0.44310838  0.70417590
   0.36418156  0.50981162  0.58293589
   0.39742694  0.55888869  0.46358861
   0.50271102  0.64326726  0.45575179
   0.60378294  0.56214347  0.51705213
   0.63157103  0.68413698  0.45268898
   0.49656096  0.43417732  0.65248583
   0.49474646  0.48043698  0.52554847
   0.39096025  0.37614206  0.59527730
   0.36335746  0.43013820  0.47502636
   0.44324380  0.60229218  0.34125555
   0.62081863  0.43673040  0.59464968
   0.57294940  0.64075301  0.34035396
   0.73660233  0.61638327  0.49364121
   0.41759350  0.30523281  0.48868842
   0.41566856  0.47521148  0.35630281
   0.53609557  0.51881962  0.39634822
   0.53468537  0.35020346  0.54435185
   0.66875404  0.54977762  0.40036803
   0.72054681  0.48728006  0.52196051
   0.37635380  0.34820998  0.37031446
   0.49887539  0.38922713  0.41671810
   0.61693899  0.43169625  0.45673525
Direct configuration=     3
   0.51621107  0.65888179  0.68983361
   0.43833439  0.55175716  0.69511376
   0.45981770  0.60470977  0.57417039
   0.56747298  0.54613257  0.64402950
   0.56788415  0.68457270  0.57105587
   0.36450030  0.44306380  0.70421006
   0.36404286  0.50942955  0.58347687
   0.39748557  0.55911280  0.46316886
   0.50287627  0.64354419  0.45551620
   0.60417747  0.56248798  0.51695731
   0.63170381  0.68432868  0.45246363
   0.49619855  0.43389754  0.65287194
   0.49482097  0.48035816  0.52538819
   0.39084900  0.37581476  0.59518010
   0.36316781  0.42987159  0.47503179
   0.44312262  0.60260689  0.34123538
   0.62122603  0.43652263  0.59433493
   0.57335514  0.64056931  0.34033258
   0.73684405  0.61640676  0.49372393
   0.41769263  0.30486363  0.48863599
   0.41510108  0.47505090  0.35603969
   0.53598257  0.51930535  0.39608515
   0.53437527  0.34989956  0.54419685
   0.66871179  0.55019554  0.40031989
   0.72058455  0.48732399  0.52184255
   0.37635700  0.34791500  0.37016865
   0.49845723  0.38860668  0.41670079
   0.61719237  0.43141026  0.45733669
Direct configuration=     4
   0.51618714  0.65982656  0.69002195
   0.43782263  0.55129995  0.69544739
   0.46039539  0.60539736  0.57507846
   0.56711498  0.54786383  0.64453483
   0.56852727  0.68463166  0.57112311
   0.36437353  0.44297464  0.70427838
   0.36376546  0.50866542  0.58455884
   0.39760282  0.55956102  0.46232935
   0.50320677  0.64409805  0.45504503
   0.60496654  0.56317698  0.51676769
   0.63196937  0.68471209  0.45201292
   0.49547375  0.43333797  0.65364415
   0.49496999  0.48020051  0.52506763
   0.39062651  0.37516016  0.59498569
   0.36278849  0.42933837  0.47504266
   0.44288025  0.60323630  0.34119504
   0.62204083  0.43610708  0.59370542
   0.57416661  0.64020192  0.34028981
   0.73732748  0.61645376  0.49388936
   0.41789091  0.30412527  0.48853113
   0.41396613  0.47472975  0.35551344
   0.53575655  0.52027681  0.39555901
   0.53375506  0.34929176  0.54388685
   0.66862729  0.55103138  0.40022359
   0.72066004  0.48741184  0.52160664
   0.37636340  0.34732505  0.36987703
   0.49762090  0.38736577  0.41666615
   0.61769912  0.43083829  0.45853957
Direct configuration=     5
   0.51613929  0.66171610  0.69039865
   0.43679913  0.55038553  0.69611465
   0.46155077  0.60677256  0.57689461
   0.56639896  0.55132634  0.64554549
   0.56981353  0.68474957  0.57125759
   0.36412000  0.44279633  0.70441502
   0.36321067  0.50713715  0.58672277
   0.39783734  0.56045746  0.46065033
   0.50386775  0.64520576  0.45410269
   0.60654466  0.56455498  0.51638845
   0.63250049  0.68547891  0.45111150
   0.49402415  0.43221885  0.65518858
   0.49526803  0.47988523  0.52442652
   0.39018154  0.37385095  0.59459686
   0.36202987  0.42827193  0.47506439
   0.44239552  0.60449511  0.34111436
   0.62367043  0.43527598  0.59244640
   0.57578955  0.63946714  0.34020427
   0.73829433  0.61654775  0.49422023
   0.41828745  0.30264854  0.48832141
   0.41169623  0.47408743  0.35446094
   0.53530452  0.52221972  0.39450674
   0.53251464  0.34807616  0.54326686
   0.66845829  0.55270307  0.40003100
   0.72081102  0.48758755  0.52113483
   0.37637618  0.34614514  0.36929379
   0.49594826  0.38488397  0.41659689
   0.61871262  0.42969435  0.46094532
Direct configuration=     6
   0.51616051  0.66087835  0.69023164
   0.43725291  0.55079095  0.69581881
   0.46103852  0.60616285  0.57608940
   0.56671642  0.54979119  0.64509740
   0.56924325  0.68469729  0.57119797
   0.36423241  0.44287539  0.70435444
   0.36345664  0.50781473  0.58576336
   0.39773336  0.56006001  0.46139475
   0.50357470  0.64471464  0.45452049
   0.60584498  0.56394402  0.51655659
   0.63226501  0.68513893  0.45151116
   0.49466685  0.43271503  0.65450383
   0.49513589  0.48002502  0.52471076
   0.39037882  0.37443141  0.59476925
   0.36236622  0.42874475  0.47505476
   0.44261043  0.60393700  0.34115013
   0.62294792  0.43564446  0.59300460
   0.57507000  0.63979291  0.34024220
   0.73786566  0.61650608  0.49407353
   0.41811164  0.30330327  0.48841440
   0.41270262  0.47437221  0.35492758
   0.53550493  0.52135830  0.39497328
   0.53306460  0.34861511  0.54354174
   0.66853322  0.55196191  0.40011639
   0.72074408  0.48750965  0.52134401
   0.37637051  0.34666827  0.36955238
   0.49668985  0.38598431  0.41662760
   0.61826327  0.43020153  0.45987870
Direct configuration=     7
   0.51582523  0.66171722  0.69057640
   0.43718414  0.55088842  0.69610030
   0.46106111  0.60630909  0.57611658
   0.56659755  0.54988766  0.64502025
   0.56996807  0.68482410  0.57120690
   0.36394195  0.44242577  0.70455932
   0.36371232  0.50755454  0.58578272
   0.39795621  0.55997676  0.46159151
   0.50370360  0.64518593  0.45455136
   0.60618274  0.56424572  0.51670487
   0.63270351  0.68548807  0.45130499
   0.49470328  0.43275230  0.65462432
   0.49534476  0.48011524  0.52462210
   0.39017448  0.37386905  0.59468675
   0.36222512  0.42860288  0.47508351
   0.44236551  0.60428823  0.34098449
   0.62263942  0.43572109  0.59302183
   0.57562037  0.63961382  0.33994372
   0.73820033  0.61665719  0.49424848
   0.41801871  0.30249197  0.48830680
   0.41217513  0.47434637  0.35469817
   0.53528586  0.52120330  0.39495950
   0.53278958  0.34844531  0.54348158
   0.66847117  0.55243250  0.40000436
   0.72111948  0.48771168  0.52113068
   0.37622676  0.34613071  0.36931391
   0.49659269  0.38585635  0.41655830
   0.61775615  0.42989826  0.46023748
Direct configuration=     8
   0.51481941  0.66423385  0.69161069
   0.43697784  0.55118082  0.69694478
   0.46112889  0.60674781  0.57619813
   0.56624096  0.55017710  0.64478878
   0.57214253  0.68520454  0.57123371
   0.36307059  0.44107690  0.70517394
   0.36447935  0.50677397  0.58584077
   0.39862477  0.55972700  0.46218180
   0.50409031  0.64659982  0.45464395
   0.60719601  0.56515081  0.51714971
   0.63401898  0.68653547  0.45068647
   0.49481255  0.43286414  0.65498577
   0.49597138  0.48038591  0.52435611
   0.38956145  0.37218200  0.59443923
   0.36180182  0.42817725  0.47516978
   0.44163075  0.60534191  0.34048756
   0.62171389  0.43595097  0.59307351
   0.57727146  0.63907655  0.33904828
   0.73920435  0.61711054  0.49477332
   0.41773993  0.30005808  0.48798400
   0.41059264  0.47426886  0.35400996
   0.53462863  0.52073830  0.39491816
   0.53196451  0.34793592  0.54330108
   0.66828500  0.55384427  0.39966829
   0.72224570  0.48831780  0.52049068
   0.37579548  0.34451803  0.36859848
   0.49630122  0.38547246  0.41635038
   0.61623478  0.42898846  0.46131384
Direct configuration=     9
   0.51433987  0.66543370  0.69210380
   0.43687948  0.55132023  0.69734739
   0.46116121  0.60695698  0.57623701
   0.56607095  0.55031509  0.64467842
   0.57317924  0.68538592  0.57124650
   0.36265516  0.44043381  0.70546697
   0.36484504  0.50640183  0.58586845
   0.39894352  0.55960793  0.46246323
   0.50427469  0.64727391  0.45468809
   0.60767910  0.56558233  0.51736180
   0.63464616  0.68703484  0.45039159
   0.49486465  0.43291746  0.65515810
   0.49627013  0.48051495  0.52422930
   0.38926918  0.37137767  0.59432122
   0.36160001  0.42797433  0.47521091
   0.44128044  0.60584426  0.34025065
   0.62127263  0.43606057  0.59309815
   0.57805865  0.63882039  0.33862136
   0.73968303  0.61732668  0.49502354
   0.41760701  0.29889768  0.48783010
   0.40983817  0.47423190  0.35368184
   0.53431528  0.52051661  0.39489844
   0.53157115  0.34769305  0.54321503
   0.66819625  0.55451735  0.39950806
   0.72278264  0.48860678  0.52018555
   0.37558986  0.34374916  0.36825739
   0.49616226  0.38528944  0.41625125
   0.61550945  0.42855469  0.46182701
Direct configuration=    10
   0.51392496  0.66567704  0.69164026
   0.43693127  0.55149456  0.69743341
   0.46136895  0.60727648  0.57620170
   0.56545016  0.55058596  0.64468325
   0.57380062  0.68532884  0.57176066
   0.36275090  0.43991898  0.70528212
   0.36577113  0.50588867  0.58578242
   0.39961520  0.55926798  0.46280352
   0.50468147  0.64759608  0.45449560
   0.60819998  0.56562130  0.51744752
   0.63526546  0.68730403  0.45015350
   0.49460585  0.43329232  0.65482561
   0.49666403  0.48078269  0.52447101
   0.38928216  0.37087534  0.59440111
   0.36185462  0.42745402  0.47489320
   0.44136832  0.60592835  0.34064137
   0.62075834  0.43665915  0.59330138
   0.57815157  0.63851580  0.33854131
   0.73994933  0.61773399  0.49526300
   0.41728854  0.29821202  0.48742688
   0.40954543  0.47430240  0.35390444
   0.53386398  0.52031489  0.39504376
   0.53098955  0.34768899  0.54334014
   0.66808047  0.55485891  0.39971389
   0.72235155  0.48843082  0.51979500
   0.37558117  0.34327667  0.36828838
   0.49549746  0.38556547  0.41605449
   0.61495277  0.42878777  0.46183223
Direct configuration=    11
   0.51268022  0.66640709  0.69024962
   0.43708664  0.55201755  0.69769147
   0.46199219  0.60823498  0.57609576
   0.56358777  0.55139857  0.64469775
   0.57566475  0.68515761  0.57330315
   0.36303814  0.43837450  0.70472758
   0.36854939  0.50434922  0.58552432
   0.40163026  0.55824814  0.46382441
   0.50590181  0.64856258  0.45391812
   0.60976263  0.56573823  0.51770469
   0.63712337  0.68811161  0.44943924
   0.49382945  0.43441689  0.65382814
   0.49784573  0.48158592  0.52519612
   0.38932111  0.36936837  0.59464078
   0.36261844  0.42589310  0.47394007
   0.44163193  0.60618061  0.34181355
   0.61921546  0.43845489  0.59391105
   0.57843032  0.63760201  0.33830117
   0.74074822  0.61895590  0.49598138
   0.41633310  0.29615504  0.48621724
   0.40866722  0.47451391  0.35457223
   0.53251006  0.51970974  0.39547969
   0.52924476  0.34767679  0.54371547
   0.66773315  0.55588358  0.40033138
   0.72105826  0.48790296  0.51862335
   0.37555509  0.34185920  0.36838134
   0.49350303  0.38639356  0.41546423
   0.61328271  0.42948700  0.46184787
Direct configuration=    12
   0.51233870  0.66660740  0.68986807
   0.43712927  0.55216104  0.69776227
   0.46216318  0.60849797  0.57606669
   0.56307679  0.55162153  0.64470173
   0.57617622  0.68511063  0.57372637
   0.36311695  0.43795073  0.70457543
   0.36931167  0.50392683  0.58545351
   0.40218314  0.55796832  0.46410451
   0.50623664  0.64882776  0.45375967
   0.61019137  0.56577031  0.51777525
   0.63763313  0.68833319  0.44924327
   0.49361642  0.43472545  0.65355447
   0.49816996  0.48180630  0.52539508
   0.38933179  0.36895490  0.59470654
   0.36282801  0.42546483  0.47367855
   0.44170426  0.60624982  0.34213516
   0.61879214  0.43894760  0.59407833
   0.57850681  0.63735129  0.33823528
   0.74096742  0.61929116  0.49617848
   0.41607095  0.29559066  0.48588534
   0.40842627  0.47457194  0.35475545
   0.53213858  0.51954370  0.39559930
   0.52876604  0.34767345  0.54381845
   0.66763786  0.55616473  0.40050080
   0.72070342  0.48775813  0.51830188
   0.37554793  0.34147029  0.36840685
   0.49295582  0.38662076  0.41530227
   0.61282449  0.42967885  0.46185216
Direct configuration=    13
   0.51172717  0.66700495  0.68944852
   0.43660111  0.55211783  0.69787706
   0.46223123  0.60931988  0.57552313
   0.56294467  0.55213367  0.64472073
   0.57699438  0.68481885  0.57363385
   0.36359108  0.43781671  0.70432268
   0.37085451  0.50293557  0.58543095
   0.40301861  0.55769122  0.46428286
   0.50739827  0.64902773  0.45406871
   0.61036851  0.56627844  0.51838542
   0.63781222  0.68846319  0.44917767
   0.49267573  0.43504672  0.65326481
   0.49889753  0.48220829  0.52571374
   0.38957759  0.36778184  0.59417264
   0.36335148  0.42476189  0.47386796
   0.44182630  0.60629426  0.34274185
   0.61819566  0.43949418  0.59406967
   0.57836224  0.63709096  0.33833593
   0.74121700  0.61955205  0.49665410
   0.41583583  0.29499819  0.48592146
   0.40790672  0.47475935  0.35477370
   0.53197463  0.51972760  0.39576684
   0.52759155  0.34793703  0.54384791
   0.66766710  0.55637045  0.40061305
   0.72029311  0.48747751  0.51748991
   0.37526242  0.34088868  0.36791823
   0.49214301  0.38678628  0.41569376
   0.61222554  0.42985622  0.46170401
Direct configuration=    14
   0.51044037  0.66784148  0.68856571
   0.43548976  0.55202692  0.69811861
   0.46237442  0.61104938  0.57437938
   0.56266668  0.55321133  0.64476072
   0.57871596  0.68420488  0.57343918
   0.36458877  0.43753471  0.70379084
   0.37410101  0.50084974  0.58538349
   0.40477662  0.55710814  0.46465815
   0.50984260  0.64944851  0.45471900
   0.61074124  0.56734767  0.51966935
   0.63818907  0.68873675  0.44903963
   0.49069631  0.43572274  0.65265532
   0.50042851  0.48305417  0.52638427
   0.39009479  0.36531348  0.59304920
   0.36445300  0.42328277  0.47426652
   0.44208311  0.60638777  0.34401848
   0.61694053  0.44064431  0.59405146
   0.57805803  0.63654316  0.33854771
   0.74174219  0.62010104  0.49765490
   0.41534110  0.29375148  0.48599745
   0.40681348  0.47515370  0.35481209
   0.53162964  0.52011455  0.39611937
   0.52512016  0.34849166  0.54390990
   0.66772863  0.55680333  0.40084926
   0.71942973  0.48688701  0.51578135
   0.37466163  0.33966484  0.36689006
   0.49043268  0.38713457  0.41651752
   0.61096521  0.43022944  0.46139225
Direct configuration=    15
   0.51076578  0.66762993  0.68878896
   0.43577080  0.55204991  0.69805753
   0.46233821  0.61061202  0.57466862
   0.56273698  0.55293881  0.64475061
   0.57828060  0.68436014  0.57348841
   0.36433647  0.43760602  0.70392533
   0.37328002  0.50137722  0.58539549
   0.40433205  0.55725559  0.46456325
   0.50922447  0.64934210  0.45455455
   0.61064699  0.56707728  0.51934466
   0.63809377  0.68866758  0.44907454
   0.49119688  0.43555179  0.65280945
   0.50004135  0.48284026  0.52621470
   0.38996400  0.36593769  0.59333330
   0.36417444  0.42365682  0.47416573
   0.44201816  0.60636412  0.34369564
   0.61725793  0.44035346  0.59405606
   0.57813496  0.63668169  0.33849415
   0.74160938  0.61996221  0.49740181
   0.41546621  0.29406675  0.48597824
   0.40708994  0.47505398  0.35480238
   0.53171689  0.52001670  0.39603022
   0.52574514  0.34835141  0.54389422
   0.66771307  0.55669386  0.40078953
   0.71964807  0.48703633  0.51621342
   0.37481356  0.33997433  0.36715007
   0.49086519  0.38704649  0.41630921
   0.61128393  0.43013506  0.46147109
Direct configuration=    16
   0.51045473  0.66796369  0.68874747
   0.43553160  0.55260598  0.69781412
   0.46205287  0.61093479  0.57477681
   0.56284135  0.55324321  0.64518980
   0.57838452  0.68480527  0.57337671
   0.36431514  0.43746007  0.70395776
   0.37405217  0.50101075  0.58529410
   0.40429034  0.55725576  0.46430279
   0.50979676  0.64916261  0.45494020
   0.61099911  0.56718327  0.51958682
   0.63815028  0.68858146  0.44913757
   0.49074790  0.43553045  0.65302329
   0.50055410  0.48332899  0.52608448
   0.38986290  0.36498564  0.59349823
   0.36434797  0.42360643  0.47428219
   0.44195600  0.60664697  0.34400533
   0.61704311  0.43999279  0.59365677
   0.57804983  0.63696523  0.33845305
   0.74133261  0.61963889  0.49767252
   0.41545115  0.29328976  0.48561327
   0.40663111  0.47496394  0.35465599
   0.53209862  0.52028241  0.39601754
   0.52546647  0.34869682  0.54398836
   0.66780309  0.55664944  0.40105621
   0.71978723  0.48697750  0.51552453
   0.37459116  0.34009586  0.36672070
   0.49057610  0.38699590  0.41678659
   0.61137701  0.42978566  0.46125795
Direct configuration=    17
   0.50981162  0.66865377  0.68866168
   0.43503705  0.55375570  0.69731088
   0.46146290  0.61160213  0.57500049
   0.56305714  0.55387257  0.64609786
   0.57859938  0.68572560  0.57314576
   0.36427103  0.43715830  0.70402480
   0.37564862  0.50025305  0.58508447
   0.40420411  0.55725611  0.46376428
   0.51098001  0.64879149  0.45573756
   0.61172715  0.56740240  0.52008752
   0.63826713  0.68840341  0.44926790
   0.48981963  0.43548634  0.65346542
   0.50161425  0.48433948  0.52581524
   0.38965389  0.36301721  0.59383923
   0.36470676  0.42350227  0.47452298
   0.44182747  0.60723177  0.34464564
   0.61659895  0.43924708  0.59283121
   0.57787381  0.63755145  0.33836808
   0.74076037  0.61897040  0.49823222
   0.41542002  0.29168327  0.48485868
   0.40568246  0.47477779  0.35435334
   0.53288788  0.52083179  0.39599133
   0.52489030  0.34941097  0.54418299
   0.66798921  0.55655761  0.40160758
   0.72007495  0.48685587  0.51410020
   0.37413132  0.34034714  0.36583296
   0.48997839  0.38689130  0.41777361
   0.61156945  0.42906327  0.46081727
Direct configuration=    18
   0.50975480  0.66962693  0.68854233
   0.43460543  0.55429218  0.69699849
   0.46127906  0.61174856  0.57524435
   0.56310142  0.55364339  0.64628733
   0.57808981  0.68639100  0.57344780
   0.36403192  0.43711366  0.70396981
   0.37639527  0.49963196  0.58504294
   0.40406181  0.55726477  0.46373007
   0.51083610  0.64813120  0.45620198
   0.61218653  0.56740675  0.52121409
   0.63880779  0.68851609  0.44919222
   0.48989926  0.43592623  0.65331325
   0.50218857  0.48535690  0.52572311
   0.38930933  0.36195103  0.59410335
   0.36488162  0.42304020  0.47465394
   0.44179608  0.60776776  0.34514851
   0.61651948  0.43923517  0.59238287
   0.57803182  0.63814498  0.33832534
   0.74070859  0.61861155  0.49879581
   0.41548877  0.29079332  0.48410600
   0.40528769  0.47487670  0.35435256
   0.53313761  0.52080521  0.39565720
   0.52439417  0.34945833  0.54439208
   0.66788616  0.55648267  0.40122701
   0.72044786  0.48606481  0.51340889
   0.37403544  0.34094558  0.36581163
   0.48949870  0.38717250  0.41803461
   0.61188414  0.42824013  0.46011357
Direct configuration=    19
   0.50971613  0.67028927  0.68846109
   0.43431167  0.55465731  0.69678588
   0.46115394  0.61184822  0.57541032
   0.56313156  0.55348741  0.64641628
   0.57774300  0.68684388  0.57365337
   0.36386919  0.43708328  0.70393238
   0.37690344  0.49920924  0.58501468
   0.40396497  0.55727066  0.46370679
   0.51073814  0.64768180  0.45651807
   0.61249919  0.56740972  0.52198084
   0.63917577  0.68859279  0.44914072
   0.48995346  0.43622562  0.65320968
   0.50257946  0.48604936  0.52566042
   0.38907482  0.36122538  0.59428311
   0.36500063  0.42272572  0.47474308
   0.44177471  0.60813255  0.34549077
   0.61646539  0.43922706  0.59207774
   0.57813936  0.63854894  0.33829625
   0.74067334  0.61836732  0.49917939
   0.41553556  0.29018761  0.48359372
   0.40501901  0.47494401  0.35435204
   0.53330758  0.52078713  0.39542980
   0.52405650  0.34949057  0.54453438
   0.66781603  0.55643166  0.40096799
   0.72070167  0.48552641  0.51293838
   0.37397017  0.34135288  0.36579711
   0.48917222  0.38736388  0.41821225
   0.61209832  0.42767989  0.45963464
Direct configuration=    20
   0.50998609  0.67037128  0.68838964
   0.43438671  0.55441770  0.69709096
   0.46137189  0.61170577  0.57569579
   0.56254361  0.55373649  0.64660464
   0.57741629  0.68658033  0.57324678
   0.36404459  0.43722207  0.70364512
   0.37640802  0.49891013  0.58496362
   0.40372337  0.55693492  0.46422308
   0.51105440  0.64766835  0.45629876
   0.61357357  0.56772229  0.52156052
   0.63888014  0.68828617  0.44942109
   0.48997002  0.43631641  0.65264423
   0.50256637  0.48566659  0.52540037
   0.38924161  0.36149474  0.59402727
   0.36489380  0.42245860  0.47503765
   0.44186370  0.60813940  0.34549547
   0.61678756  0.43952462  0.59180854
   0.57822758  0.63854204  0.33869395
   0.74081051  0.61805756  0.49913657
   0.41567391  0.29087781  0.48394954
   0.40529757  0.47563762  0.35459271
   0.53302184  0.52037912  0.39497394
   0.52381782  0.34937900  0.54439317
   0.66727501  0.55660444  0.40139328
   0.72046197  0.48511068  0.51306644
   0.37387385  0.34133566  0.36596488
   0.48957217  0.38781215  0.41803431
   0.61180129  0.42774757  0.45966886
Direct configuration=    21
   0.51000542  0.67037715  0.68838452
   0.43439208  0.55440055  0.69711280
   0.46138749  0.61169557  0.57571623
   0.56250151  0.55375433  0.64661813
   0.57739290  0.68656146  0.57321767
   0.36405715  0.43723201  0.70362455
   0.37637254  0.49888871  0.58495997
   0.40370607  0.55691088  0.46426004
   0.51107705  0.64766739  0.45628305
   0.61365050  0.56774467  0.52153042
   0.63885897  0.68826422  0.44944117
   0.48997120  0.43632292  0.65260374
   0.50256543  0.48563918  0.52538175
   0.38925355  0.36151402  0.59400895
   0.36488615  0.42243947  0.47505875
   0.44187007  0.60813989  0.34549580
   0.61681062  0.43954593  0.59178927
   0.57823389  0.63854155  0.33872242
   0.74082033  0.61803538  0.49913350
   0.41568381  0.29092723  0.48397502
   0.40531752  0.47568729  0.35460995
   0.53300138  0.52034991  0.39494130
   0.52380073  0.34937101  0.54438305
   0.66723627  0.55661681  0.40142373
   0.72044480  0.48508092  0.51307561
   0.37386695  0.34133443  0.36597690
   0.48960080  0.38784425  0.41802156
   0.61178003  0.42775242  0.45967131
Direct configuration=    22
   0.51023672  0.67063921  0.68849067
   0.43438911  0.55417423  0.69742086
   0.46136042  0.61136486  0.57564559
   0.56236786  0.55373869  0.64628523
   0.57703744  0.68636075  0.57294781
   0.36414267  0.43726842  0.70349242
   0.37593270  0.49890110  0.58504396
   0.40359218  0.55684049  0.46476760
   0.51085544  0.64728627  0.45630554
   0.61389638  0.56783137  0.52224215
   0.63894525  0.68825646  0.44975510
   0.49011504  0.43641305  0.65203004
   0.50278450  0.48571979  0.52512921
   0.38932808  0.36172828  0.59412513
   0.36471282  0.42226805  0.47491622
   0.44192244  0.60826805  0.34570186
   0.61686210  0.43992552  0.59171403
   0.57826863  0.63856737  0.33884973
   0.74129006  0.61767736  0.49905299
   0.41579679  0.29140351  0.48405265
   0.40542143  0.47608699  0.35495533
   0.53279455  0.52006056  0.39429035
   0.52390769  0.34931542  0.54434970
   0.66679843  0.55657502  0.40127046
   0.72056529  0.48450502  0.51316730
   0.37395455  0.34157560  0.36627525
   0.48959998  0.38807586  0.41753849
   0.61166667  0.42781224  0.45960549
Direct configuration=    23
   0.51032364  0.67073769  0.68853055
   0.43438799  0.55408919  0.69753662
   0.46135025  0.61124058  0.57561905
   0.56231763  0.55373282  0.64616013
   0.57690386  0.68628532  0.57284641
   0.36417481  0.43728211  0.70344277
   0.37576742  0.49890575  0.58507552
   0.40354938  0.55681404  0.46495833
   0.51077217  0.64714306  0.45631399
   0.61398877  0.56786395  0.52250960
   0.63897767  0.68825354  0.44987307
   0.49016909  0.43644693  0.65181446
   0.50286682  0.48575008  0.52503431
   0.38935609  0.36180880  0.59416879
   0.36464769  0.42220363  0.47486266
   0.44194211  0.60831620  0.34577930
   0.61688145  0.44006816  0.59168576
   0.57828169  0.63857707  0.33889757
   0.74146657  0.61754283  0.49902274
   0.41583924  0.29158249  0.48408183
   0.40546048  0.47623718  0.35508512
   0.53271683  0.51995183  0.39404573
   0.52394788  0.34929452  0.54433716
   0.66663390  0.55655932  0.40121287
   0.72061056  0.48428860  0.51320176
   0.37398747  0.34166622  0.36638737
   0.48959967  0.38816290  0.41735696
   0.61162407  0.42783472  0.45958075
Direct configuration=    24
   0.51019684  0.67050934  0.68845129
   0.43459789  0.55428842  0.69736254
   0.46110024  0.61129513  0.57604336
   0.56231882  0.55390365  0.64651571
   0.57676803  0.68663881  0.57313244
   0.36410527  0.43715709  0.70373466
   0.37590050  0.49901709  0.58503782
   0.40337416  0.55695094  0.46460634
   0.51090320  0.64696867  0.45642218
   0.61439976  0.56764546  0.52231901
   0.63915399  0.68810253  0.44992780
   0.49007114  0.43646465  0.65194319
   0.50283487  0.48598855  0.52482822
   0.38926857  0.36169661  0.59428487
   0.36454979  0.42258821  0.47504385
   0.44174189  0.60850935  0.34592330
   0.61680996  0.43980329  0.59175222
   0.57819272  0.63873260  0.33882200
   0.74139067  0.61710041  0.49876118
   0.41586574  0.29129958  0.48402868
   0.40507337  0.47612606  0.35502996
   0.53300708  0.52000498  0.39374093
   0.52422955  0.34951609  0.54421039
   0.66660377  0.55640134  0.40162041
   0.72073646  0.48446308  0.51299964
   0.37388796  0.34168773  0.36607572
   0.48969309  0.38792515  0.41737193
   0.61176989  0.42785472  0.45943149
Direct configuration=    25
   0.51022185  0.67055438  0.68846693
   0.43455649  0.55424912  0.69739687
   0.46114956  0.61128437  0.57595967
   0.56231858  0.55386996  0.64644557
   0.57679482  0.68656909  0.57307602
   0.36411899  0.43718174  0.70367708
   0.37587425  0.49899513  0.58504526
   0.40340872  0.55692394  0.46467577
   0.51087735  0.64700307  0.45640084
   0.61431869  0.56768855  0.52235660
   0.63911921  0.68813231  0.44991700
   0.49009046  0.43646116  0.65191780
   0.50284117  0.48594151  0.52486887
   0.38928583  0.36171874  0.59426197
   0.36456910  0.42251236  0.47500811
   0.44178138  0.60847126  0.34589489
   0.61682406  0.43985553  0.59173911
   0.57821027  0.63870192  0.33883691
   0.74140564  0.61718768  0.49881277
   0.41586052  0.29135538  0.48403916
   0.40514972  0.47614797  0.35504084
   0.53294983  0.51999450  0.39380105
   0.52417400  0.34947239  0.54423540
   0.66660971  0.55643250  0.40154003
   0.72071163  0.48442866  0.51303951
   0.37390759  0.34168349  0.36613719
   0.48967467  0.38797205  0.41736898
   0.61174113  0.42785078  0.45946093
Direct configuration=    26
   0.51011563  0.67056802  0.68860591
   0.43457511  0.55423665  0.69743486
   0.46087699  0.61132584  0.57600767
   0.56254187  0.55386094  0.64648964
   0.57663824  0.68670038  0.57313552
   0.36415380  0.43715714  0.70386609
   0.37598208  0.49908967  0.58516963
   0.40326905  0.55712783  0.46457056
   0.51102024  0.64667226  0.45672325
   0.61435908  0.56763260  0.52283913
   0.63924112  0.68799691  0.45005029
   0.48999675  0.43653368  0.65188574
   0.50288706  0.48629540  0.52461136
   0.38924728  0.36164825  0.59433639
   0.36452774  0.42266018  0.47504709
   0.44159964  0.60868205  0.34606884
   0.61676157  0.43979841  0.59174794
   0.57816205  0.63886810  0.33884440
   0.74166167  0.61678073  0.49856889
   0.41590417  0.29133580  0.48397142
   0.40479266  0.47608982  0.35507022
   0.53306504  0.51994878  0.39325732
   0.52436517  0.34967392  0.54403032
   0.66650228  0.55619277  0.40150527
   0.72093880  0.48423469  0.51291973
   0.37387675  0.34181550  0.36605855
   0.48962099  0.38782371  0.41725994
   0.61186239  0.42788949  0.45934520
Direct configuration=    27
   0.51001834  0.67058051  0.68873320
   0.43459216  0.55422523  0.69746965
   0.46062736  0.61136382  0.57605164
   0.56274637  0.55385268  0.64652999
   0.57649483  0.68682062  0.57319001
   0.36418569  0.43713461  0.70403920
   0.37608084  0.49917626  0.58528353
   0.40314113  0.55731457  0.46447420
   0.51115111  0.64636929  0.45701852
   0.61439606  0.56758135  0.52328107
   0.63935277  0.68787290  0.45017236
   0.48991092  0.43660011  0.65185637
   0.50292908  0.48661952  0.52437551
   0.38921197  0.36158369  0.59440454
   0.36448985  0.42279557  0.47508278
   0.44143320  0.60887511  0.34622815
   0.61670434  0.43974609  0.59175602
   0.57811789  0.63902028  0.33885126
   0.74189615  0.61640803  0.49834554
   0.41594415  0.29131786  0.48390938
   0.40446565  0.47603657  0.35509713
   0.53317056  0.51990691  0.39275933
   0.52454025  0.34985850  0.54384250
   0.66640389  0.55597321  0.40147344
   0.72114685  0.48405704  0.51281003
   0.37384850  0.34193640  0.36598652
   0.48957184  0.38768786  0.41716008
   0.61197345  0.42792495  0.45923920
Direct configuration=    28
   0.50997781  0.67058092  0.68880583
   0.43461380  0.55420470  0.69755381
   0.46053324  0.61140178  0.57614869
   0.56274632  0.55388371  0.64660494
   0.57638112  0.68685118  0.57322786
   0.36423071  0.43713407  0.70409678
   0.37612879  0.49916915  0.58533744
   0.40303440  0.55739311  0.46451439