unknown system                          
           1
    21.146278    0.000000    0.000000
     0.000000   21.146278    0.000000
     0.000000    0.000000   21.146278
   Ag
  27
Direct configuration=     1
   0.60317402  0.30417777  0.48349081
   0.65431518  0.40901951  0.54169714
   0.68534469  0.50113005  0.45245092
   0.58151684  0.42868759  0.44075293
   0.58379389  0.44771594  0.65093065
   0.48445159  0.35322451  0.46425388
   0.54139097  0.35283911  0.58440475
   0.56295052  0.55161607  0.39436103
   0.64348918  0.53639008  0.57263940
   0.63853987  0.61730672  0.47467230
   0.48191724  0.45027288  0.36493963
   0.69145046  0.59762937  0.67586595
   0.52809496  0.52205263  0.51454058
   0.58219247  0.68384076  0.38239865
   0.58696315  0.54800039  0.72295314
   0.44283877  0.43390949  0.56612122
   0.48368444  0.52839219  0.64450971
   0.38562497  0.43186480  0.44732744
   0.57846791  0.63375240  0.62734973
   0.42858684  0.55227606  0.42142566
   0.57024043  0.70670540  0.52425112
   0.31334110  0.42878327  0.55276845
   0.47256882  0.67208299  0.43887126
   0.46899631  0.63013056  0.56269822
   0.37646320  0.54265474  0.57306054
   0.30111586  0.52729120  0.46790625
   0.36073541  0.64050260  0.48560774
Direct configuration=     2
   0.60330086  0.30408322  0.48345095
   0.65450034  0.40895330  0.54187555
   0.68540047  0.50115576  0.45241064
   0.58169482  0.42857493  0.44058301
   0.58390032  0.44763211  0.65095383
   0.48421776  0.35303304  0.46428087
   0.54132142  0.35263054  0.58424950
   0.56293619  0.55171724  0.39418502
   0.64375036  0.53627873  0.57280025
   0.63880193  0.61729078  0.47465262
   0.48183087  0.45019521  0.36488152
   0.69173577  0.59770208  0.67587930
   0.52794594  0.52209927  0.51462948
   0.58236897  0.68391939  0.38229140
   0.58683959  0.54805231  0.72322754
   0.44285043  0.43364691  0.56618071
   0.48372199  0.52849092  0.64466405
   0.38552517  0.43173343  0.44724227
   0.57849462  0.63380122  0.62740236
   0.42856815  0.55228391  0.42143088
   0.56995277  0.70695410  0.52415076
   0.31322513  0.42868576  0.55287822
   0.47263902  0.67225187  0.43892341
   0.46890063  0.63038933  0.56259443
   0.37634692  0.54264272  0.57299850
   0.30098763  0.52734675  0.46774577
   0.36049101  0.64070425  0.48568623
Direct configuration=     3
   0.60368138  0.30379958  0.48333137
   0.65505584  0.40875469  0.54241078
   0.68556781  0.50123287  0.45228983
   0.58222878  0.42823696  0.44007323
   0.58421960  0.44738061  0.65102334
   0.48351625  0.35245865  0.46436185
   0.54111278  0.35200486  0.58378377
   0.56289322  0.55202075  0.39365700
   0.64453390  0.53594470  0.57328281
   0.63958810  0.61724296  0.47459360
   0.48157174  0.44996218  0.36470718
   0.69259170  0.59792020  0.67591937
   0.52749888  0.52223920  0.51489617
   0.58289848  0.68415528  0.38196965
   0.58646890  0.54820808  0.72405073
   0.44288542  0.43285918  0.56635917
   0.48383464  0.52878710  0.64512707
   0.38522576  0.43133932  0.44698679
   0.57857476  0.63394767  0.62756026
   0.42851206  0.55230744  0.42144655
   0.56908977  0.70770020  0.52384968
   0.31287723  0.42839324  0.55320754
   0.47284963  0.67275853  0.43907986
   0.46861360  0.63116561  0.56228305
   0.37599809  0.54260664  0.57281238
   0.30060293  0.52751341  0.46726434
   0.35975782  0.64130919  0.48592170
Direct configuration=     4
   0.60444243  0.30323231  0.48309221
   0.65616684  0.40835747  0.54348124
   0.68590248  0.50138709  0.45204821
   0.58329670  0.42756103  0.43905368
   0.58485817  0.44687761  0.65116237
   0.48211324  0.35130985  0.46452382
   0.54069550  0.35075348  0.58285231
   0.56280728  0.55262776  0.39260095
   0.64610098  0.53527662  0.57424794
   0.64116044  0.61714733  0.47447555
   0.48105349  0.44949612  0.36435851
   0.69430357  0.59835644  0.67599951
   0.52660476  0.52251905  0.51542955
   0.58395750  0.68462706  0.38132616
   0.58572753  0.54851961  0.72569710
   0.44295538  0.43128371  0.56671610
   0.48405994  0.52937947  0.64605311
   0.38462695  0.43055111  0.44647582
   0.57873504  0.63424059  0.62787605
   0.42839988  0.55235450  0.42147788
   0.56736376  0.70919240  0.52324751
   0.31218142  0.42780821  0.55386618
   0.47327083  0.67377183  0.43939278
   0.46803953  0.63271819  0.56166029
   0.37530043  0.54253448  0.57244015
   0.29983353  0.52784673  0.46630146
   0.35829145  0.64251906  0.48639264
Direct configuration=     5
   0.60596452  0.30209775  0.48261390
   0.65838884  0.40756302  0.54562216
   0.68657183  0.50169552  0.45156497
   0.58543254  0.42620916  0.43701459
   0.58613532  0.44587162  0.65144042
   0.47930722  0.34901226  0.46484776
   0.53986093  0.34825074  0.58098938
   0.56263540  0.55384178  0.39048885
   0.64923515  0.53394046  0.57617819
   0.64430513  0.61695606  0.47423946
   0.48001699  0.44856400  0.36366117
   0.69772730  0.59922891  0.67615978
   0.52481651  0.52307875  0.51649632
   0.58607554  0.68557062  0.38003919
   0.58424478  0.54914267  0.72898984
   0.44309532  0.42813278  0.56742995
   0.48451055  0.53056420  0.64790519
   0.38342933  0.42897468  0.44545388
   0.57905559  0.63482641  0.62850763
   0.42817553  0.55244863  0.42154055
   0.56391175  0.71217681  0.52204318
   0.31078981  0.42663813  0.55518345
   0.47411324  0.67579844  0.44001860
   0.46689140  0.63582333  0.56041477
   0.37390511  0.54239016  0.57169569
   0.29829472  0.52851336  0.46437570
   0.35535869  0.64493882  0.48733452
Direct configuration=     6
   0.60563545  0.30234304  0.48271732
   0.65790844  0.40773478  0.54515929
   0.68642712  0.50162884  0.45166944
   0.58497077  0.42650143  0.43745544
   0.58585920  0.44608912  0.65138031
   0.47991388  0.34950900  0.46477772
   0.54004137  0.34879183  0.58139214
   0.56267256  0.55357930  0.39094548
   0.64855754  0.53422934  0.57576087
   0.64362525  0.61699741  0.47429050
   0.48024108  0.44876553  0.36381193
   0.69698709  0.59904028  0.67612513
   0.52520313  0.52295774  0.51626568
   0.58561762  0.68536662  0.38031743
   0.58456535  0.54900796  0.72827795
   0.44306507  0.42881401  0.56727561
   0.48441313  0.53030806  0.64750477
   0.38368826  0.42931551  0.44567482
   0.57898629  0.63469976  0.62837108
   0.42822404  0.55242828  0.42152700
   0.56465808  0.71153158  0.52230355
   0.31109068  0.42689110  0.55489865
   0.47393111  0.67536029  0.43988330
   0.46713963  0.63515200  0.56068405
   0.37420678  0.54242136  0.57185665
   0.29862741  0.52836923  0.46479205
   0.35599276  0.64441567  0.48713089
Direct configuration=     7
   0.60601427  0.30230114  0.48242836
   0.65814212  0.40730299  0.54525714
   0.68656420  0.50135893  0.45167236
   0.58505757  0.42593823  0.43727717
   0.58580789  0.44592641  0.65148553
   0.47991813  0.34884886  0.46459744
   0.54038932  0.34822020  0.58109628
   0.56258971  0.55369999  0.39111638
   0.64930766  0.53423173  0.57605343
   0.64358561  0.61781934  0.47467409
   0.48014320  0.44852970  0.36405209
   0.69713592  0.59907178  0.67633211
   0.52513014  0.52310069  0.51639168
   0.58622185  0.68544901  0.38036759
   0.58481962  0.54925396  0.72851425
   0.44247478  0.42871888  0.56772601
   0.48431560  0.53072050  0.64726965
   0.38279190  0.42931905  0.44568720
   0.57935229  0.63449496  0.62806297
   0.42790546  0.55279152  0.42197607
   0.56456542  0.71187328  0.52207190
   0.31105709  0.42696482  0.55501813
   0.47352106  0.67570360  0.43934098
   0.46655364  0.63543515  0.56102542
   0.37450709  0.54200148  0.57134539
   0.29861146  0.52830613  0.46434367
   0.35576607  0.64486674  0.48706579
Direct configuration=     8
   0.60715075  0.30217544  0.48156150
   0.65884314  0.40600763  0.54555066
   0.68697546  0.50054922  0.45168112
   0.58531798  0.42424862  0.43674238
   0.58565396  0.44543828  0.65180118
   0.47993087  0.34686844  0.46405660
   0.54143318  0.34650531  0.58020868
   0.56234116  0.55406203  0.39162905
   0.65155803  0.53423889  0.57693113
   0.64346668  0.62028511  0.47582488
   0.47984956  0.44782221  0.36477255
   0.69758244  0.59916628  0.67695307
   0.52491117  0.52352955  0.51676969
   0.58803453  0.68569618  0.38051806
   0.58558242  0.54999195  0.72922314
   0.44070392  0.42843347  0.56907721
   0.48402300  0.53195781  0.64656429
   0.38010282  0.42932969  0.44572433
   0.58045028  0.63388056  0.62713863
   0.42694975  0.55388124  0.42332328
   0.56428744  0.71289840  0.52137692
   0.31095633  0.42718597  0.55537658
   0.47229090  0.67673355  0.43771402
   0.46479568  0.63628461  0.56204951
   0.37540802  0.54074182  0.56981160
   0.29856358  0.52811683  0.46299851
   0.35508602  0.64621996  0.48687050
Direct configuration=     9
   0.60787544  0.30188490  0.48073253
   0.65892759  0.40565219  0.54546711
   0.68643011  0.50080210  0.45213766
   0.58528375  0.42369338  0.43681377
   0.58515141  0.44551124  0.65169873
   0.47966436  0.34670231  0.46374302
   0.54168681  0.34647659  0.57995588
   0.56220949  0.55411147  0.39263886
   0.65258649  0.53393588  0.57670371
   0.64344045  0.62037350  0.47681874
   0.47936541  0.44771671  0.36606119
   0.69765592  0.59925524  0.67751506
   0.52510324  0.52368055  0.51691752
   0.58857496  0.68580289  0.38086300
   0.58598109  0.55015278  0.72875475
   0.44076493  0.42763714  0.56957558
   0.48431907  0.53251882  0.64619069
   0.37981450  0.42896959  0.44564713
   0.58085858  0.63344650  0.62605021
   0.42662910  0.55401168  0.42421154
   0.56374415  0.71297076  0.52113452
   0.31051023  0.42729124  0.55561004
   0.47198943  0.67720825  0.43712620
   0.46445516  0.63702754  0.56215280
   0.37591854  0.54038125  0.56852381
   0.29846547  0.52839439  0.46244458
   0.35484340  0.64664018  0.48676047
Direct configuration=    10
   0.61004953  0.30101331  0.47824561
   0.65918091  0.40458586  0.54521645
   0.68479406  0.50156076  0.45350728
   0.58518106  0.42202768  0.43702796
   0.58364374  0.44573009  0.65139136
   0.47886484  0.34620393  0.46280229
   0.54244770  0.34639041  0.57919747
   0.56181447  0.55425976  0.39566827
   0.65567187  0.53302687  0.57602143
   0.64336176  0.62063866  0.47980032
   0.47791299  0.44740020  0.36992710
   0.69787638  0.59952212  0.67920105
   0.52567945  0.52413356  0.51736102
   0.59019625  0.68612299  0.38189783
   0.58717711  0.55063527  0.72734957
   0.44094795  0.42524812  0.57107068
   0.48520728  0.53420186  0.64506988
   0.37894954  0.42788929  0.44541553
   0.58208348  0.63214430  0.62278492
   0.42566717  0.55440299  0.42687633
   0.56211427  0.71318781  0.52040730
   0.30917192  0.42760708  0.55631041
   0.47108501  0.67863236  0.43536274
   0.46343358  0.63925632  0.56246269
   0.37745009  0.53929952  0.56466043
   0.29817114  0.52922708  0.46078279
   0.35411551  0.64790084  0.48643036
Direct configuration=    11
   0.61439769  0.29927012  0.47327178
   0.65968756  0.40245320  0.54471513
   0.68152198  0.50307808  0.45624652
   0.58497568  0.41869628  0.43745633
   0.58062841  0.44616781  0.65077663
   0.47726578  0.34520716  0.46092082
   0.54396947  0.34621806  0.57768065
   0.56102442  0.55455636  0.40172709
   0.66184262  0.53120885  0.57465687
   0.64320439  0.62116900  0.48576349
   0.47500813  0.44676718  0.37765892
   0.69831730  0.60005590  0.68257302
   0.52683188  0.52503957  0.51824802
   0.59343884  0.68676321  0.38396748
   0.58956915  0.55160024  0.72453922
   0.44131399  0.42047009  0.57406089
   0.48698372  0.53756793  0.64282828
   0.37721962  0.42572870  0.44495235
   0.58453328  0.62953992  0.61625434
   0.42374330  0.55518561  0.43220590
   0.55885450  0.71362193  0.51895286
   0.30649532  0.42823876  0.55771115
   0.46927618  0.68148057  0.43183582
   0.46139044  0.64371389  0.56308247
   0.38051320  0.53713607  0.55693366
   0.29758248  0.53089247  0.45745922
   0.35265974  0.65042214  0.48577016
Direct configuration=    12
   0.61125439  0.30053027  0.47686737
   0.65932130  0.40399490  0.54507753
   0.68388738  0.50198121  0.45426632
   0.58512415  0.42110456  0.43714666
   0.58280820  0.44585138  0.65122102
   0.47842174  0.34592773  0.46228094
   0.54286938  0.34634265  0.57877716
   0.56159555  0.55434195  0.39734716
   0.65738177  0.53252310  0.57564331
   0.64331816  0.62078562  0.48145270
   0.47710806  0.44722479  0.37206957
   0.69799856  0.59967003  0.68013541
   0.52599879  0.52438461  0.51760681
   0.59109477  0.68630040  0.38247133
   0.58783994  0.55090266  0.72657083
   0.44104938  0.42392414  0.57189926
   0.48569953  0.53513459  0.64444874
   0.37847018  0.42729060  0.44528719
   0.58276232  0.63142263  0.62097531
   0.42513407  0.55461985  0.42835314
   0.56121099  0.71330811  0.52000428
   0.30843024  0.42778212  0.55669855
   0.47058379  0.67942159  0.43438544
   0.46286743  0.64049150  0.56263443
   0.37829887  0.53870003  0.56251936
   0.29800803  0.52968856  0.45986184
   0.35371212  0.64859949  0.48624742
Direct configuration=    13
   0.61167361  0.30029758  0.47628554
   0.65936225  0.40369899  0.54502584
   0.68312576  0.50207447  0.45423823
   0.58515404  0.42076526  0.43739386
   0.58223457  0.44598589  0.65068743
   0.47835504  0.34562444  0.46226226
   0.54349419  0.34613975  0.57793717
   0.56150383  0.55449335  0.39821220
   0.65851430  0.53192445  0.57649119
   0.64314356  0.62103219  0.48254493
   0.47711997  0.44758597  0.37313233
   0.69813585  0.59979822  0.68040543
   0.52605859  0.52436783  0.51826910
   0.59155459  0.68616918  0.38321232
   0.58806276  0.55100757  0.72588927
   0.44104265  0.42327719  0.57226364
   0.48576563  0.53562505  0.64401363
   0.37747018  0.42692930  0.44613261
   0.58333345  0.63088914  0.61950950
   0.42515934  0.55461927  0.42934792
   0.56054905  0.71356552  0.51962573
   0.30819099  0.42805606  0.55673997
   0.47035920  0.67980458  0.43388945
   0.46251987  0.64114662  0.56229987
   0.37930015  0.53826191  0.56092798
   0.29768454  0.52993445  0.45930712
   0.35338115  0.64917484  0.48620456
Direct configuration=    14
   0.61293124  0.29959950  0.47454002
   0.65948508  0.40281126  0.54487075
   0.68084090  0.50235427  0.45415398
   0.58524369  0.41974738  0.43813546
   0.58051366  0.44638941  0.64908664
   0.47815492  0.34471457  0.46220622
   0.54536861  0.34553105  0.57541719
   0.56122867  0.55494756  0.40080731
   0.66191188  0.53012848  0.57903481
   0.64261976  0.62177191  0.48582162
   0.47715572  0.44866951  0.37632060
   0.69854772  0.60018277  0.68121549
   0.52623798  0.52431751  0.52025599
   0.59293404  0.68577552  0.38543532
   0.58873124  0.55132233  0.72384461
   0.44102245  0.42133634  0.57335678
   0.48596393  0.53709642  0.64270831
   0.37447018  0.42584542  0.44866888
   0.58504685  0.62928864  0.61511207
   0.42523516  0.55461755  0.43233226
   0.55856321  0.71433775  0.51849008
   0.30747323  0.42887788  0.55686423
   0.46968545  0.68095354  0.43240148
   0.46147717  0.64311195  0.56129620
   0.38230398  0.53694755  0.55615383
   0.29671406  0.53067212  0.45764296
   0.35238825  0.65090089  0.48607598
Direct configuration=    15
   0.61320705  0.29944641  0.47415723
   0.65951201  0.40261657  0.54483674
   0.68033982  0.50241564  0.45413550
   0.58526336  0.41952416  0.43829809
   0.58013626  0.44647791  0.64873558
   0.47811104  0.34451504  0.46219394
   0.54577967  0.34539756  0.57486455
   0.56116833  0.55504717  0.40137643
   0.66265698  0.52973462  0.57959264
   0.64250489  0.62193413  0.48654021
   0.47716356  0.44890714  0.37701980
   0.69863805  0.60026710  0.68139314
   0.52627732  0.52430647  0.52069172
   0.59323656  0.68568918  0.38592284
   0.58887784  0.55139135  0.72339620
   0.44101802  0.42091070  0.57359651
   0.48600742  0.53741910  0.64242205
   0.37381227  0.42560772  0.44922509
   0.58542261  0.62893765  0.61414769
   0.42525179  0.55461717  0.43298673
   0.55812771  0.71450710  0.51824103
   0.30731583  0.42905811  0.55689148
   0.46953770  0.68120552  0.43207516
   0.46124851  0.64354295  0.56107609
   0.38296274  0.53665930  0.55510685
   0.29650123  0.53083389  0.45727800
   0.35217051  0.65127941  0.48604778
Direct configuration=    16
   0.61346722  0.29899794  0.47391826
   0.66014709  0.40270009  0.54490825
   0.67950297  0.50280524  0.45385951
   0.58504715  0.41951444  0.43863963
   0.57949527  0.44630380  0.64738546
   0.47787615  0.34429055  0.46239600
   0.54629064  0.34500780  0.57360456
   0.56127502  0.55540168  0.40161575
   0.66408519  0.52842965  0.58107914
   0.64250609  0.62161870  0.48801533
   0.47692120  0.44975993  0.37812058
   0.69938821  0.60086323  0.68114877
   0.52645019  0.52369591  0.52168990
   0.59330382  0.68527463  0.38673903
   0.58849678  0.55136443  0.72252562
   0.44112455  0.42038717  0.57368978
   0.48510891  0.53779936  0.64275609
   0.37381978  0.42540524  0.45009375
   0.58580494  0.62862343  0.61293902
   0.42597130  0.55486801  0.43273259
   0.55786757  0.71565190  0.51775243
   0.30698467  0.42959463  0.55760223
   0.46903252  0.68117516  0.43157687
   0.46093492  0.64343166  0.56030920
   0.38387577  0.53612470  0.55461034
   0.29579953  0.53140425  0.45665450
   0.35167162  0.65175555  0.48588647
Direct configuration=    17
   0.61394946  0.29816671  0.47347532
   0.66132421  0.40285488  0.54504081
   0.67795184  0.50352738  0.45334795
   0.58464642  0.41949643  0.43927268
   0.57830718  0.44598110  0.64488298
   0.47744078  0.34387446  0.46277052
   0.54723772  0.34428536  0.57126914
   0.56147277  0.55605877  0.40205934
   0.66673242  0.52601085  0.58383441
   0.64250831  0.62103403  0.49074949
   0.47647200  0.45134060  0.38016090
   0.70077866  0.60196817  0.68069583
   0.52677062  0.52256423  0.52354007
   0.59342849  0.68450624  0.38825188
   0.58779048  0.55131452  0.72091196
   0.44132200  0.41941679  0.57386267
   0.48344349  0.53850417  0.64337524
   0.37383371  0.42502996  0.45170383
   0.58651360  0.62804101  0.61069871
   0.42730493  0.55533294  0.43226152
   0.55738540  0.71777383  0.51684682
   0.30637085  0.43058908  0.55891963
   0.46809615  0.68111890  0.43065328
   0.46035369  0.64322537  0.55888776
   0.38556811  0.53513380  0.55369005
   0.29449890  0.53246143  0.45549883
   0.35074691  0.65263808  0.48558747
Direct configuration=    18
   0.61461456  0.29769377  0.47311593
   0.66261122  0.40249431  0.54460676
   0.67747955  0.50421300  0.45361907
   0.58424198  0.41916986  0.44000582
   0.57704062  0.44590420  0.64303068
   0.47688671  0.34372152  0.46248981
   0.54736111  0.34398537  0.57073462
   0.56176362  0.55627722  0.40231107
   0.66809601  0.52504652  0.58492433
   0.64247536  0.62061550  0.49196823
   0.47651712  0.45144713  0.38043883
   0.70117522  0.60315905  0.68017325
   0.52749706  0.52139403  0.52384804
   0.59317663  0.68376329  0.38927592
   0.58763945  0.55126697  0.71938827
   0.44173547  0.41880266  0.57396260
   0.48198760  0.53875592  0.64488403
   0.37432473  0.42586946  0.45258290
   0.58627241  0.62777505  0.61053245
   0.42692724  0.55695462  0.43155901
   0.55725908  0.71872980  0.51640801
   0.30614932  0.43154933  0.56016496
   0.46774620  0.68115834  0.43044135
   0.46113564  0.64264519  0.55768907
   0.38472166  0.53474643  0.55355166
   0.29512763  0.53303096  0.45545355
   0.35028588  0.65207956  0.48508886
Direct configuration=    19
   0.61544128  0.29710592  0.47266921
   0.66421096  0.40204612  0.54406723
   0.67689250  0.50506523  0.45395606
   0.58373926  0.41876395  0.44091711
   0.57546630  0.44580863  0.64072828
   0.47619799  0.34353142  0.46214089
   0.54751448  0.34361248  0.57007022
   0.56212516  0.55654875  0.40262397
   0.66979095  0.52384785  0.58627908
   0.64243440  0.62009527  0.49348312
   0.47657319  0.45157956  0.38078429
   0.70166815  0.60463930  0.67952369
   0.52840001  0.51993949  0.52423084
   0.59286357  0.68283981  0.39054880
   0.58745171  0.55120786  0.71749433
   0.44224943  0.41803931  0.57408682
   0.48017795  0.53906885  0.64675944
   0.37493506  0.42691295  0.45367557
   0.58597260  0.62744448  0.61032578
   0.42645778  0.55897036  0.43068580
   0.55710207  0.71991807  0.51586257
   0.30587396  0.43274292  0.56171289
   0.46731121  0.68120735  0.43017792
   0.46210761  0.64192404  0.55619912
   0.38366952  0.53426492  0.55337965
   0.29590915  0.53373888  0.45539727
   0.34971281  0.65138532  0.48446909
Direct configuration=    20
   0.61648265  0.29683593  0.47248800
   0.66542644  0.40096197  0.54318094
   0.67681026  0.50479188  0.45478036
   0.58372555  0.41830535  0.44233143
   0.57326449  0.44664259  0.63873986
   0.47557734  0.34316177  0.46135725
   0.54815090  0.34263641  0.56919209
   0.56183430  0.55577544  0.40311804
   0.67075760  0.52367297  0.58695722
   0.64225486  0.62064988  0.49446927
   0.47668427  0.45216507  0.38072371
   0.70121358  0.60652042  0.67873565
   0.52859657  0.51866287  0.52484375
   0.59272473  0.68203086  0.39129047
   0.58845381  0.55075831  0.71568901
   0.44242617  0.41827645  0.57446224
   0.47790464  0.53918670  0.64695336
   0.37540827  0.42889829  0.45492096
   0.58498236  0.62734345  0.61102006
   0.42614765  0.55910639  0.42976798
   0.55738652  0.72025722  0.51597104
   0.30571935  0.43327593  0.56306010
   0.46737869  0.68269330  0.42987940
   0.46336215  0.63982943  0.55501423
   0.38371376  0.53489122  0.55375689
   0.29658089  0.53374741  0.45526443
   0.34928128  0.65117159  0.48428132
Direct configuration=    21
   0.61737638  0.29660422  0.47233249
   0.66646958  0.40003154  0.54242031
   0.67673968  0.50455729  0.45548779
   0.58371378  0.41791176  0.44354522
   0.57137485  0.44735832  0.63703336
   0.47504468  0.34284452  0.46068471
   0.54869709  0.34179871  0.56843846
   0.56158468  0.55511176  0.40354206
   0.67158720  0.52352287  0.58753922
   0.64210078  0.62112586  0.49531561
   0.47677959  0.45266757  0.38067172
   0.70082345  0.60813484  0.67805933
   0.52876526  0.51756725  0.52536977
   0.59260558  0.68133660  0.39192699
   0.58931382  0.55037250  0.71413964
   0.44257785  0.41847996  0.57478444
   0.47595363  0.53928784  0.64711978
   0.37581438  0.43060215  0.45598978
   0.58413251  0.62725675  0.61161590
   0.42588149  0.55922314  0.42898028
   0.55763065  0.72054828  0.51606413
   0.30558667  0.43373338  0.56421630
   0.46743660  0.68396857  0.42962321
   0.46443883  0.63803179  0.55399733
   0.38375173  0.53542872  0.55408065
   0.29715739  0.53375472  0.45515043
   0.34891092  0.65098816  0.48412017
Direct configuration=    22
   0.61883957  0.29568241  0.47183603
   0.66738491  0.39959889  0.54273846
   0.67674159  0.50440599  0.45684418
   0.58261208  0.41768577  0.44429366
   0.56945248  0.44794956  0.63510694
   0.47461415  0.34306544  0.45994990
   0.54875067  0.34141780  0.56759399
   0.56142636  0.55396929  0.40449834
   0.67134681  0.52340279  0.58730394
   0.64231940  0.62095676  0.49598155
   0.47764558  0.45235937  0.38073424
   0.70017201  0.61041149  0.67716874
   0.52829574  0.51668944  0.52557788
   0.59278692  0.68054280  0.39157832
   0.59028534  0.54878484  0.71335237
   0.44294682  0.41869955  0.57516113
   0.47558544  0.53941259  0.64736922
   0.37686754  0.43169821  0.45698440
   0.58306161  0.62783499  0.61187103
   0.42616137  0.55965915  0.42888223
   0.55766993  0.72024583  0.51720387
   0.30602569  0.43391484  0.56511034
   0.46667729  0.68562299  0.42985845
   0.46540916  0.63677041  0.55201935
   0.38331616  0.53605218  0.55401033
   0.29623588  0.53374354  0.45485638
   0.34961857  0.65167216  0.48436382
Direct configuration=    23
   0.61929088  0.29539809  0.47168290
   0.66766724  0.39946544  0.54283659
   0.67674218  0.50435932  0.45726255
   0.58227226  0.41761606  0.44452451
   0.56885954  0.44813192  0.63451275
   0.47448135  0.34313358  0.45972325
   0.54876719  0.34130030  0.56733352
   0.56137752  0.55361690  0.40479329
   0.67127266  0.52336575  0.58723137
   0.64238684  0.62090461  0.49618695
   0.47791269  0.45226431  0.38075352
   0.69997107  0.61111371  0.67689405
   0.52815092  0.51641869  0.52564207
   0.59284286  0.68029795  0.39147077
   0.59058501  0.54829514  0.71310954
   0.44306063  0.41876728  0.57527731
   0.47547187  0.53945106  0.64744615
   0.37719239  0.43203629  0.45729119
   0.58273130  0.62801335  0.61194972
   0.42624769  0.55979364  0.42885198
   0.55768205  0.72015255  0.51755542
   0.30616111  0.43397081  0.56538611
   0.46644308  0.68613328  0.42993101
   0.46570846  0.63638135  0.55140925
   0.38318181  0.53624449  0.55398863
   0.29595165  0.53374009  0.45476568
   0.34983684  0.65188314  0.48443897
Direct configuration=    24
   0.62019201  0.29534701  0.47159265
   0.66735510  0.39933663  0.54362345
   0.67651899  0.50369328  0.45785216
   0.58273409  0.41694071  0.44552118
   0.56875347  0.44717870  0.63356853
   0.47419929  0.34301040  0.45942432
   0.54887307  0.34130006  0.56607747
   0.56210975  0.55341254  0.40538843
   0.67013905  0.52390849  0.58778816
   0.64254844  0.62081929  0.49613928
   0.47779798  0.45193540  0.38036670
   0.69900201  0.61234962  0.67577298
   0.52706286  0.51636306  0.52507094
   0.59246001  0.67921957  0.39140248
   0.59166039  0.54704744  0.71299917
   0.44303381  0.41873627  0.57561706
   0.47635364  0.54020678  0.64778906
   0.37792713  0.43238056  0.45764284
   0.58250459  0.62828370  0.61256669
   0.42662884  0.56029401  0.42940688
   0.55780628  0.71992212  0.51822652
   0.30706375  0.43388204  0.56576600
   0.46622233  0.68775829  0.42987437
   0.46566742  0.63602622  0.54979348
   0.38228168  0.53622810  0.55344830
   0.29506043  0.53428453  0.45476006
   0.35029267  0.65238424  0.48476994
Direct configuration=    25
   0.62099995  0.29530121  0.47151172
   0.66707525  0.39922115  0.54432893
   0.67631888  0.50309612  0.45838080
   0.58314815  0.41633520  0.44641478
   0.56865838  0.44632406  0.63272196
   0.47394639  0.34289996  0.45915631
   0.54896800  0.34129985  0.56495130
   0.56276626  0.55322932  0.40592201
   0.66912267  0.52439511  0.58828736
   0.64269333  0.62074281  0.49609653
   0.47769512  0.45164050  0.38001989
   0.69813316  0.61345772  0.67476786
   0.52608732  0.51631319  0.52455888
   0.59211676  0.67825270  0.39134125
   0.59262457  0.54592877  0.71290021
   0.44300976  0.41870846  0.57592167
   0.47714422  0.54088435  0.64809651
   0.37858589  0.43268924  0.45795812
   0.58230133  0.62852609  0.61311985
   0.42697057  0.56074264  0.42990439
   0.55791766  0.71971552  0.51882821
   0.30787305  0.43380246  0.56610661
   0.46602442  0.68921525  0.42982358
   0.46563062  0.63570782  0.54834479
   0.38147464  0.53621341  0.55296384
   0.29426138  0.53477266  0.45475503
   0.35070136  0.65283352  0.48506668
Direct configuration=    26
   0.62182689  0.29507146  0.47134391
   0.66704052  0.39927882  0.54525454
   0.67635669  0.50271595  0.45884229
   0.58291599  0.41600513  0.44669292
   0.56872844  0.44570869  0.63252963
   0.47369209  0.34266143  0.45879197
   0.54873095  0.34105180  0.56397794
   0.56325647  0.55270842  0.40598900
   0.66810650  0.52450508  0.58859564
   0.64283249  0.62070611  0.49620532
   0.47798675  0.45165940  0.37995866
   0.69779429  0.61467473  0.67418434
   0.52504845  0.51613979  0.52424637
   0.59168972  0.67768533  0.39133765
   0.59343427  0.54499343  0.71275571
   0.44301891  0.41863459  0.57626507
   0.47784480  0.54152067  0.64785471
   0.37866901  0.43313963  0.45804593
   0.58182120  0.62877133  0.61342457
   0.42741597  0.56102360  0.43014195
   0.55815559  0.71964754  0.51918881
   0.30830717  0.43331309  0.56648654
   0.46593637  0.69050179  0.42955717
   0.46570295  0.63535785  0.54782055
   0.38144265  0.53639391  0.55286486
   0.29395151  0.53523482  0.45475641
   0.35054242  0.65314469  0.48513662
Direct configuration=    27
   0.62362722  0.29457128  0.47097856
   0.66696491  0.39940436  0.54726964
   0.67643901  0.50188829  0.45984699
   0.58241057  0.41528655  0.44729845
   0.56888097  0.44436896  0.63211093
   0.47313846  0.34214216  0.45799877
   0.54821488  0.34051178  0.56185886
   0.56432368  0.55157440  0.40613484
   0.66589422  0.52474450  0.58926678
   0.64313545  0.62062620  0.49644215
   0.47862165  0.45170053  0.37982537
   0.69705654  0.61732425  0.67291399
   0.52278677  0.51576229  0.52356601
   0.59076001  0.67645013  0.39132982
   0.59519706  0.54295711  0.71244113
   0.44303885  0.41847376  0.57701268
   0.47937003  0.54290599  0.64732827
   0.37884997  0.43412018  0.45823709
   0.58077593  0.62930524  0.61408795
   0.42838563  0.56163527  0.43065914
   0.55867359  0.71949953  0.51997385
   0.30925228  0.43224771  0.56731368
   0.46574468  0.69330268  0.42897719
   0.46586042  0.63459595  0.54667922
   0.38137301  0.53678686  0.55264939
   0.29327690  0.53624098  0.45475943
   0.35019640  0.65382213  0.48528890
Direct configuration=    28
   0.62473755  0.29446745  0.47086815
   0.66698454  0.39925623  0.54777492
   0.67663306  0.50167690  0.46048674
   0.58210558  0.41512381  0.44739176
   0.56837819  0.44381512  0.63246547
   0.47228034  0.34192270  0.45696932
   0.54787800  0.34000271  0.56135080
   0.56490042  0.55041366  0.40573205
   0.66517787  0.52486628  0.58967893
   0.64322231  0.62053938  0.49683138
   0.47898864  0.45209064  0.38017967
   0.69710300  0.61854322  0.67246912
   0.52201981  0.51478778  0.52338642
   0.59027328  0.67633671  0.39154598
   0.59606903  0.54261457  0.71190775
   0.44307197  0.41823009  0.57737877
   0.47985020  0.54319992  0.64673957
   0.37854125  0.43488921  0.45814702
   0.58022244  0.62960958  0.61434553
   0.42873377  0.56218120  0.43031893
   0.55881265  0.71958560  0.51985872
   0.30956879  0.43155280  0.56779145
   0.46532887  0.69417389  0.42926325
   0.46620051  0.63523411  0.54660450
   0.38161004  0.53654287  0.55303827
   0.29378756  0.53667065  0.45484938
   0.34976941  0.65392197  0.48487519
Direct configuration=    29
   0.62683075  0.29427170  0.47066002
   0.66702154  0.39897697  0.54872749
   0.67699888  0.50127839  0.46169281
   0.58153062  0.41481701  0.44756767
   0.56743035  0.44277101  0.63313386
   0.47066261  0.34150897  0.45502859
   0.54724292  0.33904302  0.56039302