unknown system                          
           1
    18.266263    0.000000    0.000000
     0.000000   18.266263    0.000000
     0.000000    0.000000   18.266263
   Ag
   7
Direct configuration=     1
   0.60225820  0.48146526  0.49393127
   0.65111010  0.61251533  0.49748931
   0.55724459  0.35161918  0.47770842
   0.39706643  0.62132543  0.59104328
   0.52082248  0.65286654  0.52923615
   0.47262427  0.51951449  0.52653672
   0.42734844  0.38872803  0.51209408
Direct configuration=     2
   0.60277092  0.48138984  0.49382509
   0.65158669  0.61274291  0.49739261
   0.55755689  0.35120797  0.47755393
   0.39669571  0.62150039  0.59125160
   0.52082208  0.65317708  0.52924791
   0.47226848  0.51949498  0.52659225
   0.42677373  0.38852110  0.51217583
Direct configuration=     3
   0.60430909  0.48116358  0.49350656
   0.65301646  0.61342567  0.49710253
   0.55849381  0.34997436  0.47709048
   0.39558354  0.62202524  0.59187658
   0.52082089  0.65410869  0.52928318
   0.47120111  0.51943645  0.52675883
   0.42504958  0.38790028  0.51242108
Direct configuration=     4
   0.60738544  0.48071105  0.49286949
   0.65587600  0.61479117  0.49652236
   0.56036764  0.34750713  0.47616358
   0.39335922  0.62307496  0.59312652
   0.52081852  0.65597192  0.52935373
   0.46906639  0.51931940  0.52709198
   0.42160129  0.38665864  0.51291157
Direct configuration=     5
   0.60889297  0.48048929  0.49255730
   0.65727728  0.61546032  0.49623806
   0.56128589  0.34629809  0.47570936
   0.39226921  0.62358936  0.59373904
   0.52081736  0.65688497  0.52938830
   0.46802029  0.51926204  0.52725524
   0.41991149  0.38605019  0.51315194
Direct configuration=     6
   0.60895127  0.48043815  0.49245160
   0.65753385  0.61585364  0.49620286
   0.56103168  0.34640464  0.47574947
   0.39207676  0.62397463  0.59382898
   0.52082931  0.65658980  0.52952830
   0.46821623  0.51917458  0.52720487
   0.41983539  0.38559884  0.51307314
Direct configuration=     7
   0.60912617  0.48028472  0.49213452
   0.65830356  0.61703359  0.49609728
   0.56026908  0.34672429  0.47586981
   0.39149941  0.62513043  0.59409881
   0.52086515  0.65570427  0.52994829
   0.46880404  0.51891218  0.52705377
   0.41960709  0.38424478  0.51283676
Direct configuration=     8
   0.60947596  0.47997787  0.49150036
   0.65984298  0.61939349  0.49588611
   0.55874387  0.34736358  0.47611049
   0.39034471  0.62744203  0.59463845
   0.52093683  0.65393323  0.53078827
   0.46997967  0.51838740  0.52675156
   0.41915048  0.38153667  0.51236399
Direct configuration=     9
   0.60936930  0.48007144  0.49169374
   0.65937355  0.61867386  0.49595050
   0.55920896  0.34716864  0.47603710
   0.39069683  0.62673713  0.59447389
   0.52091497  0.65447329  0.53053213
   0.46962117  0.51854742  0.52684372
   0.41928972  0.38236248  0.51250816
Direct configuration=    10
   0.60984205  0.48057749  0.49144609
   0.65964575  0.61914721  0.49590130
   0.55870291  0.34738634  0.47609954
   0.39063943  0.62710471  0.59437943
   0.52116237  0.65400573  0.53080387
   0.46943221  0.51800321  0.52696077
   0.41904978  0.38180959  0.51244823
Direct configuration=    11
   0.61126030  0.48209565  0.49070313
   0.66046236  0.62056725  0.49575370
   0.55718476  0.34803943  0.47628688
   0.39046723  0.62820746  0.59409605
   0.52190459  0.65260302  0.53161909
   0.46886531  0.51637056  0.52731194
   0.41832994  0.38015090  0.51226844
Direct configuration=    12
   0.61409682  0.48513196  0.48921721
   0.66209557  0.62340734  0.49545849
   0.55414847  0.34934562  0.47666155
   0.39012284  0.63041295  0.59352930
   0.52338902  0.64979762  0.53324954
   0.46773150  0.51310525  0.52801428
   0.41689027  0.37683353  0.51190886
Direct configuration=    13
   0.61441047  0.48562629  0.48893709
   0.66246140  0.62395648  0.49540452
   0.55386306  0.35005952  0.47674232
   0.39028127  0.63052351  0.59324071
   0.52371732  0.64911726  0.53354557
   0.46747371  0.51249847  0.52823676
   0.41626726  0.37625274  0.51193226
Direct configuration=    14
   0.61535144  0.48710927  0.48809671
   0.66355886  0.62560392  0.49524261
   0.55300683  0.35220120  0.47698463
   0.39075658  0.63085520  0.59237494
   0.52470221  0.64707619  0.53443367
   0.46670033  0.51067812  0.52890421
   0.41439823  0.37451039  0.51200246
Direct configuration=    15
   0.61723338  0.49007524  0.48641597
   0.66575379  0.62889879  0.49491880
   0.55129438  0.35648455  0.47746925
   0.39170720  0.63151857  0.59064339
   0.52667200  0.64299404  0.53620987
   0.46515357  0.50703741  0.53023911
   0.41066018  0.37102567  0.51214285
Direct configuration=    16
   0.62099726  0.49600717  0.48305447
   0.67014364  0.63548854  0.49427118
   0.54786948  0.36505127  0.47843849
   0.39360844  0.63284531  0.58718029
   0.53061158  0.63482974  0.53976226
   0.46206005  0.49975601  0.53290890
   0.40318406  0.36405624  0.51242365
Direct configuration=    17
   0.62852501  0.50787104  0.47633148
   0.67892335  0.64866803  0.49297593
   0.54101966  0.38218469  0.48037696
   0.39741091  0.63549880  0.58025410
   0.53849073  0.61850113  0.54686705
   0.45587302  0.48519320  0.53824848
   0.38823182  0.35011738  0.51298523
Direct configuration=    18
   0.62393917  0.50064367  0.48042706
   0.67357483  0.64063920  0.49376499
   0.54519251  0.37174716  0.47919606
   0.39509448  0.63388232  0.58447348
   0.53369082  0.62844837  0.54253888
   0.45964211  0.49406473  0.53499565
   0.39734059  0.35860881  0.51264312
Direct configuration=    19
   0.62401188  0.50295572  0.47997719
   0.67469830  0.64234221  0.49364331
   0.54336900  0.37554055  0.47992151
   0.39600644  0.63315578  0.58305378
   0.53554477  0.62499859  0.54309652
   0.45915916  0.49221922  0.53563951
   0.39568494  0.35682220  0.51270743
Direct configuration=    20
   0.62415034  0.50735841  0.47912052
   0.67683767  0.64558515  0.49341160
   0.53989661  0.38276408  0.48130294
   0.39774305  0.63177227  0.58035032
   0.53907514  0.61842938  0.54415841
   0.45823951  0.48870493  0.53686556
   0.39253218  0.35342005  0.51282989
Direct configuration=    21
   0.62411531  0.50624444  0.47933727
   0.67629636  0.64476461  0.49347023
   0.54077520  0.38093637  0.48095341
   0.39730365  0.63212233  0.58103436
   0.53818188  0.62009154  0.54388973
   0.45847220  0.48959412  0.53655534
   0.39332990  0.35428087  0.51279890
Direct configuration=    22
   0.62308339  0.50662281  0.47986046
   0.67611884  0.64449281  0.49355382
   0.54028739  0.38112606  0.48110244
   0.39809421  0.63061435  0.58060569
   0.53857447  0.61946043  0.54336567
   0.45820661  0.49092380  0.53679055
   0.39410960  0.35479401  0.51276061
Direct configuration=    23
   0.61998762  0.50775793  0.48143000
   0.67558629  0.64367739  0.49380460
   0.53882395  0.38169514  0.48154953
   0.40046588  0.62609042  0.57931967
   0.53975223  0.61756710  0.54179350
   0.45740984  0.49491284  0.53749617
   0.39644868  0.35633344  0.51264576
Direct configuration=    24
   0.61880779  0.50709350  0.48189205
   0.67608154  0.64359027  0.49374673
   0.53844330  0.38243600  0.48186763
   0.40036015  0.62454547  0.57927705
   0.54046635  0.61835028  0.54139707
   0.45707592  0.49446946  0.53709298
   0.39723944  0.35754929  0.51276573
Direct configuration=    25
   0.61789067  0.50657701  0.48225121
   0.67646652  0.64352254  0.49370174
   0.53814741  0.38301190  0.48211490
   0.40027796  0.62334453  0.57924393
   0.54102147  0.61895907  0.54108891
   0.45681635  0.49412480  0.53677956
   0.39785412  0.35849442  0.51285899
Direct configuration=    26
   0.61747550  0.50638509  0.48255958
   0.67734355  0.64303628  0.49342472
   0.53870761  0.38291023  0.48201854
   0.39994937  0.62237979  0.57945720
   0.54052146  0.62015788  0.54111831
   0.45706828  0.49413190  0.53634819
   0.39740871  0.35903309  0.51311270
Direct configuration=    27
   0.61688134  0.50611044  0.48300090
   0.67859869  0.64234038  0.49302827
   0.53950934  0.38276473  0.48188063
   0.39947912  0.62099913  0.57976242
   0.53980589  0.62187354  0.54116038
   0.45742884  0.49414205  0.53573086
   0.39677127  0.35980399  0.51347579
Direct configuration=    28
   0.61663926  0.50662614  0.48339812
   0.67888831  0.64166315  0.49285280
   0.53964636  0.38220527  0.48182235
   0.39900914  0.62047085  0.58009391
   0.53978061  0.62267352  0.54096040
   0.45806209  0.49424620  0.53526902
   0.39644873  0.36014914  0.51364264
Direct configuration=    29
   0.61603229  0.50791916  0.48439406
   0.67961447  0.63996511  0.49241285
   0.53998991  0.38080253  0.48167624
   0.39783074  0.61914629  0.58092505
   0.53971723  0.62467932  0.54045899
   0.45964985  0.49450733  0.53411106
   0.39564001  0.36101452  0.51406098
Direct configuration=    30
   0.61529585  0.50790186  0.48480667
   0.67966219  0.63979205  0.49233731
   0.53977094  0.38025430  0.48180574
   0.39790390  0.61882257  0.58117689
   0.53947699  0.62507313  0.54028005
   0.46072139  0.49484953  0.53345767
   0.39564323  0.36134083  0.51417490
Direct configuration=    31
   0.61347968  0.50785918  0.48582422
   0.67977990  0.63936526  0.49215102
   0.53923091  0.37890225  0.48212512
   0.39808432  0.61802421  0.58179796
   0.53888451  0.62604433  0.53983876
   0.46336401  0.49569347  0.53184631
   0.39565117  0.36214557  0.51445584
Direct configuration=    32
   0.61291959  0.50724348  0.48602919
   0.67929266  0.63941864  0.49219058
   0.53923929  0.37817093  0.48231776
   0.39854918  0.61749621  0.58199302
   0.53903898  0.62694916  0.53969380
   0.46370537  0.49592444  0.53110892
   0.39572941  0.36283142  0.51470597
Direct configuration=    33
   0.61253729  0.50682321  0.48616909
   0.67896009  0.63945507  0.49221758
   0.53924502  0.37767174  0.48244925
   0.39886648  0.61713580  0.58212617
   0.53914442  0.62756678  0.53959485
   0.46393838  0.49608210  0.53060559
   0.39578282  0.36329956  0.51487670
Direct configuration=    34
   0.61306663  0.50687420  0.48603584
   0.67863590  0.63938630  0.49217523
   0.53947350  0.37757093  0.48252675
   0.39899731  0.61703698  0.58218479
   0.53930303  0.62758339  0.53957780
   0.46341017  0.49608898  0.53053330
   0.39558795  0.36349349  0.51500551
Direct configuration=    35
   0.61300603  0.50686836  0.48605110
   0.67867301  0.63939418  0.49218008
   0.53944734  0.37758247  0.48251788
   0.39898233  0.61704830  0.58217808
   0.53928487  0.62758149  0.53957975
   0.46347065  0.49608819  0.53054158
   0.39561026  0.36347129  0.51499076
