11
Energy = -92.53554933 eV
Mo 8.515550543558488 9.834945654045296 10.178119330244188
Mo 15.036084177084987 9.946907781314945 11.913119750020867
Mo 10.697887307713692 11.458537080628721 10.005026686127223
Mo 11.187575656668136 13.720704141346026 10.855308980071655
Mo 9.001855271922961 12.414730760271802 12.0272464768459
Mo 13.233922004415117 12.06059527763561 10.897140878218362
Mo 12.150752324919386 10.262125727177612 11.474795122021963
Mo 14.39533186259874 11.009385218668983 13.209608272508387
Mo 8.772093769350665 10.298637928879028 8.486818580773795
Mo 11.810517807734271 12.835639026669831 12.712074854453354
Mo 9.764357980597513 10.885507183704554 12.721798758448378
