12
Energy = -102.40587239 eV
Mo 6.918196078061342 7.867729991457241 9.452837322303143
Mo 9.165106729431916 7.106138647738843 7.552548850616043
Mo 6.957306297766059 8.928202882756532 6.57142138210219
Mo 9.811808924840813 7.987112868190494 6.151355905153959
Mo 10.872260344312526 9.900031255479197 8.300539168404445
Mo 8.62484117216628 10.65435449707901 10.20170658133625
Mo 7.976095831715164 9.780574704806915 11.606271065851725
Mo 10.83325282307142 8.83950229869554 11.17868689041
Mo 8.029055364703968 10.167348116178847 7.259158267676719
Mo 5.99040287249866 9.38222122894455 9.378124811969984
Mo 11.800718078686007 8.385494900575537 8.3717227259798
Mo 9.762212088623423 7.598573786194826 10.492495096107488
