15
Energy = -128.62017359 eV
Mo 10.650979805802178 8.888471059208666 6.656916575095873
Mo 8.61936065457298 8.306352283597567 4.920620616452241
Mo 10.838316395991445 6.988228928179787 5.551593762673685
Mo 7.996144192646533 9.130143775625516 7.143019205961232
Mo 8.043125556558143 6.238820326672429 5.71972176575548
Mo 10.209998153647154 6.24154249870242 7.468716551520401
Mo 6.365666584848946 7.327676435420144 6.691787538572517
Mo 5.854948236410003 9.701479986146463 8.650036230343726
Mo 5.883116580002954 7.396361103820466 10.014837745480344
Mo 7.814236889715068 6.646282653874698 8.503332800397743
Mo 9.499458471729056 8.394918699297614 8.921942241794802
Mo 7.815123925218615 10.759974192491086 9.176850702425188
Mo 7.857063981657917 7.374730348979215 11.091046898572067
Mo 6.267648096808809 9.558723240658548 10.95160439368685
Mo 8.796137310102985 9.557619303037585 11.049297806980338
