19
Energy = -165.2940895 eV
Mo 8.708925986772389 10.93864865509946 13.1595412406875
Mo 10.23791893028048 8.647681307704376 12.146570597761887
Mo 7.40719989589663 10.49877724836965 10.749885406022921
Mo 10.978204109298495 11.65574548980124 7.067877827671103
Mo 10.463294129152827 13.490192105824834 11.811642525745146
Mo 7.89871762121158 9.299634729623742 13.353171763719715
Mo 8.315387675899833 10.732347556684939 8.123404590789749
Mo 10.720896687193944 12.426257793842188 8.73714572721917
Mo 12.890497020160884 10.771778167030613 10.160896248429768
Mo 6.677737850015017 11.55976798621952 8.274255825301651
Mo 13.463216587535415 6.996203270308934 10.358086478279063
Mo 10.566032030715405 10.812728965888178 10.94436349588531
Mo 11.21297017481115 7.272199501033478 10.156556226522628
Mo 8.2134194978765 12.388259016568906 10.472942859406016
Mo 13.279171858426327 8.594463616375007 8.865795999534944
Mo 12.836677938191174 8.998529630270282 11.64816277587245
Mo 12.173893242746553 13.147046609702892 11.50755674717186
Mo 9.00731952599683 8.584338853214739 10.178784089031561
Mo 10.936122189915897 9.567050380847883 8.749400768362953
