17
Energy = -149.1172417 eV
Mo 7.673577759466287 7.577982281273288 9.742233194496212
Mo 10.252330920956757 7.381798003523577 10.526071167160609
Mo 9.219199821092495 6.945696140528721 8.108571429088789
Mo 8.380124241645914 8.916568132525564 12.15930152685311
Mo 11.173273650417416 9.510138479852221 11.915819161419783
Mo 12.544035587001774 8.122481467763693 10.661664479802491
Mo 11.377380959986356 8.455768087686565 8.435322237418124
Mo 7.42209606386367 9.234464558504714 8.260434779699013
Mo 9.538266910447236 9.862102704329455 9.689658276154844
Mo 7.059116039511989 9.944225130526823 11.28029289646399
Mo 9.351775348590213 9.005486445816368 6.942628981181938
Mo 12.09612702656277 10.5372350484447 10.014546787733646
Mo 9.3280071810438 11.549146460424838 11.90459658493301
Mo 11.08751165332759 11.158656796096766 7.494682920990501
Mo 8.25703986176561 12.173405222140017 10.08222784187916
Mo 10.536359439623947 12.50887923145332 9.838998879832213
Mo 9.218274353454227 11.69471840040089 7.471247240524952
