10
Energy = -84.13980869 eV
Mo 10.364008851420314 9.106872698617732 9.623713265586137
Mo 12.166970968569363 10.879191781629306 8.543247039212776
Mo 9.98558305625197 7.406609910280893 11.907603627163503
Mo 11.55782549775123 9.68678121229408 11.043160421438142
Mo 13.021023327200819 11.845225777761822 9.804879026186597
Mo 10.2990672891409 13.083557381196357 9.152506949708519
Mo 10.032754983971003 11.454543971590049 12.909510111434045
Mo 8.95544613277352 8.871826741809226 12.048935660589878
Mo 11.122111913100273 12.44491845224452 11.961079745526876
Mo 9.299600646872536 11.692720863297511 9.609073757135366
