19
Energy = -166.96516296 eV
Mo 9.934524163459562 10.465957377634572 5.927635086570114
Mo 9.684299060791622 12.085870662276669 7.457702491289606
Mo 11.85698152018 10.596903935978432 7.95750335633971
Mo 7.550214364326471 10.29492069234449 6.953251990666875
Mo 11.062919561100259 8.531776451754524 6.701790484068116
Mo 8.873609781998654 8.14945997597204 7.2742143047168435
Mo 7.386727289266101 11.435647198391715 8.684489945257114
Mo 10.036979213571 11.134745232905397 9.65332410922042
Mo 10.936279340172552 8.701622392526883 9.167154948111323
Mo 8.348593212900507 9.275170471866021 9.43858379734975
Mo 10.166019883816425 9.278335177374172 11.655959062141864
Mo 12.585535768428711 10.502168517879355 10.745019698949557
Mo 12.869028736722457 8.653447452067981 11.22277728262353
Mo 7.646058565753155 9.158313141151487 12.026987733372227
Mo 7.936139909004723 11.153472126755135 11.589098368934446
Mo 10.336382666837865 11.783838432035848 12.607904199221403
Mo 11.305008265255639 8.379709612049764 13.641821706426724
Mo 12.230033821575066 10.213447983012179 13.607799727481767
Mo 9.47829565002555 10.428823941210952 13.910612482444819
