25
Energy = -223.8452365 eV
Mo 10.220590088356483 8.262121377376713 7.199043029573296
Mo 8.433539821225926 10.501573009447567 7.359854602098667
Mo 10.988926611389074 10.909806547552611 8.499590729610192
Mo 8.760101102192396 7.405683286620704 8.216160804905412
Mo 11.967238005348655 13.102884053314673 9.274631261212095
Mo 7.230598605250655 9.931018942601119 8.913975177449675
Mo 12.27611698860167 8.645167920558396 8.918529153037676
Mo 13.793805142233404 11.164213203564099 9.55312947392705
Mo 9.084318335985001 12.361766442871549 8.924565280646464
Mo 9.494696199890797 9.388939460425684 9.789077573388267
Mo 9.79375630483551 14.969339851611013 9.593439640877092
Mo 10.847885952500903 7.175542267012991 9.791780708675267
Mo 13.562094025539025 11.896932049923958 11.332185206547459
Mo 8.63251486635217 14.437247600620275 10.917525846734712
Mo 10.542019911874243 11.558576074694738 11.085585048246395
Mo 13.451436545071001 7.193911246460135 11.157017365932845
Mo 9.271804584113722 7.773156651692876 12.044514803836398
Mo 7.77147635567782 11.735015442243485 11.17555485548326
Mo 12.204500525406834 9.571473901976969 11.302330930042574
Mo 11.440543371687102 13.659238773942395 11.451828529310202
Mo 8.121778253460002 9.12970549824364 12.30348492785715
Mo 12.167452085676398 7.072655587148813 12.447532144809651
Mo 8.681539664346479 12.047113244338549 12.877624297820693
Mo 11.750590276820306 11.443994735255545 13.565568856655627
Mo 10.728813620927019 9.881060075263798 13.523606996084025
