28
Energy = -249.21578366 eV
Mo 13.598438805245449 15.670899877974472 10.133318741602546
Mo 8.349275388013343 10.728894428712204 13.90763938993845
Mo 9.498654352203392 8.224966165387453 13.475122359747202
Mo 9.712942773416438 9.847021974218682 15.221872424520033
Mo 12.527512214245746 10.192873413806394 10.459861067844818
Mo 12.76990070737615 18.05415626233654 11.501875792952072
Mo 15.572590010422967 12.131576909309489 12.082051871785636
Mo 12.045766106894543 11.116595239147697 14.352046783751007
Mo 13.508845468687685 8.219997226856458 11.714490600512507
Mo 12.249353548638538 13.713811134373584 14.346579054071093
Mo 11.726404102376945 14.510606224265715 11.537323013092621
Mo 10.469826151333677 10.529071499449064 12.40687443799633
Mo 12.074968898042025 16.072530152584324 13.512774365428278
Mo 16.264843364307858 14.208092529008525 11.309077782887544
Mo 9.78249816676012 12.682166389464195 15.179926792773546
Mo 17.133715909516837 13.542054603930842 13.973966433068217
Mo 15.155516217382317 16.705610959763295 11.304996466258254
Mo 11.288573885549418 17.005165437242887 10.933610681502408
Mo 14.115222357877201 14.44636510422836 12.433296565746891
Mo 9.942839014145996 13.149489905133997 13.273413145099894
Mo 14.695162819230948 12.308844510561455 14.263253132079425
Mo 12.710990387627337 12.048270100360194 12.066087625680847
Mo 11.799295897158078 8.573576432008855 13.637566180738594
Mo 10.9884189995494 8.615848241951259 11.113796489432671
Mo 14.061712975510504 9.990751376080166 12.840602734045184
Mo 14.218429153315848 16.931969028436857 13.575011240950229
Mo 16.76733220145524 15.388204010566321 13.598468237071105
Mo 14.503512974482046 14.634985739944765 14.954243551092775
