28
Energy = -252.39817539 eV
Mo 10.400119127556946 14.995081313000743 10.051888081697687
Mo 12.688034520167498 13.900819674937136 10.706678658886727
Mo 12.205995641857609 13.772186587875046 7.926895619677982
Mo 11.497247231596019 13.394900552101287 12.401638884616503
Mo 9.57832335354115 14.199144799550705 8.041945667537455
Mo 9.109150272328472 13.746425315215367 11.792326743691559
Mo 7.728566418323702 13.67936007636679 9.774088117317927
Mo 10.410473017440498 12.426507169117157 9.779592003581664
Mo 13.049533865403976 12.165020221736269 8.436407032680325
Mo 12.468486388859649 11.199586371036489 11.099822426280655
Mo 10.416415019583564 11.342830466596418 7.280079593409501
Mo 9.7240709414952 11.213387007348668 12.097816227294457
Mo 8.496907367019817 11.696970789817726 7.712746183899637
Mo 7.5022476297584 11.719809725690116 10.444593266250344
Mo 11.839793321747218 9.776256799993487 9.143421979135196
Mo 9.18970435596888 9.917028505012967 9.475295425110476
Mo 11.803006937464016 10.296891660703302 13.215515865938986
Mo 7.9620537362074 9.407454160358437 12.194093371626169
Mo 13.447380479241302 8.75684516872299 11.304522497316816
Mo 10.363529746796251 7.833232748055276 8.351057002859749
Mo 10.746894453332876 8.61308208673151 11.344338657523542
Mo 9.479725287272226 8.929111887364256 13.784057987722452
Mo 12.753406320176888 7.480574035774717 9.787580030341433
Mo 12.052885196497261 7.494310663337706 13.622020104138256
Mo 8.353258966070884 7.6563127483170685 10.371507378153286
Mo 11.95744936247306 6.2146011025088175 12.213815819866973
Mo 10.114931452213202 6.221900885203056 9.780673073414286
Mo 9.410688479953933 6.875385367825349 12.580628321789808
