22
Energy = -194.41535168 eV
Mo 8.577498763689878 8.824606023639523 10.965854977803284
Mo 11.025877871160896 8.651131979669522 12.476510459064269
Mo 10.661228104167112 6.644779252105579 10.797768051785226
Mo 9.69013386906606 7.9559123568488594 9.124056052076595
Mo 9.923268836056653 12.430943357535856 6.622000782873904
Mo 10.74819619740763 10.327994833397696 9.848473081430813
Mo 12.224882614702675 8.222394026948662 10.315792685095131
Mo 11.442326010070555 11.636059789029366 7.480132275861439
Mo 10.362342981181351 14.743453721056044 10.891802630338711
Mo 9.817329607356621 13.035795336649148 9.262165717517204
Mo 8.806617979464026 10.521992743715083 8.247777113479982
Mo 8.099630790682902 11.564566775747181 10.270769176636382
Mo 8.887257212062194 13.758429025902508 11.791670242752291
Mo 13.818439425387584 8.55138188488403 12.457247519586014
Mo 12.856620536243772 8.979191092529945 14.158618256998782
Mo 11.234764471195698 11.356404921063254 14.129699798045175
Mo 13.398399956398114 10.993562033273202 9.603266754105498
Mo 12.611776429359765 10.765536211101198 12.061858322824047
Mo 12.37272687954492 12.650880387733435 10.136717387001537
Mo 9.824894124706216 11.123926870482624 12.099556948328736
Mo 11.29116333534021 13.075019859659673 13.009723390387808
Mo 7.136723364632623 9.140569459838225 9.264052369906658
