24
Energy = -214.16926368 eV
Mo 12.066836282559064 13.071087827168158 7.256491848017263
Mo 13.463434341193194 10.008543230679383 13.917976419919455
Mo 12.219697499722388 10.462397394887345 8.812629700542972
Mo 9.76265041950331 9.729667934956211 10.074003311626324
Mo 10.005639074509313 8.394826571770368 14.231917593363148
Mo 10.270396523769648 9.20625461788035 7.1677531716580205
Mo 13.681585784985431 12.102223734058725 11.855682398538516
Mo 12.963914140883157 8.275187551182714 13.55747336276873
Mo 11.243455679545715 7.7322095044031975 11.36927501751904
Mo 8.745539926230695 8.802824617902731 12.887114083032637
Mo 8.241427826368904 13.350486706780606 13.083462906683046
Mo 13.538548531620302 12.422568255047986 9.809568655320097
Mo 10.275149612030718 13.205453608343616 12.994726440217159
Mo 11.113404959171087 10.499885404039441 6.199043719506836
Mo 13.151054719815187 9.938177550967408 11.113911849819747
Mo 11.257518347279325 13.98563432488673 8.591670319307392
Mo 11.09748622535457 11.948608611992457 10.661364634479009
Mo 9.411285856204941 11.137307780433835 14.20707763664454
Mo 11.109798780598682 10.306985473204527 12.682241786338148
Mo 8.835145945103683 13.313049196213711 10.315112415252706
Mo 11.644455540122735 7.908392234068634 9.537186111562729
Mo 7.618111856011807 11.442767768933743 9.321920789282958
Mo 9.705163038777584 11.665627550124842 8.367044142028204
Mo 8.520994088399485 11.30798723807735 11.66185413074887
