38
Energy = -349.04227178 eV
Mo 13.915115511198321 10.305662037690391 9.432577190939297
Mo 14.86365470503228 8.041766822636474 10.63487531169426
Mo 12.857207881566287 11.33123719231456 7.188682992656121
Mo 14.326118135580714 7.877315738743495 8.764274038426066
Mo 14.134660664503015 12.36326863880843 11.283169932719028
Mo 13.54486809303675 13.150799826330756 9.644003241307038
Mo 11.760526794383374 9.214320869974614 7.904218679812805
Mo 13.944266174799658 10.76868840548857 13.79497281674904
Mo 12.164421401112376 7.7598823681541 10.378038995218068
Mo 12.966771809907542 7.836183886810259 12.706866482025678
Mo 12.673162062456743 10.004801394955825 11.824618615119617
Mo 11.21527543171092 13.081812188483582 8.025417409939172
Mo 11.492822273151058 11.011699737422179 9.585146378677102
Mo 10.767202677737444 11.180382459873737 6.023926663935862
Mo 9.706832237741136 9.158094988811847 10.384682155465843
Mo 12.397748940425814 12.172043096596582 13.767309071879216
Mo 11.576703820234735 9.515644057202305 14.658995281654752
Mo 11.156862892608189 15.412576335270078 9.552891313151624
Mo 10.205377849103689 6.938011894177987 8.573938242540347
Mo 9.129099481051263 11.788756224319888 9.51963486356761
Mo 10.479945314635213 8.110687913263657 12.621438140723393
Mo 11.339703753108155 13.183655049395966 11.319016518877875
Mo 10.317413285100919 10.919485356153869 15.260901248619085
Mo 9.806452124426519 13.339501999751555 14.05883543002172
Mo 9.411868401748595 9.71772541751472 7.750707647920169
Mo 9.371548727391211 14.640895506927796 9.508473148267695
Mo 10.142692144210514 10.990511835275672 12.448287321361878
Mo 10.616179959332593 15.08298454323203 12.123925340948047
Mo 9.180679606170008 12.422874466627885 7.0188456756564
Mo 9.921345927417455 6.327192868951717 10.3827106912113
Mo 7.579182318165401 7.868320148953549 9.07368754118515
Mo 7.862656351928153 8.125205542665983 11.666544965220194
Mo 8.495485106642354 13.359358513139043 11.762589808804302
Mo 8.693679274853405 9.36402563120913 13.813795405625429
Mo 7.021034822791184 9.771133727219011 9.298632782972625
Mo 8.02549159535251 12.220272138850651 13.987070929614907
Mo 6.93376519160266 12.629951046832907 10.221785645173794
Mo 7.650871947855606 10.661964820041868 11.683206770391394
