30
Energy = -271.71772667 eV
Mo 10.775594173554284 13.545196735830439 7.247158488778482
Mo 13.250065930995504 14.205725381372545 7.914808512203708
Mo 8.360837134319725 10.678396061679488 7.826995621420032
Mo 13.403287710953563 12.363168706579916 7.909503972397726
Mo 10.321694924504284 8.81979689513173 8.327942342046672
Mo 12.645508249559793 9.49370936341172 8.224269508639528
Mo 8.799549466022953 6.420796883945706 8.552548922244299
Mo 10.608420626578834 14.293104797771297 9.239280250226772
Mo 7.867073436342269 8.895338811670026 9.548134600521003
Mo 10.982912315178513 11.342312633800756 8.650018013375846
Mo 8.559923697209815 12.56500597317297 8.691192485750133
Mo 10.677817434313514 6.170790903606232 8.882535886875084
Mo 7.853816164188779 11.108485461368142 10.660991718228733
Mo 12.156317619024064 8.12469886802934 10.16084401916409
Mo 12.409970208803273 13.1162326509462 10.393811315330083
Mo 12.653902180124662 10.598370157302536 10.63458300986898
Mo 9.317271244354329 7.057866729710557 11.04790922829346
Mo 10.110841150965946 9.54950924569501 10.893795548586366
Mo 13.952917316718775 8.889268190079994 12.422613913956571
Mo 7.879556587052414 14.029179595371094 11.025946601439871
Mo 7.795522703745674 8.57735324496329 12.146932204724607
Mo 10.150313736508785 12.27833324351688 11.249018435103258
Mo 11.346290730362613 7.374374100985288 12.625115989381703
Mo 14.252278353576433 10.618511171987024 13.043380036075803
Mo 7.873770733511066 13.256606416910909 12.661378334699746
Mo 11.554939622663548 10.000107088272994 13.043872389111149
Mo 12.231241484441862 12.689269802641164 13.03948777758194
Mo 8.698292821788607 10.457692811643003 13.074896023064303
Mo 9.853831774398845 7.990439812637948 13.810260780926518
Mo 10.499865944048508 12.33398373577643 13.894399545793116
