31
Energy = -280.92333597 eV
Mo 10.66935303026926 8.549494000180069 13.356322671765218
Mo 11.651571111217411 8.346192917011933 10.83571962472104
Mo 13.095182533675008 13.47420304669279 12.46666664602426
Mo 11.312953651447941 12.629921407465686 14.171765478335816
Mo 11.735570772580218 16.51924341084714 14.616351316438324
Mo 8.137552369169935 10.629874284299017 11.442657196858214
Mo 12.443417374169774 16.161819582972896 12.177756920128154
Mo 10.432588785966292 10.1408908884783 9.962023682520856
Mo 12.064372234998327 11.890283116080235 9.40897874227121
Mo 14.389895902415091 11.56664660761186 10.693013974550189
Mo 13.184568570564636 9.678266955444272 9.651357293435069
Mo 15.477122327064487 13.411513607820067 14.194165427901977
Mo 10.523843612568095 14.861911595061285 12.69821192519734
Mo 12.219963832755536 10.46575638180314 12.289747704931196
Mo 13.673660619192052 13.733261454757832 9.316225865651765
Mo 11.801760694650808 14.489339931552918 10.222601175974866
Mo 14.442099779904051 15.430580024315464 13.689447561373731
Mo 11.810313705974169 10.053680129205281 15.023408946986017
Mo 15.775978861309692 13.945595924826044 11.407374761358362
Mo 13.009752046479752 14.411974071856271 15.257574701303867
Mo 8.760656589422819 8.723525260939306 11.513982419974644
Mo 10.476975276047344 12.372246914295921 11.461318420778168
Mo 8.879381181522755 13.056434731210045 13.064273358487558
Mo 10.278962354467605 15.000649512046557 15.046812525894154
Mo 14.750440210244772 15.492226315407187 10.892753829526079
Mo 14.47431977202481 8.720895977507523 11.982908438556176
Mo 13.244103698642768 7.790811477286649 13.14554124058897
Mo 14.032519693439225 9.70177836654444 14.74043329478675
Mo 13.657403639774023 12.037234591636913 15.239659308065496
Mo 9.551359818751019 10.601160997633755 13.48761477528319
Mo 14.936822534046174 11.357816166782717 12.938929734266338
