30
Energy = -272.85626228 eV
Mo 9.054276022644263 9.843754265515 6.9995483744299785
Mo 9.087302399056142 11.902118697971192 7.381363801956749
Mo 11.411629057014263 10.428128103339436 7.855345964835485
Mo 11.614854794559482 13.031271469154893 6.806843833094327
Mo 13.637870808013373 9.12329430569528 8.875311789016937
Mo 12.243130215487312 7.825483705350892 8.422230363926362
Mo 10.748730686979476 14.483045544044792 7.753846121344248
Mo 9.671839515374332 8.402946189489608 9.029595681711248
Mo 8.717994536115498 10.630725674379907 9.678781507653518
Mo 7.13655258485303 7.946736987696449 9.803172220874618
Mo 13.334381856178949 11.993231719910417 9.136198324652039
Mo 10.591350924916814 12.459014849727255 9.422209214107713
Mo 11.415826970569896 9.788161451413051 10.344947175618985
Mo 12.945302708012765 13.952043185923518 9.259544648061018
Mo 8.207492602498874 6.62227390947416 10.625649474368586
Mo 11.131241069753253 7.082596425359728 11.099170609920797
Mo 12.227109766325402 12.645690496799702 11.506782168890348
Mo 13.025310625946117 7.5193992698919105 11.169354876069622
Mo 10.61869106313555 14.665818469730967 11.108229783421265
Mo 10.273098311044249 11.197730536180003 12.216210026119505
Mo 6.747093726802628 10.427593436874792 11.441246798216227
Mo 8.661862802244615 9.005981768839314 11.842144812433826
Mo 13.648945667432706 10.370627916438696 11.850603693154758
Mo 8.432590823027313 12.705026476277913 11.24784809654778
Mo 11.468363966149147 9.094057660569403 12.944469135795654
Mo 9.609627790840216 7.232472286945064 13.731553996814661
Mo 12.81509450851175 11.082057547059671 13.62897388192389
Mo 10.072247525593793 13.909991438196322 12.860155748860606
Mo 7.801049044044409 11.334920079713468 13.140138879448871
Mo 9.288790444522636 8.933458949686193 14.458181814378772
