37
Energy = -339.56096528 eV
Mo 14.186021785737555 11.644647738584679 11.13564159511244
Mo 13.036889379293159 9.33822934602535 12.005756613969089
Mo 13.991245923763856 8.807198810101543 9.645279343121157
Mo 12.265101140705086 11.82576044019715 12.817776700509697
Mo 11.78722473017643 9.640543357996892 14.095475171674853
Mo 12.80964169597648 6.906178191830944 11.442608194524988
Mo 14.387028582689535 10.666846944894973 8.592615176136977
Mo 10.959488652107506 7.280296812612491 12.814425144135628
Mo 13.255319019281822 13.127080276146893 8.564226667654589
Mo 12.594239697865037 13.625445122012815 10.570329577677963
Mo 11.666887936187665 6.612677572524763 8.890178177021419
Mo 12.166171968906921 10.988801915368574 9.865542392717883
Mo 10.594801470061467 13.849644028239386 13.132476626579558
Mo 10.300459144777195 9.939137933952546 12.324698414539652
Mo 9.81245872813371 12.195480651490993 13.86838971784856
Mo 9.79904990027102 6.148919996182001 11.049898482013136
Mo 10.912393377363323 8.39683907410525 10.279607264126835
Mo 8.741317019610149 9.078285734301755 14.27602088409316
Mo 9.903420837904624 10.284311929984879 8.52036456424036
Mo 12.350622653449006 8.858695702989618 7.831993919359464
Mo 11.955250168238306 11.291601315039252 6.69206832594313
Mo 9.761963495312804 14.40585676547772 10.235081870152603
Mo 8.313418208975364 7.882459737915912 11.931670600888364
Mo 10.041924852257655 7.725260171767858 7.548427480103001
Mo 10.708365198017903 13.07007768193974 8.417670998720437
Mo 7.539734301901553 12.787492131860615 11.815526061683746
Mo 8.190707819486656 10.224252463991842 10.472806367467115
Mo 10.127400722008009 12.261762398529704 11.000593891385131
Mo 7.523992895439126 10.184967758231165 13.239548523062085
Mo 8.395625300857994 7.602653734006032 9.436757490829512
Mo 10.678471020439142 9.981933524091813 5.899757382893002
Mo 8.942498131639192 11.804458056768901 6.944707436982573
Mo 8.116868008999653 12.587284444917392 9.13906677434893
Mo 6.290838088145709 8.922901191622337 10.162999610916156
Mo 6.042079836491154 11.800676361149852 11.136024807721352
Mo 7.555115471766104 9.392634460707026 7.534010118244815
Mo 6.302184338222315 10.760391903162574 8.315400390213798
