44
Energy = -406.97810344 eV
Mo 8.149024781734632 10.56254852084741 6.095681181562773
Mo 7.953519008127051 11.044393418706504 11.279631557220876
Mo 9.798198521661174 9.001424947871326 7.941171214865722
Mo 7.925590832789352 9.832483229337077 8.767312402545526
Mo 8.332684737109108 14.619427235447064 13.283138793832734
Mo 9.952746587118323 10.57022416413117 5.561639573626541
Mo 7.837025187352404 12.308012208609108 8.250659157193235
Mo 8.615914111478638 11.69643562728848 13.537114973246936
Mo 9.55273883492826 8.556910137202786 10.441293741915285
Mo 10.10096115349786 11.384198903971063 9.513466208814577
Mo 7.751448242633496 13.326904381333668 10.8389453843655
Mo 8.024020076197075 8.738124279287613 12.782823302681086
Mo 12.145554772961566 9.551960392484503 9.763932464051027
Mo 10.431360062046357 13.455874376193329 14.726205112079077
Mo 11.248618780714507 11.630059515200475 16.382820180858037
Mo 11.694107250805791 10.98775354794093 7.546854721425799
Mo 9.57560067595561 12.845114868911617 7.080843372550889
Mo 9.478640372606707 7.598473599754884 13.30468908102632
Mo 10.100956483618663 12.925996983369952 11.849743322050697
Mo 9.843578811751973 15.545714405307058 12.64887095110896
Mo 10.48299342267984 10.082117909307332 12.132235190566876
Mo 9.895635799656395 9.894367743166768 14.873735226279171
Mo 9.680246476448898 14.093714896343725 9.45567007142687
Mo 11.925993276946192 13.312177082326249 8.68749090886937
Mo 11.79294211143709 11.510941871274431 13.743416619261488
Mo 11.632572996334309 7.859787818603253 11.650089126508746
Mo 11.847767267480947 8.866748251889701 14.419203654731435
Mo 12.827467637794955 13.769857462213842 16.25701474336639
Mo 12.522597199692594 12.095549751994357 11.01403203127219
Mo 12.311244406491692 14.119525626682892 13.396725056428265
Mo 13.453684335488239 9.65940599414562 12.325872084673083
Mo 13.412666448944076 10.997627713270582 15.596093298717976
Mo 11.934240916001338 14.656742484559485 10.812015902312416
Mo 13.783824165310634 11.346723670502389 8.868584496125408
Mo 14.31393113326097 12.14838806235916 13.20814303657327
Mo 14.548311390101937 13.875218310190107 9.694093079286802
Mo 14.54904824882709 9.13030382099308 10.379648092721084
Mo 14.604701926583319 8.666108779156026 14.697942501575708
Mo 14.463213765906167 13.604864523391006 15.332192517014267
Mo 15.700556102972172 9.858988680887597 13.733042236103907
Mo 17.211773108117676 13.682151095291733 11.05178912880502
Mo 14.525404926425734 14.371099098680977 11.680441756181972
Mo 17.005845051446897 12.892596649580074 12.66742866356345
Mo 15.25819749724667 11.520106856679497 10.92341277729727
