47
Energy = -436.08316366 eV
Mo 12.885467495688033 13.865611069970532 6.344303243219907
Mo 10.072313429997946 13.289460375807549 6.943256361029907
Mo 8.819692362020762 10.357471074609862 7.281596343944616
Mo 11.605169989891658 11.369189569496847 6.81277525803496
Mo 8.040983738156074 12.595874888674087 7.70693158209953
Mo 14.267497981111736 15.450564519776918 8.165318964837814
Mo 11.397069224850124 9.219126810272009 7.811543995978855
Mo 11.320325312373807 15.360311225534733 7.963981390445936
Mo 14.075902145435771 12.595477085070709 7.217985166625005
Mo 13.176234097374202 10.520319151060667 8.934721327778044
Mo 9.190788091848628 8.439060797744352 9.621029626104294
Mo 11.184695890581002 6.99151780975276 8.987041972134062
Mo 10.267973833330233 15.27418776620704 10.264334915358331
Mo 7.4606095340382375 10.259991601499078 9.103607196882024
Mo 11.931439452622268 13.314199451884091 9.036787670342841
Mo 13.250355194392457 7.923298247291754 9.610507319646137
Mo 10.151210138412242 11.360012872831971 9.241335475905629
Mo 12.691568743822579 11.567882953297929 11.256265150353155
Mo 8.65009464578933 14.9826236509647 8.762182859486932
Mo 13.249893200316437 15.94606571777181 9.735862817797136
Mo 15.451990807802684 11.193394121541838 10.215631637003156
Mo 14.360717954458535 13.420786851536514 9.896852942455588
Mo 8.77304622934722 6.359831189839327 10.97883587916144
Mo 11.34750449059491 9.26605522070432 10.698639416456537
Mo 6.8063509126616175 8.383222240430035 11.43239321621001
Mo 8.323731037047567 13.066478752364944 10.325080305487647
Mo 11.178287951024457 6.548453023507563 11.440130727610375
Mo 12.778747041121395 14.304172822850065 11.998509992916322
Mo 14.130526313094574 9.413716353123188 11.470470308900616
Mo 8.674942032070737 10.616928253074445 11.311999483247716
Mo 9.471164909083965 8.249407456234932 12.54627699427044
Mo 6.8277224261526435 7.305655897291554 12.969793202309171
Mo 10.647057731652831 10.75886383793656 13.076061072937879
Mo 10.4098100165422 13.106518348406844 11.55531937857522
Mo 15.091462234849562 12.107813196432119 12.158568893306922
Mo 9.276311026367805 5.58647025389324 13.493962359052507
Mo 12.408621758712021 8.357614803814641 12.949219056524552
Mo 7.712037988256985 10.01082826494425 13.797175276758587
Mo 8.31384128432705 12.652146933014786 13.328510284767074
Mo 10.854959531115204 6.3703347847563805 14.291919747565013
Mo 12.66995928183938 13.078375800568935 13.577855398426527
Mo 13.340764873723927 10.485449019040502 13.797563401382181
Mo 9.160723221598374 10.724496537118423 15.383406943095407
Mo 8.658685655224495 8.003035241599573 14.906615810082139
Mo 11.140632836863203 9.144724973990067 15.12802944797706
Mo 9.981417962289687 13.106682632884922 14.336390309669618
Mo 12.004677681161109 11.181276240620077 15.618399566882305
