48
Energy = -444.92652276 eV
Mo 10.699999738767573 10.207918286991923 4.4819528302930545
Mo 8.620608642468227 9.417356383596553 4.524980357488616
Mo 5.955372187414945 10.727590950267594 5.6329234950112905
Mo 10.943963044947704 7.727272313910143 5.45044520533314
Mo 5.744633897550988 7.9275326455962505 5.873640907156583
Mo 8.568018823488925 11.441381356409115 6.036873104612128
Mo 8.501455503157922 7.236405782760117 5.875268246468267
Mo 12.69926109195669 9.7380405297028 6.333258119786661
Mo 13.76494864858943 7.322188128203135 6.7020912671005535
Mo 11.030633246963236 11.95619801425499 6.553507981867138
Mo 10.129942214612687 9.404747404455808 7.059902729647314
Mo 10.510891843302193 5.685529795548893 6.92988072371312
Mo 7.593350887963977 9.29388371189747 7.22297240516926
Mo 4.692779345339536 8.86837680900568 7.432886987721257
Mo 6.045402591334901 11.594895349416499 7.401026215601514
Mo 6.246968110248801 6.955234644392811 8.21798291929438
Mo 13.160876623771099 11.978148734269462 7.151778016665587
Mo 7.839841407763721 4.702777801383863 7.818308549613693
Mo 11.539028574703323 7.453836840717222 8.335002016935288
Mo 14.01435399968912 8.326059396178048 8.321609343945429
Mo 12.04230291922776 10.370980808109866 8.887237546063846
Mo 8.870162532526862 11.6319881909607 8.701576574910877
Mo 8.801242064409479 7.052703904847114 8.505313210087914
Mo 12.213072080504478 5.83512105861943 9.911265986049926
Mo 9.614333773742308 4.429812402338077 8.893143754851142
Mo 4.05011940815522 9.587304292957127 10.069524506573345
Mo 6.205899030523823 9.838776280654907 9.536692694478178
Mo 9.689691201772863 9.149924080104709 9.717685683030602
Mo 11.34580000736242 12.952403383648848 9.181258611652671
Mo 5.116503936296138 7.463240332311487 10.497655472972758
Mo 12.178625372636503 8.508084152456489 10.931807641793128
Mo 10.171195074458037 6.41836158753856 10.726434545340348
Mo 10.6284959497414 11.128512083466413 11.208634367460588
Mo 9.198514238213813 13.142989719071004 11.123019024846407
Mo 7.055806811846446 12.455989490082898 10.151936120227628
Mo 13.040563486217058 11.297661648445946 10.975157028565782
Mo 7.399094193500898 5.403109370149028 10.364815795768381
Mo 7.520810583896604 7.790119296289811 10.838862771186978
Mo 8.035995072248074 10.517444080723406 11.277878402916956
Mo 11.788757968117082 13.640007240901463 11.1210587688245
Mo 5.7464012665397055 9.425921777904042 12.419740792749417
Mo 9.987720873442495 8.583045291485748 12.30844550879051
Mo 9.124419283011193 11.442773810378066 13.538779057367451
Mo 6.214153569832227 6.434528765740017 12.879697186160989
Mo 7.247300326024138 12.03883416928962 13.192742774723799
Mo 12.256830406738219 9.845255557749722 12.843958780789514
Mo 8.170430778928926 6.221030835321 12.929776295534417
Mo 7.544523411697338 8.989797555143914 13.47070571850452
