41
Energy = -378.00834064 eV
Mo 8.726371369698713 8.545357430552228 3.9617296515686142
Mo 9.804696402632487 9.863345384988815 4.971320883345573
Mo 6.953143733533672 10.578805808042455 5.026985389372413
Mo 10.184069868864004 7.082055435302895 5.834054679851163
Mo 7.810746551695685 5.9930731646536115 5.509542086745902
Mo 5.21000086009012 8.36477641104658 5.6596216336677205
Mo 12.734687576584552 6.183188631783254 6.853756638722246
Mo 12.426606322174226 8.252058937094471 6.813650151984503
Mo 5.630270181007358 6.505068325061638 6.706189271016188
Mo 7.611540039632304 8.53527020876513 6.337134736441037
Mo 6.303705067878911 12.904462877048662 7.054883546246834
Mo 10.045048324611297 9.138742468969452 7.661794063275028
Mo 8.330852289346794 11.295686612276219 6.8529911212061885
Mo 10.074957861320001 4.945364999541739 7.008760014727243
Mo 11.463556907646518 11.044087116735339 7.627815619555117
Mo 5.6304603626115535 10.814529873962993 7.280952317229799
Mo 10.831072283673691 6.7192520030544465 8.652055860201141
Mo 13.3612474701737 6.836574262533904 9.216881403129129
Mo 5.423680572776957 8.336703098718019 8.425944699311197
Mo 7.7613104499574 4.452723349002658 7.16985564849179
Mo 8.580605132347916 13.48888926180472 8.255548104230485
Mo 8.163206414316264 6.665134970055381 8.318639639597588
Mo 11.976001093776562 5.284210825520495 10.451269969305459
Mo 7.591141886003826 9.685213737030566 8.83731810186533
Mo 7.079002503990644 12.271138290586523 9.49382790357416
Mo 6.293432022508126 5.829545933144943 9.472990306653998
Mo 12.187807830829561 9.11705519015123 9.492991642551189
Mo 9.686750269342848 11.444483153399327 9.359113814739862
Mo 12.216860698074901 11.46844396075145 10.006501879799105
Mo 5.328549184481134 10.14166106806917 10.306949477981712
Mo 9.624142527744656 8.636191491626583 10.305808647250519
Mo 4.463189368072941 8.277552250987775 11.161332877491894
Mo 6.952551801796309 7.715464083162902 10.661475607937211
Mo 9.312878706793162 6.1770807640922225 11.117933732532935
Mo 8.853148433624119 12.456842359642193 11.465832635900608
Mo 7.7912874425954275 10.329002383036924 11.548850460603814
Mo 11.580323931956885 7.152294881823377 11.472615341376937
Mo 10.700335392236669 10.437529112795218 11.58252578000347
Mo 7.094935907921089 6.730286997136612 12.983956303942103
Mo 6.000321517221309 8.94645753360982 12.842386446769016
Mo 8.829947459382867 7.978839373366285 12.860655930731289
