4
Energy = -26.61615145 eV
Mo 9.35809087530973 10.179912718479553 8.974608966740519
Mo 9.415433782568707 9.481191531403516 6.15841320063056
Mo 10.46858321574806 8.98347679025686 13.085130872903063
Mo 9.567478123856707 10.167897757201414 10.643333250974848
