48
Energy = -445.01694238 eV
Mo 15.064203337369426 8.130812017199823 14.012131713229047
Mo 14.698151671580343 10.018768229039134 15.580889224760943
Mo 15.095799935758151 10.963489923824532 13.702845673583127
Mo 14.74408634955377 9.060372489115158 11.780717853572737
Mo 12.748699657449356 7.217440758485868 15.302382903135669
Mo 13.548987120343808 6.621751704566819 12.494109731825313
Mo 15.206176469650854 12.156905049126411 10.95948919243623
Mo 12.785209100266075 9.257843777096411 13.746712621055078
Mo 12.608710837302977 11.684745742513593 14.852287487842633
Mo 11.991496761767758 9.238141461944885 16.324560677159543
Mo 13.609116467873736 13.56313868625874 12.979169224686627
Mo 11.416760203498702 6.894536951832801 13.295026523012284
Mo 13.102164443815434 11.353926612301734 11.853845207202609
Mo 13.807738647531057 7.254771452214975 10.155001985043956
Mo 14.109447632262567 10.143974564690728 9.237821386711554
Mo 10.305482982909936 8.821978688169349 14.900468768302488
Mo 13.755729651516537 13.76454549197854 10.435609502506221
Mo 11.520323128455694 6.793385420667642 10.326250831443284
Mo 13.821981238104808 11.849265193166675 8.362237212687768
Mo 11.966813428736305 8.976480344265916 11.19592336424762
Mo 11.288435481376508 13.584779754192198 13.882526854686686
Mo 10.69741732257998 10.874713701017672 13.0686943051549
Mo 11.292759448424531 13.061294529304442 11.243843746160564
Mo 12.189017642811566 15.666618694174076 12.075960349353174
Mo 11.523661324710389 13.580276797477657 8.538574973668235
Mo 11.68440632564121 8.587723653047671 8.486754475470738
Mo 9.478005782640025 8.598917812816715 12.111448240402854
Mo 10.131187221484643 11.288960664011206 15.328490063996087
Mo 11.418888065691927 10.854916680964068 9.324893012453574
Mo 11.140906604133383 15.50423463693646 9.810187609959486
Mo 9.30574255719745 11.086233206001321 10.750183192798062
Mo 8.034349835819127 10.642431194697094 13.506018739883963
Mo 8.995032274365395 13.974020459553133 10.362170407117102
Mo 9.442771061803915 8.646359721145247 9.713204759665027
Mo 10.117275933958663 15.259369222420483 12.570094906507858
Mo 11.389432243103943 11.332474265140283 6.678932230851767
Mo 8.720923833963369 12.806238402407246 12.887288309027584
Mo 9.261998513260918 9.652508569353154 7.068423895034377
Mo 7.109621297721013 9.563288568199452 11.570072483671686
Mo 9.180086090523377 15.017261911502676 7.707831235957705
Mo 9.156819880406145 12.254793587165036 8.297364798743637
Mo 10.524004891083822 13.01196470490199 6.030420078825086
Mo 6.958765824888176 14.116766605359217 9.131802250970438
Mo 7.411867342832861 10.247738108886056 8.937978292166223
Mo 7.025469698690956 11.999665613468334 10.955190716513105
Mo 8.327236109037575 11.019067215119003 6.068622425337931
Mo 7.980157058393327 14.051881095258425 6.527662953971654
Mo 6.385632282708077 12.211514525839881 8.162635162185882
