48
Energy = -446.6567339 eV
Mo 10.465185914170068 10.958726422677895 6.832928833690109
Mo 12.90501324689764 11.029896836003543 8.030040268640478
Mo 10.851198696567266 13.25710866022443 8.343660493519376
Mo 11.80061940316862 8.5807492952534 8.112931443065412
Mo 8.69180495188717 11.771356060800931 7.512557414252604
Mo 13.486704545890797 13.823056926398317 7.889605619576625
Mo 9.131655194735476 9.054814348582926 8.236869812677858
Mo 8.21112533738044 14.487157262663109 8.245668827945265
Mo 6.7020847230689204 13.354466227722103 8.738716261552536
Mo 12.795485964474496 15.221172520445208 9.207789737500125
Mo 14.632824088977424 9.155212762305577 8.41387939220669
Mo 14.986530703335609 11.997203254189117 8.997931407962456
Mo 10.523435402848646 10.689476726352817 9.625896643167751
Mo 7.540900512502915 10.31071394701898 9.560192151184888
Mo 12.89174576717805 7.178230199534073 8.988850042380294
Mo 10.493456572901694 8.182070311537467 10.679022411176978
Mo 8.181408454673722 7.767521148912355 10.259497925212697
Mo 14.479511569606563 13.798691013024701 10.606021342582656
Mo 12.418500054983047 12.505790219337559 10.378742674576705
Mo 8.887669904672856 12.599425743892946 10.253160143150529
Mo 7.612145679300436 14.718292129931783 11.04598098711803
Mo 15.961891828339775 10.099621134171647 10.236187302379944
Mo 15.381237550579373 7.231162680207847 10.512306518981656
Mo 10.328913955749847 14.727169095422306 10.290443415124422
Mo 13.167355337128281 9.649990619343875 10.40670428072369
Mo 16.904263857885898 7.824720716941952 11.430437073124402
Mo 6.527859434112895 11.966927205864604 11.219298493950763
Mo 8.391778097175989 7.415607915758449 12.572741274485631
Mo 8.911626506804378 10.162968112497966 11.873053993834883
Mo 14.521548920518002 11.299825095141964 11.839274161693698
Mo 10.491269941477238 12.690379870082387 12.332309819914897
Mo 6.476616239435289 9.192858077662747 11.991039765142823
Mo 9.701905458673426 15.290234134117432 12.932990983971372
Mo 12.864939690757828 7.666895140553793 11.867861189582994
Mo 12.390152420149878 14.916296608412791 12.08652491356771
Mo 14.77925245950475 8.856306508309371 12.707568188230715
Mo 11.834316838675932 10.45234140874059 12.622828284504461
Mo 6.473985613279845 10.755022222944728 13.43512542162195
Mo 10.64422526988639 8.333484406854742 13.253201984601755
Mo 13.191931596410981 13.384285571562662 13.145275126468587
Mo 7.864479053205646 13.386164993237012 12.786007025997097
Mo 8.308824185052762 9.232972531871951 14.428876575706704
Mo 13.714661048385711 10.796631738375078 14.42916081396088
Mo 13.153314050419608 8.62160893478698 14.656507620936102
Mo 10.708732205537558 14.495380997503267 14.43208351183383
Mo 9.065406227411684 11.418755444638776 14.321763094147055
Mo 11.068786899527119 9.663863043197217 15.350941363367637
Mo 11.433905897756055 11.979581048053504 14.83173124206865
