48
Energy = -446.03368142 eV
Mo 14.368514282872125 16.567882233443253 11.765977323986293
Mo 15.556259381918377 14.260968194290841 10.822589733947344
Mo 11.880081222047421 16.173281557785476 12.862511633000317
Mo 17.38156618994791 12.819421834749653 12.185808896255612
Mo 12.010404422157459 16.32617998418605 10.096266233147695
Mo 13.602541244142763 15.516445258974313 9.230466038130931
Mo 14.39964890796176 16.628807587773156 13.86655013845485
Mo 7.528182812878445 14.471426622698662 10.652930914920978
Mo 14.12449911674637 12.764677954729951 9.445463079362087
Mo 15.228255643187907 14.356291666880129 13.295343436234953
Mo 8.893579603956937 14.543308046431141 9.236383100264746
Mo 10.260827717502565 14.647613280376689 11.729390519739704
Mo 12.863186606998186 14.511993036904068 14.512962174101133
Mo 16.5960269361086 12.224905283995287 14.01558212874672
Mo 10.437540604965136 14.734517271718811 14.534233955812242
Mo 12.445208439018328 11.275488270023235 8.166168549560336
Mo 10.71894878227165 10.052355502614468 7.3919101075686955
Mo 12.977316542809632 14.089939511215022 11.780489901009261
Mo 11.52823046129024 13.771290024494231 9.307105920213083
Mo 17.14663776700377 10.102071524040483 12.107152125878613
Mo 9.79420388501881 12.052073174039252 8.406889385789075
Mo 13.616069816963222 11.941958187950407 14.460604913294466
Mo 16.03472424060447 11.264624651372156 10.06012738836113
Mo 9.14571802503221 12.253151342046614 11.344035766477653
Mo 7.476195576284046 12.045531376319769 9.648629036618265
Mo 11.1880885521662 12.564209097389066 13.34335478273242
Mo 11.76627328494074 12.405167415301381 16.18643073236519
Mo 14.72325900376444 11.8587854183821 12.034094056105259
Mo 9.60514207339294 12.73916156211815 15.780740966750937
Mo 12.75372327765058 10.12666437937721 12.58472429242924
Mo 15.417338527018755 9.770043864735058 13.666017730158698
Mo 14.055866170323293 9.843887651823835 10.223702103275762
Mo 8.35738223243947 13.709029830874739 13.290080585240878
Mo 6.5488032373516925 11.879729656639558 12.209869248039666
Mo 9.365063308982496 9.887567808556877 9.718449095714577
Mo 11.76541600358105 11.699613465091442 10.650438418428886
Mo 15.982902286318975 8.409060694013135 11.142803816742367
Mo 10.178626106607682 9.903877133989548 12.227724344030321
Mo 8.599383462525822 11.286836785733202 13.989207331190755
Mo 11.523387757941922 9.148683824236473 9.768624452029451
Mo 13.214951612818611 9.452382276017076 15.158007337295544
Mo 11.05531277505009 10.387572528634193 14.926421260523318
Mo 7.294851868371108 10.06637831449998 11.803070265054117
Mo 14.018790839341793 8.043510474894578 12.646723621766856
Mo 11.299228853211407 7.8042589963163 13.867052722692863
Mo 8.962069533719758 7.662414630093857 12.052546721098013
Mo 11.656685787384477 7.424372701113209 11.860520698027342
Mo 8.614354978254756 8.491857873963026 13.905092780278451
