44
Energy = -406.85010499 eV
Mo 6.3071052968488335 11.902963337448432 5.531314027484624
Mo 7.94063817366952 9.094624736795422 5.226600886251395
Mo 10.635282334601625 12.528470829360902 6.199826795468401
Mo 7.627680365379357 6.178201455108733 6.0740485473341455
Mo 5.659880168526329 13.527535858107408 6.292503263655635
Mo 11.56035410714587 7.304261833086007 6.194515041943365
Mo 6.2814796764115535 8.68265851643013 6.5762950413473344
Mo 10.815537213819674 9.924958068156116 6.757396170187818
Mo 7.849437358705851 13.225628643993106 7.687830126163263
Mo 8.260304785536372 10.81553899009394 7.167073106860307
Mo 12.342703831463464 11.97921757121598 6.884312294778215
Mo 12.977010804050972 8.544610393944952 6.876082068690447
Mo 5.761759763709077 11.241012582865103 7.988633058027625
Mo 9.006475350513472 8.064557312331106 7.203968429438763
Mo 9.737600699828276 5.476775260706368 7.748266385700407
Mo 7.009339036620614 6.282057152429725 8.119467694734825
Mo 5.040477900609857 7.71015541559096 9.67361597091865
Mo 12.396744749495776 5.490839455392743 8.468394962070676
Mo 10.33910466473292 12.253247335774047 8.84214549898567
Mo 12.303319345235371 10.09088683694776 9.18673123673265
Mo 6.98879721149731 9.030794294153491 9.020855917887086
Mo 5.767223285150396 13.175205387332948 9.13297820056378
Mo 11.428430474267682 4.013131734558755 9.566917322791928
Mo 8.930934433238592 7.105298382167831 10.027313033250579
Mo 8.883008784206465 13.767209546791776 10.012289758230464
Mo 13.62259054421921 5.821362007447876 11.2128064259249
Mo 11.250122190247055 7.7638180467104325 8.826938598486844
Mo 9.623490117376072 9.869650934893421 9.32631099529809
Mo 13.388489348898673 7.535042899611502 10.609809793469585
Mo 12.53891013266529 12.355603247367842 10.444871093391383
Mo 6.428317668839007 6.871731147379134 10.907768503602655
Mo 10.979929088445461 6.044143573342461 10.963956690258371
Mo 7.706695683416189 11.756864142768567 10.07226776419996
Mo 10.882704859436995 8.952934483935675 11.422517176296855
Mo 8.814205529105328 4.65412375080636 9.623801979979053
Mo 8.01032916693895 9.26388004436518 11.602839741111664
Mo 5.3936370133252565 10.41706184547965 10.867420070683108
Mo 9.332079924299592 7.192734961110314 12.93845090115543
Mo 11.361200048352442 7.261952177865339 13.22043628854504
Mo 10.029056359778385 11.567079510708858 11.54575838356509
Mo 12.569353701227064 11.000232732697516 11.856366237314594
Mo 5.495319136432315 9.176321940074057 12.390798022946523
Mo 9.599718261639676 10.073513231553314 13.372683308257162
Mo 7.423639694589967 11.312526675597102 12.635241470516016
