52
Energy = -484.37562918 eV
Mo 13.865627014965993 15.108120115491152 8.93978818091341
Mo 11.85410296284926 16.711501317638042 9.917665300849094
Mo 12.094532068677033 15.716519523415634 6.997821315566557
Mo 15.265569111392502 12.213827456591032 8.773450118278655
Mo 13.583772904816989 13.37460800917461 10.704939496717808
Mo 11.535161680548198 15.205543461778918 11.855741660779083
Mo 13.168329882810049 13.072239915789543 7.631682156925084
Mo 14.010404470990888 15.433321612624342 11.792064381732697
Mo 10.197137049383997 15.877453093432466 7.2453684051351255
Mo 9.779195367824697 16.343946871988074 9.89643971038497
Mo 15.484522657389233 12.947960566364152 12.79975488803438
Mo 11.193954450699964 12.58695633722309 11.611003675833395
Mo 8.370520868494948 11.403896268311792 6.9475957280518355
Mo 8.533220817802691 13.791729654046394 8.626041939346047
Mo 9.78753362078616 13.41665767368567 13.551062212238744
Mo 13.787785543090472 9.122329699692486 10.659980722095709
Mo 11.309149059124387 10.95033447678964 7.180851164367129
Mo 14.32956038441937 10.145322200267147 8.253085764037598
Mo 13.324302791009352 10.965806957470063 12.520764991246793
Mo 8.94753165600866 14.019951480456173 10.802852685878142
Mo 7.428141690459878 10.9740035844647 9.7800342725454
Mo 6.782813822078 9.0118524483642 14.22925660338369
Mo 10.614040942322555 13.238661323951249 6.942215452870355
Mo 9.221313593380952 11.93716691874917 16.166117985914013
Mo 9.907894569267956 9.688477572698929 15.773440210198462
Mo 8.933812575051968 9.658315336485577 7.493171421163279
Mo 11.376500250230537 13.492854851840066 15.598387320405916
Mo 8.086217807770746 11.362414947918435 14.327003296192192
Mo 12.854659426949178 13.641051926721158 13.537443127052562
Mo 6.700937139819054 9.479783688496067 12.43752984285156
Mo 11.291610953833453 14.158577919368678 9.269475668669998
Mo 12.03351855817743 11.465124368729404 16.60142632594736
Mo 8.919408355965743 9.066096229079095 10.258512065597321
Mo 11.010926202101544 11.229695250454661 14.021311387702687
Mo 9.852668373824164 11.64406089992228 9.27559001685785
Mo 8.610176400986207 11.536211168316564 11.770088566407152
Mo 9.291125356319748 9.162305059287716 13.242921311087445
Mo 10.973504010818447 10.037142693105734 11.27016059332242
Mo 13.696057699673249 11.742420333735758 14.950596666376331
Mo 9.771390932124381 6.6837681856409805 12.203242992562544
Mo 12.582080985510334 11.279636629917198 9.45550418805669
Mo 11.988609626144731 8.490016148550751 12.980289497598125
Mo 11.68170402488944 7.4100285430870025 10.314755016824934
Mo 16.20015276727527 13.785227164913776 11.202157447162975
Mo 11.39152194409808 8.773402493705238 8.863066682933095
Mo 12.541048874248462 9.20968272334742 15.354700219346237
Mo 14.623426171030903 8.884256194360912 13.463480460975225
Mo 10.639802230948323 7.260505148001087 14.931989578636808
Mo 14.125675440907743 7.11237698060277 12.442061438843961
Mo 15.398504835475725 10.999734962990601 10.786623405897762
Mo 11.399716315243554 5.7587487342547625 12.62593053450153
Mo 12.787981203280022 6.752504103104719 14.8964812475066
