6
Energy = -48.54277326 eV
Mo 9.804598250059732 7.975574312615019 10.858932270413021
Mo 9.595144049026917 8.83735627414238 9.365217726111881
Mo 10.476534144279983 12.0592522996502 12.358456349057608
Mo 10.87230153089185 10.425804915434119 11.95225563570294
Mo 10.527285747274124 11.687453811455503 9.112689921902792
Mo 12.037270246329523 12.307638197024 9.692867042571901
