7
Energy = -56.86214892 eV
Mo 8.062295089303415 7.2768951373610005 6.920439662531422
Mo 6.409261165778267 8.40086429326315 8.335412823513616
Mo 8.040637819846108 9.723272072348763 7.037233634528706
Mo 10.011320145461978 8.730505557388136 7.521176777107211
Mo 9.80696529423331 7.788665700071134 9.633921159096149
Mo 7.6976328091596695 6.855513270371725 9.362496641925148
Mo 8.284834676217251 9.537230969195726 9.502266301297631
