7
Energy = -56.56391019 eV
Mo 9.615306477182102 8.120252575193996 10.615213979656167
Mo 8.172222627061853 8.954947193339995 11.358224365771846
Mo 9.249263719224302 6.962889054637775 7.35689940019088
Mo 10.105722385662157 8.565611674949288 7.794563395708992
Mo 7.625879835797223 8.202661531963962 8.993341966420006
Mo 7.57030368379106 10.25002860623081 7.67495851711453
Mo 7.740602758716699 9.029344329013018 6.2573776928756315
