9
Energy = -74.63242319 eV
Mo 11.101994770983485 9.19949421588034 9.814495206121673
Mo 9.902071481783096 7.206044622280251 10.699644026619012
Mo 9.985941517771822 10.095870462429057 8.352199186052875
Mo 10.351680628590007 7.396463954611016 7.976299156306339
Mo 8.663371792223115 6.463176327330413 8.870320102434484
Mo 8.439471422128126 8.94578238877833 10.399101098154842
Mo 7.965468285414103 8.796426975558832 8.119029905410171
Mo 7.048531679417759 11.349032365911821 7.394070262062015
Mo 7.3439744941898955 11.370219347359455 9.14144207674978
