9
Energy = -74.86309983 eV
Mo 9.491698043385757 7.084735146080513 7.334685929149544
Mo 11.493963255506424 7.992991318960584 7.8001731492278985
Mo 10.985074169363994 9.617206327161549 9.07763378465411
Mo 8.90592160338767 9.254547340176211 7.541559041015018
Mo 9.332922071969458 8.091644280723637 9.74091485277344
Mo 8.222507019401611 10.563745978348404 10.115864540653254
Mo 6.770015811946508 7.6966819415367675 8.424758498012196
Mo 6.296231155130296 9.452244530759835 8.12208394518227
Mo 7.226354256415166 9.26631317154873 10.940046267190821
