18
Energy = -88.68608927 eV
Sc 8.167270438409956 9.313310572554762 5.968650348690277
Sc 7.7279634140421365 12.294081547208817 6.980735529205398
Sc 10.952144228452328 10.475573790289864 7.415474091659994
Sc 5.779018066487161 10.176425617001053 7.719077872637355
Sc 10.151715723329781 7.397664108403073 7.751745953108957
Sc 6.88162159031079 12.13132604330208 9.950868281640808
Sc 13.00941186231266 8.513975756886946 9.104633047576188
Sc 9.735406499540296 12.816710640697535 9.228118235190353
Sc 7.145454884744907 7.396734582720031 8.03251766444622
Sc 10.412697551870261 8.761539374759618 10.205236393752378
Sc 12.184340216695196 11.279591457614174 10.039147475740974
Sc 11.717342382282418 6.31493376065884 10.951058906051687
Sc 8.675637292835065 6.217281111158571 10.319157722114044
Sc 8.425240864348396 10.12302840205809 8.718896930585311
Sc 12.542573072812536 9.025907937855598 12.095516266148863
Sc 9.449352689171189 11.00198392704237 11.678847527253941
Sc 7.204851371162295 8.810697456254562 10.93342724461165
Sc 9.673006896585875 7.7842829589272595 12.741939554978892
