11
Energy = -50.15182811 eV
Sc 9.997087855202386 13.177533974406357 10.855822051160207
Sc 7.583769451528135 11.228131730994443 10.519643333820717
Sc 12.50915242919524 11.43888216861745 11.085249884003096
Sc 8.606704712714379 8.417204342848118 10.535244611279921
Sc 11.708780101349886 8.484037883382056 10.898303333709832
Sc 10.198845891260673 10.58105931497266 9.244375187077983
Sc 9.849290595098484 10.46938552386749 12.305680814854759
Sc 11.422390931951245 12.655422637639445 13.581690308553954
Sc 12.461611264830534 9.85036088942311 13.60422217709822
Sc 12.012628247849596 12.824638205151988 8.49394880967525
Sc 13.032298106369815 10.01729493499001 8.517561918952916
