11
Energy = -51.08787756 eV
Sc 9.145704343328362 12.381788345332374 10.520040196716108
Sc 11.683712612544094 10.793200785764421 9.504647376725964
Sc 11.654048571903916 12.059777662439517 11.820831905831081
Sc 14.257900656915915 12.495938900291046 10.879169444266566
Sc 11.51490095819828 14.442210153492477 10.641060512426648
Sc 13.344682488166773 9.84887928244191 12.018154228130555
Sc 15.157878200666516 11.679009445472753 13.661591455145487
Sc 9.991074364774963 13.4866521463394 13.338433899479218
Sc 10.170320958143213 9.907348264520976 12.166239672295902
Sc 13.129068137118413 13.933498882485221 13.298302410509802
Sc 12.257329468199206 11.278316891379419 14.45814965843231
