19
Energy = -92.07943261 eV
Sc 13.07862812299764 12.46986285629949 12.488753919312003
Sc 7.948305695003509 13.879220515848838 11.686621710903246
Sc 12.201033228580952 14.553668476149003 10.568762249585335
Sc 11.190684836058637 10.670640259118986 14.12022273237428
Sc 9.314428683086383 14.486601844639132 9.35980657939278
Sc 8.407154284964788 11.502946557936289 13.258998807990453
Sc 8.955511082664142 8.791142604242227 14.611232537034539
Sc 11.532659571849752 7.592302110967076 13.661012656092034
Sc 11.795846615123207 7.095834341293841 10.550961811372328
Sc 8.375777735664437 11.504437839268665 9.728301662240241
Sc 11.360245627871882 9.800557812290837 9.112040986053183
Sc 9.864424433696229 9.168923106357976 11.813422929384387
Sc 10.607670487185281 13.952130158341832 13.323162050252746
Sc 13.086309088508541 9.419993677873851 11.792270179961516
Sc 10.53998695597177 12.268655065220996 11.067697122396263
Sc 14.08725924650386 8.627121906684996 9.027164357915991
Sc 13.199036218646807 10.564724699866943 6.9165459059256
Sc 11.29384060339695 12.721094073107233 8.084292939774013
Sc 13.721497546812893 11.709028785689297 9.58642453626329
