17
Energy = -82.37706583 eV
Sc 13.192399506932459 12.39243001859561 9.395974026145183
Sc 8.760511707970453 12.352963675967702 12.231025715744465
Sc 10.27046779054191 10.946927657645773 14.457710477038573
Sc 12.311061245151025 9.625547810494266 12.829153883655767
Sc 10.49361958979761 13.931837505278885 9.988716545793304
Sc 8.96012921317631 9.328816502218 8.804936745499798
Sc 13.860410191880177 9.549825044158876 10.23860214858984
Sc 14.530328741306237 11.639472033094723 12.233790083303816
Sc 13.192671802319772 11.60406789284185 14.937414550009656
Sc 11.334422414482164 7.8825728773872665 10.210366470350467
Sc 9.263754495087008 9.174964614099402 12.11621521060067
Sc 10.854104065132631 10.962898535297864 10.379493557957451
Sc 12.114509613373041 9.639289763959425 7.8758619697384695
Sc 11.83241763065919 12.780281221686012 12.615111497569188
Sc 6.799886493141612 10.276567096076214 11.053198109597334
Sc 8.091654797438068 12.22109773609349 9.366156219033318
Sc 10.461914598840817 12.014703912335982 7.590536686603773
