13
Energy = -61.25449516 eV
Sc 8.509537171858597 7.911835079411105 11.455991914861997
Sc 11.650437313874141 7.613435061288162 11.10685215715815
Sc 10.47753000613567 10.499757938397456 11.553304361483946
Sc 9.88197061917033 6.96157645513202 8.934491028320393
Sc 8.857852159772149 9.746313992010084 9.356716370617491
Sc 12.461750962679837 7.146348939253532 7.9033319425119375
Sc 10.121491122055453 12.060173893731836 8.621936090922723
Sc 11.928340019535453 9.624597515438241 9.037712644179821
Sc 9.965962263457588 9.124733508329665 6.799383283870903
Sc 6.113260301927107 9.892368566399755 10.407704987969144
Sc 7.925260413707976 12.235497526167272 10.565416478907062
Sc 7.09379696971625 11.186815913070005 7.837719211119984
Sc 6.996811702158174 7.980770310766323 8.396717617941931
