13
Energy = -62.17449388 eV
Sc 9.505890526480913 9.45283993653652 9.49626001365374
Sc 9.432326618493471 11.067584752009152 11.971848568820155
Sc 9.430544686081072 7.796925526533229 11.925545939145758
Sc 9.405753065547895 10.94701399472729 6.868218442990513
Sc 9.206308218879109 7.8936075482822625 6.926445322674376
Sc 11.047251287238238 11.940879297442859 9.264180182293572
Sc 10.986939400840884 6.909250802658796 9.422714777371302
Sc 7.921245578331703 11.961410607615505 9.433198516157331
Sc 7.7501037818470335 6.931948171544796 9.466311899976253
Sc 12.102948817027858 9.308458571488238 10.869623540030041
Sc 11.962332509444584 9.36617449922094 7.855785570467046
Sc 6.930835173316369 9.491882172888 11.035082046475367
Sc 6.8026297166254235 9.417133619052406 7.949894679944538
