17
Energy = -82.61427487 eV
Sc 9.82279501444202 9.196357262977566 13.775651317410082
Sc 12.40065219988663 9.823252817898076 11.769393659578782
Sc 10.334380309812774 7.374276344134331 11.472612228970256
Sc 7.649035565619184 11.093597270092161 12.852377744332308
Sc 10.446375421000509 12.05585530911394 12.99776090831919
Sc 7.562001509194643 8.227109188103206 11.974905981299404
Sc 11.920662137805511 12.490629153790277 10.526798435277597
Sc 6.565451281901678 10.463202734711512 10.112903028036234
Sc 10.077545428894169 8.986870574855484 6.342365833471106
Sc 13.070119575385336 9.500685849375241 6.40791349778415
Sc 11.679867466087508 8.52525407450868 8.83474163592259
Sc 8.269606788088383 10.907751168909419 7.826922384569939
Sc 11.20259860874977 11.336488636023436 7.869742834862466
Sc 9.6759346026442 10.186100148005744 10.636166206159487
Sc 13.829550671702584 10.623570766506939 9.100947299327181
Sc 8.425091068327905 8.121199684503319 8.871129358875146
Sc 8.764043070240579 12.783509736273752 10.323378365587157
