12
Energy = -50.31927003 eV
Sc 7.502833550717736 7.506268979587063 6.006477338671706
Sc 7.380222391382469 7.3771996988145006 8.891513175655234
Sc 7.518134315888883 7.508451377423149 11.775596380643337
Sc 10.259982751840178 7.50987144244195 6.00096929197992
Sc 10.39909586494422 7.380194143741933 8.88487041349397
Sc 10.275306613047771 7.511213397954783 11.769546895103838
Sc 7.500260631325724 10.263482645775515 6.007320375416838
Sc 7.376956906472231 10.396037958953869 8.891762626348894
Sc 7.514795743912391 10.265612352788267 11.775863311079219
Sc 10.257463346497728 10.26704439966559 5.999051471101418
Sc 10.395818872240595 10.399032339145808 8.882829834277949
Sc 10.272033011730322 10.268495263707681 11.767102484162642
