24
Energy = -119.17286342 eV
Sc 14.395953103093989 8.795923738265325 10.48391021050613
Sc 13.153724037956838 13.262229445933746 6.716343104783166
Sc 12.871632642733232 11.112691381160301 8.908202824896813
Sc 11.727358435843534 8.226883805600218 8.896659977125683
Sc 13.890471440582983 11.724567247156568 11.689974795312446
Sc 12.396111665270508 6.600588097131574 11.508529093181462
Sc 13.780886881129408 9.218798775334392 13.69758440066784
Sc 10.811630649493667 11.364236205798385 6.766350480866411
Sc 14.169201263314424 13.842249221117507 9.359479808258147
Sc 11.88286793019728 9.365943261091134 11.66977644684422
Sc 12.10577020597369 14.408596367732233 11.850279126470772
Sc 11.10878715499206 13.514036029501257 9.039981445223512
Sc 11.196135676245662 10.44652377607278 14.708228560507902
Sc 8.271065609734425 12.841141968450676 8.362258715866567
Sc 12.959056871009025 12.633613264160592 14.210519848627854
Sc 10.745266484827182 7.710326198383272 13.861131885294942
Sc 10.73335194935146 11.891678635280812 11.802197621265707
Sc 9.719410784846763 10.495532922779455 9.287452782912965
Sc 9.32618133034081 8.194239584792793 11.143029188367365
Sc 8.81037038024321 14.003059946887415 11.208698672640697
Sc 9.925667092924451 13.263300677008239 14.155564465376465
Sc 8.707298528572219 10.220873131961158 13.390173901110725
Sc 7.446809345713532 11.236771626407899 10.926653725466812
Sc 7.057687972948537 12.816605287781462 13.443672455276484
