27
Energy = -136.80869725 eV
Sc 11.062151141665144 14.706491877224776 8.600092795604677
Sc 13.54353855423024 15.738262334836547 10.174352110591522
Sc 15.87772562970899 13.863822388691117 11.293625911463137
Sc 13.822833572915698 13.056819770170863 9.090431593834467
Sc 11.325566467285597 11.363778387105274 8.712717094735106
Sc 11.600522745605794 13.660862202305637 11.047275153679038
Sc 10.885484093684473 16.390647288053117 11.52468306041275
Sc 13.49186383223917 15.241272911315612 13.14348469774777
Sc 14.022911836339944 10.084214156088949 10.178594135593372
Sc 13.813692692831056 12.214020789512437 12.311889819755224
Sc 11.228931335057084 10.570283361282913 11.586718904962696
Sc 8.905179457280287 14.267141676347174 12.81325871342491
Sc 8.979601687171327 12.52757905563592 10.259079625634087
Sc 11.635370863744988 8.331863292162232 9.484185833768782
Sc 15.614298555694813 13.357333402139192 14.349522301509761
Sc 16.044111455645332 10.636074345317258 12.761686184220263
Sc 9.55070774473211 13.00287228023419 15.770323357954767
Sc 10.811132008489084 15.599060633803832 14.594061027452769
Sc 8.675235855467234 11.25235030455755 13.05277010102625
Sc 13.806338219799546 7.08555227511408 11.064365022321264
Sc 11.391928832758424 12.784306941918745 13.807155605971134
Sc 8.951010258964628 9.419842402447374 10.302082826795106
Sc 12.908932032990593 13.935136242741974 16.00706971456382
Sc 13.396500905582782 9.06403946417011 13.151786637780786
Sc 10.922494108246612 9.98185489178183 14.72338259399405
Sc 13.864448600595399 11.139154431288462 15.195228209947354
Sc 10.84007951655971 7.7449457146036185 12.244582753934496
