25
Energy = -126.3963276 eV
Sc 8.827811552895337 13.271402042790239 8.962531988424315
Sc 11.700436028070053 13.614291453108438 7.77363236754133
Sc 12.852687738181922 9.72819210408468 9.646121645131693
Sc 10.436548832406338 15.524605556175498 9.897803715674351
Sc 10.267338444155893 10.719449687167694 8.175586947018624
Sc 13.305296240807825 15.065441648211538 10.391739861928372
Sc 8.918686881346506 10.837367363190802 11.06528699588525
Sc 14.215511638392394 12.463067995322545 9.376387818649777
Sc 11.31935978530165 12.49753308311323 10.280944901053148
Sc 10.350888092203673 8.335616596094512 10.16749853586501
Sc 14.763573590787 10.89633910493295 11.838828764400372
Sc 15.59650538987083 13.851459546093517 11.89788141412737
Sc 9.433082324447408 8.262376216186826 12.949504457745546
Sc 15.30077921194653 12.233504939629524 14.447122812694067
Sc 9.490926368785296 13.811641085075255 12.245144795153724
Sc 11.717689482510455 10.154898669858317 12.443051871839721
Sc 9.791576897017926 11.371079243846147 14.152218108294228
Sc 11.584523388746915 15.987962115221695 12.739491062666847
Sc 13.978225134798414 14.969751375038847 14.305708494020479
Sc 14.086987386540981 9.394715859238364 14.385617847357674
Sc 12.423747143606251 7.518169477236266 12.348550934949134
Sc 12.669811581589952 13.034870877247242 12.798672076070057
Sc 11.097122901808335 14.18704022864182 15.07698449958479
Sc 11.347578980911408 8.683610776417348 15.10901402984827
Sc 12.543948519130199 11.6062564923359 15.545317590335515
