29
Energy = -146.38069382 eV
Sc 13.925396719385148 16.123123808982818 8.328231468925917
Sc 13.047987981588905 13.31226642155865 8.475834880143296
Sc 10.81438459523535 15.569750421594124 8.64395943583742
Sc 11.722725327967382 10.287636736850134 8.568163991985921
Sc 15.3447441359747 14.080201250762098 10.153293527202269
Sc 12.729411361278189 15.270708832554286 10.8700959226136
Sc 14.325954489395194 11.063513679415315 10.295255547286045
Sc 10.172765301978414 12.781015679330718 8.25803395428586
Sc 11.316183481083897 12.363031788260251 10.958154832339815
Sc 12.850917623414727 8.443013308055308 11.161747553830294
Sc 7.799752401835737 13.992383943458163 9.071772658755835
Sc 16.631398203927393 12.070256268336875 12.233164328940154
Sc 13.800057239633128 12.725120336170114 12.629074192212743
Sc 10.04429192753899 9.54629210710603 10.871856301581461
Sc 8.325807117270013 10.661492984765003 8.723222541136042
Sc 9.722496849239047 14.84136919991621 11.34320345476173
Sc 11.846571137202268 10.278035559030108 13.28170345481261
Sc 12.2057330122318 14.636191281464546 13.939435160553275
Sc 10.116123716015942 7.582444745380809 13.051221982411214
Sc 14.945892408347126 9.895132196645958 13.230269221723718
Sc 7.343484512201308 8.888656111067124 11.194129350145861
Sc 12.146920199019608 12.145621015578527 15.577185801112385
Sc 12.93396062107638 7.656658362175945 14.21472802756607
Sc 8.176551383499604 12.036613385266985 11.341945279615542
Sc 9.87448123189388 12.858105283467058 13.74942588831886
Sc 15.10860769010804 12.505713399453072 15.098466661356897
Sc 13.814499164308863 9.85752153342046 16.0513240494949
Sc 8.719354648912926 10.113835889070849 13.61529780842167
Sc 10.776202784815624 9.199870986589367 15.761443942137916
