35
Energy = -180.67958924 eV
Sc 8.95935887461092 13.291374978549088 12.313362043422748
Sc 13.471890077571812 16.13276148959057 13.036628452710524
Sc 12.081412822577724 15.37921587706847 15.592845665541919
Sc 15.2666503167036 11.529467578144233 9.170608507909419
Sc 9.64604928626558 7.3340303829992886 10.404537820449146
Sc 7.036739665700361 10.980445843513387 12.831686130617891
Sc 8.274668813304284 8.349474049035317 12.844723548722978
Sc 11.431072262719617 13.062389002671148 10.170591474374932
Sc 9.880417823243622 10.752855309489469 14.201472097309015
Sc 14.40683072118461 13.590799809435214 11.372695714505968
Sc 10.248774111369835 16.051931353941075 13.056371051058143
Sc 11.86045693262782 13.664552963249324 13.228401120959242
Sc 12.870879921257817 10.256781753987564 10.400155692081757
Sc 9.69062286460753 10.48936531772467 11.119596791070437
Sc 9.29836054413049 11.971981478258435 8.281638243955694
Sc 15.439553979000527 8.74539344741458 10.456013124640961
Sc 12.785091610513339 7.261763450691841 10.10844214609306
Sc 9.025781282173467 14.927804339146876 9.8880858265494
Sc 12.25166060795631 9.008151165293539 15.531168495948206
Sc 14.358963066970256 8.31647098479007 13.28145868427197
Sc 11.38643490816163 8.241149177107502 12.645929533495696
Sc 7.4600209941234255 9.426745628329462 9.918139667704274
Sc 14.596364386866536 13.531396520662703 14.495115680936006
Sc 13.786212689846629 14.259432666892916 8.56464661776795
Sc 12.21108058941531 12.18862948192777 16.083844650675022
Sc 13.954907157292904 9.0402689488224 7.906434683518605
Sc 12.887152456038809 10.917096603967169 13.37122962462773
Sc 10.75872881620335 9.17157380583584 8.436899479042568
Sc 9.53550420981019 13.763570488701335 15.21008777150038
Sc 15.781017878765443 11.069455306353314 12.484186286827256
Sc 12.367818238601332 11.719432377142097 7.6267314156563515
Sc 10.976987710162781 14.58242741554993 7.654391697340329
Sc 7.129802474907954 12.44783600327812 10.1915230660386
Sc 14.886132017221087 10.519660333060102 15.46766614505426
Sc 11.923784101208023 15.886007152633782 10.425111745763143
