34
Energy = -174.29240482 eV
Sc 16.470285911338298 11.136138142314115 10.386268762332394
Sc 14.998757602362849 14.686182669118685 11.877671219452711
Sc 15.763364227142889 12.029928439072698 13.100500482654727
Sc 15.8473242964828 13.903234664843463 9.063913645022543
Sc 15.287842304114127 9.131475726003142 12.773945277620406
Sc 11.739454967159887 12.702725085357931 16.256401743659914
Sc 13.441220820106729 15.76130357622928 9.604881308177461
Sc 14.121325343235647 9.206241660587299 9.886396305696355
Sc 13.937534676428093 10.629325520248045 15.28678453253843
Sc 14.952042199961966 11.305840741948703 7.79550273725962
Sc 13.661209588900677 12.338059916930643 10.546915589548002
Sc 11.69456393984361 14.631584670563768 11.771207200478454
Sc 12.403929436165882 10.050073848946807 12.510275112048848
Sc 12.872628293110347 13.511719831652469 7.821720610725526
Sc 13.131851395864874 7.057968414860462 11.86784396562518
Sc 13.100351964988844 13.015384937558887 13.70853101974067
Sc 13.111603068506362 7.822609184231185 14.666613520490216
Sc 10.400989096292484 7.844742984772864 13.261814733963995
Sc 10.9182663973366 9.898976747287545 15.508631244215739
Sc 10.394277783218339 14.942297832776653 8.978176416697423
Sc 10.125079919379182 12.104791517984326 13.443755482365919
Sc 11.972228043215676 10.512597832164047 8.029225600486711
Sc 10.497651069688576 12.088417375548792 10.17620333695183
Sc 9.971651810136699 14.706663796174313 14.668843895853513
Sc 8.610698954200776 14.345535278159273 11.655979951858344
Sc 8.918769645478251 9.665079887717429 11.53781704614582
Sc 8.874818075599745 12.2512670843673 16.290242090202696
Sc 10.028268180389379 12.573197586682827 7.054385507586648
Sc 11.08604672077028 8.501150463985862 10.09588835948578
Sc 7.952652738036939 10.092351457062186 14.26817640279078
Sc 7.8318053961535306 13.159660309750953 8.933183932505898
Sc 7.274408392074646 13.132871637457836 14.066050973815305
Sc 8.726612881218676 10.262150232576952 8.559597373461756
Sc 6.983821562861892 11.709848770365918 11.414878135618647
