32
Energy = -163.83830423 eV
Sc 14.242013342062945 8.720753529319962 11.874712313016435
Sc 13.044103313351878 9.322738015304914 14.698437383669425
Sc 15.876730616376038 10.954262283295444 10.33221447488107
Sc 14.745157240843149 8.708570602696176 8.718877179745919
Sc 13.890036025801306 11.612018781704469 12.762038054070295
Sc 11.957753300105422 7.741008608720495 9.956657784319084
Sc 11.813345307136665 7.004811174107759 13.124222720879368
Sc 13.069565027341742 12.749875442547685 15.405585503168203
Sc 9.431592268127076 8.66772387304859 14.37870375088909
Sc 12.89621414005298 10.924806701158786 9.773286741702954
Sc 14.471491103209926 11.548000505017216 7.470872204839806
Sc 10.81281864821622 10.716121317386953 15.96953408262013
Sc 11.235823888174922 9.804302431695637 12.347803483450903
Sc 14.948194334985597 13.77879040981019 10.116609625747438
Sc 12.213701951964813 9.322561031656006 7.293760983213692
Sc 9.278416619462115 7.612167311918468 11.496336226613021
Sc 9.539270335499467 9.248852303620245 8.898366096237494
Sc 14.46095063412574 14.531742792732848 13.021249129159184
Sc 8.146705003142745 10.329337106665287 12.056534016589858
Sc 10.618616008600863 12.507990208999521 13.56240658778039
Sc 12.794071571781986 14.100562894972914 8.258977494080735
Sc 10.918178385428403 11.953890132751503 7.392189967658649
Sc 12.08692661303343 13.624665336191859 11.230890740057331
Sc 8.17007979353058 11.75955575662005 14.867082913360015
Sc 10.000851836469156 11.707800054653541 10.187398349797983
Sc 10.32495473228155 13.584158100165931 16.41180902474109
Sc 11.766462206365532 15.315990268833655 14.055121681050812
Sc 12.95396368970093 16.156057443633706 10.642721460455375
Sc 8.313752350666498 13.47810440759109 11.75739137978722
Sc 9.958028325266023 14.49819932242565 9.052800380420464
Sc 8.720457348284656 14.868276782401397 14.313296874216972
Sc 10.02541149505507 15.890014259073636 11.704026363323614
