30
Energy = -152.91425528 eV
Sc 14.649507292668272 14.399109815819239 9.363274569958005
Sc 16.53856541394938 11.990414527439015 10.124441033117309
Sc 12.095514253486622 16.474804884321696 10.251341200339551
Sc 16.966717668014265 14.568906801789115 11.472050930987706
Sc 11.71561135053914 13.263272382545237 9.855491268297131
Sc 9.260649857560916 15.513408859527203 10.670635530255593
Sc 13.787104903076525 10.751785331796873 10.210915156607017
Sc 16.845110869609567 11.846575509146426 13.234805974405878
Sc 9.022191794711965 12.675241580621691 11.559207349437761
Sc 13.043392231594304 18.63149755434143 12.33952009791477
Sc 11.41416774882995 11.03741612036505 12.063991030558647
Sc 14.344102611499277 13.151502822233953 11.91034259147937
Sc 16.069592640601847 9.340808692398152 11.58340751784619
Sc 14.438651431121203 16.079452672107482 11.979380288723247
Sc 11.452893294123403 14.524863579465459 12.477711751758452
Sc 10.480739926448745 17.307046095633808 12.91384698794839
Sc 14.071776933373815 10.63458826475547 13.494446214791127
Sc 11.368073764011502 9.755270220428939 14.74023951360115
Sc 8.734241712374576 14.93983229928653 13.559803269097552
Sc 12.952247866951748 16.3589528834089 14.593859862239636
Sc 12.682923493904532 13.051800459628742 14.639333300501415
Sc 13.458910830302441 8.140285044314858 12.909449229230662
Sc 15.477941019989816 14.4298569262808 14.469815059488129
Sc 9.69036248173087 12.234868774715682 14.575527605025801
Sc 16.12397462371348 8.854122313113383 14.476327288779377
Sc 13.678714407977846 8.961925149748525 16.11702875621501
Sc 15.064545826099875 11.771847054020487 16.090834478030065
Sc 12.004394375216501 11.660333225389754 16.994997255979854
Sc 10.654621991644838 14.914638891278187 15.912510685376814
Sc 13.551301112030243 14.374114991234471 17.054007929165397
