33
Energy = -169.02909905 eV
Sc 12.625393599254396 16.321546615714386 12.642356881270485
Sc 13.432023250134408 14.010810161505892 14.831295929847718
Sc 13.527757277539767 15.114916213759187 9.912536413489297
Sc 10.403122696884246 14.392972864271341 13.897087615483093
Sc 15.234939478033908 15.021025367988937 12.643827082212564
Sc 10.463511112951497 15.219940554026497 10.648331240024467
Sc 12.514915874887276 13.440212915834271 12.03441626990283
Sc 8.111421546256155 13.979943347884877 8.867201829645987
Sc 7.974092065481488 13.670561444341592 12.047587404121554
Sc 11.062559933868352 13.848998042065919 7.8182340872448295
Sc 11.116777540347451 11.73390676308349 15.596419824346064
Sc 15.366810035644248 12.532113158755095 11.070305250368426
Sc 8.17703548832966 12.7542438804444 15.096689804807596
Sc 13.426421268103454 11.082170686614601 13.661107081726595
Sc 10.120664500048258 12.216188550690541 10.079764383909525
Sc 16.0049916147795 12.379522694576819 14.016798677592716
Sc 13.052057583684444 12.085862505792685 9.421620309587732
Sc 8.57123625228124 9.782393704431222 15.129620491059487
Sc 6.730493707114938 11.02609475266122 13.12978667328889
Sc 9.90762234321519 11.405793258204696 12.924882340295953
Sc 15.522684006165724 9.754082894317884 11.857589805220693
Sc 8.967849015107124 11.554504310975345 7.430321226490847
Sc 12.483288345032586 9.678777412518702 11.152866797822552
Sc 7.427912213717474 11.025615773262798 10.153862888150346
Sc 14.888792604428138 9.857614645547995 8.805272907028519
Sc 13.873501099823033 7.7966802194831475 13.309131882647927
Sc 11.132992631772789 8.775836024821285 13.965945456116703
Sc 11.862174569863642 10.619584325424539 7.361313815437119
Sc 8.61680130945329 8.751131909130102 12.121590693373557
Sc 9.91184091505364 9.190264025583625 9.374161573232541
Sc 14.53156981542515 7.197681144734192 10.541339413110581
Sc 12.55345505101028 7.97584121348727 8.578880483393895
Sc 11.413400704968366 6.967017810411369 11.372840651232368
