31
Energy = -156.33054294 eV
Sc 11.40887051760975 13.038976387267136 7.238100155171082
Sc 10.411713234946431 10.279702690036451 7.934849459643588
Sc 13.40687707005772 10.804812400049505 7.563764797123287
Sc 12.381878967972447 8.830644673902045 9.7435347100773
Sc 9.060590839159337 12.88037449240607 9.174763507929631
Sc 9.47167648231119 10.263720125125465 10.862971097098487
Sc 14.148294191102002 13.692305091976875 8.574004554805752
Sc 10.080372772549739 13.295846190989534 12.012599613518999
Sc 12.01108975650687 11.723597132934733 10.144264329929179
Sc 16.713807027866633 13.657359193972548 10.74475289171729
Sc 8.734609864247728 15.73883969496941 10.882906266309375
Sc 14.992118195192269 11.387749850719732 10.21317404161013
Sc 11.314973802098972 8.985829848378994 12.711932628885043
Sc 9.293591895735021 11.11763855459055 13.979415202995954
Sc 11.342863770016411 14.962581082994571 9.617187483029637
Sc 8.4591823971093 15.249395283308203 13.83900916964568
Sc 11.215111485643847 15.943846893101371 12.74473635100384
Sc 13.586063748718216 13.989883249801329 11.587359665783172
Sc 12.395948419650093 11.712221416884766 13.51068762094854
Sc 14.34876020688837 9.5188299098576 12.337040586993787
Sc 10.699663512759129 13.806270241571793 15.030770087039564
Sc 17.39652153525206 10.614624563847814 11.80043649135224
Sc 10.05086565312568 8.536927177795935 15.376074578174912
Sc 15.536700785513483 12.34994497948662 13.193813401577353
Sc 13.119612341675783 9.206274637680146 15.130974813667168
Sc 11.162496511161365 16.53657200320016 15.767034156002772
Sc 11.276207169315281 11.158261488187216 16.34967949445679
Sc 13.527479347481188 14.778524225621403 14.654107647043348
Sc 16.25702939246018 9.943890055568778 14.624856289018345
Sc 14.128994962807308 11.998965052761411 15.96158650600185
Sc 12.420026901693644 14.224100009798082 17.353685027578667
