39
Energy = -203.21381231 eV
Sc 8.680864873573176 14.058771216723628 8.974307812287718
Sc 8.278190010484929 11.397456549139724 10.711282174389508
Sc 9.87529439005216 11.579657773705792 7.940814848312243
Sc 11.77978316249984 14.223516880570086 8.179919339402911
Sc 7.9874065187852406 14.39563872016922 12.015038359624377
Sc 7.209615427454462 11.658439898696207 13.6405648473798
Sc 10.517353723524257 15.825025384167944 10.696027661834213
Sc 10.943465511707101 12.687656043328982 10.453198036892656
Sc 9.493718884425359 9.683936541829498 13.152937603236403
Sc 12.925637888642036 11.259160010351817 8.387510324747879
Sc 10.791624484714818 9.590442957845374 10.089089226740851
Sc 8.009185869090935 14.040097697856245 15.207662892696947
Sc 9.977172487663129 12.736698903928414 13.33487038797519
Sc 13.705306382939932 15.872716039609053 10.121738978638607
Sc 10.126478211941334 15.94478252209858 13.914303876793674
Sc 9.43362401268235 11.391933817376378 15.92397347696129
Sc 14.009135223432043 9.286850712809377 10.445493290507695
Sc 13.96063219049331 12.734324495583397 10.87173262516171
Sc 12.287329549973776 10.567937741729128 12.470274491084876
Sc 14.912514758575385 13.676548024781445 8.231515693853277
Sc 16.296423243250185 11.35490323068168 9.817245175559904
Sc 14.217951924134303 8.34502805904976 13.604517455199634
Sc 15.186798494569809 11.084354332848518 13.214678359513774
Sc 16.70765761191044 8.996028324256972 11.71244768247702
Sc 11.807961917299789 9.56070281925923 15.392363523905402
Sc 12.673422406558794 12.405694185567306 14.81199093945108
Sc 12.40062132064606 17.606162999496675 12.521977324360849
Sc 12.586246756786524 14.673943650431715 12.709550059225151
Sc 10.900433247219201 14.170763563278923 16.36006129383746
Sc 16.443655630573897 14.339973745898638 10.836453108645118
Sc 17.14721582353757 9.357607568527513 14.598359059088425
Sc 15.124138046964749 16.640476399909264 12.702086063079367
Sc 12.107019916993568 11.622535906852175 17.675462463883555
Sc 17.830726891685515 11.878621913720593 12.568466175270721
Sc 14.598457010565241 10.375558515216133 16.20589701188114
Sc 16.977289263019255 12.14985482001438 15.619424646841201
Sc 13.155408874083278 16.043384760700327 15.162599060072914
Sc 14.363841023274086 13.505265875186376 16.78281765209545
Sc 15.424018038788216 13.96367345544616 13.802434064022867
