36
Energy = -184.82313032 eV
Sc 15.923102122633024 9.736689884774009 14.704013250367963
Sc 16.643133144689916 10.188521633012048 11.915522013508655
Sc 16.464398073496586 12.625059641349637 13.869423934465724
Sc 14.1673601668389 8.582878446614217 12.474375377957271
Sc 13.077044909964796 8.823434695206187 15.398828103478984
Sc 15.823615678398664 12.80212064114559 10.740486663840082
Sc 14.024488635168133 11.842024455051572 15.84788197195401
Sc 16.169792460686427 15.311005183798276 12.318295541479108
Sc 14.015761078212144 14.506002092335175 14.177180440350485
Sc 13.82446592070715 11.60236091593242 12.841274966293277
Sc 14.132181745098272 10.328285086253087 9.854510727185565
Sc 11.83741544428346 6.852275840472079 13.501763888271654
Sc 11.198121557109456 10.888819676324621 16.29125120891895
Sc 13.294378062605174 14.613561658246946 10.969569417551861
Sc 15.952958189120377 15.571602382990994 9.428602415514904
Sc 9.7837580146329 8.28248290929337 15.372821851324849
Sc 11.352520091869494 13.880848471436742 15.679927852500736
Sc 14.116658384805842 17.369612235649253 11.33777019060592
Sc 11.020616298792929 9.923090268388101 13.256007649198045
Sc 11.577092515926298 16.08843032847569 13.187483438761639
Sc 9.302999423413334 7.472180728299178 12.349914796455888
Sc 13.452589944844561 16.30889128587699 8.385499002601518
Sc 8.84414560997459 11.987564396838811 15.096872637480363
Sc 13.797036553441693 13.070799950949331 8.344632436276441
Sc 11.294784868278581 16.94633870233715 10.276986930080147
Sc 11.631550593650811 11.94036687396418 10.517857001669057
Sc 10.757032876582054 13.100941087986268 12.991392877456311
Sc 11.729889545105776 8.533406682413466 10.57006145924061
Sc 8.770832195607278 14.863183008356486 14.094003662356316
Sc 7.8334577352729005 9.706315320220021 13.473780915560612
Sc 11.083177736137662 14.332616101371368 8.520901701873319
Sc 11.239223808069374 10.899523332858468 8.096076051557946
Sc 9.120129520630561 10.063523254776577 10.679101104252615
Sc 7.8224760195433225 12.509943725296521 12.188435700028421
Sc 9.291639064074179 14.919672541019013 11.053156390334886
Sc 8.793071766432684 12.576003441475898 9.218700763027924
