41
Energy = -213.90708642 eV
Sc 10.685453152103916 8.09383787004254 15.838342630531278
Sc 13.70222448579294 8.709581967266049 16.16995883044429
Sc 11.393210698793986 10.304546818415544 17.570439617854586
Sc 12.111802289824075 7.684537966023016 13.208549780372548
Sc 13.56043999435287 12.21771364306592 16.969074982177236
Sc 9.147842453171581 10.759981013481818 15.535421117382173
Sc 9.080084884395024 8.61739180006725 13.189649908942322
Sc 12.380336800221382 10.510980202163198 14.566626316734807
Sc 15.507991696771652 11.167223514530344 14.733921872647926
Sc 12.653734285118313 15.25156770886791 17.04252950488651
Sc 14.724711562809599 8.818840973202729 13.191429385709212
Sc 10.319521813063288 13.28626588137651 17.07482707193671
Sc 11.957968519908894 13.52168231500799 14.752793575492193
Sc 15.124802707295972 14.254394932082112 15.223100710918024
Sc 10.779300854496666 8.489743912886812 10.738032380930322
Sc 10.156174566880916 11.385118745670054 12.639831926608258
Sc 13.844275738022905 8.242117674296576 10.220281060940307
Sc 14.152361099326349 12.987057007734867 12.681037032711858
Sc 8.684798011880957 13.52851043748552 14.300924030053276
Sc 16.005393937327344 10.77549339779119 11.498984932513235
Sc 17.183814522327523 13.243455960132112 13.11369307861157
Sc 12.882905314368188 10.612221952131762 11.336256620743018
Sc 8.634474169403013 10.460724690519859 10.191614395679423
Sc 10.345683395162554 15.947434528048007 15.22633592332562
Sc 11.482011379107865 10.187316967245138 8.48334788143214
Sc 7.275358254143765 11.128014114930922 12.953377137996178
Sc 10.878649267501507 12.605652075707448 10.028297330979091
Sc 13.133352128163166 16.28432645415323 14.016585644028865
Sc 14.439944410893172 11.241161143039434 8.76757873189396
Sc 15.44852336627244 15.630114282140509 12.204135007160188
Sc 16.449390000239298 13.432502361545728 10.136097319761603
Sc 8.293196703656749 13.471853834094198 11.026580096150624
Sc 13.538905767817873 14.044971617892312 9.816496701547706
Sc 9.08329779980506 12.625996850450973 7.90057165860991
Sc 11.085884136168332 14.782199136642154 12.185452791429896
Sc 12.192056349185663 13.041832432180867 7.277938948373683
Sc 15.176512135791127 13.97598314185884 7.273876698839583
Sc 12.890062191113103 16.84810495934033 10.69785841792268
Sc 10.446941734279738 15.322006796930188 9.130337549517566
Sc 15.570249805823455 16.269744864520717 9.201426259401712
Sc 13.007357547123636 16.08281598448242 7.614001894760646
