44
Energy = -229.25481833 eV
Sc 15.921034665914075 15.178486024429063 16.435388424521395
Sc 12.462996636756204 10.725158659103759 16.745748990783895
Sc 15.34588719776061 12.019675566712051 16.856464935405747
Sc 14.938705004526147 8.939809416074322 16.929323022779112
Sc 17.305115218354295 12.921144548814837 14.867696561295151
Sc 12.770182863602848 13.736648420903762 17.06546817707429
Sc 17.314549459002283 9.852036828072661 15.23750315714637
Sc 13.119100900918989 16.581772536551764 16.044097939011046
Sc 15.283861617716681 17.03368052502079 13.851602056984852
Sc 9.89884525102089 12.370568844393905 16.74000484383304
Sc 12.631914012737582 8.32198657502462 14.834941008622248
Sc 17.056640695481814 11.67160985421349 12.16331630769317
Sc 14.418924101002867 13.973789232170997 14.417500963402722
Sc 15.507796351124504 7.460521665560107 14.530671275467922
Sc 10.499378115158583 15.043977549695901 15.371693167007685
Sc 14.655714073133144 10.68247372821442 14.15363617440945
Sc 11.759392055364149 12.51174590561331 14.316852064448408
Sc 16.782029208712427 14.605253975900093 12.469914093491667
Sc 10.177984874466848 17.911402998926192 14.851357569475466
Sc 12.830769467742954 18.967261114869505 14.208939550655652
Sc 16.869181297746845 8.758523420576166 12.368230726847573
Sc 10.152227328908587 10.036522081533855 14.70269368847424
Sc 13.864805238430282 8.510981735388556 12.0337379977537
Sc 13.831324403668718 18.77485575502983 11.530751038609221
Sc 14.196545515974423 12.884396496160585 11.479976886913356
Sc 11.127586743746562 13.861818118171687 11.483036523783287
Sc 12.472146478685765 16.15560478578588 13.014311208435016
Sc 15.409222338445614 10.137157739655999 10.06643477602864
Sc 10.718158944212608 8.204991202757105 12.001752864998627
Sc 16.051123919689914 13.227502832269337 9.463264284414375
Sc 8.88387277071007 10.651964022352917 12.167555006117437
Sc 14.854412451325663 15.951727728448802 10.783887410448319
Sc 11.793749416426397 10.88075273438637 11.475011106412152
Sc 10.703734469475993 18.414514567043106 11.913517269393797
Sc 8.79173479872625 12.97877995882482 13.909211534285001
Sc 9.136235363538812 15.846729514026313 12.678114303789878
Sc 12.207340294441536 16.907506144006124 9.932172057113085
Sc 12.99777454794832 14.3673148654121 8.895737025886348
Sc 12.45211401685518 8.770030413640725 9.414770782756976
Sc 13.306173910743702 11.54318544270702 8.68647999612596
Sc 9.631827150942854 15.620770321108997 9.612899513337036
Sc 9.604262486839785 9.881902135020814 9.501185374223207
Sc 8.350265949186328 13.093716592192477 10.676264669933612
Sc 10.554651799708484 12.617569711955245 8.777600167958346
