45
Energy = -234.55035161 eV
Sc 16.848139843658725 9.346639280242998 10.076630500114227
Sc 14.862542344720406 11.504803041807397 9.040033369584203
Sc 12.780452385951143 13.841651822772594 8.06526157228587
Sc 17.391136040136463 12.341516109345998 10.487591774160125
Sc 15.399697762881878 14.589882946331308 9.45726263657794
Sc 13.370221397132186 16.794766248709273 8.43172326471319
Sc 14.030768258742889 9.605765239211676 11.37319263877697
Sc 11.92535273474726 11.799066811097642 10.264278056143663
Sc 16.543278940347864 10.537860815686258 12.775194536845175
Sc 18.620332913459823 12.525109368361855 13.50246359562986
Sc 10.046592887224053 14.036343837666339 9.34612786894052
Sc 14.5507085472324 12.711866511078844 11.740290175101228
Sc 16.878428740213494 14.855799563835742 12.34868623190841
Sc 12.535432491867555 14.98006443017051 10.796254295582825
Sc 11.00830430366857 9.931550266287626 12.791672757922782
Sc 15.124046350410005 8.49883462365497 14.450381527181367
Sc 14.883054067913399 17.17507410945149 11.253144022496247
Sc 13.57643603892814 10.923190794261922 14.11027174197801
Sc 9.079266799759814 12.10394812537886 11.747124670997607
Sc 15.89119101738659 12.911683507450032 14.700118061050425
Sc 17.512273029101273 10.447941343105871 15.545095824195265
Sc 10.655085625913577 17.003173814195492 9.604520564801009
Sc 13.93074168125449 15.305464111651471 13.731052663087059
Sc 16.080493543959708 17.268860704526443 14.270953169490355
Sc 12.78573610077667 19.079048679220893 10.356063971827052
Sc 8.252410923019516 10.319360849584411 14.184543935353231
Sc 11.563615736285248 13.05656731200057 13.123125474336103
Sc 9.64054037804406 15.232696141046182 12.085906581191816
Sc 14.814611670341897 10.640172053827419 16.917929489485697
Sc 12.336173710066396 8.837482704667433 15.73895126501667
Sc 17.987407368146183 14.888201707096888 15.263822371525212
Sc 10.714096852600312 11.283553798310157 15.487772094513861
Sc 17.05871568798748 12.831185770211384 17.377699002680927
Sc 11.803968227927523 17.498957417412065 12.676460171072096
Sc 8.729299949140158 13.340157684747421 14.45099839149005
Sc 12.960437199799554 13.294967263123946 16.185609223549065
Sc 14.070007956102758 19.33509699050285 13.094834827374964
Sc 10.960897746256476 15.520431075621236 15.057036402837422
Sc 12.035589090895122 11.209396268980559 18.209595799240425
Sc 10.176560219468127 13.53590554997881 17.391954211693072
Sc 14.256892208943922 13.245025163490553 18.87945483118408
Sc 15.310017393737024 15.405447755769037 16.685042662464408
Sc 13.323700629944648 17.578409664552886 15.536314820074422
Sc 12.391536138838363 15.561482173313777 17.96636994337469
Sc 11.51539324811713 13.561108047395297 20.12352398340647
