54
Energy = -285.90391289 eV
Sc 16.01191583976106 16.36854249169508 8.027919766765976
Sc 13.125262225848079 16.627508478649265 7.380033551744026
Sc 14.186038271556926 17.985464921674993 10.069830319195086
Sc 17.051117454959037 16.40231121402504 10.95932499499629
Sc 14.426339203812919 13.708530266426877 7.224959444026148
Sc 15.681416126725859 18.793285037964043 12.698393316818425
Sc 17.03283790491022 13.799701211036199 9.277186678449844
Sc 11.227950529009979 16.74393507487999 9.90461930060042
Sc 12.468346893186027 18.185043992963898 12.692156991462983
Sc 13.92480248534872 15.055869208743582 9.761629233891727
Sc 11.391121973303264 14.161716260653824 8.02090198223642
Sc 17.300602931990085 16.525928534654597 14.075963709126128
Sc 14.706126484659686 16.070740885855034 12.688690088991326
Sc 15.494795385765984 13.138560921110784 11.71671383289852
Sc 18.210958055864854 14.002755796977945 12.576941809872547
Sc 14.936423387493306 11.39960141935449 9.206587828526246
Sc 14.336395325213951 17.58871569951837 15.300629691733642
Sc 9.216015375785586 16.3788489932863 12.635216171197293
Sc 11.152429930731152 16.793690694111337 15.1241425320806
Sc 12.44145362226644 11.20495872224239 7.573546991942466
Sc 9.599706024896497 13.988068087059155 10.753631789496538
Sc 11.888820040472032 15.23666708173263 12.340347788747147
Sc 16.303828417429504 15.641590927733162 16.719383588571706
Sc 9.79169467576536 11.24222072259533 9.209470897790531
Sc 12.369872246923611 12.569421389324287 10.36125623467337
Sc 18.27594042591395 13.150831247148895 15.786309495737502
Sc 12.905904465810943 12.511053370464735 13.343801348702412
Sc 13.605222706377175 15.36361211501009 18.07435885655096
Sc 15.83553020031279 12.932529045822474 17.596291124059725
Sc 10.156409418719369 13.986517555713665 14.178569989860659
Sc 13.241192208803623 14.741644901945593 15.319555579157171
Sc 12.284509129116907 9.694349579331327 10.34353146733713
Sc 10.154395476649109 11.0926228872778 12.269696377766042
Sc 15.838657772708771 13.690073195705885 14.561263660540632
Sc 14.625570365430036 10.117572882452716 12.095885258469824
Sc 17.20573741383145 11.10985767081581 13.593455508743524
Sc 14.578045084082598 10.993208656784049 15.096620796755706
Sc 10.743724578736966 14.218038706855278 17.156608194858027
Sc 13.006222684955654 12.411574387870605 17.28586762933727
Sc 9.770558662432089 8.366487040440811 10.391772448989645
Sc 7.569048965131059 10.295506321781358 11.346453793508847
Sc 12.25087889474788 9.385989347054597 13.844806274159312
Sc 7.649705479272753 12.890412327648987 13.030330585260046
Sc 10.824899685041245 11.453225742547943 15.472667057490867
Sc 12.414219114542854 7.158543605408623 12.004523944572353
Sc 16.781669801722582 10.194041557538643 16.61733911129836
Sc 15.02792430247594 8.178187969225915 14.568982126026576
Sc 10.146543957448865 11.311389317533825 18.2192435480576
Sc 9.65552974170907 7.935013261682723 13.34363098066904
Sc 8.161624450726121 12.814188109293655 16.192144627325643
Sc 8.039963258460135 10.311296442088942 14.410184135643492
Sc 13.002296304565022 9.228536802216155 16.91201911346366
Sc 12.104068560252076 6.808794940121849 15.084426001566477
Sc 9.971628809089596 8.723307756237562 16.256061514685644
