5
Energy = -19.87810771 eV
Sc 11.905190222611363 12.836229354228784 11.16264513710595
Sc 9.480022355324785 11.646595568930175 10.182635276063069
Sc 11.967861293949163 10.335384040558713 9.631475216675291
Sc 12.744140163785033 10.226650585033443 12.267401810531583
Sc 10.12552037297293 11.05396724481773 12.802427851090892
