54
Energy = -286.19323247 eV
Sc 15.002233528080101 8.619359700398846 10.255074379729164
Sc 13.774480316327573 6.716704794899456 12.58700130036189
Sc 11.99183199996243 8.34784721123466 10.822432288708717
Sc 15.924306250759502 8.81176298021964 13.209317230345595
Sc 12.930753688292786 10.002941108776694 8.397474345673789
Sc 14.332900760109936 7.290942638296439 15.411622137170907
Sc 15.31956814580523 11.906672253124123 9.0380360224411
Sc 17.434937357868545 10.680480344903065 11.049694219868027
Sc 11.395656892343785 7.339346665175622 14.526121811457504
Sc 18.187063914128746 10.87067143075456 14.2067099470486
Sc 19.30677736095404 12.996185780206782 12.418335374366222
Sc 13.512797025600038 10.917601196146022 11.120673226794795
Sc 9.97116810007011 9.440780990176236 12.682419780865008
Sc 15.976110467519048 9.78612113206284 16.2536690613096
Sc 12.965659659899003 9.470359721911677 13.764016228369746
Sc 12.38761232249903 13.060835006255205 8.94266854379051
Sc 10.585873954994579 11.321192592009222 10.52182417768993
Sc 12.87572452661313 9.578241949986053 16.868664405579306
Sc 16.98474011009083 13.8120615171735 10.73040116133107
Sc 14.60156429249292 15.158769411541188 8.742953554778289
Sc 19.256299894457772 14.667730180924504 15.202243210676635
Sc 15.640769795502957 11.866554876813334 13.002259128951703
Sc 14.009093352785875 13.89491634120097 11.377816743649795
Sc 17.028816742089894 14.281449698079326 13.778300467800408
Sc 17.058940416514798 12.549998666755933 16.31297091563492
Sc 11.34368667806864 15.805891454593127 8.593441015913502
Sc 18.821234086459327 16.032001413927166 12.403901929321112
Sc 14.136633821080771 12.012361610662259 15.491868305345413
Sc 10.182454042741359 10.297172075781127 15.34678352278668
Sc 11.740111009717571 12.248937974291003 13.456963722627426
Sc 15.572118544102617 16.39134432980446 12.083643884150717
Sc 9.011642539893831 14.107606534733733 9.957353401342814
Sc 16.173367604787597 15.19539293533158 16.802693598565426
Sc 11.147482868642353 14.580627669259767 11.57789428636002
Sc 14.608809181475118 12.169765491330393 18.245211041753507
Sc 8.797727205532425 12.31009613271197 12.8121202689913
Sc 13.043334249209092 16.976904854541047 10.600388622564314
Sc 14.151344241706829 14.806555098766298 14.347127009400495
Sc 11.505024884491101 12.362529844306033 16.91211301509786
Sc 17.030440940192573 17.18825544872169 14.60410526195031
Sc 10.884202213111452 14.803460574703594 15.038326768095562
Sc 13.140089842625548 14.858124366598242 17.21292103812515
Sc 9.844044895277683 17.121622448270383 10.899548439522771
Sc 8.475805686322316 15.27919580406377 13.088406455982316
Sc 8.585259338261299 13.147280084652028 15.734920355559312
Sc 12.3599559322083 17.079965899349027 13.474486466681805
Sc 14.590954536000766 19.090833890812213 13.101139685720979
Sc 11.700862914819071 19.527467147558117 11.91806348841674
Sc 14.251931903553224 17.539047211938637 15.882261763122083
Sc 10.038945142508975 14.809450840169603 17.969473296079727
Sc 8.337627472225154 16.222985718715645 16.020296622981945
Sc 11.167099270122543 17.39004852895988 16.582416830649912
Sc 9.630810233347024 18.125049040172723 13.873746351407851
Sc 12.221051694934125 19.75902891383982 14.83368934411971
