7
Energy = -29.8686578 eV
Sc 9.718840806241738 9.348066549546088 5.936151013411212
Sc 8.443586709373616 6.916988827590015 6.9365780774251675
Sc 7.1850993446277505 9.634386178886045 7.361387118323903
Sc 9.458183782502774 8.763509211347582 8.896638558117276
Sc 9.326748729098737 5.804464456678832 9.486602820359739
Sc 6.944544974394407 7.505165701408059 9.491001412282708
Sc 7.227157742145703 10.331581162927867 10.195803088464853
