9
Energy = -40.16263549 eV
Sc 12.291155499635783 10.552755408556523 7.8559896514523855
Sc 9.902338968937878 11.858120226923372 8.9797106581029
Sc 11.899113168667013 10.998581062710238 11.04772154560223
Sc 10.958531565767014 8.562471574477245 9.569254210528161
Sc 11.094756007956576 11.26233211688578 13.958299152674828
Sc 9.609915267829834 9.56126255825942 7.1156458709136885
Sc 9.131820969628242 11.797383996841077 11.912302393050746
Sc 8.247195175426612 9.619674102116129 9.884063614297903
Sc 9.99859201903998 9.09926630568067 12.39554815846054
