9
Energy = -40.18280836 eV
Sc 14.895445528225585 10.538788595743247 13.797513763753686
Sc 12.91526851084242 12.43693700400214 15.079002750722154
Sc 12.188864479726623 11.042845485004062 12.630624517321307
Sc 14.497105167861088 12.26322675983972 11.349263360161405
Sc 15.509780976449472 13.41503800977987 13.92324334683201
Sc 11.364855495536784 12.928242261243133 10.509321273612665
Sc 12.797502895689536 14.265186219685168 12.745425369061365
Sc 10.145635471662663 13.043722205470223 13.329025580194722
Sc 10.104258518839474 15.305613824407876 11.531945369065603
