  20  20   0   0
  0.4399565E+03  0.2064492E-08  0.2064492E-08  0.2064492E-08  0.1000000E-15
  1.000000000000000E-004
  CAR 
 unknown system                          
      1.42594392     -9.91027199  301     -3.59033162      1.00000000
     -9.910  0.0000E+00  0.0000E+00  0.0000E+00  0.0000E+00
     -9.872  0.0000E+00  0.0000E+00  0.0000E+00  0.0000E+00
     -9.835  0.0000E+00  0.0000E+00  0.0000E+00  0.0000E+00
     -9.797  0.0000E+00  0.0000E+00  0.0000E+00  0.0000E+00
     -9.759  0.0000E+00  0.0000E+00  0.0000E+00  0.0000E+00
     -9.721  0.0000E+00  0.0000E+00  0.0000E+00  0.0000E+00
     -9.684  0.0000E+00  0.0000E+00  0.0000E+00  0.0000E+00
     -9.646  0.0000E+00  0.0000E+00  0.0000E+00  0.0000E+00
     -9.608  0.0000E+00  0.0000E+00  0.0000E+00  0.0000E+00
     -9.570  0.0000E+00  0.0000E+00  0.0000E+00  0.0000E+00
     -9.532  0.0000E+00  0.0000E+00  0.0000E+00  0.0000E+00
     -9.495  0.0000E+00  0.0000E+00  0.0000E+00  0.0000E+00
     -9.457  0.0000E+00  0.0000E+00  0.0000E+00  0.0000E+00
     -9.419  0.0000E+00  0.0000E+00  0.0000E+00  0.0000E+00
     -9.381  0.0000E+00  0.0000E+00  0.1000E-02  0.1000E-02
     -9.343  0.0000E+00  0.0000E+00  0.1000E-02  0.1000E-02
     -9.306  0.0000E+00  0.0000E+00  0.1000E-02  0.1000E-02
     -9.268  0.0000E+00  0.0000E+00  0.1000E-02  0.1000E-02
     -9.230  0.0000E+00  0.0000E+00  0.1000E-02  0.1000E-02
     -9.192  0.0000E+00  0.0000E+00  0.1000E-02  0.1000E-02
     -9.155  0.0000E+00  0.0000E+00  0.1000E-02  0.1000E-02
     -9.117  0.0000E+00  0.0000E+00  0.2000E-02  0.2000E-02
     -9.079  0.0000E+00  0.0000E+00  0.2000E-02  0.2000E-02
     -9.041  0.0000E+00  0.0000E+00  0.3000E-02  0.3000E-02
     -9.003  0.0000E+00  0.0000E+00  0.3000E-02  0.3000E-02
     -8.966  0.0000E+00  0.0000E+00  0.3000E-02  0.3000E-02
     -8.928  0.0000E+00  0.0000E+00  0.4000E-02  0.4000E-02
     -8.890  0.0000E+00  0.0000E+00  0.4000E-02  0.4000E-02
     -8.852  0.0000E+00  0.0000E+00  0.5000E-02  0.5000E-02
     -8.814  0.0000E+00  0.0000E+00  0.7000E-02  0.7000E-02
     -8.777  0.0000E+00  0.0000E+00  0.7000E-02  0.7000E-02
     -8.739  0.2646E-01  0.2646E-01  0.9000E-02  0.9000E-02
     -8.701  0.0000E+00  0.0000E+00  0.1000E-01  0.1000E-01
     -8.663  0.0000E+00  0.0000E+00  0.1100E-01  0.1100E-01
     -8.626  0.0000E+00  0.0000E+00  0.1200E-01  0.1200E-01
     -8.588  0.0000E+00  0.0000E+00  0.1300E-01  0.1300E-01
     -8.550  0.0000E+00  0.0000E+00  0.1400E-01  0.1400E-01
     -8.512  0.0000E+00  0.0000E+00  0.1400E-01  0.1400E-01
     -8.474  0.0000E+00  0.0000E+00  0.1600E-01  0.1600E-01
     -8.437  0.0000E+00  0.0000E+00  0.1700E-01  0.1700E-01
     -8.399  0.0000E+00  0.0000E+00  0.1800E-01  0.1800E-01
     -8.361  0.0000E+00  0.0000E+00  0.1800E-01  0.1800E-01
     -8.323  0.0000E+00  0.0000E+00  0.1900E-01  0.1900E-01
     -8.285  0.0000E+00  0.0000E+00  0.2100E-01  0.2100E-01
     -8.248  0.0000E+00  0.0000E+00  0.2200E-01  0.2200E-01
     -8.210  0.0000E+00  0.0000E+00  0.2400E-01  0.2400E-01
     -8.172  0.0000E+00  0.0000E+00  0.2400E-01  0.2400E-01
     -8.134  0.0000E+00  0.0000E+00  0.2500E-01  0.2500E-01
     -8.096  0.0000E+00  0.0000E+00  0.2600E-01  0.2600E-01
     -8.059  0.0000E+00  0.0000E+00  0.2700E-01  0.2700E-01
     -8.021  0.0000E+00  0.0000E+00  0.2800E-01  0.2800E-01
     -7.983  0.0000E+00  0.0000E+00  0.2900E-01  0.2900E-01
     -7.945  0.0000E+00  0.0000E+00  0.3000E-01  0.3000E-01
     -7.908  0.0000E+00  0.0000E+00  0.3100E-01  0.3100E-01
     -7.870  0.0000E+00  0.0000E+00  0.3300E-01  0.3300E-01
     -7.832  0.0000E+00  0.0000E+00  0.3400E-01  0.3400E-01
     -7.794  0.0000E+00  0.0000E+00  0.3600E-01  0.3600E-01
     -7.756  0.0000E+00  0.0000E+00  0.3700E-01  0.3700E-01
     -7.719  0.0000E+00  0.0000E+00  0.3800E-01  0.3800E-01
     -7.681  0.0000E+00  0.0000E+00  0.3900E-01  0.3900E-01
     -7.643  0.0000E+00  0.0000E+00  0.4100E-01  0.4100E-01
     -7.605  0.0000E+00  0.0000E+00  0.4300E-01  0.4300E-01
     -7.567  0.0000E+00  0.0000E+00  0.4400E-01  0.4400E-01
     -7.530  0.0000E+00  0.0000E+00  0.4500E-01  0.4500E-01
     -7.492  0.0000E+00  0.0000E+00  0.4600E-01  0.4600E-01
     -7.454  0.0000E+00  0.0000E+00  0.4700E-01  0.4700E-01
     -7.416  0.4182E-03  0.4182E-03  0.4802E-01  0.4802E-01
     -7.379  0.0000E+00  0.0000E+00  0.5000E-01  0.5000E-01
     -7.341  0.0000E+00  0.0000E+00  0.5100E-01  0.5100E-01
     -7.303  0.0000E+00  0.0000E+00  0.5200E-01  0.5200E-01
     -7.265  0.0000E+00  0.0000E+00  0.5400E-01  0.5400E-01
     -7.227  0.1143E-07  0.1143E-07  0.5500E-01  0.5500E-01
     -7.190  0.0000E+00  0.0000E+00  0.5700E-01  0.5700E-01
     -7.152  0.0000E+00  0.0000E+00  0.5800E-01  0.5800E-01
     -7.114  0.0000E+00  0.0000E+00  0.6000E-01  0.6000E-01
     -7.076  0.2646E-01  0.2646E-01  0.6300E-01  0.6300E-01
     -7.038  0.0000E+00  0.0000E+00  0.6500E-01  0.6500E-01
     -7.001  0.0000E+00  0.0000E+00  0.6600E-01  0.6600E-01
     -6.963  0.3276E-15  0.3261E-15  0.6700E-01  0.6700E-01
     -6.925  0.0000E+00  0.0000E+00  0.6900E-01  0.6900E-01
     -6.887  0.0000E+00  0.0000E+00  0.7200E-01  0.7200E-01
     -6.849  0.0000E+00  0.0000E+00  0.7300E-01  0.7300E-01
     -6.812  0.0000E+00  0.0000E+00  0.7600E-01  0.7600E-01
     -6.774  0.2646E-01  0.2646E-01  0.7800E-01  0.7800E-01
     -6.736  0.0000E+00  0.0000E+00  0.7900E-01  0.7900E-01
     -6.698  0.0000E+00  0.0000E+00  0.8300E-01  0.8300E-01
     -6.661  0.0000E+00  0.0000E+00  0.8500E-01  0.8500E-01
     -6.623  0.0000E+00  0.0000E+00  0.8600E-01  0.8600E-01
     -6.585  0.0000E+00  0.0000E+00  0.8700E-01  0.8700E-01
     -6.547  0.0000E+00  0.0000E+00  0.8900E-01  0.8900E-01
     -6.509  0.0000E+00  0.0000E+00  0.9100E-01  0.9100E-01
     -6.472  0.0000E+00  0.0000E+00  0.9400E-01  0.9400E-01
     -6.434  0.0000E+00  0.0000E+00  0.9400E-01  0.9400E-01
     -6.396  0.0000E+00  0.0000E+00  0.9500E-01  0.9500E-01
     -6.358  0.0000E+00  0.0000E+00  0.9600E-01  0.9600E-01
     -6.320  0.0000E+00  0.0000E+00  0.9700E-01  0.9700E-01
     -6.283  0.0000E+00  0.0000E+00  0.9900E-01  0.9900E-01
     -6.245  0.0000E+00  0.0000E+00  0.1010E+00  0.1010E+00
     -6.207  0.0000E+00  0.0000E+00  0.1020E+00  0.1020E+00
     -6.169  0.0000E+00  0.0000E+00  0.1020E+00  0.1020E+00
     -6.132  0.0000E+00  0.0000E+00  0.1030E+00  0.1030E+00
     -6.094  0.0000E+00  0.0000E+00  0.1030E+00  0.1030E+00
     -6.056  0.0000E+00  0.0000E+00  0.1030E+00  0.1030E+00
     -6.018  0.0000E+00  0.0000E+00  0.1030E+00  0.1030E+00
     -5.980  0.0000E+00  0.0000E+00  0.1030E+00  0.1030E+00
     -5.943  0.0000E+00  0.0000E+00  0.1040E+00  0.1040E+00
     -5.905  0.0000E+00  0.0000E+00  0.1040E+00  0.1040E+00
     -5.867  0.0000E+00  0.0000E+00  0.1040E+00  0.1040E+00
     -5.829  0.0000E+00  0.0000E+00  0.1040E+00  0.1040E+00
     -5.791  0.0000E+00  0.0000E+00  0.1040E+00  0.1040E+00
     -5.754  0.0000E+00  0.0000E+00  0.1040E+00  0.1040E+00
     -5.716  0.0000E+00  0.0000E+00  0.1040E+00  0.1040E+00
     -5.678  0.0000E+00  0.0000E+00  0.1040E+00  0.1040E+00
     -5.640  0.0000E+00  0.0000E+00  0.1040E+00  0.1040E+00
     -5.603  0.0000E+00  0.0000E+00  0.1040E+00  0.1040E+00
     -5.565  0.0000E+00  0.0000E+00  0.1040E+00  0.1040E+00
     -5.527  0.0000E+00  0.0000E+00  0.1040E+00  0.1040E+00
     -5.489  0.0000E+00  0.0000E+00  0.1040E+00  0.1040E+00
     -5.451  0.0000E+00  0.0000E+00  0.1040E+00  0.1040E+00
     -5.414  0.0000E+00  0.0000E+00  0.1040E+00  0.1040E+00
     -5.376  0.0000E+00  0.0000E+00  0.1040E+00  0.1040E+00
     -5.338  0.0000E+00  0.0000E+00  0.1040E+00  0.1040E+00
     -5.300  0.0000E+00  0.0000E+00  0.1050E+00  0.1050E+00
     -5.262  0.0000E+00  0.0000E+00  0.1050E+00  0.1050E+00
     -5.225  0.0000E+00  0.0000E+00  0.1050E+00  0.1050E+00
     -5.187  0.0000E+00  0.0000E+00  0.1050E+00  0.1050E+00
     -5.149  0.0000E+00  0.0000E+00  0.1050E+00  0.1050E+00
     -5.111  0.0000E+00  0.0000E+00  0.1050E+00  0.1050E+00
     -5.073  0.0000E+00  0.0000E+00  0.1050E+00  0.1050E+00
     -5.036  0.0000E+00  0.0000E+00  0.1050E+00  0.1050E+00
     -4.998  0.0000E+00  0.0000E+00  0.1050E+00  0.1050E+00
     -4.960  0.0000E+00  0.0000E+00  0.1050E+00  0.1050E+00
     -4.922  0.0000E+00  0.0000E+00  0.1050E+00  0.1050E+00
     -4.885  0.0000E+00  0.0000E+00  0.1060E+00  0.1060E+00
     -4.847  0.0000E+00  0.0000E+00  0.1060E+00  0.1060E+00
     -4.809  0.0000E+00  0.0000E+00  0.1060E+00  0.1060E+00
     -4.771  0.0000E+00  0.0000E+00  0.1060E+00  0.1060E+00
     -4.733  0.0000E+00  0.0000E+00  0.1060E+00  0.1060E+00
     -4.696  0.0000E+00  0.0000E+00  0.1060E+00  0.1060E+00
     -4.658  0.0000E+00  0.0000E+00  0.1060E+00  0.1060E+00
     -4.620  0.0000E+00  0.0000E+00  0.1060E+00  0.1060E+00
     -4.582  0.0000E+00  0.0000E+00  0.1060E+00  0.1060E+00
     -4.544  0.0000E+00  0.0000E+00  0.1060E+00  0.1060E+00
     -4.507  0.0000E+00  0.0000E+00  0.1060E+00  0.1060E+00
     -4.469  0.0000E+00  0.0000E+00  0.1060E+00  0.1060E+00
     -4.431  0.0000E+00  0.0000E+00  0.1070E+00  0.1070E+00
     -4.393  0.0000E+00  0.0000E+00  0.1070E+00  0.1070E+00
     -4.356  0.0000E+00  0.0000E+00  0.1080E+00  0.1080E+00
     -4.318  0.0000E+00  0.0000E+00  0.1080E+00  0.1080E+00
     -4.280  0.0000E+00  0.0000E+00  0.1080E+00  0.1080E+00
     -4.242  0.0000E+00  0.0000E+00  0.1080E+00  0.1080E+00
     -4.204  0.0000E+00  0.0000E+00  0.1080E+00  0.1080E+00
     -4.167  0.0000E+00  0.0000E+00  0.1080E+00  0.1080E+00
     -4.129  0.0000E+00  0.0000E+00  0.1080E+00  0.1080E+00
     -4.091  0.0000E+00  0.0000E+00  0.1090E+00  0.1090E+00
     -4.053  0.0000E+00  0.0000E+00  0.1090E+00  0.1090E+00
     -4.015  0.0000E+00  0.0000E+00  0.1090E+00  0.1090E+00
     -3.978  0.0000E+00  0.0000E+00  0.1090E+00  0.1090E+00
     -3.940  0.0000E+00  0.0000E+00  0.1090E+00  0.1090E+00
     -3.902  0.0000E+00  0.0000E+00  0.1090E+00  0.1090E+00
     -3.864  0.0000E+00  0.0000E+00  0.1090E+00  0.1090E+00
     -3.827  0.0000E+00  0.0000E+00  0.1090E+00  0.1090E+00
     -3.789  0.0000E+00  0.0000E+00  0.1090E+00  0.1090E+00
     -3.751  0.0000E+00  0.0000E+00  0.1090E+00  0.1090E+00
     -3.713  0.0000E+00  0.0000E+00  0.1090E+00  0.1090E+00
     -3.675  0.0000E+00  0.0000E+00  0.1090E+00  0.1090E+00
     -3.638  0.0000E+00  0.0000E+00  0.1090E+00  0.1090E+00
     -3.600  0.0000E+00  0.0000E+00  0.1100E+00  0.1100E+00
     -3.562  0.0000E+00  0.0000E+00  0.1100E+00  0.1100E+00
     -3.524  0.0000E+00  0.0000E+00  0.1100E+00  0.1100E+00
     -3.486  0.0000E+00  0.0000E+00  0.1100E+00  0.1100E+00
     -3.449  0.0000E+00  0.0000E+00  0.1100E+00  0.1100E+00
     -3.411  0.0000E+00  0.0000E+00  0.1100E+00  0.1100E+00
     -3.373  0.0000E+00  0.0000E+00  0.1100E+00  0.1100E+00
     -3.335  0.0000E+00  0.0000E+00  0.1100E+00  0.1100E+00
     -3.297  0.0000E+00  0.0000E+00  0.1100E+00  0.1100E+00
     -3.260  0.0000E+00  0.0000E+00  0.1110E+00  0.1110E+00
     -3.222  0.0000E+00  0.0000E+00  0.1110E+00  0.1110E+00
     -3.184  0.0000E+00  0.0000E+00  0.1110E+00  0.1110E+00
     -3.146  0.0000E+00  0.0000E+00  0.1110E+00  0.1110E+00
     -3.109  0.0000E+00  0.0000E+00  0.1110E+00  0.1110E+00
     -3.071  0.0000E+00  0.0000E+00  0.1110E+00  0.1110E+00
     -3.033  0.0000E+00  0.0000E+00  0.1110E+00  0.1110E+00
     -2.995  0.0000E+00  0.0000E+00  0.1110E+00  0.1110E+00
     -2.957  0.0000E+00  0.0000E+00  0.1110E+00  0.1110E+00
     -2.920  0.0000E+00  0.0000E+00  0.1120E+00  0.1120E+00
     -2.882  0.0000E+00  0.0000E+00  0.1120E+00  0.1120E+00
     -2.844  0.0000E+00  0.0000E+00  0.1120E+00  0.1120E+00
     -2.806  0.0000E+00  0.0000E+00  0.1120E+00  0.1120E+00
     -2.768  0.0000E+00  0.0000E+00  0.1120E+00  0.1120E+00
     -2.731  0.0000E+00  0.0000E+00  0.1120E+00  0.1120E+00
     -2.693  0.0000E+00  0.0000E+00  0.1120E+00  0.1120E+00
     -2.655  0.0000E+00  0.0000E+00  0.1120E+00  0.1120E+00
     -2.617  0.0000E+00  0.0000E+00  0.1120E+00  0.1120E+00
     -2.580  0.0000E+00  0.0000E+00  0.1130E+00  0.1130E+00
     -2.542  0.0000E+00  0.0000E+00  0.1130E+00  0.1130E+00
     -2.504  0.0000E+00  0.0000E+00  0.1130E+00  0.1130E+00
     -2.466  0.0000E+00  0.0000E+00  0.1130E+00  0.1130E+00
     -2.428  0.0000E+00  0.0000E+00  0.1140E+00  0.1140E+00
     -2.391  0.0000E+00  0.0000E+00  0.1140E+00  0.1140E+00
     -2.353  0.0000E+00  0.0000E+00  0.1150E+00  0.1150E+00
     -2.315  0.0000E+00  0.0000E+00  0.1150E+00  0.1150E+00
     -2.277  0.0000E+00  0.0000E+00  0.1150E+00  0.1150E+00
     -2.239  0.0000E+00  0.0000E+00  0.1150E+00  0.1150E+00
     -2.202  0.0000E+00  0.0000E+00  0.1150E+00  0.1150E+00
     -2.164  0.0000E+00  0.0000E+00  0.1160E+00  0.1160E+00
     -2.126  0.0000E+00  0.0000E+00  0.1160E+00  0.1160E+00
     -2.088  0.0000E+00  0.0000E+00  0.1160E+00  0.1160E+00
     -2.050  0.0000E+00  0.0000E+00  0.1160E+00  0.1160E+00
     -2.013  0.0000E+00  0.0000E+00  0.1160E+00  0.1160E+00
     -1.975  0.0000E+00  0.0000E+00  0.1170E+00  0.1170E+00
     -1.937  0.0000E+00  0.0000E+00  0.1170E+00  0.1170E+00
     -1.899  0.0000E+00  0.0000E+00  0.1170E+00  0.1170E+00
     -1.862  0.0000E+00  0.0000E+00  0.1170E+00  0.1170E+00
     -1.824  0.0000E+00  0.0000E+00  0.1180E+00  0.1180E+00
     -1.786  0.0000E+00  0.0000E+00  0.1180E+00  0.1180E+00
     -1.748  0.0000E+00  0.0000E+00  0.1180E+00  0.1180E+00
     -1.710  0.0000E+00  0.0000E+00  0.1180E+00  0.1180E+00
     -1.673  0.0000E+00  0.0000E+00  0.1180E+00  0.1180E+00
     -1.635  0.0000E+00  0.0000E+00  0.1190E+00  0.1190E+00
     -1.597  0.0000E+00  0.0000E+00  0.1190E+00  0.1190E+00
     -1.559  0.0000E+00  0.0000E+00  0.1190E+00  0.1190E+00
     -1.521  0.0000E+00  0.0000E+00  0.1200E+00  0.1200E+00
     -1.484  0.0000E+00  0.0000E+00  0.1200E+00  0.1200E+00
     -1.446  0.0000E+00  0.0000E+00  0.1200E+00  0.1200E+00
     -1.408  0.0000E+00  0.0000E+00  0.1200E+00  0.1200E+00
     -1.370  0.0000E+00  0.0000E+00  0.1200E+00  0.1200E+00
     -1.333  0.0000E+00  0.0000E+00  0.1200E+00  0.1200E+00
     -1.295  0.0000E+00  0.0000E+00  0.1200E+00  0.1200E+00
     -1.257  0.0000E+00  0.0000E+00  0.1200E+00  0.1200E+00
     -1.219  0.0000E+00  0.0000E+00  0.1200E+00  0.1200E+00
     -1.181  0.0000E+00  0.0000E+00  0.1200E+00  0.1200E+00
     -1.144  0.0000E+00  0.0000E+00  0.1210E+00  0.1210E+00
     -1.106  0.0000E+00  0.0000E+00  0.1220E+00  0.1220E+00
     -1.068  0.0000E+00  0.0000E+00  0.1220E+00  0.1220E+00
     -1.030  0.0000E+00  0.0000E+00  0.1220E+00  0.1220E+00
     -0.992  0.0000E+00  0.0000E+00  0.1220E+00  0.1220E+00
     -0.955  0.0000E+00  0.0000E+00  0.1220E+00  0.1220E+00
     -0.917  0.0000E+00  0.0000E+00  0.1220E+00  0.1220E+00
     -0.879  0.0000E+00  0.0000E+00  0.1220E+00  0.1220E+00
     -0.841  0.0000E+00  0.0000E+00  0.1230E+00  0.1230E+00
     -0.804  0.0000E+00  0.0000E+00  0.1240E+00  0.1240E+00
     -0.766  0.0000E+00  0.0000E+00  0.1240E+00  0.1240E+00
     -0.728  0.0000E+00  0.0000E+00  0.1250E+00  0.1250E+00
     -0.690  0.0000E+00  0.0000E+00  0.1250E+00  0.1250E+00
     -0.652  0.0000E+00  0.0000E+00  0.1260E+00  0.1260E+00
     -0.615  0.0000E+00  0.0000E+00  0.1260E+00  0.1260E+00
     -0.577  0.0000E+00  0.0000E+00  0.1260E+00  0.1260E+00
     -0.539  0.3670E-06  0.3753E-06  0.1260E+00  0.1260E+00
     -0.501  0.0000E+00  0.0000E+00  0.1270E+00  0.1270E+00
     -0.463  0.0000E+00  0.0000E+00  0.1270E+00  0.1270E+00
     -0.426  0.0000E+00  0.0000E+00  0.1280E+00  0.1280E+00
     -0.388  0.0000E+00  0.0000E+00  0.1280E+00  0.1280E+00
     -0.350  0.0000E+00  0.0000E+00  0.1280E+00  0.1280E+00
     -0.312  0.0000E+00  0.0000E+00  0.1280E+00  0.1280E+00
     -0.274  0.0000E+00  0.0000E+00  0.1280E+00  0.1280E+00
     -0.237  0.0000E+00  0.0000E+00  0.1280E+00  0.1280E+00
     -0.199  0.0000E+00  0.0000E+00  0.1300E+00  0.1300E+00
     -0.161  0.0000E+00  0.0000E+00  0.1300E+00  0.1300E+00
     -0.123  0.0000E+00  0.0000E+00  0.1300E+00  0.1300E+00
     -0.086  0.0000E+00  0.0000E+00  0.1300E+00  0.1300E+00
     -0.048  0.0000E+00  0.0000E+00  0.1300E+00  0.1300E+00
     -0.010  0.0000E+00  0.0000E+00  0.1300E+00  0.1300E+00
      0.028  0.0000E+00  0.0000E+00  0.1300E+00  0.1300E+00
      0.066  0.0000E+00  0.0000E+00  0.1310E+00  0.1310E+00
      0.103  0.0000E+00  0.0000E+00  0.1310E+00  0.1310E+00
      0.141  0.0000E+00  0.0000E+00  0.1310E+00  0.1310E+00
      0.179  0.0000E+00  0.0000E+00  0.1310E+00  0.1310E+00
      0.217  0.0000E+00  0.0000E+00  0.1310E+00  0.1310E+00
      0.255  0.0000E+00  0.0000E+00  0.1310E+00  0.1310E+00
      0.292  0.0000E+00  0.0000E+00  0.1320E+00  0.1320E+00
      0.330  0.1608E-04  0.1609E-04  0.1330E+00  0.1330E+00
      0.368  0.0000E+00  0.0000E+00  0.1340E+00  0.1340E+00
      0.406  0.0000E+00  0.0000E+00  0.1340E+00  0.1340E+00
      0.443  0.0000E+00  0.0000E+00  0.1340E+00  0.1340E+00
      0.481  0.0000E+00  0.0000E+00  0.1340E+00  0.1340E+00
      0.519  0.0000E+00  0.0000E+00  0.1340E+00  0.1340E+00
      0.557  0.0000E+00  0.0000E+00  0.1350E+00  0.1350E+00
      0.595  0.0000E+00  0.0000E+00  0.1350E+00  0.1350E+00
      0.632  0.0000E+00  0.0000E+00  0.1360E+00  0.1360E+00
      0.670  0.0000E+00  0.0000E+00  0.1380E+00  0.1380E+00
      0.708  0.0000E+00  0.0000E+00  0.1400E+00  0.1400E+00
      0.746  0.0000E+00  0.0000E+00  0.1410E+00  0.1410E+00
      0.784  0.0000E+00  0.0000E+00  0.1410E+00  0.1410E+00
      0.821  0.0000E+00  0.0000E+00  0.1420E+00  0.1420E+00
      0.859  0.0000E+00  0.0000E+00  0.1420E+00  0.1420E+00
      0.897  0.0000E+00  0.0000E+00  0.1430E+00  0.1430E+00
      0.935  0.0000E+00  0.0000E+00  0.1440E+00  0.1440E+00
      0.972  0.0000E+00  0.0000E+00  0.1440E+00  0.1440E+00
      1.010  0.0000E+00  0.0000E+00  0.1440E+00  0.1440E+00
      1.048  0.0000E+00  0.0000E+00  0.1440E+00  0.1440E+00
      1.086  0.0000E+00  0.0000E+00  0.1440E+00  0.1440E+00
      1.124  0.0000E+00  0.0000E+00  0.1440E+00  0.1440E+00
      1.161  0.0000E+00  0.0000E+00  0.1440E+00  0.1440E+00
      1.199  0.0000E+00  0.0000E+00  0.1440E+00  0.1440E+00
      1.237  0.0000E+00  0.0000E+00  0.1440E+00  0.1440E+00
      1.275  0.0000E+00  0.0000E+00  0.1440E+00  0.1440E+00
      1.313  0.0000E+00  0.0000E+00  0.1440E+00  0.1440E+00
      1.350  0.0000E+00  0.0000E+00  0.1440E+00  0.1440E+00
      1.388  0.0000E+00  0.0000E+00  0.1440E+00  0.1440E+00
      1.426  0.0000E+00  0.0000E+00  0.1440E+00  0.1440E+00
