 running on   32 total cores
 distrk:  each k-point on   32 cores,    1 groups
 distr:  one band on    8 cores,    4 groups
 using from now: INCAR     
 vasp.5.3.5 31Mar14 (build Feb 01 2018 12:10:03) gamma-only                     
  
 POSCAR found type information on POSCAR  Ag
 POSCAR found :  1 types and      13 ions
 scaLAPACK will be used
 LDA part: xc-table for Pade appr. of Perdew
 POSCAR, INCAR and KPOINTS ok, starting setup
 WARNING: small aliasing (wrap around) errors must be expected
 FFT: planning ...
 WAVECAR not read
 entering main loop
       N       E                     dE             d eps       ncg     rms          rms(c)
DAV:   1     0.126794177638E+04    0.12679E+04   -0.24169E+04   368   0.577E+02
DAV:   2     0.380280767592E+03   -0.88766E+03   -0.77991E+03   656   0.122E+02
DAV:   3     0.817383883743E+01   -0.37211E+03   -0.34603E+03   512   0.909E+01
DAV:   4    -0.224180018654E+02   -0.30592E+02   -0.29848E+02   392   0.288E+01
DAV:   5    -0.229253892943E+02   -0.50739E+00   -0.50674E+00   408   0.435E+00    0.201E+01
DAV:   6    -0.111999549160E+02    0.11725E+02   -0.37974E+01   372   0.144E+01    0.100E+01
DAV:   7    -0.747173225434E+01    0.37282E+01   -0.23204E+00   408   0.498E+00    0.543E+00
DAV:   8    -0.916003547106E+01   -0.16883E+01   -0.11416E+00   412   0.275E+00    0.261E+00
DAV:   9    -0.117170656937E+02   -0.25570E+01   -0.76304E-01   388   0.185E+00    0.126E+00
DAV:  10    -0.150721151699E+02   -0.33550E+01   -0.10079E+00   384   0.200E+00    0.224E+00
DAV:  11    -0.150382474411E+02    0.33868E-01   -0.16648E-02   432   0.335E-01    0.226E+00
DAV:  12    -0.153572189223E+02   -0.31897E+00   -0.50640E-02   400   0.487E-01    0.220E+00
DAV:  13    -0.154943937590E+02   -0.13717E+00   -0.93480E-03   400   0.222E-01    0.215E+00
DAV:  14    -0.179475449434E+02   -0.24532E+01   -0.12879E+00   376   0.344E+00    0.149E+00
DAV:  15    -0.199293722300E+02   -0.19818E+01   -0.63772E-01   376   0.176E+00    0.118E+00
DAV:  16    -0.206980558744E+02   -0.76868E+00   -0.11145E-01   372   0.125E+00    0.803E-01
DAV:  17    -0.215284612047E+02   -0.83041E+00   -0.14157E-01   368   0.703E-01    0.477E-01
DAV:  18    -0.220719487246E+02   -0.54349E+00   -0.81506E-02   400   0.681E-01    0.349E-01
DAV:  19    -0.223914515315E+02   -0.31950E+00   -0.24598E-02   392   0.392E-01    0.116E-01
DAV:  20    -0.224690655002E+02   -0.77614E-01   -0.21545E-03   392   0.106E-01    0.673E-02
DAV:  21    -0.225118973054E+02   -0.42832E-01   -0.18679E-03   336   0.689E-02    0.675E-02
DAV:  22    -0.225271001806E+02   -0.15203E-01   -0.51772E-04   264   0.374E-02    0.431E-02
DAV:  23    -0.225322600710E+02   -0.51599E-02   -0.59604E-04   272   0.892E-02    0.275E-02
DAV:  24    -0.225331707897E+02   -0.91072E-03   -0.23380E-04   264   0.481E-02    0.169E-02
DAV:  25    -0.225335378962E+02   -0.36711E-03   -0.72378E-05   280   0.138E-02    0.819E-03
DAV:  26    -0.225344531416E+02   -0.91525E-03   -0.44704E-05   260   0.972E-03    0.577E-03
DAV:  27    -0.225350720111E+02   -0.61887E-03   -0.37903E-05   256   0.752E-03    0.556E-03
DAV:  28    -0.225351216885E+02   -0.49677E-04   -0.68903E-06   256   0.400E-03
   1 F= -.22535122E+02 E0= -.22535122E+02  d E =-.225351E+02  mag=     3.0011
 curvature:   0.00 expect dE= 0.000E+00 dE for cont linesearch  0.000E+00
 trial: gam= 0.00000 g(F)=  0.340E-01 g(S)=  0.000E+00 ort = 0.000E+00 (trialstep = 0.100E+01)
 search vector abs. value=  0.340E-01
 bond charge predicted
       N       E                     dE             d eps       ncg     rms          rms(c)
DAV:   1    -0.225665541636E+02   -0.31482E-01   -0.22999E+00   400   0.428E+00    0.164E-01
DAV:   2    -0.225676302706E+02   -0.10761E-02   -0.11136E-02   392   0.414E-01    0.115E-01
DAV:   3    -0.225675873857E+02    0.42885E-04   -0.23666E-04   272   0.647E-02
   2 F= -.22567587E+02 E0= -.22567587E+02  d E =-.324657E-01  mag=     3.0004
 ZBRENT: can't locate minimum, use default step
 trial-energy change:   -0.032466  1 .order   -0.032098   -0.033996   -0.030200
 step:   4.0000(harm=  8.9555)  dis= 0.03104  next Energy=   -22.687347 (dE=-0.152E+00)
 bond charge predicted
       N       E                     dE             d eps       ncg     rms          rms(c)
DAV:   1    -0.226375612268E+02   -0.69931E-01   -0.20758E+01   376   0.129E+01    0.464E-01
DAV:   2    -0.226471890410E+02   -0.96278E-02   -0.99877E-02   400   0.124E+00    0.332E-01
DAV:   3    -0.226468936373E+02    0.29540E-03   -0.20844E-03   392   0.186E-01    0.182E-01
DAV:   4    -0.226467232978E+02    0.17034E-03   -0.59912E-04   392   0.919E-02    0.307E-02
DAV:   5    -0.226467670946E+02   -0.43797E-04   -0.36601E-05   232   0.254E-02
   3 F= -.22646767E+02 E0= -.22646767E+02  d E =-.111645E+00  mag=     3.0001
 curvature:  -2.74 expect dE=-0.416E-01 dE for cont linesearch -0.401E-01
 ZBRENT: increasing intervall
 opt :  10.0000  next Energy=   -22.733262 (dE=-0.198E+00)
 bond charge predicted
       N       E                     dE             d eps       ncg     rms          rms(c)
DAV:   1    -0.226962335791E+02   -0.49510E-01   -0.83224E+01   376   0.259E+01    0.800E-01
DAV:   2    -0.227345413137E+02   -0.38308E-01   -0.39454E-01   380   0.250E+00    0.613E-01
DAV:   3    -0.227338250968E+02    0.71622E-03   -0.73107E-03   392   0.340E-01    0.378E-01
DAV:   4    -0.227331111568E+02    0.71394E-03   -0.29500E-03   380   0.186E-01    0.784E-02
DAV:   5    -0.227332521250E+02   -0.14097E-03   -0.12351E-04   252   0.529E-02    0.309E-02
DAV:   6    -0.227334149527E+02   -0.16283E-03   -0.68903E-05   244   0.239E-02    0.164E-02
DAV:   7    -0.227336230418E+02   -0.20809E-03   -0.34443E-05   248   0.173E-02    0.537E-03
DAV:   8    -0.227338473505E+02   -0.22431E-03   -0.79216E-06   256   0.814E-03    0.271E-03
DAV:   9    -0.227339945540E+02   -0.14720E-03   -0.30068E-06   256   0.433E-03    0.165E-03
DAV:  10    -0.227341017771E+02   -0.10722E-03   -0.12855E-06   256   0.222E-03    0.108E-03
DAV:  11    -0.227342621375E+02   -0.16036E-03   -0.56461E-06   264   0.328E-03    0.944E-04
DAV:  12    -0.227342780910E+02   -0.15953E-04   -0.58521E-07   264   0.128E-03
   4 F= -.22734278E+02 E0= -.22734278E+02  d E =-.199156E+00  mag=     3.0000
 curvature:  -5.91 expect dE=-0.236E-01 dE for cont linesearch -0.941E-02
 ZBRENT: extrapolating
 opt :  12.9521  next Energy=   -22.745136 (dE=-0.210E+00)
 bond charge predicted
       N       E                     dE             d eps       ncg     rms          rms(c)
DAV:   1    -0.227373451147E+02   -0.30830E-02   -0.20069E+01   368   0.127E+01    0.368E-01
DAV:   2    -0.227466142354E+02   -0.92691E-02   -0.96557E-02   392   0.123E+00    0.267E-01
DAV:   3    -0.227463939930E+02    0.22024E-03   -0.18056E-03   384   0.168E-01    0.165E-01
DAV:   4    -0.227460990760E+02    0.29492E-03   -0.68086E-04   392   0.890E-02    0.381E-02
DAV:   5    -0.227461273726E+02   -0.28297E-04   -0.26513E-05   240   0.246E-02
   5 F= -.22746127E+02 E0= -.22746127E+02  d E =-.211006E+00  mag=     3.0000
 curvature:  -6.82 expect dE=-0.239E-01 dE for cont linesearch -0.238E-03
 trial: gam= 0.07116 g(F)=  0.351E-02 g(S)=  0.000E+00 ort = 0.109E-02 (trialstep = 0.339E+01)
 search vector abs. value=  0.384E-02
 bond charge predicted
       N       E                     dE             d eps       ncg     rms          rms(c)
DAV:   1    -0.227562381743E+02   -0.10139E-01   -0.29624E+00   376   0.484E+00    0.795E-02
DAV:   2    -0.227576524721E+02   -0.14143E-02   -0.14497E-02   396   0.475E-01    0.644E-02
DAV:   3    -0.227576439572E+02    0.85149E-05   -0.22119E-04   272   0.609E-02
   6 F= -.22757644E+02 E0= -.22757644E+02  d E =-.115166E-01  mag=     3.0000
 ZBRENT: can't locate minimum, use default step
 trial-energy change:   -0.011517  1 .order   -0.011091   -0.012160   -0.010023
 step:  13.5616(harm= 19.2866)  dis= 0.02203  next Energy=   -22.780715 (dE=-0.346E-01)
 bond charge predicted
       N       E                     dE             d eps       ncg     rms          rms(c)
DAV:   1    -0.227715921911E+02   -0.13940E-01   -0.26753E+01   368   0.146E+01    0.242E-01
DAV:   2    -0.227843319637E+02   -0.12740E-01   -0.13022E-01   396   0.143E+00    0.205E-01
DAV:   3    -0.227841776370E+02    0.15433E-03   -0.21549E-03   400   0.179E-01    0.140E-01
DAV:   4    -0.227838443764E+02    0.33326E-03   -0.70561E-04   376   0.841E-02    0.661E-02
DAV:   5    -0.227839264484E+02   -0.82072E-04   -0.20970E-04   272   0.476E-02
   7 F= -.22783926E+02 E0= -.22783926E+02  d E =-.377991E-01  mag=     3.0000
 curvature:  -8.98 expect dE=-0.161E-01 dE for cont linesearch -0.110E-01
 ZBRENT: increasing intervall
 opt :  33.9041  next Energy=   -22.812160 (dE=-0.660E-01)
 bond charge predicted
       N       E                     dE             d eps       ncg     rms          rms(c)
DAV:   1    -0.227531682180E+02    0.30676E-01   -0.10737E+02   368   0.293E+01    0.490E-01
DAV:   2    -0.228063208945E+02   -0.53153E-01   -0.53038E-01   384   0.289E+00    0.397E-01
DAV:   3    -0.228061008242E+02    0.22007E-03   -0.87962E-03   400   0.365E-01    0.265E-01
DAV:   4    -0.228051579264E+02    0.94290E-03   -0.21991E-03   376   0.150E-01    0.137E-01
DAV:   5    -0.228053888586E+02   -0.23093E-03   -0.96306E-04   384   0.958E-02    0.418E-02
DAV:   6    -0.228056662515E+02   -0.27739E-03   -0.31870E-05   256   0.171E-02    0.281E-02
DAV:   7    -0.228061414178E+02   -0.47517E-03   -0.61096E-05   256   0.210E-02    0.832E-03
DAV:   8    -0.228065125085E+02   -0.37109E-03   -0.12065E-05   256   0.106E-02    0.324E-03
DAV:   9    -0.228067824516E+02   -0.26994E-03   -0.53856E-06   256   0.549E-03    0.233E-03
DAV:  10    -0.228070199196E+02   -0.23747E-03   -0.36109E-06   252   0.333E-03    0.139E-03
DAV:  11    -0.228072631244E+02   -0.24320E-03   -0.80496E-06   260   0.378E-03    0.105E-03
DAV:  12    -0.228073100930E+02   -0.46969E-04   -0.14774E-06   264   0.176E-03
   8 F= -.22807310E+02 E0= -.22807310E+02  d E =-.611827E-01  mag=     3.0000
 curvature: -22.96 expect dE=-0.773E-01 dE for cont linesearch -0.200E-04
 trial: gam= 0.98191 g(F)=  0.337E-02 g(S)=  0.000E+00 ort = 0.578E-04 (trialstep = 0.507E+01)
 search vector abs. value=  0.718E-02
 bond charge predicted
       N       E                     dE             d eps       ncg     rms          rms(c)
DAV:   1    -0.228175381656E+02   -0.10275E-01   -0.12396E+01   372   0.985E+00    0.125E-01
DAV:   2    -0.228236027901E+02   -0.60646E-02   -0.59569E-02   380   0.959E-01    0.112E-01
DAV:   3    -0.228235525546E+02    0.50235E-04   -0.93486E-04   400   0.117E-01
   9 F= -.22823553E+02 E0= -.22823553E+02  d E =-.162425E-01  mag=     3.0000
 ZBRENT: can't locate minimum, use default step
 trial-energy change:   -0.016242  1 .order   -0.016252   -0.017364   -0.015139
 step:  20.2949(harm= 39.5962)  dis= 0.04418  next Energy=   -22.875067 (dE=-0.678E-01)
 bond charge predicted
       N       E                     dE             d eps       ncg     rms          rms(c)
DAV:   1    -0.228284836456E+02   -0.48809E-02   -0.11264E+02   368   0.298E+01    0.188E+00
DAV:   2    -0.222800357243E+02    0.54845E+00   -0.12454E+00   372   0.463E+00    0.194E+00
DAV:   3    -0.226374343234E+02   -0.35740E+00   -0.16518E-01   376   0.215E+00    0.720E-01
DAV:   4    -0.227833135489E+02   -0.14588E+00   -0.40563E-02   372   0.749E-01    0.137E+00
DAV:   5    -0.227745875922E+02    0.87260E-02   -0.19695E-03   408   0.216E-01    0.134E+00
DAV:   6    -0.227636713646E+02    0.10916E-01   -0.91830E-04   388   0.150E-01    0.126E+00
DAV:   7    -0.227112676780E+02    0.52404E-01   -0.16088E-02   388   0.783E-01    0.951E-01
DAV:   8    -0.227057320312E+02    0.55356E-02   -0.28965E-03   416   0.206E-01    0.888E-01
DAV:   9    -0.227066678690E+02   -0.93584E-03   -0.31445E-05   260   0.278E-02    0.874E-01
DAV:  10    -0.227099410404E+02   -0.32732E-02   -0.99422E-04   384   0.180E-01    0.784E-01
DAV:  11    -0.227672878262E+02   -0.57347E-01   -0.75554E-02   384   0.163E+00    0.145E-01
DAV:  12    -0.227893168966E+02   -0.22029E-01   -0.74068E-03   400   0.392E-01    0.101E-01
DAV:  13    -0.228273703169E+02   -0.38053E-01   -0.32739E-03   392   0.184E-01    0.109E-01
DAV:  14    -0.228756008814E+02   -0.48231E-01   -0.17217E-02   392   0.196E-01    0.117E-01
DAV:  15    -0.228780325220E+02   -0.24316E-02   -0.35774E-04   272   0.421E-02    0.124E-01
DAV:  16    -0.228842269231E+02   -0.61944E-02   -0.18621E-03   384   0.956E-02    0.140E-01
DAV:  17    -0.228896557356E+02   -0.54288E-02   -0.17688E-03   384   0.207E-01    0.109E-01
DAV:  18    -0.228933158911E+02   -0.36602E-02   -0.99381E-04   328   0.697E-02    0.725E-02
DAV:  19    -0.228978308947E+02   -0.45150E-02   -0.87349E-04   384   0.143E-01    0.638E-02
DAV:  20    -0.229000880589E+02   -0.22572E-02   -0.36103E-04   264   0.420E-02    0.785E-02
DAV:  21    -0.229017057668E+02   -0.16177E-02   -0.20048E-04   272   0.776E-02    0.457E-02
DAV:  22    -0.229027400567E+02   -0.10343E-02   -0.84045E-05   264   0.208E-02    0.382E-02
DAV:  23    -0.229031141257E+02   -0.37407E-03   -0.85086E-05   256   0.290E-02    0.188E-02
DAV:  24    -0.229032700999E+02   -0.15597E-03   -0.48671E-05   248   0.137E-02    0.745E-03
DAV:  25    -0.229033483241E+02   -0.78224E-04   -0.19724E-05   240   0.699E-03
  10 F= -.22903348E+02 E0= -.22903348E+02  d E =-.960382E-01  mag=     0.9942
 curvature: -28.54 expect dE=-0.273E+00 dE for cont linesearch -0.482E-01
 ZBRENT: increasing intervall
 opt :  50.7373  next Energy=   -23.024560 (dE=-0.217E+00)
 bond charge predicted
       N       E                     dE             d eps       ncg     rms          rms(c)
DAV:   1    -0.227251673868E+02    0.17810E+00   -0.46381E+02   368   0.616E+01    0.126E+00
DAV:   2    -0.229635227423E+02   -0.23836E+00   -0.23894E+00   380   0.631E+00    0.787E-01
DAV:   3    -0.229625342726E+02    0.98847E-03   -0.42871E-02   400   0.871E-01    0.476E-01
DAV:   4    -0.229587337876E+02    0.38005E-02   -0.61283E-03   384   0.268E-01    0.297E-01
DAV:   5    -0.229579511338E+02    0.78265E-03   -0.65121E-03   392   0.231E-01    0.764E-02
DAV:   6    -0.229586234138E+02   -0.67228E-03   -0.17625E-04   264   0.408E-02    0.505E-02
DAV:   7    -0.229595483406E+02   -0.92493E-03   -0.16899E-04   256   0.320E-02    0.230E-02
DAV:   8    -0.229604084027E+02   -0.86006E-03   -0.12813E-04   264   0.229E-02    0.102E-02
DAV:   9    -0.229610383428E+02   -0.62994E-03   -0.63706E-05   264   0.138E-02    0.698E-03
DAV:  10    -0.229616203037E+02   -0.58196E-03   -0.72168E-05   264   0.135E-02    0.468E-03
DAV:  11    -0.229619913951E+02   -0.37109E-03   -0.60457E-05   264   0.122E-02    0.315E-03
DAV:  12    -0.229621495972E+02   -0.15820E-03   -0.20061E-05   264   0.725E-03    0.161E-03
DAV:  13    -0.229622148286E+02   -0.65231E-04   -0.57102E-06   256   0.385E-03
  11 F= -.22962215E+02 E0= -.22962215E+02  d E =-.154905E+00  mag=     1.0001
 curvature: -71.73 expect dE=-0.770E+00 dE for cont linesearch -0.196E-02
 trial: gam= 2.73525 g(F)=  0.107E-01 g(S)=  0.000E+00 ort = 0.443E-03 (trialstep = 0.153E+01)
 search vector abs. value=  0.669E-01
 bond charge predicted
       N       E                     dE             d eps       ncg     rms          rms(c)
DAV:   1    -0.229742506333E+02   -0.12101E-01   -0.10420E+01   384   0.911E+00    0.116E-01
DAV:   2    -0.229793331093E+02   -0.50825E-02   -0.50188E-02   384   0.900E-01    0.109E-01
DAV:   3    -0.229793110190E+02    0.22090E-04   -0.85708E-04   392   0.125E-01
  12 F= -.22979311E+02 E0= -.22979311E+02  d E =-.170962E-01  mag=     1.0001
 ZBRENT: can't locate minimum, use default step
 trial-energy change:   -0.017096  1 .order   -0.016864   -0.018221   -0.015507
 step:   6.1005(harm= 10.2387)  dis= 0.04060  next Energy=   -23.023378 (dE=-0.612E-01)
 bond charge predicted
       N       E                     dE             d eps       ncg     rms          rms(c)
DAV:   1    -0.229691966234E+02    0.10136E-01   -0.94365E+01   368   0.275E+01    0.400E-01
DAV:   2    -0.230146645753E+02   -0.45468E-01   -0.45235E-01   384   0.271E+00    0.347E-01
DAV:   3    -0.230141698770E+02    0.49470E-03   -0.76179E-03   400   0.364E-01    0.240E-01
DAV:   4    -0.230130061173E+02    0.11638E-02   -0.19069E-03   392   0.137E-01    0.137E-01
DAV:   5    -0.230128807804E+02    0.12534E-03   -0.16854E-03   384   0.124E-01    0.419E-02
DAV:   6    -0.230130392919E+02   -0.15851E-03   -0.54589E-05   240   0.232E-02    0.249E-02
DAV:   7    -0.230132201291E+02   -0.18084E-03   -0.36360E-05   240   0.173E-02    0.879E-03
DAV:   8    -0.230133583284E+02   -0.13820E-03   -0.10571E-05   240   0.893E-03    0.314E-03
DAV:   9    -0.230134721094E+02   -0.11378E-03   -0.47860E-06   240   0.471E-03    0.194E-03
DAV:  10    -0.230135665660E+02   -0.94457E-04   -0.38048E-06   240   0.297E-03
  13 F= -.23013567E+02 E0= -.23013567E+02  d E =-.513517E-01  mag=     1.0000
 curvature: -22.19 expect dE=-0.171E+00 dE for cont linesearch -0.689E-02
 ZBRENT: increasing intervall
 opt :  15.2512  next Energy=   -23.003914 (dE=-0.417E-01)
 bond charge predicted
       N       E                     dE             d eps       ncg     rms          rms(c)
DAV:   1    -0.228149362752E+02    0.19854E+00   -0.38448E+02   368   0.563E+01    0.105E+00
DAV:   2    -0.230074732801E+02   -0.19254E+00   -0.19192E+00   380   0.562E+00    0.683E-01
DAV:   3    -0.230061009183E+02    0.13724E-02   -0.33020E-02   392   0.767E-01    0.428E-01
DAV:   4    -0.230029409198E+02    0.31600E-02   -0.55867E-03   392   0.243E-01    0.253E-01
DAV:   5    -0.230025547161E+02    0.38620E-03   -0.45251E-03   384   0.203E-01    0.651E-02
DAV:   6    -0.230027866765E+02   -0.23196E-03   -0.12559E-04   256   0.378E-02    0.418E-02
DAV:   7    -0.230030291360E+02   -0.24246E-03   -0.48983E-05   248   0.217E-02    0.163E-02
DAV:   8    -0.230031839590E+02   -0.15482E-03   -0.12484E-05   256   0.107E-02    0.534E-03
DAV:   9    -0.230032985796E+02   -0.11462E-03   -0.45883E-06   248   0.531E-03    0.275E-03
DAV:  10    -0.230033988414E+02   -0.10026E-03   -0.40522E-06   248   0.327E-03    0.170E-03
DAV:  11    -0.230034794391E+02   -0.80598E-04   -0.43632E-06   256   0.266E-03
  14 F= -.23003479E+02 E0= -.23003479E+02  d E =-.412646E-01  mag=     1.0000
 curvature:  31.08 expect dE= 0.323E+00 dE for cont linesearch  0.202E-01
 ZBRENT: bracketing found
 ZBRENT: interpolating
 opt :   9.8429  next Energy=   -23.022093 (dE=-0.599E-01)
 bond charge predicted
       N       E                     dE             d eps       ncg     rms          rms(c)
DAV:   1    -0.229578822149E+02    0.45517E-01   -0.13214E+02   368   0.326E+01    0.429E-01
DAV:   2    -0.230234780413E+02   -0.65596E-01   -0.64325E-01   384   0.323E+00    0.420E-01
DAV:   3    -0.230233025612E+02    0.17548E-03   -0.10747E-02   400   0.426E-01    0.296E-01
DAV:   4    -0.230219391428E+02    0.13634E-02   -0.17119E-03   384   0.132E-01    0.198E-01
DAV:   5    -0.230215492400E+02    0.38990E-03   -0.30259E-03   392   0.165E-01    0.615E-02
DAV:   6    -0.230216409655E+02   -0.91726E-04   -0.45041E-05   256   0.241E-02
  15 F= -.23021641E+02 E0= -.23021641E+02  d E =-.594261E-01  mag=     1.0000
 curvature: -13.15 expect dE=-0.100E+00 dE for cont linesearch -0.360E-04
 trial: gam= 0.08848 g(F)=  0.763E-02 g(S)=  0.000E+00 ort =-0.428E-03 (trialstep = 0.319E+01)
 search vector abs. value=  0.808E-02
 bond charge predicted
       N       E                     dE             d eps       ncg     rms          rms(c)
DAV:   1    -0.230415201982E+02   -0.19971E-01   -0.55273E+00   384   0.664E+00    0.127E-01
DAV:   2    -0.230441505357E+02   -0.26303E-02   -0.26631E-02   392   0.647E-01    0.105E-01
DAV:   3    -0.230441324713E+02    0.18064E-04   -0.46331E-04   400   0.878E-02
  16 F= -.23044132E+02 E0= -.23044132E+02  d E =-.224915E-01  mag=     1.0000
 ZBRENT: can't locate minimum, use default step
 trial-energy change:   -0.022492  1 .order   -0.022215   -0.024203   -0.020228
 step:  12.7547(harm= 19.4170)  dis= 0.04223  next Energy=   -23.095330 (dE=-0.737E-01)
 bond charge predicted
       N       E                     dE             d eps       ncg     rms          rms(c)
DAV:   1    -0.230657513680E+02   -0.21601E-01   -0.49902E+01   376   0.200E+01    0.360E-01
DAV:   2    -0.230890759648E+02   -0.23325E-01   -0.23907E-01   392   0.194E+00    0.316E-01
DAV:   3    -0.230888687121E+02    0.20725E-03   -0.40306E-03   392   0.252E-01    0.218E-01
DAV:   4    -0.230883181931E+02    0.55052E-03   -0.14190E-03   392   0.130E-01    0.977E-02
DAV:   5    -0.230884404472E+02   -0.12225E-03   -0.33113E-04   320   0.672E-02    0.293E-02
DAV:   6    -0.230885729061E+02   -0.13246E-03   -0.34743E-05   256   0.193E-02    0.186E-02
DAV:   7    -0.230887132814E+02   -0.14038E-03   -0.30544E-05   240   0.156E-02    0.591E-03
DAV:   8    -0.230888214355E+02   -0.10815E-03   -0.69516E-06   264   0.806E-03    0.209E-03
DAV:   9    -0.230888931534E+02   -0.71718E-04   -0.23252E-06   240   0.372E-03
  17 F= -.23088893E+02 E0= -.23088893E+02  d E =-.672522E-01  mag=     1.0000
 curvature:  -8.59 expect dE=-0.235E-01 dE for cont linesearch -0.973E-02
 ZBRENT: increasing intervall
 opt :  31.8867  next Energy=   -23.083276 (dE=-0.616E-01)
 bond charge predicted
       N       E                     dE             d eps       ncg     rms          rms(c)
DAV:   1    -0.229962021311E+02    0.92619E-01   -0.20136E+02   368   0.404E+01    0.667E-01
DAV:   2    -0.230913786884E+02   -0.95177E-01   -0.97149E-01   384   0.394E+00    0.587E-01
DAV:   3    -0.230909770573E+02    0.40163E-03   -0.16205E-02   400   0.498E-01    0.410E-01
DAV:   4    -0.230889951406E+02    0.19819E-02   -0.40576E-03   384   0.224E-01    0.225E-01
DAV:   5    -0.230891374987E+02   -0.14236E-03   -0.21200E-03   384   0.147E-01    0.658E-02
DAV:   6    -0.230893805509E+02   -0.24305E-03   -0.99141E-05   264   0.314E-02    0.416E-02
DAV:   7    -0.230896661188E+02   -0.28557E-03   -0.10561E-04   248   0.309E-02    0.143E-02
DAV:   8    -0.230898611939E+02   -0.19508E-03   -0.18866E-05   252   0.146E-02    0.515E-03
DAV:   9    -0.230899927148E+02   -0.13152E-03   -0.66256E-06   256   0.720E-03    0.240E-03
DAV:  10    -0.230900779069E+02   -0.85192E-04   -0.24924E-06   252   0.351E-03
  18 F= -.23090078E+02 E0= -.23090078E+02  d E =-.684369E-01  mag=     1.0000
 curvature:   4.96 expect dE= 0.448E-01 dE for cont linesearch  0.460E-02
 ZBRENT: bracketing found
 ZBRENT: interpolating
 opt :  22.7961  next Energy=   -23.102526 (dE=-0.809E-01)
 bond charge predicted
       N       E                     dE             d eps       ncg     rms          rms(c)
DAV:   1    -0.230820939706E+02    0.78987E-02   -0.45005E+01   368   0.189E+01    0.340E-01
DAV:   2    -0.231035657908E+02   -0.21472E-01   -0.22094E-01   396   0.186E+00    0.248E-01
DAV:   3    -0.231033852013E+02    0.18059E-03   -0.38334E-03   392   0.251E-01    0.163E-01
DAV:   4    -0.231029637085E+02    0.42149E-03   -0.10269E-03   396   0.110E-01    0.739E-02
DAV:   5    -0.231030374294E+02   -0.73721E-04   -0.27339E-04   288   0.569E-02
  19 F= -.23103037E+02 E0= -.23103037E+02  d E =-.813965E-01  mag=     1.0000
 curvature: -13.40 expect dE=-0.588E-01 dE for cont linesearch -0.898E-04
 trial: gam= 0.60624 g(F)=  0.439E-02 g(S)=  0.000E+00 ort =-0.233E-03 (trialstep = 0.711E+01)
 search vector abs. value=  0.707E-02
 bond charge predicted
       N       E                     dE             d eps       ncg     rms          rms(c)
DAV:   1    -0.231192631058E+02   -0.16299E-01   -0.24024E+01   368   0.139E+01    0.202E-01
DAV:   2    -0.231308437706E+02   -0.11581E-01   -0.11571E-01   384   0.136E+00    0.177E-01
DAV:   3    -0.231308018156E+02    0.41955E-04   -0.19580E-03   408   0.180E-01    0.124E-01
DAV:   4    -0.231305812824E+02    0.22053E-03   -0.49163E-04   376   0.721E-02    0.678E-02
DAV:   5    -0.231305638763E+02    0.17406E-04   -0.35294E-04   344   0.583E-02
  20 F= -.23130564E+02 E0= -.23130564E+02  d E =-.275264E-01  mag=     1.0000
 ZBRENT: can't locate minimum, use default step
 trial-energy change:   -0.027526  1 .order   -0.027387   -0.030187   -0.024587
 step:  28.4407(harm= 38.3279)  dis= 0.07016  next Energy=   -23.184399 (dE=-0.814E-01)
 bond charge predicted
       N       E                     dE             d eps       ncg     rms          rms(c)
DAV:   1    -0.230672909317E+02    0.63290E-01   -0.21809E+02   368   0.422E+01    0.725E-01
DAV:   2    -0.231726391667E+02   -0.10535E+00   -0.10669E+00   384   0.415E+00    0.529E-01
DAV:   3    -0.231718731424E+02    0.76602E-03   -0.18043E-02   400   0.548E-01    0.346E-01
DAV:   4    -0.231697979439E+02    0.20752E-02   -0.40837E-03   384   0.212E-01    0.183E-01
DAV:   5    -0.231697389456E+02    0.58998E-04   -0.21477E-03   392   0.145E-01    0.542E-02
DAV:   6    -0.231698567246E+02   -0.11778E-03   -0.12032E-04   256   0.343E-02    0.330E-02
DAV:   7    -0.231700090304E+02   -0.15231E-03   -0.57698E-05   248   0.235E-02    0.114E-02
DAV:   8    -0.231701350150E+02   -0.12598E-03   -0.11704E-05   256   0.109E-02    0.381E-03
DAV:   9    -0.231702331357E+02   -0.98121E-04   -0.40715E-06   248   0.559E-03
  21 F= -.23170233E+02 E0= -.23170233E+02  d E =-.671957E-01  mag=     1.0000
 curvature: -28.72 expect dE=-0.428E-01 dE for cont linesearch -0.442E-03
 trial: gam= 0.17407 g(F)=  0.149E-02 g(S)=  0.000E+00 ort = 0.330E-03 (trialstep = 0.114E+02)
 search vector abs. value=  0.182E-02
 bond charge predicted
       N       E                     dE             d eps       ncg     rms          rms(c)
DAV:   1    -0.231773292811E+02   -0.71943E-02   -0.15804E+01   368   0.113E+01    0.172E-01
DAV:   2    -0.231848090363E+02   -0.74798E-02   -0.76595E-02   384   0.111E+00    0.159E-01
DAV:   3    -0.231847984551E+02    0.10581E-04   -0.13443E-03   400   0.151E-01    0.107E-01
DAV:   4    -0.231846589649E+02    0.13949E-03   -0.30516E-04   284   0.604E-02    0.626E-02
DAV:   5    -0.231846891997E+02   -0.30235E-04   -0.28995E-04   296   0.562E-02
  22 F= -.23184689E+02 E0= -.23184689E+02  d E =-.144561E-01  mag=     1.0000
 trial-energy change:   -0.014456  1 .order   -0.014619   -0.017587   -0.011650
 step:  33.7019(harm= 33.7019)  dis= 0.03989  next Energy=   -23.196284 (dE=-0.261E-01)
 bond charge predicted
       N       E                     dE             d eps       ncg     rms          rms(c)
DAV:   1    -0.231649655222E+02    0.19693E-01   -0.60974E+01   368   0.222E+01    0.366E-01
DAV:   2    -0.231938265343E+02   -0.28861E-01   -0.29809E-01   384   0.219E+00    0.310E-01
DAV:   3    -0.231936663568E+02    0.16018E-03   -0.52629E-03   400   0.300E-01    0.201E-01
DAV:   4    -0.231931089388E+02    0.55742E-03   -0.12311E-03   384   0.119E-01    0.109E-01
DAV:   5    -0.231931638103E+02   -0.54871E-04   -0.70965E-04   376   0.833E-02
  23 F= -.23193164E+02 E0= -.23193164E+02  d E =-.229307E-01  mag=     1.0000
 curvature: -19.81 expect dE=-0.258E-01 dE for cont linesearch -0.219E-03
 trial: gam= 0.99573 g(F)=  0.130E-02 g(S)=  0.000E+00 ort =-0.142E-03 (trialstep = 0.102E+02)
 search vector abs. value=  0.282E-02
 bond charge predicted
       N       E                     dE             d eps       ncg     rms          rms(c)
DAV:   1    -0.231935695887E+02   -0.46065E-03   -0.19685E+01   368   0.125E+01    0.167E-01
DAV:   2    -0.232029606396E+02   -0.93911E-02   -0.93178E-02   380   0.122E+00    0.159E-01
DAV:   3    -0.232029402138E+02    0.20426E-04   -0.15302E-03   416   0.159E-01    0.112E-01
DAV:   4    -0.232027703792E+02    0.16983E-03   -0.31772E-04   344   0.579E-02    0.694E-02
DAV:   5    -0.232028186410E+02   -0.48262E-04   -0.43910E-04   400   0.651E-02
  24 F= -.23202819E+02 E0= -.23202819E+02  d E =-.965483E-02  mag=     1.0000
 trial-energy change:   -0.009655  1 .order   -0.010003   -0.011838   -0.008168
 step:  32.9225(harm= 32.9225)  dis= 0.04828  next Energy=   -23.212256 (dE=-0.191E-01)
 bond charge predicted
       N       E                     dE             d eps       ncg     rms          rms(c)
DAV:   1    -0.231650460193E+02    0.37724E-01   -0.98065E+01   368   0.281E+01    0.393E-01
DAV:   2    -0.232123569540E+02   -0.47311E-01   -0.46683E-01   376   0.274E+00    0.361E-01
DAV:   3    -0.232121234727E+02    0.23348E-03   -0.77048E-03   400   0.358E-01    0.252E-01
DAV:   4    -0.232110155669E+02    0.11079E-02   -0.16708E-03   384   0.129E-01    0.153E-01
DAV:   5    -0.232108965166E+02    0.11905E-03   -0.18184E-03   392   0.130E-01    0.484E-02
DAV:   6    -0.232109669879E+02   -0.70471E-04   -0.28311E-05   240   0.182E-02
  25 F= -.23210967E+02 E0= -.23210967E+02  d E =-.178032E-01  mag=     1.0000
 curvature: -40.04 expect dE=-0.430E-01 dE for cont linesearch -0.169E-04
 trial: gam= 0.59162 g(F)=  0.107E-02 g(S)=  0.000E+00 ort = 0.345E-04 (trialstep = 0.148E+02)
 search vector abs. value=  0.210E-02
 bond charge predicted
       N       E                     dE             d eps       ncg     rms          rms(c)
DAV:   1    -0.232094898759E+02    0.14066E-02   -0.30715E+01   368   0.157E+01    0.225E-01
DAV:   2    -0.232242979825E+02   -0.14808E-01   -0.14642E-01   384   0.153E+00    0.215E-01
DAV:   3    -0.232242419339E+02    0.56049E-04   -0.24246E-03   400   0.200E-01    0.155E-01
DAV:   4    -0.232238942670E+02    0.34767E-03   -0.63678E-04   384   0.800E-02    0.885E-02
DAV:   5    -0.232239296710E+02   -0.35404E-04   -0.54758E-04   400   0.730E-02
  26 F= -.23223930E+02 E0= -.23223930E+02  d E =-.129627E-01  mag=     1.0000
 trial-energy change:   -0.012963  1 .order   -0.013440   -0.016146   -0.010734
 step:  44.0075(harm= 44.0075)  dis= 0.05652  next Energy=   -23.235052 (dE=-0.241E-01)
 bond charge predicted
       N       E                     dE             d eps       ncg     rms          rms(c)
DAV:   1    -0.231761236990E+02    0.47771E-01   -0.12150E+02   368   0.314E+01    0.438E-01
DAV:   2    -0.232343900252E+02   -0.58266E-01   -0.57954E-01   384   0.306E+00    0.423E-01
DAV:   3    -0.232341363806E+02    0.25364E-03   -0.95027E-03   400   0.393E-01    0.307E-01
DAV:   4    -0.232327425403E+02    0.13938E-02   -0.21130E-03   384   0.147E-01    0.186E-01
DAV:   5    -0.232326778575E+02    0.64683E-04   -0.22772E-03   400   0.148E-01    0.591E-02
DAV:   6    -0.232328326144E+02   -0.15476E-03   -0.52421E-05   248   0.234E-02    0.371E-02
DAV:   7    -0.232329977362E+02   -0.16512E-03   -0.64692E-05   248   0.228E-02    0.133E-02
DAV:   8    -0.232331097095E+02   -0.11197E-03   -0.15894E-05   272   0.132E-02    0.474E-03
DAV:   9    -0.232332137423E+02   -0.10403E-03   -0.70348E-06   236   0.716E-03    0.228E-03
DAV:  10    -0.232332625985E+02   -0.48856E-04   -0.17552E-06   256   0.314E-03
  27 F= -.23233263E+02 E0= -.23233263E+02  d E =-.222956E-01  mag=     1.0000
 curvature: -42.26 expect dE=-0.801E-01 dE for cont linesearch -0.452E-04
 trial: gam= 1.87485 g(F)=  0.190E-02 g(S)=  0.000E+00 ort =-0.474E-04 (trialstep = 0.476E+01)
 search vector abs. value=  0.911E-02
 bond charge predicted
       N       E                     dE             d eps       ncg     rms          rms(c)
DAV:   1    -0.232352707626E+02   -0.20570E-02   -0.13800E+01   368   0.105E+01    0.120E-01
DAV:   2    -0.232419516030E+02   -0.66808E-02   -0.65326E-02   384   0.102E+00    0.119E-01
DAV:   3    -0.232419212285E+02    0.30374E-04   -0.10570E-03   392   0.132E-01    0.881E-02
DAV:   4    -0.232417675981E+02    0.15363E-03   -0.14125E-04   236   0.396E-02    0.604E-02
DAV:   5    -0.232417114739E+02    0.56124E-04   -0.49354E-04   384   0.686E-02
  28 F= -.23241711E+02 E0= -.23241711E+02  d E =-.844888E-02  mag=     1.0000
 ZBRENT: can't locate minimum, use default step
 trial-energy change:   -0.008449  1 .order   -0.008700   -0.008594   -0.008805
 step:  19.0209(harm= 19.0209)  dis= 0.05431  next Energy=   -23.269321 (dE=-0.361E-01)
 bond charge predicted
       N       E                     dE             d eps       ncg     rms          rms(c)
DAV:   1    -0.232039247004E+02    0.37843E-01   -0.12501E+02   368   0.319E+01    0.396E-01
DAV:   2    -0.232642798762E+02   -0.60355E-01   -0.59550E-01   384   0.310E+00    0.365E-01
DAV:   3    -0.232639244769E+02    0.35540E-03   -0.96124E-03   388   0.401E-01    0.261E-01
DAV:   4    -0.232626167397E+02    0.13077E-02   -0.14166E-03   388   0.119E-01    0.174E-01
DAV:   5    -0.232622014699E+02    0.41527E-03   -0.29010E-03   380   0.162E-01    0.509E-02
DAV:   6    -0.232623323387E+02   -0.13087E-03   -0.35528E-05   240   0.215E-02    0.343E-02
DAV:   7    -0.232624866848E+02   -0.15435E-03   -0.33379E-05   248   0.158E-02    0.136E-02
DAV:   8    -0.232625915955E+02   -0.10491E-03   -0.13762E-05   256   0.112E-02    0.422E-03
DAV:   9    -0.232626878216E+02   -0.96226E-04   -0.51308E-06   240   0.540E-03
  29 F= -.23262688E+02 E0= -.23262688E+02  d E =-.294252E-01  mag=     1.0000
 curvature: -72.69 expect dE=-0.121E+00 dE for cont linesearch -0.105E-01
 ZBRENT: increasing intervall
 opt :  47.5523  next Energy=   -23.275296 (dE=-0.420E-01)
 bond charge predicted
       N       E                     dE             d eps       ncg     rms          rms(c)
DAV:   1    -0.230282741833E+02    0.23432E+00   -0.51180E+02   368   0.655E+01    0.105E+00
DAV:   2    -0.232788833226E+02   -0.25061E+00   -0.25042E+00   384   0.646E+00    0.798E-01
DAV:   3    -0.232768864697E+02    0.19969E-02   -0.40827E-02   392   0.850E-01    0.533E-01
DAV:   4    -0.232722603330E+02    0.46261E-02   -0.55600E-03   380   0.238E-01    0.357E-01
DAV:   5    -0.232707837172E+02    0.14766E-02   -0.81569E-03   380   0.275E-01    0.982E-02
DAV:   6    -0.232711032642E+02   -0.31955E-03   -0.11910E-04   256   0.413E-02    0.612E-02
DAV:   7    -0.232714588945E+02   -0.35563E-03   -0.49829E-05   256   0.216E-02    0.256E-02
DAV:   8    -0.232716765845E+02   -0.21769E-03   -0.20909E-05   256   0.139E-02    0.891E-03
DAV:   9    -0.232718838478E+02   -0.20726E-03   -0.13439E-05   248   0.835E-03    0.359E-03
DAV:  10    -0.232719986747E+02   -0.11483E-03   -0.45233E-06   264   0.403E-03    0.216E-03
DAV:  11    -0.232720882788E+02   -0.89604E-04   -0.35266E-06   236   0.296E-03
  30 F= -.23272088E+02 E0= -.23272088E+02  d E =-.388257E-01  mag=     1.0000
 curvature: -87.33 expect dE=-0.308E+00 dE for cont linesearch -0.246E-02
 ZBRENT: bracketing found
 ZBRENT: interpolating
 opt :  38.8138  next Energy=   -23.274300 (dE=-0.410E-01)
 bond charge predicted
       N       E                     dE             d eps       ncg     rms          rms(c)
DAV:   1    -0.232526344905E+02    0.19364E-01   -0.46700E+01   368   0.194E+01    0.232E-01
DAV:   2    -0.232750258512E+02   -0.22391E-01   -0.22188E-01   384   0.188E+00    0.218E-01
DAV:   3    -0.232748854317E+02    0.14042E-03   -0.35826E-03   408   0.244E-01    0.158E-01
DAV:   4    -0.232743813096E+02    0.50412E-03   -0.55859E-04   384   0.738E-02    0.103E-01
DAV:   5    -0.232742111363E+02    0.17017E-03   -0.12013E-03   400   0.104E-01    0.302E-02
DAV:   6    -0.232742475454E+02   -0.36409E-04   -0.15365E-05   232   0.139E-02
  31 F= -.23274248E+02 E0= -.23274248E+02  d E =-.409849E-01  mag=     1.0000
 curvature: -78.61 expect dE=-0.204E+00 dE for cont linesearch -0.500E-04
 trial: gam= 0.88339 g(F)=  0.260E-02 g(S)=  0.000E+00 ort =-0.761E-04 (trialstep = 0.110E+02)
 search vector abs. value=  0.957E-02
 bond charge predicted
       N       E                     dE             d eps       ncg     rms          rms(c)
DAV:   1    -0.232607206952E+02    0.13490E-01   -0.78064E+01   368   0.251E+01    0.376E-01
DAV:   2    -0.232988362628E+02   -0.38116E-01   -0.37639E-01   392   0.246E+00    0.292E-01
DAV:   3    -0.232984649263E+02    0.37134E-03   -0.61959E-03   392   0.328E-01    0.203E-01
DAV:   4    -0.232975994211E+02    0.86551E-03   -0.15279E-03   396   0.119E-01    0.104E-01
DAV:   5    -0.232975311865E+02    0.68235E-04   -0.10943E-03   392   0.101E-01    0.323E-02
DAV:   6    -0.232975832323E+02   -0.52046E-04   -0.34977E-05   256   0.191E-02
  32 F= -.23297583E+02 E0= -.23297583E+02  d E =-.233357E-01  mag=     1.0000
 trial-energy change:   -0.023336  1 .order   -0.023145   -0.027839   -0.018450
 step:  32.6456(harm= 32.6456)  dis= 0.09468  next Energy=   -23.315521 (dE=-0.413E-01)
 bond charge predicted
       N       E                     dE             d eps       ncg     rms          rms(c)
DAV:   1    -0.231629864665E+02    0.13454E+00   -0.30500E+02   368   0.502E+01    0.924E-01
DAV:   2    -0.233168415735E+02   -0.15386E+00   -0.15136E+00   392   0.496E+00    0.582E-01
DAV:   3    -0.233153240202E+02    0.15176E-02   -0.25348E-02   400   0.675E-01    0.379E-01
DAV:   4    -0.233123779372E+02    0.29461E-02   -0.58924E-03   388   0.237E-01    0.184E-01
DAV:   5    -0.233122893319E+02    0.88605E-04   -0.27125E-03   384   0.162E-01    0.522E-02
DAV:   6    -0.233124894183E+02   -0.20009E-03   -0.11447E-04   264   0.346E-02    0.332E-02
DAV:   7    -0.233127602665E+02   -0.27085E-03   -0.60472E-05   256   0.233E-02    0.112E-02
DAV:   8    -0.233129800401E+02   -0.21977E-03   -0.12352E-05   248   0.101E-02    0.368E-03
DAV:   9    -0.233131122227E+02   -0.13218E-03   -0.38657E-06   248   0.495E-03    0.231E-03
DAV:  10    -0.233132175877E+02   -0.10537E-03   -0.24627E-06   248   0.268E-03    0.144E-03
DAV:  11    -0.233133455220E+02   -0.12793E-03   -0.63587E-06   252   0.301E-03    0.114E-03
DAV:  12    -0.233133780063E+02   -0.32484E-04   -0.16509E-06   256   0.172E-03
  33 F= -.23313378E+02 E0= -.23313378E+02  d E =-.391305E-01  mag=     1.0000
 curvature: -61.77 expect dE=-0.149E+00 dE for cont linesearch -0.262E-03
 trial: gam= 1.01117 g(F)=  0.240E-02 g(S)=  0.000E+00 ort =-0.201E-03 (trialstep = 0.125E+02)
 search vector abs. value=  0.118E-01
 bond charge predicted
       N       E                     dE             d eps       ncg     rms          rms(c)
DAV:   1    -0.232745870972E+02    0.38758E-01   -0.12360E+02   368   0.315E+01    0.443E-01
DAV:   2    -0.233349683473E+02   -0.60381E-01   -0.60748E-01   392   0.315E+00    0.418E-01
DAV:   3    -0.233345230724E+02    0.44527E-03   -0.10462E-02   400   0.426E-01    0.283E-01
DAV:   4    -0.233329212441E+02    0.16018E-02   -0.19385E-03   388   0.141E-01    0.181E-01
DAV:   5    -0.233324713707E+02    0.44987E-03   -0.25532E-03   392   0.153E-01    0.561E-02
DAV:   6    -0.233327069441E+02   -0.23557E-03   -0.48895E-05   264   0.236E-02    0.368E-02
DAV:   7    -0.233330304525E+02   -0.32351E-03   -0.49706E-05   244   0.199E-02    0.137E-02
DAV:   8    -0.233332908882E+02   -0.26044E-03   -0.15229E-05   264   0.113E-02    0.373E-03
DAV:   9    -0.233334537927E+02   -0.16290E-03   -0.40348E-06   240   0.513E-03    0.194E-03
DAV:  10    -0.233335698164E+02   -0.11602E-03   -0.22327E-06   256   0.273E-03    0.131E-03
DAV:  11    -0.233336779168E+02   -0.10810E-03   -0.31624E-06   252   0.219E-03    0.930E-04
DAV:  12    -0.233337238753E+02   -0.45959E-04   -0.20038E-06   256   0.155E-03
  34 F= -.23333724E+02 E0= -.23333724E+02  d E =-.203459E-01  mag=     1.0000
 trial-energy change:   -0.020346  1 .order   -0.020444   -0.027416   -0.013471
 step:  24.4920(harm= 24.4920)  dis= 0.07011  next Energy=   -23.340329 (dE=-0.270E-01)
 bond charge predicted
       N       E                     dE             d eps       ncg     rms          rms(c)
DAV:   1    -0.232843119315E+02    0.49366E-01   -0.11528E+02   368   0.305E+01    0.432E-01
DAV:   2    -0.233404877416E+02   -0.56176E-01   -0.56636E-01   392   0.304E+00    0.403E-01
DAV:   3    -0.233400168488E+02    0.47089E-03   -0.97020E-03   400   0.410E-01    0.272E-01
DAV:   4    -0.233385285019E+02    0.14883E-02   -0.18318E-03   396   0.137E-01    0.172E-01
DAV:   5    -0.233381327168E+02    0.39579E-03   -0.22952E-03   384   0.145E-01    0.535E-02
DAV:   6    -0.233383705678E+02   -0.23785E-03   -0.45601E-05   264   0.223E-02    0.350E-02
DAV:   7    -0.233386900883E+02   -0.31952E-03   -0.47371E-05   244   0.193E-02    0.128E-02
DAV:   8    -0.233389457264E+02   -0.25564E-03   -0.14520E-05   264   0.109E-02    0.342E-03
DAV:   9    -0.233391039630E+02   -0.15824E-03   -0.39010E-06   248   0.501E-03    0.193E-03
DAV:  10    -0.233392153300E+02   -0.11137E-03   -0.21283E-06   256   0.263E-03    0.131E-03
DAV:  11    -0.233393225635E+02   -0.10723E-03   -0.32300E-06   252   0.219E-03    0.883E-04
DAV:  12    -0.233393650365E+02   -0.42473E-04   -0.18829E-06   256   0.147E-03
  35 F= -.23339365E+02 E0= -.23339365E+02  d E =-.259870E-01  mag=     1.0000
 curvature: -65.56 expect dE=-0.959E-01 dE for cont linesearch -0.304E-03
 trial: gam= 0.44968 g(F)=  0.146E-02 g(S)=  0.000E+00 ort =-0.234E-03 (trialstep = 0.149E+02)
 search vector abs. value=  0.364E-02
 bond charge predicted
       N       E                     dE             d eps       ncg     rms          rms(c)
DAV:   1    -0.233272705361E+02    0.12052E-01   -0.54068E+01   368   0.208E+01    0.310E-01
DAV:   2    -0.233526085370E+02   -0.25338E-01   -0.26072E-01   380   0.209E+00    0.315E-01
DAV:   3    -0.233524335964E+02    0.17494E-03   -0.47378E-03   400   0.294E-01    0.219E-01
DAV:   4    -0.233517157358E+02    0.71786E-03   -0.96859E-04   388   0.968E-02    0.135E-01
DAV:   5    -0.233516073083E+02    0.10843E-03   -0.11703E-03   392   0.102E-01    0.430E-02
DAV:   6    -0.233517842985E+02   -0.17699E-03   -0.34311E-05   256   0.181E-02    0.257E-02
DAV:   7    -0.233519791818E+02   -0.19488E-03   -0.34282E-05   248   0.174E-02    0.994E-03
DAV:   8    -0.233521560263E+02   -0.17684E-03   -0.11554E-05   252   0.102E-02    0.321E-03
DAV:   9    -0.233522575775E+02   -0.10155E-03   -0.29525E-06   248   0.468E-03    0.142E-03
DAV:  10    -0.233523126765E+02   -0.55099E-04   -0.83633E-07   248   0.222E-03
  36 F= -.23352313E+02 E0= -.23352313E+02  d E =-.129476E-01  mag=     1.0000
 trial-energy change:   -0.012948  1 .order   -0.012988   -0.020184   -0.005792
 step:  20.8468(harm= 20.8468)  dis= 0.05413  next Energy=   -23.353519 (dE=-0.142E-01)
 bond charge predicted
       N       E                     dE             d eps       ncg     rms          rms(c)
DAV:   1    -0.233495941566E+02    0.26634E-02   -0.87249E+00   376   0.834E+00    0.124E-01
DAV:   2    -0.233536691557E+02   -0.40750E-02   -0.41830E-02   380   0.831E-01    0.120E-01
DAV:   3    -0.233536232145E+02    0.45941E-04   -0.75375E-04   396   0.117E-01
  37 F= -.23353623E+02 E0= -.23353623E+02  d E =-.142582E-01  mag=     1.0000
 curvature: -27.90 expect dE=-0.164E-01 dE for cont linesearch -0.120E-07
 trial: gam= 0.22536 g(F)=  0.587E-03 g(S)=  0.000E+00 ort = 0.125E-05 (trialstep = 0.161E+02)
 search vector abs. value=  0.772E-03
 bond charge predicted
       N       E                     dE             d eps       ncg     rms          rms(c)
DAV:   1    -0.233548581227E+02   -0.11890E-02   -0.13402E+01   368   0.104E+01    0.181E-01
DAV:   2    -0.233601649955E+02   -0.53069E-02   -0.66602E-02   392   0.106E+00    0.149E-01
DAV:   3    -0.233598771952E+02    0.28780E-03   -0.13646E-03   400   0.161E-01    0.936E-02
DAV:   4    -0.233597318127E+02    0.14538E-03   -0.26473E-04   256   0.544E-02    0.477E-02
DAV:   5    -0.233599894734E+02   -0.25766E-03   -0.24033E-04   260   0.499E-02    0.143E-02
DAV:   6    -0.233602760675E+02   -0.28659E-03   -0.17902E-05   264   0.146E-02    0.907E-03
DAV:   7    -0.233606941984E+02   -0.41813E-03   -0.22150E-05   244   0.128E-02    0.434E-03
DAV:   8    -0.233608867739E+02   -0.19258E-03   -0.60462E-06   272   0.590E-03    0.227E-03
DAV:   9    -0.233610074217E+02   -0.12065E-03   -0.21173E-06   240   0.280E-03    0.142E-03
DAV:  10    -0.233611209536E+02   -0.11353E-03   -0.21992E-06   252   0.205E-03    0.870E-04
DAV:  11    -0.233611915492E+02   -0.70596E-04   -0.35231E-06   236   0.203E-03
  38 F= -.23361192E+02 E0= -.23361192E+02  d E =-.756833E-02  mag=     1.0000
 trial-energy change:   -0.007568  1 .order   -0.007453   -0.009434   -0.005472
 step:  38.2443(harm= 38.2443)  dis= 0.02652  next Energy=   -23.364856 (dE=-0.112E-01)
 bond charge predicted
       N       E                     dE             d eps       ncg     rms          rms(c)
DAV:   1    -0.233526193154E+02    0.85016E-02   -0.25566E+01   368   0.143E+01    0.253E-01
DAV:   2    -0.233637663796E+02   -0.11147E-01   -0.12760E-01   380   0.146E+00    0.191E-01
DAV:   3    -0.233633997966E+02    0.36658E-03   -0.25489E-03   400   0.221E-01    0.120E-01
DAV:   4    -0.233630744215E+02    0.32538E-03   -0.40211E-04   352   0.675E-02    0.629E-02
DAV:   5    -0.233631980362E+02   -0.12361E-03   -0.32895E-04   296   0.562E-02    0.176E-02
DAV:   6    -0.233635246120E+02   -0.32658E-03   -0.24586E-05   256   0.160E-02    0.109E-02
DAV:   7    -0.233639446902E+02   -0.42008E-03   -0.22994E-05   248   0.130E-02    0.499E-03
DAV:   8    -0.233641863857E+02   -0.24170E-03   -0.83587E-06   272   0.616E-03    0.236E-03
DAV:   9    -0.233643129370E+02   -0.12655E-03   -0.21152E-06   248   0.267E-03    0.153E-03
DAV:  10    -0.233644271474E+02   -0.11421E-03   -0.20046E-06   252   0.214E-03    0.999E-04
DAV:  11    -0.233645140671E+02   -0.86920E-04   -0.42413E-06   236   0.219E-03
  39 F= -.23364514E+02 E0= -.23364514E+02  d E =-.108909E-01  mag=     1.0000
 curvature: -25.14 expect dE=-0.174E-01 dE for cont linesearch -0.763E-04
 trial: gam= 1.28090 g(F)=  0.691E-03 g(S)=  0.000E+00 ort =-0.484E-04 (trialstep = 0.863E+01)
 search vector abs. value=  0.183E-02
 bond charge predicted
       N       E                     dE             d eps       ncg     rms          rms(c)
DAV:   1    -0.233647100824E+02   -0.28293E-03   -0.91731E+00   376   0.858E+00    0.139E-01
DAV:   2    -0.233686366335E+02   -0.39266E-02   -0.45793E-02   380   0.876E-01    0.118E-01
DAV:   3    -0.233684214028E+02    0.21523E-03   -0.91225E-04   400   0.130E-01    0.735E-02
DAV:   4    -0.233681847290E+02    0.23667E-03   -0.12765E-04   256   0.396E-02    0.416E-02
DAV:   5    -0.233681540656E+02    0.30663E-04   -0.18174E-04   264   0.432E-02
  40 F= -.23368154E+02 E0= -.23368154E+02  d E =-.364000E-02  mag=     1.0000
 trial-energy change:   -0.003640  1 .order   -0.004615   -0.005428   -0.003802
 step:  28.8082(harm= 28.8082)  dis= 0.03648  next Energy=   -23.373573 (dE=-0.906E-02)
 bond charge predicted
       N       E                     dE             d eps       ncg     rms          rms(c)
DAV:   1    -0.233470535507E+02    0.21131E-01   -0.50211E+01   368   0.201E+01    0.323E-01
DAV:   2    -0.233694891783E+02   -0.22436E-01   -0.24996E-01   388   0.203E+00    0.265E-01
DAV:   3    -0.233689563685E+02    0.53281E-03   -0.46611E-03   400   0.289E-01    0.169E-01
DAV:   4    -0.233683894841E+02    0.56688E-03   -0.70735E-04   376   0.929E-02    0.948E-02
DAV:   5    -0.233686619536E+02   -0.27247E-03   -0.72970E-04   380   0.814E-02    0.272E-02
DAV:   6    -0.233692020045E+02   -0.54005E-03   -0.24829E-05   264   0.147E-02    0.181E-02
DAV:   7    -0.233700492231E+02   -0.84722E-03   -0.51593E-05   256   0.178E-02    0.681E-03
DAV:   8    -0.233706902283E+02   -0.64101E-03   -0.21121E-05   264   0.834E-03    0.353E-03
DAV:   9    -0.233710053764E+02   -0.31515E-03   -0.53136E-06   272   0.402E-03    0.269E-03
DAV:  10    -0.233712981116E+02   -0.29274E-03   -0.71536E-06   244   0.401E-03    0.159E-03
DAV:  11    -0.233714945496E+02   -0.19644E-03   -0.10539E-05   252   0.346E-03    0.840E-04
DAV:  12    -0.233715146476E+02   -0.20098E-04   -0.13114E-06   264   0.156E-03
  41 F= -.23371515E+02 E0= -.23371515E+02  d E =-.700058E-02  mag=     1.0000
 curvature: -42.00 expect dE=-0.219E-01 dE for cont linesearch -0.524E-03
 trial: gam= 0.59379 g(F)=  0.522E-03 g(S)=  0.000E+00 ort =-0.151E-03 (trialstep = 0.127E+02)
 search vector abs. value=  0.989E-03
 bond charge predicted
       N       E                     dE             d eps       ncg     rms          rms(c)
DAV:   1    -0.233708128996E+02    0.68165E-03   -0.10637E+01   372   0.919E+00    0.126E-01
DAV:   2    -0.233757792746E+02   -0.49664E-02   -0.51345E-02   380   0.904E-01    0.114E-01
DAV:   3    -0.233756738033E+02    0.10547E-03   -0.86823E-04   408   0.118E-01    0.785E-02
DAV:   4    -0.233754607915E+02    0.21301E-03   -0.14036E-04   256   0.427E-02    0.469E-02
DAV:   5    -0.233753565832E+02    0.10421E-03   -0.22637E-04   256   0.483E-02    0.128E-02
DAV:   6    -0.233754485584E+02   -0.91975E-04   -0.16091E-05   248   0.151E-02
  42 F= -.23375449E+02 E0= -.23375449E+02  d E =-.393391E-02  mag=     1.0000
 trial-energy change:   -0.003934  1 .order   -0.004438   -0.005471   -0.003405
 step:  33.5331(harm= 33.5331)  dis= 0.03828  next Energy=   -23.378757 (dE=-0.724E-02)
 bond charge predicted
       N       E                     dE             d eps       ncg     rms          rms(c)
DAV:   1    -0.233637380819E+02    0.11619E-01   -0.28887E+01   368   0.152E+01    0.208E-01
DAV:   2    -0.233771826095E+02   -0.13445E-01   -0.13918E-01   388   0.149E+00    0.187E-01
DAV:   3    -0.233769817247E+02    0.20088E-03   -0.23166E-03   408   0.192E-01    0.130E-01
DAV:   4    -0.233765696261E+02    0.41210E-03   -0.40218E-04   356   0.698E-02    0.769E-02
DAV:   5    -0.233765227197E+02    0.46906E-04   -0.51033E-04   380   0.680E-02
  43 F= -.23376523E+02 E0= -.23376523E+02  d E =-.500807E-02  mag=     1.0000
 curvature: -38.38 expect dE=-0.224E-01 dE for cont linesearch -0.521E-04
 trial: gam= 0.96329 g(F)=  0.583E-03 g(S)=  0.000E+00 ort =-0.366E-04 (trialstep = 0.116E+02)
 search vector abs. value=  0.143E-02
 bond charge predicted
       N       E                     dE             d eps       ncg     rms          rms(c)
DAV:   1    -0.233755629369E+02    0.10067E-02   -0.12992E+01   368   0.101E+01    0.134E-01
DAV:   2    -0.233818574156E+02   -0.62945E-02   -0.62587E-02   384   0.979E-01    0.111E-01
DAV:   3    -0.233818379294E+02    0.19486E-04   -0.96194E-04   392   0.119E-01
  44 F= -.23381838E+02 E0= -.23381838E+02  d E =-.531521E-02  mag=     1.0000
 trial-energy change:   -0.005315  1 .order   -0.005170   -0.006377   -0.003963
 step:  30.7671(harm= 30.7671)  dis= 0.04891  next Energy=   -23.384946 (dE=-0.842E-02)
 bond charge predicted
       N       E                     dE             d eps       ncg     rms          rms(c)
DAV:   1    -0.233690120907E+02    0.12845E-01   -0.35128E+01   368   0.167E+01    0.236E-01
DAV:   2    -0.233854118469E+02   -0.16400E-01   -0.16635E-01   384   0.160E+00    0.206E-01
DAV:   3    -0.233851795550E+02    0.23229E-03   -0.25369E-03   400   0.190E-01    0.151E-01
DAV:   4    -0.233847930238E+02    0.38653E-03   -0.97896E-04   384   0.982E-02    0.681E-02
DAV:   5    -0.233849750467E+02   -0.18202E-03   -0.37795E-04   344   0.628E-02    0.249E-02
DAV:   6    -0.233851693211E+02   -0.19427E-03   -0.24710E-05   272   0.158E-02    0.161E-02
DAV:   7    -0.233854218680E+02   -0.25255E-03   -0.22549E-05   240   0.123E-02    0.526E-03
DAV:   8    -0.233856372292E+02   -0.21536E-03   -0.85110E-06   264   0.695E-03    0.231E-03
DAV:   9    -0.233857803457E+02   -0.14312E-03   -0.33848E-06   264   0.334E-03    0.201E-03
DAV:  10    -0.233858886003E+02   -0.10825E-03   -0.24637E-06   256   0.222E-03    0.107E-03
DAV:  11    -0.233859628577E+02   -0.74257E-04   -0.39643E-06   252   0.248E-03
  45 F= -.23385963E+02 E0= -.23385963E+02  d E =-.944014E-02  mag=     1.0000
 curvature: -40.17 expect dE=-0.224E-01 dE for cont linesearch -0.863E-06
 trial: gam= 0.83877 g(F)=  0.558E-03 g(S)=  0.000E+00 ort = 0.554E-05 (trialstep = 0.141E+02)
 search vector abs. value=  0.157E-02
 bond charge predicted
       N       E                     dE             d eps       ncg     rms          rms(c)
DAV:   1    -0.233830457629E+02    0.28428E-02   -0.20863E+01   376   0.128E+01    0.150E-01
DAV:   2    -0.233931243106E+02   -0.10079E-01   -0.99369E-02   380   0.123E+00    0.133E-01
DAV:   3    -0.233930580356E+02    0.66275E-04   -0.14820E-03   400   0.144E-01    0.102E-01
DAV:   4    -0.233928085643E+02    0.24947E-03   -0.32540E-04   352   0.573E-02    0.569E-02
DAV:   5    -0.233927431466E+02    0.65418E-04   -0.40064E-04   384   0.623E-02
  46 F= -.23392743E+02 E0= -.23392743E+02  d E =-.678029E-02  mag=     1.0000
 ZBRENT: can't locate minimum, use default step
 trial-energy change:   -0.006780  1 .order   -0.007173   -0.007909   -0.006436
 step:  56.2441(harm= 75.4926)  dis= 0.10356  next Energy=   -23.407195 (dE=-0.212E-01)
 bond charge predicted
       N       E                     dE             d eps       ncg     rms          rms(c)
DAV:   1    -0.233094121647E+02    0.83396E-01   -0.19004E+02   368   0.390E+01    0.555E-01
DAV:   2    -0.234038457354E+02   -0.94434E-01   -0.92768E-01   392   0.379E+00    0.419E-01
DAV:   3    -0.234032997828E+02    0.54595E-03   -0.14183E-02   408   0.453E-01    0.300E-01
DAV:   4    -0.234014645466E+02    0.18352E-02   -0.27327E-03   400   0.165E-01    0.170E-01
DAV:   5    -0.234011712225E+02    0.29332E-03   -0.25389E-03   400   0.153E-01    0.477E-02
DAV:   6    -0.234013335940E+02   -0.16237E-03   -0.50190E-05   264   0.245E-02    0.315E-02
DAV:   7    -0.234015528447E+02   -0.21925E-03   -0.32211E-05   264   0.156E-02    0.120E-02
DAV:   8    -0.234017226349E+02   -0.16979E-03   -0.11249E-05   264   0.973E-03    0.383E-03
DAV:   9    -0.234018737525E+02   -0.15112E-03   -0.50414E-06   256   0.523E-03    0.219E-03
DAV:  10    -0.234019799771E+02   -0.10622E-03   -0.29890E-06   264   0.290E-03    0.153E-03
DAV:  11    -0.234020728327E+02   -0.92856E-04   -0.41645E-06   256   0.284E-03
  47 F= -.23402073E+02 E0= -.23402073E+02  d E =-.161100E-01  mag=     1.0000
 curvature: -95.19 expect dE=-0.826E-01 dE for cont linesearch -0.760E-04
 trial: gam= 1.60473 g(F)=  0.868E-03 g(S)=  0.000E+00 ort = 0.354E-04 (trialstep = 0.703E+01)
 search vector abs. value=  0.503E-02
 bond charge predicted
       N       E                     dE             d eps       ncg     rms          rms(c)
DAV:   1    -0.234003091372E+02    0.16708E-02   -0.16681E+01   376   0.115E+01    0.134E-01
DAV:   2    -0.234084761644E+02   -0.81670E-02   -0.79069E-02   380   0.110E+00    0.121E-01
DAV:   3    -0.234084289077E+02    0.47257E-04   -0.11664E-03   408   0.126E-01    0.944E-02
DAV:   4    -0.234082180615E+02    0.21085E-03   -0.30680E-04   360   0.559E-02    0.500E-02
DAV:   5    -0.234081765225E+02    0.41539E-04   -0.27287E-04   320   0.523E-02
  48 F= -.23408177E+02 E0= -.23408177E+02  d E =-.610369E-02  mag=     1.0000
 ZBRENT: can't locate minimum, use default step
 trial-energy change:   -0.006104  1 .order   -0.006381   -0.006505   -0.006257
 step:  28.1272(harm=184.9357)  dis= 0.11053  next Energy=   -23.487611 (dE=-0.855E-01)
 bond charge predicted
       N       E                     dE             d eps       ncg     rms          rms(c)
DAV:   1    -0.233467421187E+02    0.61476E-01   -0.15179E+02   368   0.348E+01    0.459E-01
DAV:   2    -0.234207296740E+02   -0.73988E-01   -0.72683E-01   400   0.334E+00    0.385E-01
DAV:   3    -0.234202349361E+02    0.49474E-03   -0.10838E-02   400   0.388E-01    0.284E-01
DAV:   4    -0.234186560457E+02    0.15789E-02   -0.23307E-03   392   0.155E-01    0.164E-01
DAV:   5    -0.234183867730E+02    0.26927E-03   -0.21380E-03   392   0.139E-01    0.501E-02
DAV:   6    -0.234184856020E+02   -0.98829E-04   -0.35110E-05   248   0.214E-02
  49 F= -.23418486E+02 E0= -.23418486E+02  d E =-.164128E-01  mag=     1.0000
 curvature: ****** expect dE=-0.844E-01 dE for cont linesearch -0.199E-02
 ZBRENT: increasing intervall
 opt :  70.3180  next Energy=   -23.406177 (dE=-0.410E-02)
 bond charge predicted
       N       E                     dE             d eps       ncg     rms          rms(c)
DAV:   1    -0.230815618491E+02    0.33682E+00   -0.63001E+02   368   0.723E+01    0.134E+00
DAV:   2    -0.234076635797E+02   -0.32610E+00   -0.31861E+00   384   0.717E+00    0.923E-01
DAV:   3    -0.234066034198E+02    0.10602E-02   -0.50254E-02   408   0.861E-01    0.605E-01
DAV:   4    -0.234017799937E+02    0.48234E-02   -0.64547E-03   384   0.274E-01    0.409E-01
DAV:   5    -0.234004219459E+02    0.13580E-02   -0.81485E-03   388   0.269E-01    0.114E-01
DAV:   6    -0.234007028879E+02   -0.28094E-03   -0.14045E-04   264   0.447E-02    0.652E-02
DAV:   7    -0.234009921770E+02   -0.28929E-03   -0.45887E-05   264   0.223E-02    0.282E-02
DAV:   8    -0.234011939113E+02   -0.20173E-03   -0.18655E-05   256   0.140E-02    0.948E-03
DAV:   9    -0.234013821107E+02   -0.18820E-03   -0.10713E-05   248   0.827E-03    0.343E-03
DAV:  10    -0.234014977814E+02   -0.11567E-03   -0.43443E-06   264   0.419E-03    0.212E-03
DAV:  11    -0.234015881301E+02   -0.90349E-04   -0.36409E-06   248   0.306E-03
  50 F= -.23401588E+02 E0= -.23401588E+02  d E =0.484703E-03  mag=     1.0000
 curvature: 692.57 expect dE= 0.267E+01 dE for cont linesearch  0.124E+00
 ZBRENT: bracketing found
 ZBRENT: interpolating
 opt :  38.2469  next Energy=   -23.419999 (dE=-0.179E-01)
 bond charge predicted
       N       E                     dE             d eps       ncg     rms          rms(c)
DAV:   1    -0.232390248286E+02    0.16247E+00   -0.35673E+02   368   0.538E+01    0.903E-01
DAV:   2    -0.234232956569E+02   -0.18427E+00   -0.17856E+00   400   0.528E+00    0.578E-01
DAV:   3    -0.234221914500E+02    0.11042E-02   -0.27806E-02   400   0.618E-01    0.400E-01
DAV:   4    -0.234193649707E+02    0.28265E-02   -0.42356E-03   392   0.205E-01    0.235E-01
DAV:   5    -0.234188497309E+02    0.51524E-03   -0.38978E-03   384   0.184E-01    0.581E-02
DAV:   6    -0.234189961532E+02   -0.14642E-03   -0.60447E-05   272   0.298E-02    0.358E-02
DAV:   7    -0.234191437818E+02   -0.14763E-03   -0.22467E-05   256   0.141E-02    0.145E-02
DAV:   8    -0.234192605968E+02   -0.11681E-03   -0.96767E-06   264   0.945E-03    0.474E-03
DAV:   9    -0.234193522124E+02   -0.91616E-04   -0.42257E-06   248   0.481E-03
  51 F= -.23419352E+02 E0= -.23419352E+02  d E =-.172794E-01  mag=     1.0000
 curvature:  -8.48 expect dE=-0.932E-02 dE for cont linesearch -0.267E-04
 trial: gam= 1.09777 g(F)=  0.110E-02 g(S)=  0.000E+00 ort =-0.126E-03 (trialstep = 0.970E+01)
 search vector abs. value=  0.689E-02
 bond charge predicted
       N       E                     dE             d eps       ncg     rms          rms(c)
DAV:   1    -0.234066348447E+02    0.12626E-01   -0.43560E+01   368   0.185E+01    0.214E-01
DAV:   2    -0.234277099823E+02   -0.21075E-01   -0.20506E-01   392   0.177E+00    0.190E-01
DAV:   3    -0.234276130740E+02    0.96908E-04   -0.30044E-03   400   0.204E-01    0.147E-01
DAV:   4    -0.234271745506E+02    0.43852E-03   -0.66646E-04   384   0.789E-02    0.822E-02
DAV:   5    -0.234271058556E+02    0.68695E-04   -0.74562E-04   400   0.796E-02
  52 F= -.23427106E+02 E0= -.23427106E+02  d E =-.775364E-02  mag=     1.0000
 ZBRENT: can't locate minimum, use default step
 trial-energy change:   -0.007754  1 .order   -0.008165   -0.009319   -0.007011
 step:  38.8006(harm= 39.1721)  dis= 0.16034  next Energy=   -23.438168 (dE=-0.188E-01)
 bond charge predicted
       N       E                     dE             d eps       ncg     rms          rms(c)
DAV:   1    -0.232319049305E+02    0.19527E+00   -0.40378E+02   368   0.571E+01    0.936E-01
DAV:   2    -0.234371480127E+02   -0.20524E+00   -0.19855E+00   384   0.562E+00    0.667E-01
DAV:   3    -0.234359553971E+02    0.11926E-02   -0.30450E-02   388   0.663E-01    0.455E-01
DAV:   4    -0.234327274656E+02    0.32279E-02   -0.43509E-03   384   0.208E-01    0.292E-01
DAV:   5    -0.234318563170E+02    0.87115E-03   -0.51883E-03   384   0.207E-01    0.801E-02
DAV:   6    -0.234320042118E+02   -0.14789E-03   -0.77430E-05   264   0.340E-02    0.450E-02
DAV:   7    -0.234321261758E+02   -0.12196E-03   -0.26471E-05   248   0.174E-02    0.191E-02
DAV:   8    -0.234321982512E+02   -0.72075E-04   -0.11976E-05   256   0.107E-02
  53 F= -.23432198E+02 E0= -.23432198E+02  d E =-.128460E-01  mag=     1.0000
 curvature: ****** expect dE=-0.277E+00 dE for cont linesearch -0.360E-02
 ZBRENT: interpolating
 opt :  28.0969  next Energy=   -23.434449 (dE=-0.151E-01)
 bond charge predicted
       N       E                     dE             d eps       ncg     rms          rms(c)
DAV:   1    -0.234089417107E+02    0.23184E-01   -0.53092E+01   368   0.204E+01    0.245E-01
DAV:   2    -0.234348173614E+02   -0.25876E-01   -0.25236E-01   384   0.196E+00    0.200E-01
DAV:   3    -0.234346869245E+02    0.13044E-03   -0.37138E-03   400   0.225E-01    0.153E-01
DAV:   4    -0.234341976148E+02    0.48931E-03   -0.78433E-04   384   0.858E-02    0.833E-02
DAV:   5    -0.234341428778E+02    0.54737E-04   -0.79935E-04   392   0.820E-02
  54 F= -.23434143E+02 E0= -.23434143E+02  d E =-.147907E-01  mag=     1.0000
 curvature: -87.65 expect dE=-0.104E+00 dE for cont linesearch -0.107E-04
 trial: gam= 0.70933 g(F)=  0.118E-02 g(S)=  0.000E+00 ort =-0.290E-04 (trialstep = 0.134E+02)
 search vector abs. value=  0.461E-02
 bond charge predicted
       N       E                     dE             d eps       ncg     rms          rms(c)
DAV:   1    -0.234212054338E+02    0.12992E-01   -0.55533E+01   368   0.209E+01    0.242E-01
DAV:   2    -0.234482334535E+02   -0.27028E-01   -0.26299E-01   384   0.202E+00    0.229E-01
DAV:   3    -0.234481091342E+02    0.12432E-03   -0.39803E-03   392   0.239E-01    0.173E-01
DAV:   4    -0.234474942340E+02    0.61490E-03   -0.75822E-04   380   0.863E-02    0.108E-01
DAV:   5    -0.234473211335E+02    0.17310E-03   -0.11559E-03   384   0.977E-02    0.325E-02
DAV:   6    -0.234473468000E+02   -0.25666E-04   -0.12782E-05   248   0.132E-02
  55 F= -.23447347E+02 E0= -.23447347E+02  d E =-.132039E-01  mag=     1.0000
 trial-energy change:   -0.013204  1 .order   -0.012875   -0.015553   -0.010197
 step:  38.8516(harm= 38.8516)  dis= 0.11550  next Energy=   -23.456725 (dE=-0.226E-01)
 bond charge predicted
       N       E                     dE             d eps       ncg     rms          rms(c)
DAV:   1    -0.233542892229E+02    0.93032E-01   -0.20350E+02   368   0.402E+01    0.568E-01
DAV:   2    -0.234554492783E+02   -0.10116E+00   -0.98314E-01   384   0.393E+00    0.456E-01
DAV:   3    -0.234549110181E+02    0.53826E-03   -0.15120E-02   376   0.469E-01    0.320E-01
DAV:   4    -0.234529435739E+02    0.19674E-02   -0.27440E-03   392   0.164E-01    0.195E-01
DAV:   5    -0.234525702024E+02    0.37337E-03   -0.30017E-03   380   0.158E-01    0.559E-02
DAV:   6    -0.234526782673E+02   -0.10806E-03   -0.40410E-05   252   0.236E-02    0.349E-02
DAV:   7    -0.234527865602E+02   -0.10829E-03   -0.23836E-05   240   0.143E-02    0.139E-02
DAV:   8    -0.234528625167E+02   -0.75957E-04   -0.92581E-06   264   0.923E-03
  56 F= -.23452863E+02 E0= -.23452863E+02  d E =-.187196E-01  mag=     1.0000
 curvature: -76.99 expect dE=-0.986E-01 dE for cont linesearch -0.686E-03
 trial: gam= 1.16894 g(F)=  0.128E-02 g(S)=  0.000E+00 ort =-0.203E-03 (trialstep = 0.120E+02)
 search vector abs. value=  0.710E-02
 bond charge predicted
       N       E                     dE             d eps       ncg     rms          rms(c)
DAV:   1    -0.234298705296E+02    0.22916E-01   -0.68570E+01   368   0.233E+01    0.283E-01
DAV:   2    -0.234643452957E+02   -0.34475E-01   -0.32642E-01   384   0.226E+00    0.248E-01
DAV:   3    -0.234642052334E+02    0.14006E-03   -0.49465E-03   396   0.271E-01    0.185E-01
DAV:   4    -0.234634998267E+02    0.70541E-03   -0.92265E-04   384   0.933E-02    0.112E-01
DAV:   5    -0.234633430096E+02    0.15682E-03   -0.13391E-03   392   0.106E-01    0.320E-02
DAV:   6    -0.234633872999E+02   -0.44290E-04   -0.16251E-05   232   0.145E-02
  57 F= -.23463387E+02 E0= -.23463387E+02  d E =-.105248E-01  mag=     1.0000
 trial-energy change:   -0.010525  1 .order   -0.010735   -0.012514   -0.008956
 step:  42.1411(harm= 42.1411)  dis= 0.12299  next Energy=   -23.474867 (dE=-0.220E-01)
 bond charge predicted
       N       E                     dE             d eps       ncg     rms          rms(c)
DAV:   1    -0.232448313557E+02    0.21851E+00   -0.44501E+02   368   0.603E+01    0.103E+00
DAV:   2    -0.234686831671E+02   -0.22385E+00   -0.21801E+00   384   0.595E+00    0.720E-01
DAV:   3    -0.234672893119E+02    0.13939E-02   -0.34251E-02   388   0.732E-01    0.475E-01
DAV:   4    -0.234633896606E+02    0.38997E-02   -0.51591E-03   392   0.222E-01    0.301E-01
DAV:   5    -0.234623529807E+02    0.10367E-02   -0.59080E-03   392   0.221E-01    0.792E-02
DAV:   6    -0.234625537764E+02   -0.20080E-03   -0.75765E-05   260   0.351E-02    0.471E-02
DAV:   7    -0.234627354235E+02   -0.18165E-03   -0.31277E-05   244   0.171E-02    0.194E-02
DAV:   8    -0.234628648364E+02   -0.12941E-03   -0.13192E-05   248   0.107E-02    0.627E-03
DAV:   9    -0.234629862235E+02   -0.12139E-03   -0.90701E-06   248   0.722E-03    0.288E-03
DAV:  10    -0.234630575380E+02   -0.71315E-04   -0.45422E-06   256   0.358E-03
  58 F= -.23463058E+02 E0= -.23463058E+02  d E =-.101950E-01  mag=     1.0000
 curvature: ****** expect dE=-0.476E+00 dE for cont linesearch -0.999E-02
 ZBRENT: interpolating
 opt :  27.5155  next Energy=   -23.468204 (dE=-0.153E-01)
 bond charge predicted
       N       E                     dE             d eps       ncg     rms          rms(c)
DAV:   1    -0.234197472596E+02    0.43239E-01   -0.10238E+02   368   0.285E+01    0.359E-01
DAV:   2    -0.234701048121E+02   -0.50358E-01   -0.48911E-01   384   0.276E+00    0.308E-01
DAV:   3    -0.234698569813E+02    0.24783E-03   -0.73732E-03   400   0.328E-01    0.226E-01
DAV:   4    -0.234687989612E+02    0.10580E-02   -0.14552E-03   384   0.117E-01    0.135E-01
DAV:   5    -0.234685636186E+02    0.23534E-03   -0.17824E-03   392   0.122E-01    0.397E-02
DAV:   6    -0.234685996314E+02   -0.36013E-04   -0.21224E-05   248   0.171E-02
  59 F= -.23468600E+02 E0= -.23468600E+02  d E =-.157371E-01  mag=     1.0000
 curvature: -73.81 expect dE=-0.108E+00 dE for cont linesearch -0.230E-03
 trial: gam= 0.89789 g(F)=  0.147E-02 g(S)=  0.000E+00 ort =-0.149E-03 (trialstep = 0.151E+02)
 search vector abs. value=  0.693E-02
 bond charge predicted
       N       E                     dE             d eps       ncg     rms          rms(c)
DAV:   1    -0.234370645290E+02    0.31499E-01   -0.10629E+02   368   0.291E+01    0.344E-01
DAV:   2    -0.234889581855E+02   -0.51894E-01   -0.50436E-01   384   0.282E+00    0.328E-01
DAV:   3    -0.234887115284E+02    0.24666E-03   -0.77804E-03   400   0.346E-01    0.242E-01
DAV:   4    -0.234876030776E+02    0.11085E-02   -0.11956E-03   384   0.109E-01    0.163E-01
DAV:   5    -0.234871708598E+02    0.43222E-03   -0.24714E-03   392   0.144E-01    0.486E-02
DAV:   6    -0.234872062161E+02   -0.35356E-04   -0.27675E-05   256   0.195E-02
  60 F= -.23487206E+02 E0= -.23487206E+02  d E =-.186066E-01  mag=     1.0000
 ZBRENT: can't locate minimum, use default step
 trial-energy change:   -0.018607  1 .order   -0.018625   -0.020104   -0.017146
 step:  60.3573(harm=102.5340)  dis= 0.16010  next Energy=   -23.536906 (dE=-0.683E-01)
 bond charge predicted
       N       E                     dE             d eps       ncg     rms          rms(c)
DAV:   1    -0.229916144408E+02    0.49556E+00   -0.10077E+03   368   0.929E+01    0.197E+00
DAV:   2    -0.235077461927E+02   -0.51613E+00   -0.50920E+00   400   0.935E+00    0.134E+00
DAV:   3    -0.235051298177E+02    0.26164E-02   -0.83912E-02   400   0.117E+00    0.809E-01
DAV:   4    -0.234979543967E+02    0.71754E-02   -0.89114E-03   400   0.314E-01    0.590E-01
DAV:   5    -0.234950090472E+02    0.29453E-02   -0.13631E-02   396   0.343E-01    0.168E-01
DAV:   6    -0.234953753517E+02   -0.36630E-03   -0.23880E-04   268   0.629E-02    0.928E-02
DAV:   7    -0.234957087460E+02   -0.33339E-03   -0.79167E-05   260   0.313E-02    0.415E-02
DAV:   8    -0.234959242963E+02   -0.21555E-03   -0.28295E-05   264   0.169E-02    0.134E-02
DAV:   9    -0.234961004199E+02   -0.17612E-03   -0.17514E-05   264   0.113E-02    0.394E-03
DAV:  10    -0.234962201696E+02   -0.11975E-03   -0.97175E-06   256   0.612E-03    0.361E-03
DAV:  11    -0.234962839054E+02   -0.63736E-04   -0.49190E-06   256   0.374E-03
  61 F= -.23496284E+02 E0= -.23496284E+02  d E =-.276843E-01  mag=     1.0000
 curvature: ****** expect dE=-0.485E+00 dE for cont linesearch -0.492E-02
 ZBRENT: interpolating
 opt :  48.3887  next Energy=   -23.498728 (dE=-0.301E-01)
 bond charge predicted
       N       E                     dE             d eps       ncg     rms          rms(c)
DAV:   1    -0.234677399291E+02    0.28480E-01   -0.66711E+01   368   0.230E+01    0.275E-01
DAV:   2    -0.235012253384E+02   -0.33485E-01   -0.32116E-01   400   0.225E+00    0.244E-01
DAV:   3    -0.235011139880E+02    0.11135E-03   -0.49374E-03   400   0.273E-01    0.179E-01
DAV:   4    -0.235004621732E+02    0.65181E-03   -0.78361E-04   400   0.878E-02    0.114E-01
DAV:   5    -0.235002681083E+02    0.19406E-03   -0.14116E-03   396   0.109E-01    0.331E-02
DAV:   6    -0.235002918603E+02   -0.23752E-04   -0.16074E-05   252   0.147E-02
  62 F= -.23500292E+02 E0= -.23500292E+02  d E =-.316922E-01  mag=     1.0000
 curvature: ****** expect dE=-0.157E+00 dE for cont linesearch -0.124E-02
 trial: gam= 0.95934 g(F)=  0.155E-02 g(S)=  0.000E+00 ort =-0.291E-03 (trialstep = 0.205E+02)
 search vector abs. value=  0.737E-02
 bond charge predicted
       N       E                     dE             d eps       ncg     rms          rms(c)
DAV:   1    -0.234163875866E+02    0.83881E-01   -0.20893E+02   368   0.412E+01    0.559E-01
DAV:   2    -0.235219075497E+02   -0.10552E+00   -0.10116E+00   400   0.403E+00    0.472E-01
DAV:   3    -0.235214642571E+02    0.44329E-03   -0.15641E-02   408   0.493E-01    0.334E-01
DAV:   4    -0.235192898657E+02    0.21744E-02   -0.27576E-03   400   0.162E-01    0.211E-01
DAV:   5    -0.235186599082E+02    0.62996E-03   -0.36142E-03   396   0.177E-01    0.622E-02
DAV:   6    -0.235187602054E+02   -0.10030E-03   -0.44085E-05   264   0.249E-02    0.406E-02
DAV:   7    -0.235188916971E+02   -0.13149E-03   -0.26060E-05   256   0.149E-02    0.167E-02
DAV:   8    -0.235189882140E+02   -0.96517E-04   -0.11630E-05   280   0.104E-02
  63 F= -.23518988E+02 E0= -.23518988E+02  d E =-.186964E-01  mag=     1.0000
 trial-energy change:   -0.018696  1 .order   -0.017452   -0.025996   -0.008908
 step:  27.1933(harm= 31.1104)  dis= 0.08082  next Energy=   -23.520501 (dE=-0.202E-01)
 bond charge predicted
       N       E                     dE             d eps       ncg     rms          rms(c)
DAV:   1    -0.235098212925E+02    0.90704E-02   -0.22447E+01   368   0.134E+01    0.153E-01
DAV:   2    -0.235207313507E+02   -0.10910E-01   -0.10623E-01   396   0.129E+00    0.145E-01
DAV:   3    -0.235206688125E+02    0.62538E-04   -0.16036E-03   404   0.156E-01    0.110E-01
DAV:   4    -0.235204084626E+02    0.26035E-03   -0.29295E-04   304   0.542E-02    0.704E-02
DAV:   5    -0.235203542299E+02    0.54233E-04   -0.60993E-04   388   0.751E-02
  64 F= -.23520354E+02 E0= -.23520354E+02  d E =-.200624E-01  mag=     1.0000
 curvature: -77.96 expect dE=-0.117E+00 dE for cont linesearch -0.716E-04
 trial: gam= 0.86288 g(F)=  0.150E-02 g(S)=  0.000E+00 ort = 0.822E-04 (trialstep = 0.218E+02)
 search vector abs. value=  0.712E-02
 bond charge predicted
       N       E                     dE             d eps       ncg     rms          rms(c)
DAV:   1    -0.234292995058E+02    0.91109E-01   -0.23010E+02   368   0.431E+01    0.591E-01
DAV:   2    -0.235444268523E+02   -0.11513E+00   -0.11195E+00   396   0.422E+00    0.479E-01
DAV:   3    -0.235437316385E+02    0.69521E-03   -0.17346E-02   400   0.521E-01    0.334E-01
DAV:   4    -0.235415588866E+02    0.21728E-02   -0.26404E-03   400   0.163E-01    0.218E-01
DAV:   5    -0.235409124474E+02    0.64644E-03   -0.41069E-03   396   0.189E-01    0.605E-02
DAV:   6    -0.235410716156E+02   -0.15917E-03   -0.49993E-05   264   0.272E-02    0.391E-02
DAV:   7    -0.235412544981E+02   -0.18288E-03   -0.23236E-05   260   0.144E-02    0.166E-02
DAV:   8    -0.235413857612E+02   -0.13126E-03   -0.10675E-05   272   0.972E-03    0.515E-03
DAV:   9    -0.235415177871E+02   -0.13203E-03   -0.64092E-06   260   0.606E-03    0.224E-03
DAV:  10    -0.235415901125E+02   -0.72325E-04   -0.27403E-06   264   0.297E-03
  65 F= -.23541590E+02 E0= -.23541590E+02  d E =-.212359E-01  mag=     1.0000
 trial-energy change:   -0.021236  1 .order   -0.022903   -0.034182   -0.011624
 step:  33.0318(harm= 33.0318)  dis= 0.08507  next Energy=   -23.546252 (dE=-0.259E-01)
 bond charge predicted
       N       E                     dE             d eps       ncg     rms          rms(c)
DAV:   1    -0.235162595596E+02    0.25258E-01   -0.60437E+01   368   0.219E+01    0.250E-01
DAV:   2    -0.235460979512E+02   -0.29838E-01   -0.28889E-01   392   0.213E+00    0.235E-01
DAV:   3    -0.235459701611E+02    0.12779E-03   -0.43930E-03   408   0.258E-01    0.176E-01
DAV:   4    -0.235453247578E+02    0.64540E-03   -0.70229E-04   396   0.836E-02    0.116E-01
DAV:   5    -0.235450976644E+02    0.22709E-03   -0.14753E-03   396   0.113E-01    0.344E-02
DAV:   6    -0.235451451951E+02   -0.47531E-04   -0.16349E-05   244   0.149E-02
  66 F= -.23545145E+02 E0= -.23545145E+02  d E =-.247910E-01  mag=     1.0000
 curvature: -75.02 expect dE=-0.112E+00 dE for cont linesearch -0.394E-03
 trial: gam= 0.75442 g(F)=  0.150E-02 g(S)=  0.000E+00 ort = 0.193E-03 (trialstep = 0.240E+02)
 search vector abs. value=  0.584E-02
 bond charge predicted
       N       E                     dE             d eps       ncg     rms          rms(c)
DAV:   1    -0.234629063352E+02    0.82191E-01   -0.22918E+02   368   0.431E+01    0.595E-01
DAV:   2    -0.235775195060E+02   -0.11461E+00   -0.11037E+00   392   0.420E+00    0.473E-01
DAV:   3    -0.235767322706E+02    0.78724E-03   -0.17140E-02   400   0.524E-01    0.332E-01
DAV:   4    -0.235744694526E+02    0.22628E-02   -0.26839E-03   392   0.163E-01    0.212E-01
DAV:   5    -0.235737636911E+02    0.70576E-03   -0.40709E-03   392   0.189E-01    0.556E-02
DAV:   6    -0.235739129340E+02   -0.14924E-03   -0.50104E-05   264   0.270E-02    0.362E-02
DAV:   7    -0.235740761474E+02   -0.16321E-03   -0.22934E-05   256   0.143E-02    0.157E-02
DAV:   8    -0.235742014613E+02   -0.12531E-03   -0.10886E-05   264   0.979E-03    0.472E-03
DAV:   9    -0.235743318662E+02   -0.13040E-03   -0.66955E-06   260   0.577E-03    0.228E-03
DAV:  10    -0.235744029879E+02   -0.71122E-04   -0.30351E-06   264   0.294E-03
  67 F= -.23574403E+02 E0= -.23574403E+02  d E =-.292578E-01  mag=     1.0000
 trial-energy change:   -0.029258  1 .order   -0.029420   -0.039465   -0.019376
 step:  47.2383(harm= 47.2383)  dis= 0.11277  next Energy=   -23.583910 (dE=-0.388E-01)
 bond charge predicted
       N       E                     dE             d eps       ncg     rms          rms(c)
DAV:   1    -0.234816149589E+02    0.92717E-01   -0.21306E+02   368   0.415E+01    0.575E-01
DAV:   2    -0.235870767470E+02   -0.10546E+00   -0.10212E+00   392   0.404E+00    0.452E-01
DAV:   3    -0.235862011408E+02    0.87561E-03   -0.15767E-02   400   0.502E-01    0.319E-01
DAV:   4    -0.235840332646E+02    0.21679E-02   -0.26375E-03   400   0.161E-01    0.199E-01
DAV:   5    -0.235833801600E+02    0.65310E-03   -0.36500E-03   396   0.179E-01    0.521E-02
DAV:   6    -0.235834984963E+02   -0.11834E-03   -0.45757E-05   256   0.258E-02    0.338E-02
DAV:   7    -0.235836273980E+02   -0.12890E-03   -0.20581E-05   260   0.136E-02    0.144E-02
DAV:   8    -0.235837303579E+02   -0.10296E-03   -0.92195E-06   260   0.907E-03    0.436E-03
DAV:   9    -0.235838377275E+02   -0.10737E-03   -0.54285E-06   260   0.525E-03    0.204E-03
DAV:  10    -0.235838990934E+02   -0.61366E-04   -0.26026E-06   264   0.269E-03
  68 F= -.23583899E+02 E0= -.23583899E+02  d E =-.387539E-01  mag=     1.0000
 curvature: -84.06 expect dE=-0.222E+00 dE for cont linesearch -0.290E-04
 trial: gam= 1.84279 g(F)=  0.264E-02 g(S)=  0.000E+00 ort =-0.449E-04 (trialstep = 0.751E+01)
 search vector abs. value=  0.223E-01
 bond charge predicted
       N       E                     dE             d eps       ncg     rms          rms(c)
DAV:   1    -0.235605868448E+02    0.23251E-01   -0.84670E+01   368   0.260E+01    0.300E-01
DAV:   2    -0.236019725008E+02   -0.41386E-01   -0.40265E-01   392   0.252E+00    0.279E-01
DAV:   3    -0.236017258483E+02    0.24665E-03   -0.60846E-03   400   0.307E-01    0.209E-01
DAV:   4    -0.236008244375E+02    0.90141E-03   -0.92269E-04   392   0.933E-02    0.139E-01
DAV:   5    -0.236004549039E+02    0.36953E-03   -0.20853E-03   384   0.134E-01    0.382E-02
DAV:   6    -0.236004969258E+02   -0.42022E-04   -0.22071E-05   252   0.173E-02
  69 F= -.23600497E+02 E0= -.23600497E+02  d E =-.165978E-01  mag=     1.0000
 ZBRENT: can't locate minimum, use default step
 trial-energy change:   -0.016598  1 .order   -0.017352   -0.019228   -0.015475
 step:  30.0345(harm= 38.4643)  dis= 0.13364  next Energy=   -23.633150 (dE=-0.493E-01)
 bond charge predicted
       N       E                     dE             d eps       ncg     rms          rms(c)
DAV:   1    -0.232226914670E+02    0.37776E+00   -0.79422E+02   368   0.819E+01    0.159E+00
DAV:   2    -0.236322148376E+02   -0.40952E+00   -0.39911E+00   392   0.820E+00    0.106E+00
DAV:   3    -0.236295030563E+02    0.27118E-02   -0.64114E-02   396   0.103E+00    0.654E-01
DAV:   4    -0.236231517564E+02    0.63513E-02   -0.77294E-03   400   0.281E-01    0.458E-01
DAV:   5    -0.236208076217E+02    0.23441E-02   -0.10514E-02   392   0.302E-01    0.128E-01
DAV:   6    -0.236210955494E+02   -0.28793E-03   -0.18091E-04   272   0.540E-02    0.750E-02
DAV:   7    -0.236213924435E+02   -0.29689E-03   -0.70370E-05   256   0.291E-02    0.323E-02
DAV:   8    -0.236216079312E+02   -0.21549E-03   -0.23096E-05   264   0.149E-02    0.103E-02
DAV:   9    -0.236218218955E+02   -0.21396E-03   -0.17906E-05   256   0.106E-02    0.395E-03
DAV:  10    -0.236219816918E+02   -0.15980E-03   -0.12277E-05   260   0.597E-03    0.361E-03
DAV:  11    -0.236220755032E+02   -0.93811E-04   -0.66436E-06   264   0.394E-03
  70 F= -.23622076E+02 E0= -.23622076E+02  d E =-.381764E-01  mag=     1.0000
 curvature: ****** expect dE=-0.465E+00 dE for cont linesearch -0.113E-02
 trial: gam= 0.73799 g(F)=  0.300E-02 g(S)=  0.000E+00 ort =-0.403E-03 (trialstep = 0.120E+02)
 search vector abs. value=  0.146E-01
 bond charge predicted
       N       E                     dE             d eps       ncg     rms          rms(c)
DAV:   1    -0.235765495249E+02    0.45432E-01   -0.14193E+02   368   0.338E+01    0.451E-01
DAV:   2    -0.236470452912E+02   -0.70496E-01   -0.68572E-01   396   0.328E+00    0.368E-01
DAV:   3    -0.236466644964E+02    0.38079E-03   -0.10465E-02   396   0.397E-01    0.265E-01
DAV:   4    -0.236451640405E+02    0.15005E-02   -0.21364E-03   396   0.142E-01    0.155E-01
DAV:   5    -0.236448703598E+02    0.29368E-03   -0.23125E-03   396   0.143E-01    0.448E-02
DAV:   6    -0.236449110612E+02   -0.40701E-04   -0.33713E-05   252   0.213E-02
  71 F= -.23644911E+02 E0= -.23644911E+02  d E =-.228356E-01  mag=     1.0000
 trial-energy change:   -0.022836  1 .order   -0.024421   -0.032409   -0.016432
 step:  24.3692(harm= 24.3692)  dis= 0.08020  next Energy=   -23.654946 (dE=-0.329E-01)
 bond charge predicted
       N       E                     dE             d eps       ncg     rms          rms(c)
DAV:   1    -0.235766830057E+02    0.68187E-01   -0.15015E+02   368   0.348E+01    0.480E-01
DAV:   2    -0.236508989087E+02   -0.74216E-01   -0.72573E-01   392   0.338E+00    0.383E-01
DAV:   3    -0.236503020063E+02    0.59690E-03   -0.11074E-02   400   0.410E-01    0.273E-01
[...]
DAV:   3    -0.237519270323E+02    0.41661E-02   -0.13875E-01   400   0.149E+00    0.910E-01
DAV:   4    -0.237430034424E+02    0.89236E-02   -0.14427E-02   392   0.384E-01    0.594E-01
DAV:   5    -0.237412505070E+02    0.17529E-02   -0.13856E-02   396   0.355E-01    0.132E-01
DAV:   6    -0.237420765244E+02   -0.82602E-03   -0.24489E-04   260   0.606E-02    0.809E-02
DAV:   7    -0.237429239447E+02   -0.84742E-03   -0.11114E-04   256   0.290E-02    0.341E-02
DAV:   8    -0.237435304277E+02   -0.60648E-03   -0.39974E-05   272   0.188E-02    0.125E-02
DAV:   9    -0.237441367320E+02   -0.60630E-03   -0.29979E-05   256   0.107E-02    0.469E-03
DAV:  10    -0.237444926482E+02   -0.35592E-03   -0.15870E-05   280   0.627E-03    0.399E-03
DAV:  11    -0.237447777200E+02   -0.28507E-03   -0.16584E-05   264   0.537E-03    0.343E-03
DAV:  12    -0.237449568323E+02   -0.17911E-03   -0.17748E-05   264   0.490E-03    0.136E-03
DAV:  13    -0.237449922521E+02   -0.35420E-04   -0.34800E-06   264   0.255E-03
  83 F= -.23744992E+02 E0= -.23744992E+02  d E =-.117043E-01  mag=     1.0000
 curvature: 140.75 expect dE= 0.347E+01 dE for cont linesearch  0.478E+00
 ZBRENT: bracketing found
 ZBRENT: interpolating
 opt :  32.3069  next Energy=   -23.815289 (dE=-0.820E-01)
 bond charge predicted
       N       E                     dE             d eps       ncg     rms          rms(c)
DAV:   1    -0.232870420696E+02    0.45791E+00   -0.10310E+03   368   0.946E+01    0.180E+00
DAV:   2    -0.238248966462E+02   -0.53785E+00   -0.52861E+00   396   0.945E+00    0.141E+00
DAV:   3    -0.238244592479E+02    0.43740E-03   -0.84853E-02   408   0.113E+00    0.934E-01
DAV:   4    -0.238165593104E+02    0.78999E-02   -0.10544E-02   396   0.361E-01    0.649E-01
DAV:   5    -0.238140857766E+02    0.24735E-02   -0.15505E-02   396   0.364E-01    0.163E-01
DAV:   6    -0.238146600411E+02   -0.57426E-03   -0.23054E-04   272   0.560E-02    0.973E-02
DAV:   7    -0.238153137450E+02   -0.65370E-03   -0.12952E-04   268   0.337E-02    0.430E-02
DAV:   8    -0.238158043808E+02   -0.49064E-03   -0.53075E-05   288   0.240E-02    0.145E-02
DAV:   9    -0.238162572697E+02   -0.45289E-03   -0.21088E-05   268   0.111E-02    0.470E-03
DAV:  10    -0.238165055002E+02   -0.24823E-03   -0.74980E-06   276   0.560E-03    0.303E-03
DAV:  11    -0.238167439956E+02   -0.23850E-03   -0.98848E-06   260   0.457E-03    0.303E-03
DAV:  12    -0.238169235382E+02   -0.17954E-03   -0.12559E-05   264   0.417E-03    0.229E-03
DAV:  13    -0.238169677458E+02   -0.44208E-04   -0.21905E-06   276   0.232E-03
  84 F= -.23816968E+02 E0= -.23816968E+02  d E =-.836798E-01  mag=     1.0000
 curvature:  -1.03 expect dE=-0.441E-02 dE for cont linesearch -0.238E-04
 trial: gam= 1.04893 g(F)=  0.430E-02 g(S)=  0.000E+00 ort = 0.658E-03 (trialstep = 0.616E+01)
 search vector abs. value=  0.262E-01
 bond charge predicted
       N       E                     dE             d eps       ncg     rms          rms(c)
DAV:   1    -0.238127430318E+02    0.41805E-02   -0.66842E+01   368   0.231E+01    0.291E-01
DAV:   2    -0.238459092134E+02   -0.33166E-01   -0.32372E-01   396   0.224E+00    0.252E-01
DAV:   3    -0.238457576456E+02    0.15157E-03   -0.49185E-03   400   0.261E-01    0.186E-01
DAV:   4    -0.238449904835E+02    0.76716E-03   -0.11313E-03   396   0.109E-01    0.103E-01
DAV:   5    -0.238448825015E+02    0.10798E-03   -0.10244E-03   400   0.941E-02    0.342E-02
DAV:   6    -0.238449644453E+02   -0.81944E-04   -0.16334E-05   252   0.133E-02
  85 F= -.23844964E+02 E0= -.23844964E+02  d E =-.279967E-01  mag=     1.0000
 ZBRENT: can't locate minimum, use default step
 trial-energy change:   -0.027997  1 .order   -0.028910   -0.030736   -0.027083
 step:  24.6299(harm= 51.8077)  dis= 0.16567  next Energy=   -23.946272 (dE=-0.129E+00)
 bond charge predicted
       N       E                     dE             d eps       ncg     rms          rms(c)
DAV:   1    -0.235506639591E+02    0.29422E+00   -0.62561E+02   368   0.724E+01    0.146E+00
DAV:   2    -0.238773324040E+02   -0.32667E+00   -0.32417E+00   384   0.728E+00    0.938E-01
DAV:   3    -0.238752710345E+02    0.20614E-02   -0.51740E-02   396   0.879E-01    0.590E-01
DAV:   4    -0.238703443843E+02    0.49267E-02   -0.89587E-03   388   0.296E-01    0.338E-01
DAV:   5    -0.238702130465E+02    0.13134E-03   -0.54985E-03   396   0.224E-01    0.926E-02
DAV:   6    -0.238708007503E+02   -0.58770E-03   -0.12752E-04   268   0.392E-02    0.607E-02
DAV:   7    -0.238715056034E+02   -0.70485E-03   -0.10171E-04   268   0.264E-02    0.219E-02
DAV:   8    -0.238719808591E+02   -0.47526E-03   -0.27910E-05   272   0.155E-02    0.789E-03
DAV:   9    -0.238723895647E+02   -0.40871E-03   -0.15225E-05   256   0.756E-03    0.380E-03
DAV:  10    -0.238726631889E+02   -0.27362E-03   -0.12039E-05   280   0.548E-03    0.288E-03
DAV:  11    -0.238728990775E+02   -0.23589E-03   -0.14233E-05   264   0.457E-03    0.256E-03
DAV:  12    -0.238730094064E+02   -0.11033E-03   -0.97688E-06   264   0.370E-03    0.123E-03
DAV:  13    -0.238730337238E+02   -0.24317E-04   -0.28481E-06   256   0.208E-03
  86 F= -.23873034E+02 E0= -.23873034E+02  d E =-.560660E-01  mag=     1.0000
 curvature: -87.78 expect dE=-0.726E+00 dE for cont linesearch -0.302E-01
 ZBRENT: interpolating
 opt :  17.1365  next Energy=   -23.884281 (dE=-0.673E-01)
 bond charge predicted
       N       E                     dE             d eps       ncg     rms          rms(c)
DAV:   1    -0.238320696472E+02    0.40940E-01   -0.99256E+01   368   0.282E+01    0.404E-01
DAV:   2    -0.238799261171E+02   -0.47856E-01   -0.47600E-01   392   0.270E+00    0.341E-01
DAV:   3    -0.238795118227E+02    0.41429E-03   -0.71591E-03   400   0.311E-01    0.251E-01
DAV:   4    -0.238783322095E+02    0.11796E-02   -0.23508E-03   396   0.156E-01    0.118E-01
DAV:   5    -0.238783313025E+02    0.90697E-06   -0.94364E-04   392   0.935E-02
  87 F= -.23878331E+02 E0= -.23878331E+02  d E =-.613636E-01  mag=     1.0000
 curvature: -32.70 expect dE=-0.147E+00 dE for cont linesearch -0.123E-02
 ZBRENT: interpolating
 opt :  18.9978  next Energy=   -23.879255 (dE=-0.623E-01)
 bond charge predicted
       N       E                     dE             d eps       ncg     rms          rms(c)
DAV:   1    -0.238770699032E+02    0.12623E-02   -0.60932E+00   376   0.696E+00    0.862E-02
DAV:   2    -0.238801120832E+02   -0.30422E-02   -0.28437E-02   396   0.663E-01    0.855E-02
DAV:   3    -0.238801465458E+02   -0.34463E-04   -0.42594E-04   408   0.768E-02
  88 F= -.23880147E+02 E0= -.23880147E+02  d E =-.631788E-01  mag=     1.0000
 curvature: -24.58 expect dE=-0.124E+00 dE for cont linesearch -0.120E-03
 trial: gam= 0.53301 g(F)=  0.503E-02 g(S)=  0.000E+00 ort = 0.357E-03 (trialstep = 0.873E+01)
 search vector abs. value=  0.129E-01
 bond charge predicted
       N       E                     dE             d eps       ncg     rms          rms(c)
DAV:   1    -0.238865557547E+02   -0.64437E-02   -0.66088E+01   368   0.229E+01    0.323E-01
DAV:   2    -0.239185735494E+02   -0.32018E-01   -0.31905E-01   400   0.223E+00    0.298E-01
DAV:   3    -0.239184035256E+02    0.17002E-03   -0.50101E-03   400   0.270E-01    0.217E-01
DAV:   4    -0.239176807035E+02    0.72282E-03   -0.14818E-03   388   0.125E-01    0.116E-01
DAV:   5    -0.239176884829E+02   -0.77794E-05   -0.92164E-04   392   0.917E-02
  89 F= -.23917688E+02 E0= -.23917688E+02  d E =-.375419E-01  mag=     1.0000
 trial-energy change:   -0.037542  1 .order   -0.038605   -0.045590   -0.031619
 step:  28.4723(harm= 28.4723)  dis= 0.14884  next Energy=   -23.954530 (dE=-0.744E-01)
 bond charge predicted
       N       E                     dE             d eps       ncg     rms          rms(c)
DAV:   1    -0.237705795863E+02    0.14710E+00   -0.34585E+02   368   0.531E+01    0.900E-01
DAV:   2    -0.239453984388E+02   -0.17482E+00   -0.17416E+00   396   0.528E+00    0.704E-01
DAV:   3    -0.239449198628E+02    0.47858E-03   -0.28110E-02   396   0.645E-01    0.468E-01
DAV:   4    -0.239421213630E+02    0.27985E-02   -0.55293E-03   380   0.246E-01    0.270E-01
DAV:   5    -0.239421716429E+02   -0.50280E-04   -0.35263E-03   396   0.179E-01    0.803E-02
DAV:   6    -0.239424129004E+02   -0.24126E-03   -0.10701E-04   272   0.323E-02    0.500E-02
DAV:   7    -0.239426963062E+02   -0.28341E-03   -0.83023E-05   272   0.269E-02    0.185E-02
DAV:   8    -0.239428985814E+02   -0.20228E-03   -0.19742E-05   260   0.143E-02    0.615E-03
DAV:   9    -0.239430553199E+02   -0.15674E-03   -0.83879E-06   252   0.696E-03    0.273E-03
DAV:  10    -0.239431454885E+02   -0.90169E-04   -0.30402E-06   256   0.360E-03
  90 F= -.23943145E+02 E0= -.23943145E+02  d E =-.629989E-01  mag=     1.0000
 curvature: -35.04 expect dE=-0.127E+00 dE for cont linesearch -0.375E-02
 ZBRENT: interpolating
 opt :  23.6447  next Energy=   -23.945976 (dE=-0.658E-01)
 bond charge predicted
       N       E                     dE             d eps       ncg     rms          rms(c)
DAV:   1    -0.239362053938E+02    0.68499E-02   -0.20150E+01   368   0.126E+01    0.181E-01
DAV:   2    -0.239460072790E+02   -0.98019E-02   -0.97426E-02   404   0.123E+00    0.153E-01
DAV:   3    -0.239459600287E+02    0.47250E-04   -0.15414E-03   404   0.150E-01    0.110E-01
DAV:   4    -0.239457744976E+02    0.18553E-03   -0.42613E-04   380   0.671E-02    0.549E-02
DAV:   5    -0.239457957632E+02   -0.21266E-04   -0.21441E-04   284   0.463E-02
  91 F= -.23945796E+02 E0= -.23945796E+02  d E =-.656492E-01  mag=     1.0000
 curvature: -26.47 expect dE=-0.772E-01 dE for cont linesearch -0.288E-05
 trial: gam= 0.28553 g(F)=  0.291E-02 g(S)=  0.000E+00 ort =-0.374E-04 (trialstep = 0.117E+02)
 search vector abs. value=  0.394E-02
 bond charge predicted
       N       E                     dE             d eps       ncg     rms          rms(c)
DAV:   1    -0.239545455278E+02   -0.87710E-02   -0.36393E+01   368   0.171E+01    0.277E-01
DAV:   2    -0.239719367374E+02   -0.17391E-01   -0.17614E-01   392   0.167E+00    0.236E-01
DAV:   3    -0.239717863934E+02    0.15034E-03   -0.29097E-03   404   0.213E-01    0.161E-01
DAV:   4    -0.239713604283E+02    0.42597E-03   -0.95557E-04   384   0.991E-02    0.783E-02
DAV:   5    -0.239713630294E+02   -0.26011E-05   -0.27906E-04   284   0.562E-02
  92 F= -.23971363E+02 E0= -.23971363E+02  d E =-.255673E-01  mag=     1.0000
 trial-energy change:   -0.025567  1 .order   -0.025954   -0.034004   -0.017903
 step:  24.7293(harm= 24.7293)  dis= 0.05511  next Energy=   -23.981703 (dE=-0.359E-01)
 bond charge predicted
       N       E                     dE             d eps       ncg     rms          rms(c)
DAV:   1    -0.239580715225E+02    0.13289E-01   -0.44971E+01   368   0.190E+01    0.326E-01
DAV:   2    -0.239795369758E+02   -0.21465E-01   -0.21894E-01   392   0.186E+00    0.264E-01
DAV:   3    -0.239793435749E+02    0.19340E-03   -0.36278E-03   392   0.238E-01    0.174E-01
DAV:   4    -0.239789155299E+02    0.42804E-03   -0.11092E-03   392   0.108E-01    0.815E-02
DAV:   5    -0.239789913821E+02   -0.75852E-04   -0.27676E-04   276   0.576E-02
  93 F= -.23978991E+02 E0= -.23978991E+02  d E =-.331956E-01  mag=     1.0000
 curvature: -16.78 expect dE=-0.269E-01 dE for cont linesearch -0.124E-03
 trial: gam= 0.56803 g(F)=  0.160E-02 g(S)=  0.000E+00 ort =-0.171E-03 (trialstep = 0.143E+02)
 search vector abs. value=  0.268E-02
 bond charge predicted
       N       E                     dE             d eps       ncg     rms          rms(c)
DAV:   1    -0.239768081763E+02    0.21074E-02   -0.36906E+01   368   0.171E+01    0.260E-01
DAV:   2    -0.239940047762E+02   -0.17197E-01   -0.17815E-01   392   0.168E+00    0.228E-01
DAV:   3    -0.239937434979E+02    0.26128E-03   -0.29822E-03   416   0.220E-01    0.155E-01
DAV:   4    -0.239933235173E+02    0.41998E-03   -0.82242E-04   388   0.927E-02    0.854E-02
DAV:   5    -0.239934258895E+02   -0.10237E-03   -0.51158E-04   396   0.684E-02    0.290E-02
DAV:   6    -0.239935869759E+02   -0.16109E-03   -0.20836E-05   264   0.140E-02    0.185E-02
DAV:   7    -0.239937805111E+02   -0.19354E-03   -0.23277E-05   268   0.132E-02    0.602E-03
DAV:   8    -0.239939321208E+02   -0.15161E-03   -0.73353E-06   260   0.671E-03    0.182E-03
DAV:   9    -0.239940134112E+02   -0.81290E-04   -0.21631E-06   268   0.348E-03
  94 F= -.23994013E+02 E0= -.23994013E+02  d E =-.150220E-01  mag=     1.0000
 trial-energy change:   -0.015022  1 .order   -0.015027   -0.021540   -0.008515
 step:  23.6704(harm= 23.6704)  dis= 0.05730  next Energy=   -23.996802 (dE=-0.178E-01)
 bond charge predicted
       N       E                     dE             d eps       ncg     rms          rms(c)
DAV:   1    -0.239896674481E+02    0.42647E-02   -0.15756E+01   368   0.112E+01    0.168E-01
DAV:   2    -0.239970223030E+02   -0.73549E-02   -0.75613E-02   388   0.110E+00    0.151E-01
DAV:   3    -0.239968823173E+02    0.13999E-03   -0.12695E-03   408   0.144E-01    0.104E-01
DAV:   4    -0.239966258334E+02    0.25648E-03   -0.38050E-04   352   0.630E-02    0.569E-02
DAV:   5    -0.239966361325E+02   -0.10299E-04   -0.22701E-04   268   0.484E-02
  95 F= -.23996636E+02 E0= -.23996636E+02  d E =-.176448E-01  mag=     1.0000
 curvature: -21.07 expect dE=-0.159E-01 dE for cont linesearch -0.474E-04
 trial: gam= 0.23522 g(F)=  0.754E-03 g(S)=  0.000E+00 ort = 0.776E-04 (trialstep = 0.162E+02)
 search vector abs. value=  0.939E-03
 bond charge predicted
       N       E                     dE             d eps       ncg     rms          rms(c)
DAV:   1    -0.239971970146E+02   -0.57118E-03   -0.16539E+01   368   0.115E+01    0.179E-01
DAV:   2    -0.240047801464E+02   -0.75831E-02   -0.79409E-02   392   0.111E+00    0.152E-01
DAV:   3    -0.240046325828E+02    0.14756E-03   -0.13026E-03   408   0.140E-01    0.105E-01
DAV:   4    -0.240044320493E+02    0.20053E-03   -0.36539E-04   332   0.661E-02    0.518E-02
DAV:   5    -0.240045164398E+02   -0.84391E-04   -0.18055E-04   264   0.451E-02
  96 F= -.24004516E+02 E0= -.24004516E+02  d E =-.788031E-02  mag=     1.0000
 trial-energy change:   -0.007880  1 .order   -0.008477   -0.012504   -0.004449
 step:  25.1234(harm= 25.1234)  dis= 0.03074  next Energy=   -24.006341 (dE=-0.971E-02)
 bond charge predicted
       N       E                     dE             d eps       ncg     rms          rms(c)
DAV:   1    -0.240031965051E+02    0.12355E-02   -0.50372E+00   372   0.634E+00    0.103E-01
DAV:   2    -0.240055587134E+02   -0.23622E-02   -0.24421E-02   372   0.615E-01    0.815E-02
DAV:   3    -0.240055292586E+02    0.29455E-04   -0.39907E-04   384   0.777E-02
  97 F= -.24005529E+02 E0= -.24005529E+02  d E =-.889313E-02  mag=     1.0000
 curvature: -15.27 expect dE=-0.540E-02 dE for cont linesearch -0.736E-04
 trial: gam= 0.57453 g(F)=  0.354E-03 g(S)=  0.000E+00 ort =-0.673E-04 (trialstep = 0.180E+02)
 search vector abs. value=  0.587E-03
 bond charge predicted
       N       E                     dE             d eps       ncg     rms          rms(c)
DAV:   1    -0.240032818779E+02    0.22768E-02   -0.12729E+01   368   0.101E+01    0.163E-01
DAV:   2    -0.240087871060E+02   -0.55052E-02   -0.61539E-02   388   0.974E-01    0.123E-01
DAV:   3    -0.240084734074E+02    0.31370E-03   -0.10149E-03   408   0.121E-01    0.867E-02
DAV:   4    -0.240083138231E+02    0.15958E-03   -0.34787E-04   312   0.603E-02    0.347E-02
DAV:   5    -0.240085368836E+02   -0.22306E-03   -0.12278E-04   268   0.364E-02    0.139E-02
DAV:   6    -0.240087852240E+02   -0.24834E-03   -0.12693E-05   268   0.111E-02    0.880E-03
DAV:   7    -0.240091577184E+02   -0.37249E-03   -0.25142E-05   268   0.111E-02    0.399E-03
DAV:   8    -0.240093357510E+02   -0.17803E-03   -0.48114E-06   272   0.548E-03    0.238E-03
DAV:   9    -0.240094663786E+02   -0.13063E-03   -0.35284E-06   248   0.255E-03    0.159E-03
DAV:  10    -0.240096044277E+02   -0.13805E-03   -0.61271E-06   264   0.273E-03    0.912E-04
DAV:  11    -0.240096449114E+02   -0.40484E-04   -0.33582E-06   248   0.206E-03
  98 F= -.24009645E+02 E0= -.24009645E+02  d E =-.411565E-02  mag=     1.0000
 trial-energy change:   -0.004116  1 .order   -0.003576   -0.005665   -0.001488
 step:  21.3081(harm= 24.3733)  dis= 0.01833  next Energy=   -24.009786 (dE=-0.426E-02)
 bond charge predicted
       N       E                     dE             d eps       ncg     rms          rms(c)
DAV:   1    -0.240096619977E+02   -0.57570E-04   -0.43781E-01   372   0.186E+00    0.299E-02
DAV:   2    -0.240098850991E+02   -0.22310E-03   -0.21280E-03   388   0.181E-01    0.228E-02
DAV:   3    -0.240098789753E+02    0.61238E-05   -0.31750E-05   256   0.227E-02
  99 F= -.24009879E+02 E0= -.24009879E+02  d E =-.434972E-02  mag=     1.0000
 curvature: -17.48 expect dE=-0.284E-02 dE for cont linesearch -0.107E-06
 trial: gam= 0.31925 g(F)=  0.162E-03 g(S)=  0.000E+00 ort = 0.189E-05 (trialstep = 0.186E+02)
 search vector abs. value=  0.223E-03
 bond charge predicted
       N       E                     dE             d eps       ncg     rms          rms(c)
DAV:   1    -0.240095803295E+02    0.30477E-03   -0.52118E+00   372   0.647E+00    0.110E-01
DAV:   2    -0.240117767604E+02   -0.21964E-02   -0.25451E-02   392   0.635E-01    0.877E-02
DAV:   3    -0.240116167078E+02    0.16005E-03   -0.45739E-04   408   0.846E-02    0.577E-02
DAV:   4    -0.240114956401E+02    0.12107E-03   -0.10667E-04   252   0.374E-02    0.274E-02
DAV:   5    -0.240115540572E+02   -0.58417E-04   -0.73714E-05   268   0.282E-02
 100 F= -.24011554E+02 E0= -.24011554E+02  d E =-.167508E-02  mag=     1.0000
 trial-energy change:   -0.001675  1 .order   -0.002106   -0.003036   -0.001177
 step:  30.4437(harm= 30.4437)  dis= 0.01788  next Energy=   -24.012358 (dE=-0.248E-02)
 bond charge predicted
       N       E                     dE             d eps       ncg     rms          rms(c)
DAV:   1    -0.240109042722E+02    0.59137E-03   -0.20865E+00   372   0.409E+00    0.718E-02
DAV:   2    -0.240118370255E+02   -0.93275E-03   -0.10344E-02   368   0.404E-01    0.545E-02
DAV:   3    -0.240117828011E+02    0.54224E-04   -0.16843E-04   260   0.544E-02
 101 F= -.24011783E+02 E0= -.24011783E+02  d E =-.190383E-02  mag=     1.0000
 curvature: -20.87 expect dE=-0.315E-02 dE for cont linesearch -0.464E-03
 trial: gam= 0.00000 g(F)=  0.151E-03 g(S)=  0.000E+00 ort =-0.705E-04 (trialstep = 0.210E+02)
 search vector abs. value=  0.151E-03
 bond charge predicted
       N       E                     dE             d eps       ncg     rms          rms(c)
DAV:   1    -0.240102103613E+02    0.16267E-02   -0.44955E+00   368   0.600E+00    0.126E-01
DAV:   2    -0.240124221807E+02   -0.22118E-02   -0.21977E-02   392   0.583E-01    0.969E-02
DAV:   3    -0.240124559773E+02   -0.33797E-04   -0.39090E-04   384   0.740E-02
 102 F= -.24012456E+02 E0= -.24012456E+02  d E =-.673176E-03  mag=     1.0000
 trial-energy change:   -0.000673  1 .order   -0.000527   -0.003169    0.002114
 step:  12.5973(harm= 12.5973)  dis= 0.00515  next Energy=   -24.012733 (dE=-0.950E-03)
 bond charge predicted
       N       E                     dE             d eps       ncg     rms          rms(c)
DAV:   1    -0.240125230131E+02   -0.10083E-03   -0.71597E-01   380   0.239E+00    0.401E-02
DAV:   2    -0.240129134359E+02   -0.39042E-03   -0.34874E-03   396   0.235E-01    0.326E-02
DAV:   3    -0.240129429220E+02   -0.29486E-04   -0.57556E-05   260   0.309E-02
 103 F= -.24012943E+02 E0= -.24012943E+02  d E =-.116012E-02  mag=     1.0000
 curvature:  -6.30 expect dE=-0.340E-03 dE for cont linesearch -0.416E-04
 trial: gam= 0.14841 g(F)=  0.540E-04 g(S)=  0.000E+00 ort = 0.316E-04 (trialstep = 0.193E+02)
 search vector abs. value=  0.667E-04
 reached required accuracy - stopping structural energy minimisation
Application 90924288 resources: utime ~26418s, stime ~374s, Rss ~56320, inblocks ~83751, outblocks ~158392
