14
Energy = -25.82617201 eV
Ag 7.155634312026155 11.430128304456495 8.810726466433195
Ag 9.912671570216327 11.382910445017712 9.017613490962928
Ag 11.883823143068447 13.327471936410975 8.516787321036354
Ag 8.385983144630435 8.984418640484032 8.860946311439598
Ag 12.549831156644494 10.757692465695952 9.263494185994869
Ag 9.239173986417477 6.418241926292892 8.62366808273834
Ag 8.282770447174704 10.622173066516892 11.186990979233752
Ag 11.194655418810925 12.647982028082957 11.114401441605315
Ag 9.676468368233587 11.86153402812584 13.262379979555973
Ag 11.122108196938063 8.389714662299198 9.150224514340545
Ag 8.696156129731612 9.174904922990715 13.444443126088396
Ag 10.920536362226267 9.909630625821773 11.557362973085803
Ag 9.200259162203087 7.712210181060689 11.169155589834675
Ag 13.210436203059466 8.826529601674732 7.484813059126327
