       N       E                     dE             d eps       ncg     rms          rms(c)
DAV:   1     0.496334207266E+04    0.49633E+04   -0.12226E+05  1520   0.627E+02
DAV:   2     0.769920157102E+03   -0.41934E+04   -0.37898E+04  2432   0.172E+02
DAV:   3    -0.806899075358E+02   -0.85061E+03   -0.78536E+03  1864   0.834E+01
DAV:   4    -0.113565112941E+03   -0.32875E+02   -0.32582E+02  1648   0.176E+01
DAV:   5    -0.114055200220E+03   -0.49009E+00   -0.48930E+00  1680   0.248E+00    0.483E+01
DAV:   6    -0.509194009124E+02    0.63136E+02   -0.19429E+02  1544   0.167E+01    0.273E+01
DAV:   7    -0.382586571647E+02    0.12661E+02   -0.13335E+01  1576   0.533E+00    0.160E+01
DAV:   8    -0.319762252219E+02    0.62824E+01   -0.36666E+00  1624   0.294E+00    0.821E+00
DAV:   9    -0.358348322335E+02   -0.38586E+01   -0.67101E-01  1648   0.107E+00    0.546E+00
DAV:  10    -0.507218986986E+02   -0.14887E+02   -0.40138E+00  1568   0.235E+00    0.457E+00
DAV:  11    -0.651144509543E+02   -0.14393E+02   -0.59727E+00  1584   0.327E+00    0.322E+00
DAV:  12    -0.813998722368E+02   -0.16285E+02   -0.74216E+00  1544   0.261E+00    0.308E+00
DAV:  13    -0.857043705790E+02   -0.43045E+01   -0.11263E+00  1672   0.122E+00    0.235E+00
DAV:  14    -0.937257149015E+02   -0.80213E+01   -0.25551E+00  1560   0.151E+00    0.223E+00
DAV:  15    -0.969368511261E+02   -0.32111E+01   -0.53346E-01  1616   0.977E-01    0.163E+00
DAV:  16    -0.102239692440E+03   -0.53028E+01   -0.10985E+00  1568   0.948E-01    0.166E+00
DAV:  17    -0.103623961919E+03   -0.13843E+01   -0.14094E-01  1616   0.621E-01    0.121E+00
DAV:  18    -0.106165138937E+03   -0.25412E+01   -0.35075E-01  1552   0.655E-01    0.760E-01
DAV:  19    -0.108595525438E+03   -0.24304E+01   -0.24862E-01  1568   0.501E-01    0.473E-01
DAV:  20    -0.109658910608E+03   -0.10634E+01   -0.41946E-02  1600   0.206E-01    0.339E-01
DAV:  21    -0.110703642424E+03   -0.10447E+01   -0.37874E-02  1584   0.200E-01    0.161E-01
DAV:  22    -0.111001638457E+03   -0.29800E+00   -0.76906E-03  1600   0.926E-02    0.989E-02
DAV:  23    -0.111126621649E+03   -0.12498E+00   -0.15746E-03  1336   0.516E-02    0.576E-02
DAV:  24    -0.111188294648E+03   -0.61673E-01   -0.10902E-03  1184   0.332E-02    0.381E-02
DAV:  25    -0.111205840796E+03   -0.17546E-01   -0.34008E-04  1096   0.194E-02    0.238E-02
DAV:  26    -0.111222745499E+03   -0.16905E-01   -0.26420E-04  1048   0.149E-02    0.155E-02
DAV:  27    -0.111231024927E+03   -0.82794E-02   -0.10364E-04  1048   0.790E-03    0.114E-02
DAV:  28    -0.111237749708E+03   -0.67248E-02   -0.73815E-05  1056   0.671E-03    0.681E-03
DAV:  29    -0.111241298792E+03   -0.35491E-02   -0.24543E-05  1032   0.543E-03    0.469E-03
DAV:  30    -0.111242735502E+03   -0.14367E-02   -0.63373E-06  1000   0.334E-03    0.289E-03
DAV:  31    -0.111243452419E+03   -0.71692E-03   -0.52713E-06   976   0.273E-03    0.218E-03
DAV:  32    -0.111243656598E+03   -0.20418E-03   -0.15245E-06   968   0.178E-03    0.148E-03
DAV:  33    -0.111243750551E+03   -0.93953E-04   -0.88419E-07   944   0.143E-03
   1 F= -.11124375E+03 E0= -.11124375E+03  d E =-.111244E+03  mag=     1.0027
       N       E                     dE             d eps       ncg     rms          rms(c)
DAV:   1    -0.111882837792E+03   -0.63918E+00   -0.48242E+01  1512   0.977E+00    0.918E-01
DAV:   2    -0.111904682731E+03   -0.21845E-01   -0.22835E-01  1576   0.932E-01    0.667E-01
DAV:   3    -0.111903585098E+03    0.10976E-02   -0.73673E-03  1584   0.172E-01    0.269E-01
DAV:   4    -0.111903449958E+03    0.13514E-03   -0.10375E-03  1616   0.979E-02    0.395E-02
DAV:   5    -0.111903410893E+03    0.39065E-04   -0.17440E-04  1024   0.266E-02
   2 F= -.11190341E+03 E0= -.11190341E+03  d E =-.659660E+00  mag=     1.0013
       N       E                     dE             d eps       ncg     rms          rms(c)
DAV:   1    -0.113146218902E+03   -0.12428E+01   -0.43639E+02  1504   0.295E+01    0.229E+00
DAV:   2    -0.113339920988E+03   -0.19370E+00   -0.20184E+00  1536   0.280E+00    0.182E+00
DAV:   3    -0.113332234950E+03    0.76860E-02   -0.47876E-02  1560   0.438E-01    0.947E-01
DAV:   4    -0.113330433592E+03    0.18014E-02   -0.15061E-02  1600   0.269E-01    0.121E-01
DAV:   5    -0.113330056416E+03    0.37718E-03   -0.14352E-03  1592   0.884E-02    0.743E-02
DAV:   6    -0.113330121558E+03   -0.65143E-04   -0.83906E-04  1624   0.396E-02
   3 F= -.11333012E+03 E0= -.11333012E+03  d E =-.208637E+01  mag=     1.0006
       N       E                     dE             d eps       ncg     rms          rms(c)
DAV:   1    -0.113403750928E+03   -0.73695E-01   -0.17765E+03  1504   0.604E+01    0.324E+00
DAV:   2    -0.114208796642E+03   -0.80505E+00   -0.83250E+00  1552   0.584E+00    0.303E+00
DAV:   3    -0.114199311849E+03    0.94848E-02   -0.13794E-01  1560   0.726E-01    0.219E+00
DAV:   4    -0.114178185967E+03    0.21126E-01   -0.74238E-02  1584   0.477E-01    0.734E-01
DAV:   5    -0.114178969711E+03   -0.78374E-03   -0.57232E-03  1552   0.197E-01    0.189E-01
DAV:   6    -0.114178613636E+03    0.35608E-03   -0.14673E-03  1608   0.565E-02    0.946E-02
DAV:   7    -0.114178861673E+03   -0.24804E-03   -0.37774E-04  1368   0.313E-02    0.372E-02
DAV:   8    -0.114179076253E+03   -0.21458E-03   -0.33084E-05  1008   0.106E-02    0.168E-02
DAV:   9    -0.114179274939E+03   -0.19869E-03   -0.10977E-05  1008   0.501E-03    0.582E-03
DAV:  10    -0.114179436286E+03   -0.16135E-03   -0.53751E-06   992   0.272E-03    0.326E-03
DAV:  11    -0.114179620468E+03   -0.18418E-03   -0.73590E-06   992   0.234E-03    0.277E-03
DAV:  12    -0.114179758156E+03   -0.13769E-03   -0.66403E-06  1008   0.193E-03    0.222E-03
DAV:  13    -0.114179804796E+03   -0.46640E-04   -0.94899E-07  1016   0.959E-04
   4 F= -.11417980E+03 E0= -.11417980E+03  d E =-.293605E+01  mag=     1.0000
       N       E                     dE             d eps       ncg     rms          rms(c)
DAV:   1    -0.114187144093E+03   -0.73859E-02   -0.21568E+01  1520   0.651E+00    0.365E-01
DAV:   2    -0.114197042729E+03   -0.98986E-02   -0.10420E-01  1584   0.632E-01    0.266E-01
DAV:   3    -0.114196825817E+03    0.21691E-03   -0.20947E-03  1584   0.895E-02    0.159E-01
DAV:   4    -0.114196769776E+03    0.56042E-04   -0.80655E-04  1592   0.529E-02
   5 F= -.11419677E+03 E0= -.11419677E+03  d E =-.295302E+01  mag=     1.0000
       N       E                     dE             d eps       ncg     rms          rms(c)
DAV:   1    -0.114500534518E+03   -0.30371E+00   -0.83940E+01  1504   0.129E+01    0.757E-01
DAV:   2    -0.114536605960E+03   -0.36071E-01   -0.36318E-01  1560   0.120E+00    0.532E-01
DAV:   3    -0.114535124336E+03    0.14816E-02   -0.74328E-03  1568   0.198E-01    0.337E-01
DAV:   4    -0.114534699667E+03    0.42467E-03   -0.49131E-03  1608   0.118E-01    0.662E-02
DAV:   5    -0.114534563907E+03    0.13576E-03   -0.31884E-04  1072   0.314E-02    0.292E-02
DAV:   6    -0.114534560564E+03    0.33427E-05   -0.13436E-04  1000   0.181E-02
   6 F= -.11453456E+03 E0= -.11453456E+03  d E =-.337791E+00  mag=     1.0000
       N       E                     dE             d eps       ncg     rms          rms(c)
DAV:   1    -0.114742353428E+03   -0.20779E+00   -0.76397E+02  1504   0.393E+01    0.184E+00
DAV:   2    -0.115077730495E+03   -0.33538E+00   -0.33592E+00  1560   0.369E+00    0.144E+00
DAV:   3    -0.115069931565E+03    0.77989E-02   -0.58324E-02  1568   0.557E-01    0.106E+00
DAV:   4    -0.115061889362E+03    0.80422E-02   -0.42474E-02  1584   0.307E-01    0.198E-01
DAV:   5    -0.115061722272E+03    0.16709E-03   -0.11194E-03  1568   0.694E-02    0.948E-02
DAV:   6    -0.115061577474E+03    0.14480E-03   -0.61980E-04  1624   0.373E-02    0.380E-02
DAV:   7    -0.115061632824E+03   -0.55350E-04   -0.48329E-05  1000   0.138E-02
   7 F= -.11506163E+03 E0= -.11506163E+03  d E =-.864863E+00  mag=     1.0000
       N       E                     dE             d eps       ncg     rms          rms(c)
DAV:   1    -0.115070350698E+03   -0.87732E-02   -0.79889E+01  1504   0.126E+01    0.525E-01
DAV:   2    -0.115105230394E+03   -0.34880E-01   -0.35004E-01  1592   0.118E+00    0.396E-01
DAV:   3    -0.115104275172E+03    0.95522E-03   -0.57621E-03  1568   0.171E-01    0.285E-01
DAV:   4    -0.115103442620E+03    0.83255E-03   -0.42858E-03  1576   0.973E-02    0.561E-02
DAV:   5    -0.115103444054E+03   -0.14336E-05   -0.91291E-05   960   0.206E-02
   8 F= -.11510344E+03 E0= -.11510344E+03  d E =-.906674E+00  mag=     1.0000
       N       E                     dE             d eps       ncg     rms          rms(c)
DAV:   1    -0.115102239736E+03    0.12029E-02   -0.70213E+00  1512   0.373E+00    0.155E-01
DAV:   2    -0.115105336563E+03   -0.30968E-02   -0.31251E-02  1624   0.350E-01    0.109E-01
DAV:   3    -0.115105269717E+03    0.66847E-04   -0.51452E-04  1592   0.514E-02
   9 F= -.11510527E+03 E0= -.11510527E+03  d E =-.908500E+00  mag=     1.0000
       N       E                     dE             d eps       ncg     rms          rms(c)
DAV:   1    -0.115204285056E+03   -0.98948E-01   -0.68012E+01  1504   0.116E+01    0.516E-01
DAV:   2    -0.115234625077E+03   -0.30340E-01   -0.30863E-01  1560   0.110E+00    0.414E-01
DAV:   3    -0.115233951116E+03    0.67396E-03   -0.53223E-03  1600   0.154E-01    0.274E-01
DAV:   4    -0.115233236072E+03    0.71504E-03   -0.28141E-03  1600   0.855E-02    0.695E-02
DAV:   5    -0.115233239545E+03   -0.34731E-05   -0.10815E-04  1016   0.293E-02
  10 F= -.11523324E+03 E0= -.11523324E+03  d E =-.127970E+00  mag=     1.0000
       N       E                     dE             d eps       ncg     rms          rms(c)
DAV:   1    -0.115225153643E+03    0.80824E-02   -0.27135E+02  1504   0.232E+01    0.903E-01
DAV:   2    -0.115346389522E+03   -0.12124E+00   -0.12321E+00  1552   0.221E+00    0.758E-01
DAV:   3    -0.115344350710E+03    0.20388E-02   -0.20153E-02  1584   0.294E-01    0.532E-01
DAV:   4    -0.115341121501E+03    0.32292E-02   -0.94890E-03  1624   0.155E-01    0.182E-01
DAV:   5    -0.115341178440E+03   -0.56939E-04   -0.10465E-03  1608   0.648E-02    0.623E-02
DAV:   6    -0.115341166050E+03    0.12390E-04   -0.19662E-04  1056   0.238E-02
  11 F= -.11534117E+03 E0= -.11534117E+03  d E =-.235896E+00  mag=     1.0000
       N       E                     dE             d eps       ncg     rms          rms(c)
DAV:   1    -0.115377587783E+03   -0.36409E-01   -0.31574E+01  1520   0.789E+00    0.231E-01
DAV:   2    -0.115392040229E+03   -0.14452E-01   -0.14403E-01  1608   0.749E-01    0.208E-01
DAV:   3    -0.115391859553E+03    0.18068E-03   -0.21927E-03  1632   0.903E-02    0.151E-01
DAV:   4    -0.115391466942E+03    0.39261E-03   -0.89925E-04  1584   0.459E-02    0.691E-02
DAV:   5    -0.115391510222E+03   -0.43280E-04   -0.33280E-04  1208   0.296E-02
  12 F= -.11539151E+03 E0= -.11539151E+03  d E =-.503442E-01  mag=     1.0000
       N       E                     dE             d eps       ncg     rms          rms(c)
DAV:   1    -0.115339963659E+03    0.51503E-01   -0.28524E+02  1504   0.238E+01    0.740E-01
DAV:   2    -0.115471868521E+03   -0.13190E+00   -0.13166E+00  1568   0.227E+00    0.635E-01
DAV:   3    -0.115469970459E+03    0.18981E-02   -0.20279E-02  1632   0.278E-01    0.448E-01
DAV:   4    -0.115466205647E+03    0.37648E-02   -0.78950E-03  1584   0.136E-01    0.203E-01
DAV:   5    -0.115466151191E+03    0.54457E-04   -0.27084E-03  1624   0.827E-02    0.724E-02
DAV:   6    -0.115466125576E+03    0.25614E-04   -0.20438E-04  1040   0.225E-02
  13 F= -.11546613E+03 E0= -.11546613E+03  d E =-.124960E+00  mag=     1.0000
       N       E                     dE             d eps       ncg     rms          rms(c)
DAV:   1    -0.115491068667E+03   -0.24917E-01   -0.61813E+01  1504   0.110E+01    0.280E-01
DAV:   2    -0.115519309006E+03   -0.28240E-01   -0.27842E-01  1576   0.104E+00    0.255E-01
DAV:   3    -0.115518954308E+03    0.35470E-03   -0.42930E-03  1632   0.129E-01    0.192E-01
DAV:   4    -0.115518166507E+03    0.78780E-03   -0.12275E-03  1584   0.531E-02    0.101E-01
DAV:   5    -0.115518146863E+03    0.19644E-04   -0.11945E-03  1592   0.515E-02    0.352E-02
DAV:   6    -0.115518182311E+03   -0.35448E-04   -0.34704E-05  1000   0.986E-03
  14 F= -.11551818E+03 E0= -.11551818E+03  d E =-.520567E-01  mag=     1.0000
       N       E                     dE             d eps       ncg     rms          rms(c)
DAV:   1    -0.115344789839E+03    0.17336E+00   -0.56236E+02  1504   0.334E+01    0.104E+00
DAV:   2    -0.115606787237E+03   -0.26200E+00   -0.26021E+00  1560   0.320E+00    0.773E-01
DAV:   3    -0.115602156477E+03    0.46308E-02   -0.41385E-02  1648   0.409E-01    0.546E-01
DAV:   4    -0.115595243243E+03    0.69132E-02   -0.11918E-02  1592   0.166E-01    0.260E-01
DAV:   5    -0.115594607973E+03    0.63527E-03   -0.60682E-03  1600   0.118E-01    0.769E-02
DAV:   6    -0.115594633118E+03   -0.25145E-04   -0.23799E-04  1056   0.263E-02
  15 F= -.11559463E+03 E0= -.11559463E+03  d E =-.128508E+00  mag=     1.0000
       N       E                     dE             d eps       ncg     rms          rms(c)
DAV:   1    -0.115599013346E+03   -0.44054E-02   -0.10972E+02  1504   0.147E+01    0.367E-01
DAV:   2    -0.115648916588E+03   -0.49903E-01   -0.49230E-01  1576   0.139E+00    0.334E-01
DAV:   3    -0.115648212378E+03    0.70421E-03   -0.72652E-03  1632   0.169E-01    0.252E-01
DAV:   4    -0.115646765156E+03    0.14472E-02   -0.20404E-03  1608   0.691E-02    0.135E-01
DAV:   5    -0.115646586383E+03    0.17877E-03   -0.21373E-03  1616   0.702E-02    0.446E-02
DAV:   6    -0.115646642582E+03   -0.56199E-04   -0.45835E-05  1008   0.136E-02
  16 F= -.11564664E+03 E0= -.11564664E+03  d E =-.520095E-01  mag=     1.0000
       N       E                     dE             d eps       ncg     rms          rms(c)
DAV:   1    -0.115424774589E+03    0.22181E+00   -0.59225E+02  1504   0.343E+01    0.104E+00
DAV:   2    -0.115699644917E+03   -0.27487E+00   -0.27294E+00  1592   0.328E+00    0.799E-01
DAV:   3    -0.115694846097E+03    0.47988E-02   -0.42281E-02  1624   0.416E-01    0.564E-01
DAV:   4    -0.115687464420E+03    0.73817E-02   -0.11482E-02  1592   0.164E-01    0.287E-01
DAV:   5    -0.115686465808E+03    0.99861E-03   -0.71905E-03  1584   0.131E-01    0.824E-02
DAV:   6    -0.115686582935E+03   -0.11713E-03   -0.18843E-04  1056   0.275E-02    0.493E-02
DAV:   7    -0.115686763078E+03   -0.18014E-03   -0.83073E-05  1040   0.175E-02    0.166E-02
DAV:   8    -0.115686907354E+03   -0.14428E-03   -0.22081E-05  1016   0.798E-03    0.577E-03
DAV:   9    -0.115687020642E+03   -0.11329E-03   -0.51223E-06  1016   0.406E-03    0.314E-03
DAV:  10    -0.115687117832E+03   -0.97190E-04   -0.22151E-06  1000   0.227E-03
  17 F= -.11568712E+03 E0= -.11568712E+03  d E =-.924847E-01  mag=     1.0000
       N       E                     dE             d eps       ncg     rms          rms(c)
DAV:   1    -0.115679958422E+03    0.70622E-02   -0.21871E+01  1504   0.655E+00    0.162E-01
DAV:   2    -0.115689762332E+03   -0.98039E-02   -0.96754E-02  1616   0.614E-01    0.153E-01
DAV:   3    -0.115689634502E+03    0.12783E-03   -0.14177E-03  1656   0.742E-02    0.118E-01
DAV:   4    -0.115689361275E+03    0.27323E-03   -0.46420E-04  1560   0.328E-02    0.611E-02
DAV:   5    -0.115689370485E+03   -0.92108E-05   -0.44483E-04  1600   0.325E-02
  18 F= -.11568937E+03 E0= -.11568937E+03  d E =-.947374E-01  mag=     1.0000
       N       E                     dE             d eps       ncg     rms          rms(c)
DAV:   1    -0.115677814680E+03    0.11547E-01   -0.11994E+02  1504   0.154E+01    0.388E-01
DAV:   2    -0.115731800391E+03   -0.53986E-01   -0.53626E-01  1568   0.144E+00    0.359E-01
DAV:   3    -0.115730938906E+03    0.86149E-03   -0.80138E-03  1656   0.173E-01    0.274E-01
DAV:   4    -0.115729066440E+03    0.18725E-02   -0.26312E-03  1584   0.768E-02    0.137E-01
DAV:   5    -0.115728752017E+03    0.31442E-03   -0.21585E-03  1616   0.694E-02    0.482E-02
DAV:   6    -0.115728790601E+03   -0.38584E-04   -0.47763E-05   976   0.119E-02
  19 F= -.11572879E+03 E0= -.11572879E+03  d E =-.394201E-01  mag=     1.0000
       N       E                     dE             d eps       ncg     rms          rms(c)
DAV:   1    -0.115681963022E+03    0.46789E-01   -0.13494E+02  1504   0.163E+01    0.425E-01
DAV:   2    -0.115742880955E+03   -0.60918E-01   -0.60603E-01  1568   0.154E+00    0.379E-01
DAV:   3    -0.115741925629E+03    0.95533E-03   -0.92486E-03  1640   0.187E-01    0.284E-01
DAV:   4    -0.115739940657E+03    0.19850E-02   -0.29626E-03  1600   0.819E-02    0.139E-01
DAV:   5    -0.115739731977E+03    0.20868E-03   -0.21442E-03  1584   0.696E-02    0.490E-02
DAV:   6    -0.115739818386E+03   -0.86409E-04   -0.54140E-05   984   0.127E-02
  20 F= -.11573982E+03 E0= -.11573982E+03  d E =-.504479E-01  mag=     1.0000
       N       E                     dE             d eps       ncg     rms          rms(c)
DAV:   1    -0.115708278368E+03    0.31454E-01   -0.16919E+02  1504   0.183E+01    0.429E-01
DAV:   2    -0.115783749636E+03   -0.75471E-01   -0.74474E-01  1560   0.171E+00    0.421E-01
DAV:   3    -0.115782644472E+03    0.11052E-02   -0.11077E-02  1648   0.206E-01    0.324E-01
DAV:   4    -0.115780151442E+03    0.24930E-02   -0.27938E-03  1568   0.813E-02    0.191E-01
DAV:   5    -0.115779520171E+03    0.63127E-03   -0.42979E-03  1568   0.967E-02    0.620E-02
DAV:   6    -0.115779628462E+03   -0.10829E-03   -0.56833E-05   992   0.137E-02    0.411E-02
DAV:   7    -0.115779790010E+03   -0.16155E-03   -0.60778E-05  1032   0.121E-02    0.147E-02
DAV:   8    -0.115779933977E+03   -0.14397E-03   -0.20939E-05  1024   0.759E-03    0.378E-03
DAV:   9    -0.115780062415E+03   -0.12844E-03   -0.54495E-06  1016   0.360E-03    0.202E-03
DAV:  10    -0.115780152607E+03   -0.90193E-04   -0.18659E-06  1016   0.181E-03
  21 F= -.11578015E+03 E0= -.11578015E+03  d E =-.403342E-01  mag=     1.0000
       N       E                     dE             d eps       ncg     rms          rms(c)
DAV:   1    -0.115727587097E+03    0.52475E-01   -0.15565E+02  1504   0.176E+01    0.410E-01
DAV:   2    -0.115796864397E+03   -0.69277E-01   -0.68418E-01  1568   0.164E+00    0.403E-01
DAV:   3    -0.115795817465E+03    0.10469E-02   -0.10192E-02  1640   0.198E-01    0.310E-01
DAV:   4    -0.115793477156E+03    0.23403E-02   -0.25821E-03  1584   0.780E-02    0.183E-01
DAV:   5    -0.115792800555E+03    0.67660E-03   -0.39977E-03  1576   0.932E-02    0.591E-02
DAV:   6    -0.115792865387E+03   -0.64832E-04   -0.53383E-05   976   0.133E-02
  22 F= -.11579287E+03 E0= -.11579287E+03  d E =-.530470E-01  mag=     1.0000
       N       E                     dE             d eps       ncg     rms          rms(c)
DAV:   1    -0.115765194692E+03    0.27606E-01   -0.17550E+02  1504   0.186E+01    0.424E-01
DAV:   2    -0.115843207409E+03   -0.78013E-01   -0.77254E-01  1568   0.174E+00    0.434E-01
DAV:   3    -0.115842162414E+03    0.10450E-02   -0.11120E-02  1648   0.201E-01    0.338E-01
DAV:   4    -0.115839573396E+03    0.25890E-02   -0.29415E-03  1568   0.827E-02    0.202E-01
DAV:   5    -0.115838972624E+03    0.60077E-03   -0.44229E-03  1568   0.979E-02    0.688E-02
DAV:   6    -0.115839069382E+03   -0.96758E-04   -0.52453E-05  1000   0.126E-02
  23 F= -.11583907E+03 E0= -.11583907E+03  d E =-.462040E-01  mag=     1.0000
       N       E                     dE             d eps       ncg     rms          rms(c)
DAV:   1    -0.115756893876E+03    0.82079E-01   -0.23069E+02  1504   0.214E+01    0.494E-01
DAV:   2    -0.115859929259E+03   -0.10304E+00   -0.10179E+00  1576   0.200E+00    0.495E-01
DAV:   3    -0.115858552891E+03    0.13764E-02   -0.14593E-02  1648   0.230E-01    0.383E-01
DAV:   4    -0.115855219261E+03    0.33336E-02   -0.39828E-03  1560   0.960E-02    0.224E-01
DAV:   5    -0.115854514890E+03    0.70437E-03   -0.53236E-03  1552   0.108E-01    0.758E-02
DAV:   6    -0.115854610826E+03   -0.95936E-04   -0.65475E-05   992   0.141E-02
  24 F= -.11585461E+03 E0= -.11585461E+03  d E =-.617454E-01  mag=     1.0000
       N       E                     dE             d eps       ncg     rms          rms(c)
DAV:   1    -0.115844036042E+03    0.10479E-01   -0.10168E+02  1504   0.142E+01    0.301E-01
DAV:   2    -0.115889192227E+03   -0.45156E-01   -0.44402E-01  1568   0.132E+00    0.311E-01
DAV:   3    -0.115888608468E+03    0.58376E-03   -0.64976E-03  1640   0.154E-01    0.246E-01
DAV:   4    -0.115887184065E+03    0.14244E-02   -0.14414E-03  1568   0.574E-02    0.152E-01
DAV:   5    -0.115886770725E+03    0.41334E-03   -0.29843E-03  1552   0.798E-02    0.493E-02
DAV:   6    -0.115886843826E+03   -0.73101E-04   -0.27772E-05   984   0.956E-03
  25 F= -.11588684E+03 E0= -.11588684E+03  d E =-.322330E-01  mag=     1.0000
       N       E                     dE             d eps       ncg     rms          rms(c)
DAV:   1    -0.115521916842E+03    0.36485E+00   -0.92801E+02  1504   0.433E+01    0.117E+00
DAV:   2    -0.115943295503E+03   -0.42138E+00   -0.41509E+00  1576   0.406E+00    0.979E-01
DAV:   3    -0.115935985388E+03    0.73101E-02   -0.61761E-02  1616   0.483E-01    0.714E-01
DAV:   4    -0.115923595970E+03    0.12389E-01   -0.15239E-02  1568   0.186E-01    0.408E-01
DAV:   5    -0.115920621302E+03    0.29747E-02   -0.14692E-02  1560   0.179E-01    0.118E-01
DAV:   6    -0.115920850470E+03   -0.22917E-03   -0.17210E-04  1048   0.251E-02    0.709E-02
DAV:   7    -0.115921051702E+03   -0.20123E-03   -0.74027E-05  1008   0.143E-02    0.249E-02
DAV:   8    -0.115921150753E+03   -0.99051E-04   -0.21229E-05  1008   0.760E-03
  26 F= -.11592115E+03 E0= -.11592115E+03  d E =-.665399E-01  mag=     1.0000
       N       E                     dE             d eps       ncg     rms          rms(c)
DAV:   1    -0.115896871680E+03    0.24180E-01   -0.15026E+02  1504   0.173E+01    0.375E-01
DAV:   2    -0.115963371125E+03   -0.66499E-01   -0.65282E-01  1576   0.160E+00    0.385E-01
DAV:   3    -0.115962391620E+03    0.97950E-03   -0.91994E-03  1632   0.185E-01    0.304E-01
DAV:   4    -0.115960146618E+03    0.22450E-02   -0.23680E-03  1560   0.731E-02    0.183E-01
DAV:   5    -0.115959496821E+03    0.64980E-03   -0.42122E-03  1560   0.952E-02    0.586E-02
DAV:   6    -0.115959553436E+03   -0.56614E-04   -0.40739E-05   992   0.117E-02
  27 F= -.11595955E+03 E0= -.11595955E+03  d E =-.384027E-01  mag=     1.0000
       N       E                     dE             d eps       ncg     rms          rms(c)
DAV:   1    -0.115384452667E+03    0.57504E+00   -0.13815E+03  1504   0.531E+01    0.162E+00
DAV:   2    -0.116020074676E+03   -0.63562E+00   -0.62812E+00  1608   0.503E+00    0.124E+00
DAV:   3    -0.116008211757E+03    0.11863E-01   -0.94828E-02  1616   0.616E-01    0.865E-01
DAV:   4    -0.115990936596E+03    0.17275E-01   -0.21981E-02  1592   0.224E-01    0.502E-01
DAV:   5    -0.115986752487E+03    0.41841E-02   -0.19033E-02  1576   0.205E-01    0.142E-01
DAV:   6    -0.115986978435E+03   -0.22595E-03   -0.24482E-04  1072   0.304E-02    0.819E-02
DAV:   7    -0.115987127262E+03   -0.14883E-03   -0.80266E-05  1000   0.164E-02    0.294E-02
DAV:   8    -0.115987180441E+03   -0.53179E-04   -0.19112E-05  1024   0.734E-03
  28 F= -.11598718E+03 E0= -.11598718E+03  d E =-.660297E-01  mag=     1.0000
       N       E                     dE             d eps       ncg     rms          rms(c)
DAV:   1    -0.115943769544E+03    0.43358E-01   -0.12240E+02  1504   0.156E+01    0.333E-01
DAV:   2    -0.115997747717E+03   -0.53978E-01   -0.53105E-01  1584   0.144E+00    0.347E-01
DAV:   3    -0.115997056821E+03    0.69090E-03   -0.77356E-03  1640   0.168E-01    0.276E-01
DAV:   4    -0.115995265137E+03    0.17917E-02   -0.18777E-03  1616   0.653E-02    0.168E-01
DAV:   5    -0.115994748189E+03    0.51695E-03   -0.35675E-03  1576   0.874E-02    0.556E-02
DAV:   6    -0.115994770843E+03   -0.22654E-04   -0.35266E-05   992   0.108E-02
  29 F= -.11599477E+03 E0= -.11599477E+03  d E =-.736201E-01  mag=     1.0000
       N       E                     dE             d eps       ncg     rms          rms(c)
DAV:   1    -0.116004536100E+03   -0.97879E-02   -0.87896E+01  1504   0.132E+01    0.329E-01
DAV:   2    -0.116043825228E+03   -0.39289E-01   -0.38745E-01  1552   0.123E+00    0.315E-01
DAV:   3    -0.116043284609E+03    0.54062E-03   -0.57763E-03  1648   0.145E-01    0.243E-01
DAV:   4    -0.116041907224E+03    0.13774E-02   -0.21371E-03  1560   0.694E-02    0.122E-01
DAV:   5    -0.116041745701E+03    0.16152E-03   -0.16013E-03  1600   0.608E-02    0.457E-02
DAV:   6    -0.116041728663E+03    0.17039E-04   -0.44418E-05   976   0.112E-02
  30 F= -.11604173E+03 E0= -.11604173E+03  d E =-.469578E-01  mag=     1.0000
       N       E                     dE             d eps       ncg     rms          rms(c)
DAV:   1    -0.115937875218E+03    0.10387E+00   -0.31376E+02  1504   0.250E+01    0.647E-01
DAV:   2    -0.116078832420E+03   -0.14096E+00   -0.13959E+00  1536   0.234E+00    0.591E-01
DAV:   3    -0.116076776810E+03    0.20556E-02   -0.20872E-02  1624   0.277E-01    0.447E-01
DAV:   4    -0.116072173415E+03    0.46034E-02   -0.69651E-03  1600   0.126E-01    0.230E-01
DAV:   5    -0.116071585874E+03    0.58754E-03   -0.50729E-03  1600   0.108E-01    0.790E-02
DAV:   6    -0.116071574550E+03    0.11324E-04   -0.12550E-04  1008   0.189E-02
  31 F= -.11607157E+03 E0= -.11607157E+03  d E =-.768037E-01  mag=     1.0000
       N       E                     dE             d eps       ncg     rms          rms(c)
DAV:   1    -0.116055615095E+03    0.15971E-01   -0.13149E+02  1504   0.161E+01    0.383E-01
DAV:   2    -0.116114813083E+03   -0.59198E-01   -0.58614E-01  1568   0.151E+00    0.361E-01
DAV:   3    -0.116114001022E+03    0.81206E-03   -0.87666E-03  1632   0.181E-01    0.276E-01
DAV:   4    -0.116112152076E+03    0.18489E-02   -0.23251E-03  1616   0.729E-02    0.155E-01
DAV:   5    -0.116111788831E+03    0.36324E-03   -0.29112E-03  1576   0.794E-02    0.516E-02
DAV:   6    -0.116111809832E+03   -0.21000E-04   -0.46791E-05   984   0.114E-02
  32 F= -.11611181E+03 E0= -.11611181E+03  d E =-.402353E-01  mag=     1.0000
       N       E                     dE             d eps       ncg     rms          rms(c)
DAV:   1    -0.116039506275E+03    0.72283E-01   -0.20574E+02  1504   0.202E+01    0.500E-01
DAV:   2    -0.116132003978E+03   -0.92498E-01   -0.91933E-01  1560   0.190E+00    0.454E-01
DAV:   3    -0.116130553228E+03    0.14507E-02   -0.13787E-02  1624   0.228E-01    0.341E-01
DAV:   4    -0.116127632743E+03    0.29205E-02   -0.38937E-03  1576   0.940E-02    0.185E-01
DAV:   5    -0.116127117430E+03    0.51531E-03   -0.39489E-03  1568   0.928E-02    0.605E-02
DAV:   6    -0.116127132630E+03   -0.15199E-04   -0.74090E-05   968   0.142E-02
  33 F= -.11612713E+03 E0= -.11612713E+03  d E =-.555581E-01  mag=     1.0000
       N       E                     dE             d eps       ncg     rms          rms(c)
DAV:   1    -0.116113157428E+03    0.13960E-01   -0.10850E+02  1504   0.146E+01    0.384E-01
DAV:   2    -0.116161883887E+03   -0.48726E-01   -0.48312E-01  1560   0.137E+00    0.353E-01
DAV:   3    -0.116161118861E+03    0.76503E-03   -0.69871E-03  1624   0.161E-01    0.264E-01
DAV:   4    -0.116159512551E+03    0.16063E-02   -0.28294E-03  1568   0.803E-02    0.130E-01
DAV:   5    -0.116159462019E+03    0.50531E-04   -0.16457E-03  1616   0.614E-02    0.489E-02
DAV:   6    -0.116159481094E+03   -0.19075E-04   -0.46893E-05   936   0.111E-02
  34 F= -.11615948E+03 E0= -.11615948E+03  d E =-.323485E-01  mag=     1.0000
       N       E                     dE             d eps       ncg     rms          rms(c)
DAV:   1    -0.116107191878E+03    0.52270E-01   -0.13231E+02  1504   0.162E+01    0.434E-01
DAV:   2    -0.116166854224E+03   -0.59662E-01   -0.59026E-01  1568   0.152E+00    0.392E-01
DAV:   3    -0.116165958688E+03    0.89554E-03   -0.88886E-03  1600   0.181E-01    0.290E-01
DAV:   4    -0.116164008516E+03    0.19502E-02   -0.34894E-03  1568   0.893E-02    0.140E-01
DAV:   5    -0.116163935634E+03    0.72881E-04   -0.18896E-03  1592   0.661E-02    0.526E-02
DAV:   6    -0.116163937459E+03   -0.18243E-05   -0.62185E-05   952   0.127E-02
  35 F= -.11616394E+03 E0= -.11616394E+03  d E =-.368048E-01  mag=     1.0000
       N       E                     dE             d eps       ncg     rms          rms(c)
DAV:   1    -0.116159516257E+03    0.44194E-02   -0.15970E+01  1504   0.561E+00    0.140E-01
DAV:   2    -0.116166628926E+03   -0.71127E-02   -0.70145E-02  1592   0.522E-01    0.137E-01
DAV:   3    -0.116166539827E+03    0.89100E-04   -0.10151E-03  1648   0.607E-02    0.106E-01
DAV:   4    -0.116166324810E+03    0.21502E-03   -0.41475E-04  1520   0.309E-02    0.542E-02
DAV:   5    -0.116166356915E+03   -0.32105E-04   -0.29322E-04  1104   0.270E-02
  36 F= -.11616636E+03 E0= -.11616636E+03  d E =-.392243E-01  mag=     1.0000
       N       E                     dE             d eps       ncg     rms          rms(c)
DAV:   1    -0.116153238405E+03    0.13086E-01   -0.86321E+01  1504   0.131E+01    0.320E-01
DAV:   2    -0.116191214009E+03   -0.37976E-01   -0.37597E-01  1544   0.121E+00    0.307E-01
DAV:   3    -0.116190629152E+03    0.58486E-03   -0.56567E-03  1632   0.142E-01    0.238E-01
DAV:   4    -0.116189264860E+03    0.13643E-02   -0.21237E-03  1584   0.692E-02    0.118E-01
DAV:   5    -0.116189140598E+03    0.12426E-03   -0.15860E-03  1576   0.598E-02    0.443E-02
DAV:   6    -0.116189140694E+03   -0.96210E-07   -0.31472E-05   976   0.937E-03
  37 F= -.11618914E+03 E0= -.11618914E+03  d E =-.227838E-01  mag=     1.0000
       N       E                     dE             d eps       ncg     rms          rms(c)
DAV:   1    -0.116181445240E+03    0.76954E-02   -0.23852E+01  1504   0.688E+00    0.168E-01
DAV:   2    -0.116191963335E+03   -0.10518E-01   -0.10410E-01  1552   0.636E-01    0.159E-01
DAV:   3    -0.116191819902E+03    0.14343E-03   -0.15541E-03  1608   0.745E-02    0.122E-01
DAV:   4    -0.116191471319E+03    0.34858E-03   -0.57384E-04  1576   0.361E-02    0.604E-02
DAV:   5    -0.116191449754E+03    0.21565E-04   -0.41542E-04  1568   0.307E-02
  38 F= -.11619145E+03 E0= -.11619145E+03  d E =-.250928E-01  mag=     1.0000
       N       E                     dE             d eps       ncg     rms          rms(c)
DAV:   1    -0.116165446531E+03    0.26025E-01   -0.10471E+02  1504   0.144E+01    0.342E-01
DAV:   2    -0.116212249447E+03   -0.46803E-01   -0.46105E-01  1552   0.134E+00    0.322E-01
DAV:   3    -0.116211606502E+03    0.64294E-03   -0.68239E-03  1624   0.157E-01    0.249E-01
DAV:   4    -0.116210103421E+03    0.15031E-02   -0.21837E-03  1592   0.708E-02    0.130E-01
DAV:   5    -0.116209921638E+03    0.18178E-03   -0.20362E-03  1584   0.680E-02    0.463E-02
DAV:   6    -0.116209919043E+03    0.25947E-05   -0.38385E-05   952   0.110E-02
  39 F= -.11620992E+03 E0= -.11620992E+03  d E =-.184693E-01  mag=     1.0000
       N       E                     dE             d eps       ncg     rms          rms(c)
DAV:   1    -0.116199679039E+03    0.10243E-01   -0.28973E+01  1504   0.757E+00    0.175E-01
DAV:   2    -0.116212533936E+03   -0.12855E-01   -0.12712E-01  1544   0.702E-01    0.170E-01
DAV:   3    -0.116212367909E+03    0.16603E-03   -0.18698E-03  1608   0.821E-02    0.133E-01
DAV:   4    -0.116211951661E+03    0.41625E-03   -0.60374E-04  1560   0.372E-02    0.703E-02
DAV:   5    -0.116211910218E+03    0.41443E-04   -0.62310E-04  1544   0.375E-02
  40 F= -.11621191E+03 E0= -.11621191E+03  d E =-.204605E-01  mag=     1.0000
       N       E                     dE             d eps       ncg     rms          rms(c)
DAV:   1    -0.116181204608E+03    0.30747E-01   -0.11202E+02  1504   0.149E+01    0.343E-01
DAV:   2    -0.116230541883E+03   -0.49337E-01   -0.48600E-01  1568   0.138E+00    0.328E-01
DAV:   3    -0.116229817080E+03    0.72480E-03   -0.71412E-03  1608   0.163E-01    0.256E-01
DAV:   4    -0.116228212458E+03    0.16046E-02   -0.20666E-03  1600   0.691E-02    0.140E-01
DAV:   5    -0.116227909531E+03    0.30293E-03   -0.25207E-03  1576   0.759E-02    0.466E-02
DAV:   6    -0.116227912975E+03   -0.34434E-05   -0.36691E-05   960   0.116E-02
  41 F= -.11622791E+03 E0= -.11622791E+03  d E =-.160028E-01  mag=     1.0000
       N       E                     dE             d eps       ncg     rms          rms(c)
DAV:   1    -0.116223347477E+03    0.45621E-02   -0.12466E+01  1504   0.497E+00    0.112E-01
DAV:   2    -0.116228845125E+03   -0.54976E-02   -0.54066E-02  1552   0.458E-01    0.108E-01
DAV:   3    -0.116228774200E+03    0.70925E-04   -0.79024E-04  1592   0.542E-02
  42 F= -.11622877E+03 E0= -.11622877E+03  d E =-.168640E-01  mag=     1.0000
       N       E                     dE             d eps       ncg     rms          rms(c)
DAV:   1    -0.116195631735E+03    0.33213E-01   -0.11121E+02  1504   0.148E+01    0.357E-01
DAV:   2    -0.116244464598E+03   -0.48833E-01   -0.48613E-01  1576   0.139E+00    0.373E-01
DAV:   3    -0.116243734037E+03    0.73056E-03   -0.74486E-03  1648   0.167E-01    0.291E-01
DAV:   4    -0.116241775746E+03    0.19583E-02   -0.25392E-03  1600   0.759E-02    0.168E-01
DAV:   5    -0.116241425014E+03    0.35073E-03   -0.31226E-03  1584   0.824E-02    0.620E-02
DAV:   6    -0.116241426762E+03   -0.17485E-05   -0.52884E-05   984   0.121E-02
  43 F= -.11624143E+03 E0= -.11624143E+03  d E =-.126526E-01  mag=     1.0000
       N       E                     dE             d eps       ncg     rms          rms(c)
DAV:   1    -0.116238818730E+03    0.26063E-02   -0.67323E+00  1504   0.364E+00    0.880E-02
DAV:   2    -0.116241843085E+03   -0.30244E-02   -0.29874E-02  1600   0.343E-01    0.881E-02
DAV:   3    -0.116241813265E+03    0.29820E-04   -0.44020E-04  1496   0.414E-02
  44 F= -.11624181E+03 E0= -.11624181E+03  d E =-.130391E-01  mag=     1.0000
       N       E                     dE             d eps       ncg     rms          rms(c)
DAV:   1    -0.116206695441E+03    0.35148E-01   -0.11218E+02  1504   0.149E+01    0.347E-01
DAV:   2    -0.116256739775E+03   -0.50044E-01   -0.49651E-01  1592   0.140E+00    0.372E-01
DAV:   3    -0.116256097363E+03    0.64241E-03   -0.74784E-03  1608   0.170E-01    0.287E-01
DAV:   4    -0.116254281063E+03    0.18163E-02   -0.20876E-03  1592   0.696E-02    0.178E-01
DAV:   5    -0.116253851548E+03    0.42952E-03   -0.34688E-03  1568   0.861E-02    0.645E-02
DAV:   6    -0.116253868700E+03   -0.17153E-04   -0.45112E-05   976   0.113E-02
  45 F= -.11625387E+03 E0= -.11625387E+03  d E =-.120554E-01  mag=     1.0000
       N       E                     dE             d eps       ncg     rms          rms(c)
DAV:   1    -0.116247645562E+03    0.62060E-02   -0.15358E+01  1504   0.550E+00    0.127E-01
DAV:   2    -0.116254552305E+03   -0.69067E-02   -0.68514E-02  1592   0.520E-01    0.133E-01
DAV:   3    -0.116254487034E+03    0.65272E-04   -0.10302E-03  1576   0.637E-02    0.100E-01
DAV:   4    -0.116254285215E+03    0.20182E-03   -0.23221E-04   968   0.244E-02    0.650E-02
DAV:   5    -0.116254261740E+03    0.23475E-04   -0.53118E-04  1584   0.356E-02
  46 F= -.11625426E+03 E0= -.11625426E+03  d E =-.124485E-01  mag=     1.0000
       N       E                     dE             d eps       ncg     rms          rms(c)
DAV:   1    -0.116231080237E+03    0.23205E-01   -0.77515E+01  1504   0.124E+01    0.278E-01
DAV:   2    -0.116265489997E+03   -0.34410E-01   -0.33951E-01  1576   0.115E+00    0.274E-01
DAV:   3    -0.116265045002E+03    0.44499E-03   -0.51025E-03  1616   0.140E-01    0.212E-01
DAV:   4    -0.116263979090E+03    0.10659E-02   -0.11739E-03  1584   0.521E-02    0.127E-01
DAV:   5    -0.116263683330E+03    0.29576E-03   -0.21204E-03  1584   0.673E-02    0.412E-02
DAV:   6    -0.116263695333E+03   -0.12004E-04   -0.23836E-05   936   0.862E-03
  47 F= -.11626370E+03 E0= -.11626370E+03  d E =-.943359E-02  mag=     1.0000
       N       E                     dE             d eps       ncg     rms          rms(c)
DAV:   1    -0.116254844221E+03    0.88391E-02   -0.23286E+01  1504   0.678E+00    0.150E-01
DAV:   2    -0.116265118579E+03   -0.10274E-01   -0.10174E-01  1552   0.631E-01    0.150E-01
DAV:   3    -0.116264981987E+03    0.13659E-03   -0.15275E-03  1600   0.768E-02    0.117E-01
DAV:   4    -0.116264662811E+03    0.31918E-03   -0.33255E-04  1280   0.283E-02    0.718E-02
DAV:   5    -0.116264583117E+03    0.79695E-04   -0.75098E-04  1560   0.412E-02
  48 F= -.11626458E+03 E0= -.11626458E+03  d E =-.103214E-01  mag=     1.0000
       N       E                     dE             d eps       ncg     rms          rms(c)
DAV:   1    -0.116258076732E+03    0.65861E-02   -0.30851E+01  1504   0.782E+00    0.202E-01
DAV:   2    -0.116271601989E+03   -0.13525E-01   -0.13483E-01  1560   0.725E-01    0.181E-01
DAV:   3    -0.116271397187E+03    0.20480E-03   -0.19981E-03  1592   0.883E-02    0.135E-01
DAV:   4    -0.116270990014E+03    0.40717E-03   -0.72482E-04  1584   0.413E-02    0.665E-02
DAV:   5    -0.116270978442E+03    0.11572E-04   -0.48095E-04  1560   0.348E-02
  49 F= -.11627098E+03 E0= -.11627098E+03  d E =-.639533E-02  mag=     1.0000
       N       E                     dE             d eps       ncg     rms          rms(c)
DAV:   1    -0.116269973124E+03    0.10169E-02   -0.28790E+00  1504   0.239E+00    0.661E-02
DAV:   2    -0.116271251392E+03   -0.12783E-02   -0.12781E-02  1592   0.222E-01    0.544E-02
DAV:   3    -0.116271238690E+03    0.12702E-04   -0.16732E-04   888   0.272E-02
  50 F= -.11627124E+03 E0= -.11627124E+03  d E =-.665557E-02  mag=     1.0000
       N       E                     dE             d eps       ncg     rms          rms(c)
DAV:   1    -0.116269764202E+03    0.14872E-02   -0.95498E+00  1504   0.435E+00    0.157E-01
DAV:   2    -0.116273845083E+03   -0.40809E-02   -0.41845E-02  1544   0.399E-01    0.123E-01
DAV:   3    -0.116273757931E+03    0.87152E-04   -0.71345E-04  1640   0.499E-02
  51 F= -.11627376E+03 E0= -.11627376E+03  d E =-.251924E-02  mag=     1.0000
       N       E                     dE             d eps       ncg     rms          rms(c)
DAV:   1    -0.116273716149E+03    0.12893E-03   -0.57528E-01  1528   0.106E+00    0.273E-02
DAV:   2    -0.116273976026E+03   -0.25988E-03   -0.25395E-03  1592   0.100E-01    0.231E-02
DAV:   3    -0.116273974546E+03    0.14797E-05   -0.38676E-05   944   0.132E-02
  52 F= -.11627397E+03 E0= -.11627397E+03  d E =-.273586E-02  mag=     1.0000
       N       E                     dE             d eps       ncg     rms          rms(c)
DAV:   1    -0.116274090930E+03   -0.11490E-03   -0.60632E+00  1504   0.347E+00    0.797E-02
DAV:   2    -0.116276734370E+03   -0.26434E-02   -0.26258E-02  1600   0.320E-01    0.796E-02
DAV:   3    -0.116276698739E+03    0.35630E-04   -0.37214E-04  1192   0.380E-02
  53 F= -.11627670E+03 E0= -.11627670E+03  d E =-.272419E-02  mag=     1.0000
       N       E                     dE             d eps       ncg     rms          rms(c)
DAV:   1    -0.116276857682E+03   -0.12331E-03   -0.69641E-01  1544   0.118E+00    0.461E-02
DAV:   2    -0.116277111985E+03   -0.25430E-03   -0.27342E-03  1608   0.104E-01    0.419E-02
DAV:   3    -0.116277092954E+03    0.19032E-04   -0.39747E-05   904   0.118E-02
  54 F= -.11627709E+03 E0= -.11627709E+03  d E =-.311841E-02  mag=     1.0000
       N       E                     dE             d eps       ncg     rms          rms(c)
DAV:   1    -0.116277116399E+03   -0.44134E-05   -0.39994E+00  1504   0.282E+00    0.855E-02
DAV:   2    -0.116278865102E+03   -0.17487E-02   -0.17618E-02  1560   0.261E-01    0.737E-02
DAV:   3    -0.116278833762E+03    0.31340E-04   -0.23490E-04   968   0.309E-02
  55 F= -.11627883E+03 E0= -.11627883E+03  d E =-.174081E-02  mag=     1.0000
       N       E                     dE             d eps       ncg     rms          rms(c)
DAV:   1    -0.116278757036E+03    0.10807E-03   -0.41587E-03  1544   0.884E-02    0.148E-02
DAV:   2    -0.116278761808E+03   -0.47717E-05   -0.27717E-05   912   0.118E-02
  56 F= -.11627876E+03 E0= -.11627876E+03  d E =-.166885E-02  mag=     1.0000
