    6    6 1000    2
  0.7915822E+03  0.1680928E-08  0.1680928E-08  0.1680928E-08  0.1000000E-15
  1.000000000000000E-004
  CAR 
 unknown system                          
     66      1     44
 
  0.0000000E+00  0.0000000E+00  0.0000000E+00  0.1000000E+01
    1       -8.643931     -8.643931
    2       -8.638801     -8.638801
    3       -8.580233     -8.580233
    4       -8.576709     -8.576709
    5       -8.479935     -8.479935
    6       -8.177658     -8.177658
    7       -7.881603     -7.881603
    8       -7.767488     -7.767488
    9       -7.743169     -7.743169
   10       -7.665321     -7.665321
   11       -7.652980     -7.652980
   12       -7.449217     -7.449217
   13       -7.447913     -7.447913
   14       -7.410845     -7.410845
   15       -7.388112     -7.388112
   16       -6.979173     -6.979173
   17       -6.973371     -6.973371
   18       -6.947947     -6.947947
   19       -6.942709     -6.942709
   20       -6.936586     -6.936586
   21       -6.908327     -6.908327
   22       -6.907096     -6.907096
   23       -6.811938     -6.811938
   24       -6.805322     -6.805323
   25       -6.740635     -6.740635
   26       -6.708713     -6.708713
   27       -6.706982     -6.706982
   28       -6.553182     -6.553182
   29       -6.488977     -6.488977
   30       -6.412979     -6.412979
   31       -6.411340     -6.411340
   32       -4.650820     -4.650820
   33       -4.649885     -4.649885
   34       -2.796177     -2.796176
   35       -2.529398     -2.529398
   36       -2.511648     -2.511648
   37       -1.624100     -1.624099
   38       -0.820693     -0.820692
   39       -0.817445     -0.817445
   40       -0.212939     -0.212938
   41       -0.203818     -0.203818
   42       -0.089400     -0.089398
   43       -0.070378     -0.070377
   44        0.041711      0.041717
