   19   19 1000    2
  0.4330921E+03  0.2018884E-08  0.2018884E-08  0.2018884E-08  0.1000000E-15
  1.000000000000000E-004
  CAR 
 unknown system                          
    209      1    136
 
  0.0000000E+00  0.0000000E+00  0.0000000E+00  0.1000000E+01
    1       -9.589848     -9.562864
    2       -9.208069     -9.193726
    3       -9.169198     -9.149722
    4       -9.144548     -9.124009
    5       -8.971840     -8.954144
    6       -8.954166     -8.942315
    7       -8.932347     -8.913295
    8       -8.853663     -8.837759
    9       -8.821851     -8.807548
   10       -8.815091     -8.796828
   11       -8.707881     -8.684669
   12       -8.665274     -8.642708
   13       -8.604528     -8.588033
   14       -8.595235     -8.575882
   15       -8.566011     -8.548653
   16       -8.514461     -8.499197
   17       -8.510322     -8.491994
   18       -8.458830     -8.441816
   19       -8.405837     -8.390155
   20       -8.391712     -8.374239
   21       -8.363647     -8.345002
   22       -8.328886     -8.309808
   23       -8.310505     -8.294864
   24       -8.272766     -8.256327
   25       -8.244637     -8.231307
   26       -8.214534     -8.200879
   27       -8.176801     -8.164579
   28       -8.146983     -8.135807
   29       -8.143249     -8.130015
   30       -8.101511     -8.086579
   31       -8.077258     -8.056066
   32       -8.032495     -8.018656
   33       -7.982393     -7.967723
   34       -7.972322     -7.959063
   35       -7.934260     -7.917481
   36       -7.904648     -7.886275
   37       -7.880443     -7.861776
   38       -7.850605     -7.836901
   39       -7.815351     -7.804542
   40       -7.761055     -7.750546
   41       -7.730225     -7.714863
   42       -7.712519     -7.694507
   43       -7.664122     -7.649168
   44       -7.656807     -7.643147
   45       -7.602370     -7.584435
   46       -7.565114     -7.549063
   47       -7.489688     -7.477298
   48       -7.480335     -7.461698
   49       -7.428276     -7.416043
   50       -7.374915     -7.358819
   51       -7.333808     -7.318331
   52       -7.290506     -7.276435
   53       -7.271615     -7.253636
   54       -7.237771     -7.227892
   55       -7.203362     -7.188382
   56       -7.158720     -7.143711
   57       -7.143714     -7.129736
   58       -7.138725     -7.116404
   59       -7.116694     -7.104390
   60       -7.102297     -7.085402
   61       -7.089096     -7.077830
   62       -7.072095     -7.052659
   63       -7.049928     -7.041098
   64       -7.042497     -7.031739
   65       -7.039434     -7.029079
   66       -7.017910     -6.998923
   67       -6.993031     -6.979685
   68       -6.977213     -6.965695
   69       -6.966293     -6.953466
   70       -6.957232     -6.946969
   71       -6.939297     -6.928958
   72       -6.934742     -6.921837
   73       -6.903175     -6.887718
   74       -6.878137     -6.866846
   75       -6.866607     -6.854518
   76       -6.855680     -6.840370
   77       -6.825671     -6.808960
   78       -6.787889     -6.775883
   79       -6.770022     -6.759299
   80       -6.766134     -6.748493
   81       -6.740856     -6.734720
   82       -6.707698     -6.697160
   83       -6.687012     -6.677464
   84       -6.670419     -6.662224
   85       -6.648561     -6.636201
   86       -6.626904     -6.612027
   87       -6.604192     -6.593282
   88       -6.578035     -6.567122
   89       -6.555943     -6.542664
   90       -6.541260     -6.526571
   91       -6.501037     -6.485410
   92       -6.471559     -6.459595
   93       -6.453968     -6.439397
   94       -6.425185     -6.411153
   95       -6.413983     -6.397030
   96       -6.349345     -6.334283
   97       -6.314107     -6.298573
   98       -6.190384     -6.172195
   99       -5.910083     -5.883665
  100       -5.293235     -5.215624
  101       -4.894947     -4.857767
  102       -4.439345     -4.411465
  103       -4.130288     -4.097964
  104       -3.888615     -3.858280
  105       -3.451625     -3.290449
  106       -3.187306     -3.145461
  107       -3.018252     -2.971441
  108       -2.640634     -2.597449
  109       -2.555072     -2.511040
  110       -2.319920     -2.283689
  111       -2.229958     -2.200246
  112       -1.807388     -1.779972
  113       -1.611848     -1.498946
  114       -1.482423     -1.424166
  115       -1.368021     -1.248400
  116       -1.183579     -1.130704
  117       -1.072889     -1.013067
  118       -0.981269     -0.925433
  119       -0.791860     -0.725224
  120       -0.682427     -0.640556
  121       -0.627035     -0.592890
  122       -0.389914     -0.358049
  123       -0.239089     -0.192438
  124       -0.098233      0.049365
  125        0.223176      0.259756
  126        0.344522      0.374422
  127        0.464930      0.498437
  128        0.499654      0.537990
  129        0.612398      0.667058
  130        0.640905      0.674751
  131        0.665827      0.693762
  132        0.687620      0.709739
  133        0.703961      0.758544
  134        0.730339      0.782333
  135        0.805656      0.844572
  136        0.840033      0.899807
