 running on   32 total cores
 distrk:  each k-point on   32 cores,    1 groups
 distr:  one band on    8 cores,    4 groups
 using from now: INCAR     
 vasp.5.3.5 31Mar14 (build Feb 01 2018 12:10:03) gamma-only                     
  
 POSCAR found type information on POSCAR  Ag
 POSCAR found :  1 types and      12 ions
 scaLAPACK will be used
 LDA part: xc-table for Pade appr. of Perdew
 POSCAR, INCAR and KPOINTS ok, starting setup
 WARNING: small aliasing (wrap around) errors must be expected
 FFT: planning ...
 WAVECAR not read
 entering main loop
       N       E                     dE             d eps       ncg     rms          rms(c)
DAV:   1     0.120343561680E+04    0.12034E+04   -0.21248E+04   352   0.545E+02
DAV:   2     0.398130683237E+03   -0.80530E+03   -0.70363E+03   624   0.112E+02
DAV:   3     0.200231534779E+02   -0.37811E+03   -0.35109E+03   496   0.905E+01
DAV:   4    -0.170163604230E+02   -0.37040E+02   -0.35389E+02   416   0.309E+01
DAV:   5    -0.177809059955E+02   -0.76455E+00   -0.76340E+00   384   0.494E+00    0.251E+01
DAV:   6    -0.382757460718E+01    0.13953E+02   -0.38680E+01   352   0.139E+01    0.136E+01
DAV:   7    -0.917611121688E+00    0.29100E+01   -0.37372E+00   392   0.513E+00    0.710E+00
DAV:   8    -0.366348291570E+01   -0.27459E+01   -0.16433E+00   376   0.341E+00    0.280E+00
DAV:   9    -0.619606048025E+01   -0.25326E+01   -0.73478E-01   368   0.261E+00    0.266E+00
DAV:  10    -0.601939673955E+01    0.17666E+00   -0.58094E-02   408   0.104E+00    0.229E+00
DAV:  11    -0.729227409667E+01   -0.12729E+01   -0.31288E-01   352   0.130E+00    0.187E+00
DAV:  12    -0.116779804136E+02   -0.43857E+01   -0.24589E+00   352   0.306E+00    0.926E-01
DAV:  13    -0.137868648237E+02   -0.21089E+01   -0.63612E-01   384   0.137E+00    0.654E-01
DAV:  14    -0.154817518326E+02   -0.16949E+01   -0.40681E-01   368   0.960E-01    0.435E-01
DAV:  15    -0.164455811154E+02   -0.96383E+00   -0.17239E-01   376   0.704E-01    0.289E-01
DAV:  16    -0.168631200415E+02   -0.41754E+00   -0.43203E-02   376   0.371E-01    0.179E+00
DAV:  17    -0.168523773790E+02    0.10743E-01   -0.13327E-03   368   0.132E-01    0.177E+00
DAV:  18    -0.168544990127E+02   -0.21216E-02   -0.23501E-04   256   0.602E-02    0.176E+00
DAV:  19    -0.168545092308E+02   -0.10218E-04   -0.24193E-03   384   0.174E-01    0.164E+00
DAV:  20    -0.169625878218E+02   -0.10808E+00   -0.18284E-02   384   0.445E-01    0.131E+00
DAV:  21    -0.170709697705E+02   -0.10838E+00   -0.11942E-02   384   0.366E-01    0.105E+00
DAV:  22    -0.172570238203E+02   -0.18605E+00   -0.23349E-02   368   0.372E-01    0.639E-01
DAV:  23    -0.173402210534E+02   -0.83197E-01   -0.17084E-02   376   0.400E-01    0.270E-01
DAV:  24    -0.173900420649E+02   -0.49821E-01   -0.11919E-02   376   0.310E-01    0.654E-02
DAV:  25    -0.174013455320E+02   -0.11303E-01   -0.15302E-03   384   0.813E-02    0.102E-01
DAV:  26    -0.174046971803E+02   -0.33516E-02   -0.20588E-04   288   0.396E-02    0.751E-02
DAV:  27    -0.174082255486E+02   -0.35284E-02   -0.79838E-04   376   0.808E-02    0.159E-02
DAV:  28    -0.174093104730E+02   -0.10849E-02   -0.15305E-04   264   0.309E-02    0.181E-02
DAV:  29    -0.174097919682E+02   -0.48150E-03   -0.63626E-05   272   0.131E-02    0.994E-03
DAV:  30    -0.174099689651E+02   -0.17700E-03   -0.49334E-05   264   0.899E-03    0.678E-03
DAV:  31    -0.174100164674E+02   -0.47502E-04   -0.14585E-05   256   0.583E-03
   1 F= -.17410016E+02 E0= -.17410016E+02  d E =-.174100E+02  mag=     0.0034
 curvature:   0.00 expect dE= 0.000E+00 dE for cont linesearch  0.000E+00
 trial: gam= 0.00000 g(F)=  0.118E+01 g(S)=  0.000E+00 ort = 0.000E+00 (trialstep = 0.100E+01)
 search vector abs. value=  0.118E+01
 bond charge predicted
       N       E                     dE             d eps       ncg     rms          rms(c)
DAV:   1    -0.183908699828E+02   -0.98090E+00   -0.80731E+01   352   0.256E+01    0.181E+00
DAV:   2    -0.184300108474E+02   -0.39141E-01   -0.38732E-01   384   0.246E+00    0.128E+00
DAV:   3    -0.184289127032E+02    0.10981E-02   -0.19563E-02   392   0.459E-01    0.255E-01
DAV:   4    -0.184285170543E+02    0.39565E-03   -0.10223E-03   400   0.202E-01    0.664E-02
DAV:   5    -0.184283592737E+02    0.15778E-03   -0.61581E-04   392   0.710E-02    0.272E-02
DAV:   6    -0.184283356758E+02    0.23598E-04   -0.11932E-04   280   0.302E-02
   2 F= -.18428336E+02 E0= -.18428336E+02  d E =-.101832E+01  mag=     0.0008
 trial-energy change:   -1.018319  1 .order   -1.024440   -1.182074   -0.866806
 step:   3.7494(harm=  3.7494)  dis= 0.10695  next Energy=   -19.626062 (dE=-0.222E+01)
 bond charge predicted
       N       E                     dE             d eps       ncg     rms          rms(c)
DAV:   1    -0.196432500936E+02   -0.12149E+01   -0.62466E+02   352   0.728E+01    0.316E+00
DAV:   2    -0.199353763680E+02   -0.29213E+00   -0.29333E+00   368   0.705E+00    0.291E+00
DAV:   3    -0.199317959838E+02    0.35804E-02   -0.52856E-02   400   0.881E-01    0.192E+00
DAV:   4    -0.199249693240E+02    0.68267E-02   -0.36611E-02   400   0.547E-01    0.248E-01
DAV:   5    -0.199229823052E+02    0.19870E-02   -0.43347E-03   400   0.246E-01    0.990E-02
DAV:   6    -0.199221580329E+02    0.82427E-03   -0.27906E-03   360   0.124E-01    0.748E-02
DAV:   7    -0.199220823064E+02    0.75726E-04   -0.14472E-03   304   0.999E-02    0.620E-02
DAV:   8    -0.199226679164E+02   -0.58561E-03   -0.35103E-03   360   0.750E-02    0.500E-02
DAV:   9    -0.199248732198E+02   -0.22053E-02   -0.51357E-03   392   0.104E-01    0.324E-02
DAV:  10    -0.199283662765E+02   -0.34931E-02   -0.11189E-03   304   0.559E-02    0.201E-02
DAV:  11    -0.199311882194E+02   -0.28219E-02   -0.37529E-04   288   0.313E-02    0.903E-03
DAV:  12    -0.199323600788E+02   -0.11719E-02   -0.11495E-04   288   0.150E-02    0.573E-03
DAV:  13    -0.199331864362E+02   -0.82636E-03   -0.39081E-05   264   0.836E-03    0.411E-03
DAV:  14    -0.199334681051E+02   -0.28167E-03   -0.22120E-05   288   0.719E-03    0.341E-03
DAV:  15    -0.199336305550E+02   -0.16245E-03   -0.87133E-06   272   0.413E-03    0.332E-03
DAV:  16    -0.199337796597E+02   -0.14910E-03   -0.14527E-05   256   0.444E-03    0.339E-03
DAV:  17    -0.199337944960E+02   -0.14836E-04   -0.82036E-07   248   0.152E-03
   3 F= -.19933794E+02 E0= -.19933794E+02  d E =-.252378E+01  mag=     0.0000
 curvature:  -1.87 expect dE=-0.340E+00 dE for cont linesearch -0.127E+00
 ZBRENT: extrapolating
 opt :   5.0834  next Energy=   -20.122663 (dE=-0.271E+01)
 bond charge predicted
       N       E                     dE             d eps       ncg     rms          rms(c)
DAV:   1    -0.201214531887E+02   -0.18767E+00   -0.14411E+02   352   0.342E+01    0.118E+00
DAV:   2    -0.201871019821E+02   -0.65649E-01   -0.69159E-01   392   0.329E+00    0.987E-01
DAV:   3    -0.201861167224E+02    0.98526E-03   -0.12843E-02   400   0.417E-01    0.612E-01
DAV:   4    -0.201851428821E+02    0.97384E-03   -0.52642E-03   400   0.244E-01    0.755E-02
DAV:   5    -0.201852164521E+02   -0.73570E-04   -0.41308E-04   352   0.900E-02
   4 F= -.20185216E+02 E0= -.20185216E+02  d E =-.277520E+01  mag=     0.0000
 curvature:  -2.78 expect dE=-0.462E+00 dE for cont linesearch -0.261E-01
 ZBRENT: extrapolating
 opt :   5.9830  next Energy=   -20.226049 (dE=-0.282E+01)
 bond charge predicted
       N       E                     dE             d eps       ncg     rms          rms(c)
DAV:   1    -0.202076096764E+02   -0.22467E-01   -0.65261E+01   352   0.229E+01    0.688E-01
DAV:   2    -0.202374336914E+02   -0.29824E-01   -0.31898E-01   384   0.221E+00    0.548E-01
DAV:   3    -0.202371134870E+02    0.32020E-03   -0.57304E-03   368   0.273E-01    0.348E-01
DAV:   4    -0.202370059083E+02    0.10758E-03   -0.22238E-03   376   0.157E-01    0.498E-02
DAV:   5    -0.202371209857E+02   -0.11508E-03   -0.15049E-04   272   0.558E-02    0.247E-02
DAV:   6    -0.202372683039E+02   -0.14732E-03   -0.94186E-05   272   0.272E-02    0.131E-02
DAV:   7    -0.202373833051E+02   -0.11500E-03   -0.19645E-05   272   0.146E-02    0.672E-03
DAV:   8    -0.202375350120E+02   -0.15171E-03   -0.24647E-05   272   0.100E-02    0.497E-03
DAV:   9    -0.202376172588E+02   -0.82247E-04   -0.15300E-05   288   0.614E-03
   5 F= -.20237617E+02 E0= -.20237617E+02  d E =-.282760E+01  mag=     0.0000
 curvature:  -4.35 expect dE=-0.785E+00 dE for cont linesearch -0.679E-03
 trial: gam= 0.14112 g(F)=  0.180E+00 g(S)=  0.000E+00 ort = 0.136E-01 (trialstep = 0.200E+01)
 search vector abs. value=  0.208E+00
 bond charge predicted
       N       E                     dE             d eps       ncg     rms          rms(c)
DAV:   1    -0.205108566361E+02   -0.27332E+00   -0.56286E+01   352   0.210E+01    0.101E+00
DAV:   2    -0.205355447462E+02   -0.24688E-01   -0.27320E-01   384   0.198E+00    0.698E-01
DAV:   3    -0.205306104810E+02    0.49343E-02   -0.85379E-03   400   0.271E-01    0.290E-01
DAV:   4    -0.205304557689E+02    0.15471E-03   -0.23357E-03   376   0.173E-01    0.744E-02
DAV:   5    -0.205322506997E+02   -0.17949E-02   -0.24815E-04   264   0.692E-02    0.325E-02
DAV:   6    -0.205346297712E+02   -0.23791E-02   -0.29465E-04   288   0.395E-02    0.175E-02
DAV:   7    -0.205360706332E+02   -0.14409E-02   -0.14076E-04   288   0.212E-02    0.130E-02
DAV:   8    -0.205378043975E+02   -0.17338E-02   -0.32547E-04   272   0.220E-02    0.840E-03
DAV:   9    -0.205386021040E+02   -0.79771E-03   -0.18422E-04   272   0.210E-02    0.598E-03
DAV:  10    -0.205389280524E+02   -0.32595E-03   -0.90443E-05   264   0.125E-02    0.378E-03
DAV:  11    -0.205390757552E+02   -0.14770E-03   -0.67079E-05   264   0.108E-02    0.263E-03
DAV:  12    -0.205391094754E+02   -0.33720E-04   -0.18866E-05   272   0.574E-03
   6 F= -.20539109E+02 E0= -.20539109E+02  d E =-.301492E+00  mag=    -0.0000
 trial-energy change:   -0.301492  1 .order   -0.303529   -0.364027   -0.243031
 step:   6.0070(harm=  6.0070)  dis= 0.09909  next Energy=   -20.785220 (dE=-0.548E+00)
 bond charge predicted
       N       E                     dE             d eps       ncg     rms          rms(c)
DAV:   1    -0.207264737425E+02   -0.18740E+00   -0.22940E+02   352   0.428E+01    0.148E+00
DAV:   2    -0.208328008956E+02   -0.10633E+00   -0.10906E+00   384   0.405E+00    0.112E+00
DAV:   3    -0.208272470797E+02    0.55538E-02   -0.21455E-02   400   0.511E-01    0.660E-01
DAV:   4    -0.208216140634E+02    0.56330E-02   -0.13894E-02   368   0.265E-01    0.105E-01
DAV:   5    -0.208247312816E+02   -0.31172E-02   -0.79941E-04   376   0.711E-02    0.549E-02
DAV:   6    -0.208277319793E+02   -0.30007E-02   -0.53922E-04   288   0.391E-02    0.341E-02
DAV:   7    -0.208307687354E+02   -0.30368E-02   -0.73283E-04   272   0.331E-02    0.240E-02
DAV:   8    -0.208340186439E+02   -0.32499E-02   -0.13443E-03   288   0.321E-02    0.168E-02
DAV:   9    -0.208361886511E+02   -0.21700E-02   -0.10459E-03   272   0.286E-02    0.119E-02
DAV:  10    -0.208381679307E+02   -0.19793E-02   -0.15417E-03   296   0.332E-02    0.622E-03
DAV:  11    -0.208386147868E+02   -0.44686E-03   -0.11745E-04   272   0.121E-02    0.361E-03
DAV:  12    -0.208388590486E+02   -0.24426E-03   -0.38388E-05   272   0.711E-03    0.189E-03
DAV:  13    -0.208390322985E+02   -0.17325E-03   -0.18160E-05   272   0.474E-03    0.120E-03
DAV:  14    -0.208391285110E+02   -0.96213E-04   -0.38091E-06   272   0.260E-03
   7 F= -.20839129E+02 E0= -.20839129E+02  d E =-.601511E+00  mag=    -0.0000
 curvature:  -3.42 expect dE=-0.496E-01 dE for cont linesearch -0.197E-01
 ZBRENT: extrapolating
 opt :   7.5993  next Energy=   -20.866671 (dE=-0.629E+00)
 bond charge predicted
       N       E                     dE             d eps       ncg     rms          rms(c)
DAV:   1    -0.208578972303E+02   -0.18865E-01   -0.35714E+01   352   0.168E+01    0.468E-01
DAV:   2    -0.208752982119E+02   -0.17401E-01   -0.17158E-01   392   0.158E+00    0.334E-01
DAV:   3    -0.208751677345E+02    0.13048E-03   -0.29327E-03   368   0.187E-01    0.205E-01
DAV:   4    -0.208750916424E+02    0.76092E-04   -0.96631E-04   384   0.932E-02
   8 F= -.20875092E+02 E0= -.20875092E+02  d E =-.637474E+00  mag=    -0.0000
 curvature:  -4.78 expect dE=-0.536E-01 dE for cont linesearch -0.322E-02
 ZBRENT: extrapolating
 opt :   8.5163  next Energy=   -20.879933 (dE=-0.642E+00)
 bond charge predicted
       N       E                     dE             d eps       ncg     rms          rms(c)
DAV:   1    -0.208744896321E+02    0.67810E-03   -0.11807E+01   352   0.962E+00    0.245E-01
DAV:   2    -0.208802762099E+02   -0.57866E-02   -0.57948E-02   384   0.914E-01    0.167E-01
DAV:   3    -0.208802760876E+02    0.12225E-06   -0.95856E-04   376   0.106E-01
   9 F= -.20880276E+02 E0= -.20880276E+02  d E =-.642659E+00  mag=    -0.0000
 curvature:  -7.18 expect dE=-0.849E-01 dE for cont linesearch -0.425E-05
 trial: gam= 0.06477 g(F)=  0.118E-01 g(S)=  0.000E+00 ort =-0.351E-03 (trialstep = 0.330E+01)
 search vector abs. value=  0.126E-01
 bond charge predicted
       N       E                     dE             d eps       ncg     rms          rms(c)
DAV:   1    -0.209136053191E+02   -0.33329E-01   -0.92598E+00   368   0.836E+00    0.122E-01
DAV:   2    -0.209183861684E+02   -0.47808E-02   -0.46482E-02   368   0.806E-01    0.786E-02
DAV:   3    -0.209184151469E+02   -0.28979E-04   -0.67664E-04   400   0.883E-02
  10 F= -.20918415E+02 E0= -.20918415E+02  d E =-.381391E-01  mag=    -0.0000
 ZBRENT: can't locate minimum, use default step
 trial-energy change:   -0.038139  1 .order   -0.038015   -0.038915   -0.037115
 step:  13.2022(harm= 71.3326)  dis= 0.05975  next Energy=   -21.300803 (dE=-0.421E+00)
 bond charge predicted
       N       E                     dE             d eps       ncg     rms          rms(c)
DAV:   1    -0.209790576352E+02   -0.60671E-01   -0.83745E+01   352   0.253E+01    0.430E-01
DAV:   2    -0.210207425483E+02   -0.41685E-01   -0.42041E-01   384   0.243E+00    0.240E-01
DAV:   3    -0.210207313194E+02    0.11229E-04   -0.62595E-03   392   0.271E-01    0.180E-01
DAV:   4    -0.210204157139E+02    0.31561E-03   -0.17879E-03   368   0.124E-01    0.441E-02
DAV:   5    -0.210204396316E+02   -0.23918E-04   -0.83015E-05   264   0.371E-02
  11 F= -.21020440E+02 E0= -.21020440E+02  d E =-.140164E+00  mag=    -0.0000
 curvature: -10.32 expect dE=-0.814E-01 dE for cont linesearch -0.730E-01
 ZBRENT: increasing intervall
 opt :  33.0055  next Energy=   -21.172314 (dE=-0.292E+00)
 bond charge predicted
       N       E                     dE             d eps       ncg     rms          rms(c)
DAV:   1    -0.209870530035E+02    0.33363E-01   -0.34063E+02   352   0.515E+01    0.112E+00
DAV:   2    -0.211642846730E+02   -0.17723E+00   -0.17563E+00   384   0.505E+00    0.515E-01
DAV:   3    -0.211639570583E+02    0.32761E-03   -0.27546E-02   384   0.592E-01    0.358E-01
DAV:   4    -0.211625581005E+02    0.13990E-02   -0.41779E-03   376   0.195E-01    0.155E-01
DAV:   5    -0.211626126569E+02   -0.54556E-04   -0.11898E-03   392   0.119E-01    0.374E-02
DAV:   6    -0.211626430657E+02   -0.30409E-04   -0.14218E-04   256   0.363E-02
  12 F= -.21162643E+02 E0= -.21162643E+02  d E =-.282367E+00  mag=    -0.0000
 curvature: -21.46 expect dE=-0.916E-01 dE for cont linesearch -0.421E-01
 ZBRENT: increasing intervall
 opt :  72.6121  next Energy=   -21.182480 (dE=-0.302E+00)
 bond charge predicted
       N       E                     dE             d eps       ncg     rms          rms(c)
DAV:   1    -0.203266768236E+02    0.83594E+00   -0.14580E+03   352   0.112E+02    0.405E+00
DAV:   2    -0.211618027367E+02   -0.83513E+00   -0.83274E+00   384   0.117E+01    0.163E+00
DAV:   3    -0.211544584802E+02    0.73443E-02   -0.16235E-01   384   0.161E+00    0.823E-01
DAV:   4    -0.211484713495E+02    0.59871E-02   -0.13523E-02   384   0.367E-01    0.499E-01
DAV:   5    -0.211477292052E+02    0.74214E-03   -0.91790E-03   384   0.357E-01    0.891E-02
DAV:   6    -0.211478681979E+02   -0.13899E-03   -0.48453E-04   368   0.110E-01    0.486E-02
DAV:   7    -0.211481288877E+02   -0.26069E-03   -0.12887E-04   272   0.286E-02    0.213E-02
DAV:   8    -0.211484317470E+02   -0.30286E-03   -0.42707E-05   264   0.210E-02    0.727E-03
DAV:   9    -0.211486481158E+02   -0.21637E-03   -0.20709E-05   264   0.748E-03    0.543E-03
DAV:  10    -0.211488410482E+02   -0.19293E-03   -0.20413E-05   264   0.610E-03    0.394E-03
DAV:  11    -0.211489932836E+02   -0.15224E-03   -0.20770E-05   264   0.551E-03    0.204E-03
DAV:  12    -0.211490797200E+02   -0.86436E-04   -0.99227E-06   256   0.426E-03
  13 F= -.21149080E+02 E0= -.21149080E+02  d E =-.268804E+00  mag=     0.0000
 curvature: -10.11 expect dE=-0.221E+00 dE for cont linesearch -0.394E-01
 ZBRENT: bracketing found
 ZBRENT: interpolating
 opt :  49.4495  next Energy=   -21.203580 (dE=-0.323E+00)
 bond charge predicted
       N       E                     dE             d eps       ncg     rms          rms(c)
DAV:   1    -0.209879082391E+02    0.16109E+00   -0.46977E+02   352   0.612E+01    0.102E+00
DAV:   2    -0.212195960057E+02   -0.23169E+00   -0.23093E+00   384   0.597E+00    0.104E+00
DAV:   3    -0.212195990330E+02   -0.30273E-05   -0.35266E-02   384   0.692E-01    0.742E-01
DAV:   4    -0.212154382133E+02    0.41608E-02   -0.82537E-03   384   0.301E-01    0.448E-01
DAV:   5    -0.212152294301E+02    0.20878E-03   -0.60572E-03   368   0.230E-01    0.134E-01
DAV:   6    -0.212151705906E+02    0.58839E-04   -0.21176E-04   272   0.421E-02
  14 F= -.21215171E+02 E0= -.21215171E+02  d E =-.334895E+00  mag=     0.0000
 curvature: -10.52 expect dE=-0.561E-01 dE for cont linesearch -0.777E-03
 trial: gam= 0.38654 g(F)=  0.534E-02 g(S)=  0.000E+00 ort = 0.966E-03 (trialstep = 0.125E+02)
 search vector abs. value=  0.797E-02
 bond charge predicted
       N       E                     dE             d eps       ncg     rms          rms(c)
DAV:   1    -0.212325648419E+02   -0.17335E-01   -0.84702E+01   352   0.257E+01    0.410E-01
DAV:   2    -0.212721416403E+02   -0.39577E-01   -0.40721E-01   368   0.247E+00    0.410E-01
DAV:   3    -0.212719355834E+02    0.20606E-03   -0.62689E-03   384   0.301E-01    0.304E-01
DAV:   4    -0.212709870940E+02    0.94849E-03   -0.24299E-03   368   0.156E-01    0.155E-01
DAV:   5    -0.212710136382E+02   -0.26544E-04   -0.85623E-04   384   0.107E-01
  15 F= -.21271014E+02 E0= -.21271014E+02  d E =-.558430E-01  mag=     0.0000
 trial-energy change:   -0.055843  1 .order   -0.055907   -0.071549   -0.040265
 step:  28.6581(harm= 28.6581)  dis= 0.10014  next Energy=   -21.296990 (dE=-0.818E-01)
 bond charge predicted
       N       E                     dE             d eps       ncg     rms          rms(c)
DAV:   1    -0.212340744650E+02    0.36913E-01   -0.14082E+02   352   0.331E+01    0.478E-01
DAV:   2    -0.213008141191E+02   -0.66740E-01   -0.67897E-01   384   0.319E+00    0.500E-01
DAV:   3    -0.213008220975E+02   -0.79784E-05   -0.10424E-02   384   0.384E-01    0.369E-01
DAV:   4    -0.212993713228E+02    0.14508E-02   -0.28109E-03   368   0.171E-01    0.224E-01
DAV:   5    -0.212992594289E+02    0.11189E-03   -0.20759E-03   368   0.149E-01    0.732E-02
DAV:   6    -0.212992462914E+02    0.13138E-04   -0.80484E-05   272   0.270E-02
  16 F= -.21299246E+02 E0= -.21299246E+02  d E =-.840757E-01  mag=     0.0000
 curvature: -20.01 expect dE=-0.868E-01 dE for cont linesearch -0.128E-02
 trial: gam= 0.80826 g(F)=  0.434E-02 g(S)=  0.000E+00 ort = 0.713E-03 (trialstep = 0.117E+02)
 search vector abs. value=  0.107E-01
 bond charge predicted
       N       E                     dE             d eps       ncg     rms          rms(c)
DAV:   1    -0.213091206938E+02   -0.98613E-02   -0.99083E+01   352   0.283E+01    0.329E-01
DAV:   2    -0.213595176786E+02   -0.50397E-01   -0.47116E-01   400   0.275E+00    0.311E-01
DAV:   3    -0.213593198471E+02    0.19783E-03   -0.73043E-03   368   0.340E-01    0.229E-01
DAV:   4    -0.213582958354E+02    0.10240E-02   -0.11088E-03   368   0.104E-01    0.157E-01
DAV:   5    -0.213578937049E+02    0.40213E-03   -0.24150E-03   368   0.145E-01    0.480E-02
DAV:   6    -0.213579642868E+02   -0.70582E-04   -0.34232E-05   240   0.206E-02
  17 F= -.21357964E+02 E0= -.21357964E+02  d E =-.587180E-01  mag=     0.0000
 ZBRENT: can't locate minimum, use default step
 trial-energy change:   -0.058718  1 .order   -0.059372   -0.057701   -0.061042
 step:  46.9592(harm= 46.9592)  dis= 0.13988  next Energy=   -21.556777 (dE=-0.258E+00)
 bond charge predicted
       N       E                     dE             d eps       ncg     rms          rms(c)
DAV:   1    -0.210683873823E+02    0.28951E+00   -0.92261E+02   352   0.895E+01    0.172E+00
DAV:   2    -0.215448626177E+02   -0.47648E+00   -0.45512E+00   384   0.894E+00    0.125E+00
DAV:   3    -0.215424782831E+02    0.23843E-02   -0.75982E-02   368   0.118E+00    0.749E-01
DAV:   4    -0.215349175463E+02    0.75607E-02   -0.97917E-03   368   0.311E-01    0.528E-01
DAV:   5    -0.215321693416E+02    0.27482E-02   -0.12076E-02   368   0.329E-01    0.166E-01
DAV:   6    -0.215323984726E+02   -0.22913E-03   -0.22006E-04   272   0.557E-02    0.897E-02
DAV:   7    -0.215326363415E+02   -0.23787E-03   -0.10301E-04   256   0.399E-02    0.205E-02
DAV:   8    -0.215327943233E+02   -0.15798E-03   -0.28924E-05   240   0.162E-02    0.563E-03
DAV:   9    -0.215330028011E+02   -0.20848E-03   -0.33242E-05   256   0.106E-02    0.876E-03
DAV:  10    -0.215330658722E+02   -0.63071E-04   -0.75167E-06   256   0.739E-03
  18 F= -.21533066E+02 E0= -.21533066E+02  d E =-.233820E+00  mag=     0.0000
 curvature: -78.42 expect dE=-0.437E+00 dE for cont linesearch -0.141E+00
 ZBRENT: increasing intervall
 opt : 117.3979  next Energy=   -21.783614 (dE=-0.484E+00)
 bond charge predicted
       N       E                     dE             d eps       ncg     rms          rms(c)
DAV:   1    -0.189964211285E+02    0.25366E+01   -0.40948E+03   352   0.207E+02    0.860E+00
DAV:   2    -0.217289844606E+02   -0.27326E+01   -0.28651E+01   368   0.238E+01    0.550E+00
DAV:   3    -0.216454443090E+02    0.83540E-01   -0.63802E-01   384   0.352E+00    0.292E+00
DAV:   4    -0.216165638872E+02    0.28880E-01   -0.53622E-02   400   0.699E-01    0.191E+00
DAV:   5    -0.216066538232E+02    0.99101E-02   -0.35952E-02   400   0.634E-01    0.642E-01
DAV:   6    -0.216070761614E+02   -0.42234E-03   -0.33581E-03   400   0.189E-01    0.189E-01
DAV:   7    -0.216074558599E+02   -0.37970E-03   -0.28281E-04   272   0.736E-02    0.322E-02
DAV:   8    -0.216076180180E+02   -0.16216E-03   -0.47887E-05   272   0.205E-02    0.102E-02
DAV:   9    -0.216078862187E+02   -0.26820E-03   -0.41556E-05   272   0.142E-02    0.897E-03
DAV:  10    -0.216079614563E+02   -0.75238E-04   -0.52665E-06   272   0.709E-03
  19 F= -.21607961E+02 E0= -.21607961E+02  d E =-.308715E+00  mag=     0.0000
 curvature: ****** expect dE=-0.143E+01 dE for cont linesearch -0.285E+00
 ZBRENT: bracketing found
 ZBRENT: interpolating
 opt :  81.0465  next Energy=   -21.607688 (dE=-0.308E+00)
 bond charge predicted
       N       E                     dE             d eps       ncg     rms          rms(c)
DAV:   1    -0.211507321764E+02    0.45715E+00   -0.98592E+02   352   0.930E+01    0.183E+00
DAV:   2    -0.216498392530E+02   -0.49911E+00   -0.48937E+00   400   0.921E+00    0.125E+00
DAV:   3    -0.216489662647E+02    0.87299E-03   -0.81721E-02   416   0.111E+00    0.782E-01
DAV:   4    -0.216417725649E+02    0.71937E-02   -0.88707E-03   400   0.293E-01    0.548E-01
DAV:   5    -0.216391832214E+02    0.25893E-02   -0.14621E-02   400   0.345E-01    0.133E-01
DAV:   6    -0.216394467867E+02   -0.26357E-03   -0.22369E-04   288   0.579E-02    0.572E-02
DAV:   7    -0.216395820426E+02   -0.13526E-03   -0.68197E-05   272   0.266E-02    0.203E-02
DAV:   8    -0.216396865435E+02   -0.10450E-03   -0.22692E-05   256   0.146E-02    0.676E-03
DAV:   9    -0.216397679796E+02   -0.81436E-04   -0.11032E-05   272   0.642E-03
  20 F= -.21639768E+02 E0= -.21639768E+02  d E =-.340522E+00  mag=    -0.0000
 curvature: -36.62 expect dE=-0.195E+00 dE for cont linesearch -0.109E-01
 ZBRENT: interpolating
 opt :  98.0637  next Energy=   -21.659197 (dE=-0.360E+00)
 bond charge predicted
       N       E                     dE             d eps       ncg     rms          rms(c)
DAV:   1    -0.215532896584E+02    0.86397E-01   -0.20940E+02   352   0.414E+01    0.568E-01
DAV:   2    -0.216581199050E+02   -0.10483E+00   -0.99761E-01   400   0.408E+00    0.503E-01
DAV:   3    -0.216578728099E+02    0.24710E-03   -0.16825E-02   384   0.540E-01    0.333E-01
DAV:   4    -0.216558415504E+02    0.20313E-02   -0.26452E-03   400   0.166E-01    0.226E-01
DAV:   5    -0.216552381291E+02    0.60342E-03   -0.38899E-03   384   0.181E-01    0.720E-02
DAV:   6    -0.216552582281E+02   -0.20099E-04   -0.53082E-05   272   0.244E-02
  21 F= -.21655258E+02 E0= -.21655258E+02  d E =-.356012E+00  mag=     0.0000
 curvature: -65.01 expect dE=-0.373E+00 dE for cont linesearch -0.845E-04
 trial: gam= 1.25860 g(F)=  0.573E-02 g(S)=  0.000E+00 ort =-0.118E-03 (trialstep = 0.139E+02)
 search vector abs. value=  0.224E-01
 bond charge predicted
       N       E                     dE             d eps       ncg     rms          rms(c)
DAV:   1    -0.215352800810E+02    0.11996E+00   -0.29281E+02   352   0.492E+01    0.967E-01
DAV:   2    -0.216825940226E+02   -0.14731E+00   -0.14476E+00   400   0.482E+00    0.587E-01
DAV:   3    -0.216808320052E+02    0.17620E-02   -0.23943E-02   384   0.613E-01    0.367E-01
DAV:   4    -0.216783307940E+02    0.25012E-02   -0.71190E-03   400   0.268E-01    0.162E-01
DAV:   5    -0.216784226654E+02   -0.91871E-04   -0.15300E-03   400   0.130E-01    0.498E-02
DAV:   6    -0.216783970146E+02    0.25651E-04   -0.25191E-04   288   0.452E-02
  22 F= -.21678397E+02 E0= -.21678397E+02  d E =-.231388E-01  mag=     0.0000
 trial-energy change:   -0.023139  1 .order   -0.024527   -0.077435    0.028382
 step:   9.9225(harm= 10.1444)  dis= 0.05142  next Energy=   -21.682462 (dE=-0.272E-01)
 bond charge predicted
       N       E                     dE             d eps       ncg     rms          rms(c)
DAV:   1    -0.216712469222E+02    0.71757E-02   -0.23382E+01   352   0.137E+01    0.190E-01
DAV:   2    -0.216827521149E+02   -0.11505E-01   -0.11118E-01   400   0.132E+00    0.183E-01
DAV:   3    -0.216827233319E+02    0.28783E-04   -0.17249E-03   416   0.154E-01    0.137E-01
DAV:   4    -0.216824545060E+02    0.26883E-03   -0.63389E-04   384   0.798E-02    0.742E-02
DAV:   5    -0.216824771999E+02   -0.22694E-04   -0.32477E-04   352   0.555E-02
  23 F= -.21682477E+02 E0= -.21682477E+02  d E =-.272190E-01  mag=     0.0000
 curvature: -20.25 expect dE=-0.800E-01 dE for cont linesearch -0.776E-05
 trial: gam= 0.09659 g(F)=  0.395E-02 g(S)=  0.000E+00 ort =-0.926E-04 (trialstep = 0.131E+02)
 search vector abs. value=  0.414E-02
 bond charge predicted
       N       E                     dE             d eps       ncg     rms          rms(c)
DAV:   1    -0.216998050241E+02   -0.17351E-01   -0.47753E+01   352   0.195E+01    0.313E-01
DAV:   2    -0.217231872725E+02   -0.23382E-01   -0.23493E-01   384   0.192E+00    0.230E-01
DAV:   3    -0.217231663110E+02    0.20962E-04   -0.38900E-03   400   0.247E-01    0.155E-01
DAV:   4    -0.217228406048E+02    0.32571E-03   -0.84411E-04   384   0.962E-02    0.739E-02
DAV:   5    -0.217228562186E+02   -0.15614E-04   -0.36665E-04   368   0.606E-02
  24 F= -.21722856E+02 E0= -.21722856E+02  d E =-.403790E-01  mag=     0.0000
 trial-energy change:   -0.040379  1 .order   -0.040556   -0.051549   -0.029562
 step:  30.6540(harm= 30.6540)  dis= 0.07612  next Energy=   -21.742907 (dE=-0.604E-01)
 bond charge predicted
       N       E                     dE             d eps       ncg     rms          rms(c)
DAV:   1    -0.216968738635E+02    0.25967E-01   -0.86463E+01   352   0.263E+01    0.473E-01
DAV:   2    -0.217395542528E+02   -0.42680E-01   -0.42983E-01   384   0.260E+00    0.310E-01
DAV:   3    -0.217394650129E+02    0.89240E-04   -0.72080E-03   400   0.338E-01    0.204E-01
DAV:   4    -0.217389125277E+02    0.55249E-03   -0.16339E-03   384   0.135E-01    0.866E-02
DAV:   5    -0.217389479114E+02   -0.35384E-04   -0.45382E-04   400   0.685E-02
  25 F= -.21738948E+02 E0= -.21738948E+02  d E =-.564707E-01  mag=     0.0000
 curvature: -16.10 expect dE=-0.264E-01 dE for cont linesearch -0.434E-03
 trial: gam= 0.50363 g(F)=  0.164E-02 g(S)=  0.000E+00 ort =-0.334E-03 (trialstep = 0.166E+02)
 search vector abs. value=  0.235E-02
 bond charge predicted
       N       E                     dE             d eps       ncg     rms          rms(c)
DAV:   1    -0.217260086112E+02    0.12904E-01   -0.43780E+01   352   0.187E+01    0.374E-01
DAV:   2    -0.217472685562E+02   -0.21260E-01   -0.21890E-01   368   0.185E+00    0.282E-01
DAV:   3    -0.217472194503E+02    0.49106E-04   -0.39051E-03   400   0.242E-01    0.175E-01
DAV:   4    -0.217469634674E+02    0.25598E-03   -0.10301E-03   400   0.122E-01    0.721E-02
DAV:   5    -0.217470003468E+02   -0.36879E-04   -0.16224E-04   256   0.499E-02
  26 F= -.21747000E+02 E0= -.21747000E+02  d E =-.805244E-02  mag=     0.0000
 trial-energy change:   -0.008052  1 .order   -0.008560   -0.024393    0.007274
 step:  12.4827(harm= 12.7797)  dis= 0.02033  next Energy=   -21.747909 (dE=-0.896E-02)
 bond charge predicted
       N       E                     dE             d eps       ncg     rms          rms(c)
DAV:   1    -0.217467125804E+02    0.25089E-03   -0.26860E+00   368   0.461E+00    0.852E-02
DAV:   2    -0.217480618113E+02   -0.13492E-02   -0.13267E-02   384   0.458E-01    0.724E-02
DAV:   3    -0.217480637323E+02   -0.19210E-05   -0.21408E-04   240   0.598E-02
  27 F= -.21748064E+02 E0= -.21748064E+02  d E =-.911582E-02  mag=     0.0000
 curvature: -10.16 expect dE=-0.375E-02 dE for cont linesearch -0.169E-03
 trial: gam= 0.02606 g(F)=  0.369E-03 g(S)=  0.000E+00 ort = 0.198E-03 (trialstep = 0.158E+02)
 search vector abs. value=  0.381E-03
 bond charge predicted
       N       E                     dE             d eps       ncg     rms          rms(c)
DAV:   1    -0.217494227980E+02   -0.13610E-02   -0.63527E+00   352   0.712E+00    0.958E-02
DAV:   2    -0.217524750854E+02   -0.30523E-02   -0.30376E-02   384   0.699E-01    0.924E-02
DAV:   3    -0.217524717391E+02    0.33463E-05   -0.51074E-04   400   0.911E-02
  28 F= -.21752472E+02 E0= -.21752472E+02  d E =-.440801E-02  mag=     0.0000
 trial-energy change:   -0.004408  1 .order   -0.004444   -0.005899   -0.002990
 step:  31.9772(harm= 31.9772)  dis= 0.02448  next Energy=   -21.754045 (dE=-0.598E-02)
 bond charge predicted
       N       E                     dE             d eps       ncg     rms          rms(c)
DAV:   1    -0.217511549405E+02    0.13201E-02   -0.67315E+00   352   0.734E+00    0.110E-01
DAV:   2    -0.217542979781E+02   -0.31430E-02   -0.31436E-02   384   0.711E-01    0.113E-01
DAV:   3    -0.217542760311E+02    0.21947E-04   -0.51277E-04   400   0.886E-02
  29 F= -.21754276E+02 E0= -.21754276E+02  d E =-.621230E-02  mag=     0.0000
 curvature: -16.28 expect dE=-0.359E-02 dE for cont linesearch -0.453E-04
 trial: gam= 0.51121 g(F)=  0.221E-03 g(S)=  0.000E+00 ort = 0.325E-04 (trialstep = 0.190E+02)
 search vector abs. value=  0.354E-03
 bond charge predicted
       N       E                     dE             d eps       ncg     rms          rms(c)
DAV:   1    -0.217530168740E+02    0.12811E-02   -0.85955E+00   352   0.833E+00    0.122E-01
DAV:   2    -0.217571789787E+02   -0.41621E-02   -0.40346E-02   400   0.792E-01    0.101E-01
DAV:   3    -0.217571373298E+02    0.41649E-04   -0.61589E-04   384   0.894E-02
  30 F= -.21757137E+02 E0= -.21757137E+02  d E =-.286130E-02  mag=     0.0000
 trial-energy change:   -0.002861  1 .order   -0.003034   -0.004514   -0.001554
 step:  28.9919(harm= 28.9919)  dis= 0.01857  next Energy=   -21.757718 (dE=-0.344E-02)
 bond charge predicted
       N       E                     dE             d eps       ncg     rms          rms(c)
DAV:   1    -0.217562699592E+02    0.90902E-03   -0.23759E+00   384   0.438E+00    0.783E-02
DAV:   2    -0.217573964656E+02   -0.11265E-02   -0.11064E-02   400   0.413E-01    0.579E-02
DAV:   3    -0.217573766538E+02    0.19812E-04   -0.15552E-04   224   0.471E-02
  31 F= -.21757377E+02 E0= -.21757377E+02  d E =-.310062E-02  mag=     0.0000
 curvature: -21.59 expect dE=-0.711E-02 dE for cont linesearch -0.364E-03
 trial: gam= 0.00000 g(F)=  0.329E-03 g(S)=  0.000E+00 ort =-0.773E-04 (trialstep = 0.210E+02)
 search vector abs. value=  0.329E-03
 bond charge predicted
       N       E                     dE             d eps       ncg     rms          rms(c)
DAV:   1    -0.217532258681E+02    0.41706E-02   -0.98350E+00   352   0.889E+00    0.209E-01
DAV:   2    -0.217576842134E+02   -0.44583E-02   -0.47402E-02   384   0.874E-01    0.167E-01
DAV:   3    -0.217576720887E+02    0.12125E-04   -0.94181E-04   400   0.118E-01
  32 F= -.21757672E+02 E0= -.21757672E+02  d E =-.295435E-03  mag=     0.0000
 trial-energy change:   -0.000295  1 .order   -0.000218   -0.006918    0.006482
 step:  10.8450(harm= 10.8450)  dis= 0.00751  next Energy=   -21.759162 (dE=-0.179E-02)
 bond charge predicted
       N       E                     dE             d eps       ncg     rms          rms(c)
DAV:   1    -0.217580710497E+02   -0.38684E-03   -0.22905E+00   384   0.429E+00    0.781E-02
DAV:   2    -0.217591086318E+02   -0.10376E-02   -0.11010E-02   384   0.429E-01    0.683E-02
DAV:   3    -0.217591107739E+02   -0.21421E-05   -0.19864E-04   240   0.598E-02
  33 F= -.21759111E+02 E0= -.21759111E+02  d E =-.173412E-02  mag=     0.0000
 curvature:  -5.42 expect dE=-0.590E-03 dE for cont linesearch -0.857E-04
 trial: gam= 0.11126 g(F)=  0.109E-03 g(S)=  0.000E+00 ort = 0.721E-04 (trialstep = 0.190E+02)
 search vector abs. value=  0.129E-03
 bond charge predicted
       N       E                     dE             d eps       ncg     rms          rms(c)
DAV:   1    -0.217591594631E+02   -0.50831E-04   -0.31017E+00   368   0.499E+00    0.570E-02
DAV:   2    -0.217607483795E+02   -0.15889E-02   -0.14931E-02   400   0.482E-01    0.490E-02
DAV:   3    -0.217607466524E+02    0.17272E-05   -0.19528E-04   224   0.548E-02
  34 F= -.21760747E+02 E0= -.21760747E+02  d E =-.163588E-02  mag=     0.0000
 trial-energy change:   -0.001636  1 .order   -0.001353   -0.002216   -0.000490
 step:  24.3664(harm= 24.3664)  dis= 0.01157  next Energy=   -21.760534 (dE=-0.142E-02)
 bond charge predicted
       N       E                     dE             d eps       ncg     rms          rms(c)
DAV:   1    -0.217609877885E+02   -0.23941E-03   -0.25569E-01   384   0.144E+00    0.252E-02
DAV:   2    -0.217611079044E+02   -0.12012E-03   -0.11275E-03   384   0.133E-01    0.224E-02
DAV:   3    -0.217611066851E+02    0.12194E-05   -0.14917E-05   224   0.141E-02
  35 F= -.21761107E+02 E0= -.21761107E+02  d E =-.199591E-02  mag=     0.0000
 curvature: -13.45 expect dE=-0.152E-02 dE for cont linesearch -0.337E-03
 trial: gam= 0.00000 g(F)=  0.113E-03 g(S)=  0.000E+00 ort = 0.569E-04 (trialstep = 0.201E+02)
 search vector abs. value=  0.113E-03
 bond charge predicted
       N       E                     dE             d eps       ncg     rms          rms(c)
DAV:   1    -0.217608812365E+02    0.22667E-03   -0.30786E+00   352   0.498E+00    0.949E-02
DAV:   2    -0.217623745577E+02   -0.14933E-02   -0.15118E-02   400   0.491E-01    0.776E-02
DAV:   3    -0.217623736708E+02    0.88691E-06   -0.24882E-04   256   0.638E-02
  36 F= -.21762374E+02 E0= -.21762374E+02  d E =-.126699E-02  mag=     0.0000
 trial-energy change:   -0.001267  1 .order   -0.000787   -0.002274    0.000700
 step:  17.4958(harm= 15.3348)  dis= 0.00601  next Energy=   -21.762417 (dE=-0.131E-02)
 bond charge predicted
       N       E                     dE             d eps       ncg     rms          rms(c)
DAV:   1    -0.217622931279E+02    0.81430E-04   -0.48179E-02   384   0.620E-01    0.138E-02
DAV:   2    -0.217623176382E+02   -0.24510E-04   -0.22874E-04   224   0.680E-02
  37 F= -.21762318E+02 E0= -.21762318E+02  d E =-.121095E-02  mag=     0.0000
 curvature:  -6.06 expect dE=-0.744E-03 dE for cont linesearch -0.867E-04
 trial: gam= 0.00000 g(F)=  0.123E-03 g(S)=  0.000E+00 ort = 0.403E-04 (trialstep = 0.180E+02)
 search vector abs. value=  0.123E-03
 bond charge predicted
       N       E                     dE             d eps       ncg     rms          rms(c)
DAV:   1    -0.217626755760E+02   -0.38245E-03   -0.26794E+00   360   0.464E+00    0.667E-02
DAV:   2    -0.217640208950E+02   -0.13453E-02   -0.12806E-02   384   0.446E-01    0.562E-02
DAV:   3    -0.217640165819E+02    0.43131E-05   -0.17681E-04   224   0.517E-02
  38 F= -.21764017E+02 E0= -.21764017E+02  d E =-.169894E-02  mag=     0.0000
 trial-energy change:   -0.001699  1 .order   -0.001347   -0.002216   -0.000478
 step:  23.0128(harm= 23.0128)  dis= 0.00755  next Energy=   -21.763730 (dE=-0.141E-02)
 bond charge predicted
       N       E                     dE             d eps       ncg     rms          rms(c)
DAV:   1    -0.217642164197E+02   -0.19552E-03   -0.20704E-01   384   0.129E+00    0.293E-02
DAV:   2    -0.217643234035E+02   -0.10698E-03   -0.95793E-04   384   0.123E-01    0.217E-02
DAV:   3    -0.217643242925E+02   -0.88901E-06   -0.16326E-05   224   0.148E-02
  39 F= -.21764324E+02 E0= -.21764324E+02  d E =-.200665E-02  mag=     0.0000
 curvature: -11.51 expect dE=-0.146E-02 dE for cont linesearch -0.240E-03
 trial: gam= 0.00000 g(F)=  0.127E-03 g(S)=  0.000E+00 ort = 0.506E-04 (trialstep = 0.184E+02)
 search vector abs. value=  0.127E-03
 bond charge predicted
       N       E                     dE             d eps       ncg     rms          rms(c)
DAV:   1    -0.217644867932E+02   -0.16339E-03   -0.29039E+00   352   0.480E+00    0.846E-02
DAV:   2    -0.217660229222E+02   -0.15361E-02   -0.14599E-02   400   0.478E-01    0.700E-02
DAV:   3    -0.217660264858E+02   -0.35636E-05   -0.22421E-04   224   0.590E-02
  40 F= -.21766026E+02 E0= -.21766026E+02  d E =-.170219E-02  mag=     0.0000
 trial-energy change:   -0.001702  1 .order   -0.001165   -0.002337    0.000007
 step:  18.3811(harm= 18.3497)  dis= 0.00625  next Energy=   -21.766026 (dE=-0.170E-02)
 bond charge predicted
       N       E                     dE             d eps       ncg     rms          rms(c)
DAV:   1    -0.217660091896E+02    0.13733E-04   -0.84514E-05   240   0.335E-02    0.183E-02
DAV:   2    -0.217660111885E+02   -0.19988E-05   -0.15055E-05   224   0.168E-02
  41 F= -.21766011E+02 E0= -.21766011E+02  d E =-.168690E-02  mag=     0.0000
 curvature:  -6.10 expect dE=-0.108E-02 dE for cont linesearch -0.114E-03
 trial: gam= 0.00000 g(F)=  0.176E-03 g(S)=  0.000E+00 ort = 0.488E-04 (trialstep = 0.133E+02)
 search vector abs. value=  0.176E-03
 bond charge predicted
       N       E                     dE             d eps       ncg     rms          rms(c)
DAV:   1    -0.217668403994E+02   -0.83121E-03   -0.20836E+00   384   0.407E+00    0.659E-02
DAV:   2    -0.217678870273E+02   -0.10466E-02   -0.99888E-03   400   0.391E-01    0.523E-02
DAV:   3    -0.217678804851E+02    0.65422E-05   -0.13947E-04   224   0.443E-02
  42 F= -.21767880E+02 E0= -.21767880E+02  d E =-.186930E-02  mag=     0.0000
 trial-energy change:   -0.001869  1 .order   -0.001552   -0.002337   -0.000768
 step:  19.7457(harm= 19.7457)  dis= 0.01097  next Energy=   -21.767751 (dE=-0.174E-02)
 bond charge predicted
       N       E                     dE             d eps       ncg     rms          rms(c)
DAV:   1    -0.217681875965E+02   -0.30057E-03   -0.50475E-01   384   0.201E+00    0.412E-02
DAV:   2    -0.217684306690E+02   -0.24307E-03   -0.23753E-03   384   0.190E-01    0.299E-02
DAV:   3    -0.217684284370E+02    0.22320E-05   -0.34405E-05   224   0.211E-02
  43 F= -.21768428E+02 E0= -.21768428E+02  d E =-.241725E-02  mag=     0.0000
 curvature:  -9.87 expect dE=-0.188E-02 dE for cont linesearch -0.123E-03
 trial: gam= 0.00000 g(F)=  0.190E-03 g(S)=  0.000E+00 ort = 0.468E-04 (trialstep = 0.135E+02)
 search vector abs. value=  0.190E-03
 bond charge predicted
       N       E                     dE             d eps       ncg     rms          rms(c)
DAV:   1    -0.217690749399E+02   -0.64427E-03   -0.23419E+00   352   0.430E+00    0.803E-02
DAV:   2    -0.217702131867E+02   -0.11382E-02   -0.11649E-02   368   0.426E-01    0.666E-02
DAV:   3    -0.217702109901E+02    0.21967E-05   -0.18598E-04   240   0.543E-02
  44 F= -.21770211E+02 E0= -.21770211E+02  d E =-.178255E-02  mag=     0.0000
 trial-energy change:   -0.001783  1 .order   -0.001393   -0.002566   -0.000221
 step:  14.7781(harm= 14.7781)  dis= 0.00781  next Energy=   -21.769832 (dE=-0.140E-02)
 bond charge predicted
       N       E                     dE             d eps       ncg     rms          rms(c)
DAV:   1    -0.217702714023E+02   -0.58216E-04   -0.22030E-02   384   0.421E-01    0.227E-02
DAV:   2    -0.217702796644E+02   -0.82621E-05   -0.91218E-05   224   0.392E-02
  45 F= -.21770280E+02 E0= -.21770280E+02  d E =-.185123E-02  mag=     0.0000
 curvature:  -7.39 expect dE=-0.126E-02 dE for cont linesearch -0.738E-04
 trial: gam= 0.66632 g(F)=  0.170E-03 g(S)=  0.000E+00 ort = 0.436E-04 (trialstep = 0.836E+01)
 search vector abs. value=  0.313E-03
 bond charge predicted
       N       E                     dE             d eps       ncg     rms          rms(c)
DAV:   1    -0.217712991303E+02   -0.10277E-02   -0.14679E+00   352   0.335E+00    0.328E-02
DAV:   2    -0.217720517436E+02   -0.75261E-03   -0.69921E-03   384   0.321E-01    0.321E-02
DAV:   3    -0.217720501012E+02    0.16424E-05   -0.86125E-05   224   0.348E-02
  46 F= -.21772050E+02 E0= -.21772050E+02  d E =-.177044E-02  mag=     0.0000
 ZBRENT: can't locate minimum, use default step
 trial-energy change:   -0.001770  1 .order   -0.001505   -0.001666   -0.001344
 step:  33.4542(harm= 43.3241)  dis= 0.03135  next Energy=   -21.774594 (dE=-0.431E-02)
 bond charge predicted
       N       E                     dE             d eps       ncg     rms          rms(c)
DAV:   1    -0.217703862048E+02    0.16655E-02   -0.13240E+01   352   0.101E+01    0.102E-01
DAV:   2    -0.217770821678E+02   -0.66960E-02   -0.62676E-02   400   0.961E-01    0.998E-02
DAV:   3    -0.217770617117E+02    0.20456E-04   -0.87183E-04   368   0.104E-01
  47 F= -.21777062E+02 E0= -.21777062E+02  d E =-.678205E-02  mag=     0.0000
 curvature: -31.28 expect dE=-0.408E-02 dE for cont linesearch -0.373E-02
 ZBRENT: increasing intervall
 opt :  83.6354  next Energy=   -21.788383 (dE=-0.181E-01)
 bond charge predicted
       N       E                     dE             d eps       ncg     rms          rms(c)
DAV:   1    -0.217575635929E+02    0.19519E-01   -0.53124E+01   352   0.202E+01    0.219E-01
DAV:   2    -0.217834794250E+02   -0.25916E-01   -0.24966E-01   400   0.192E+00    0.217E-01
DAV:   3    -0.217832717028E+02    0.20772E-03   -0.35213E-03   400   0.210E-01    0.180E-01
DAV:   4    -0.217825545224E+02    0.71718E-03   -0.10469E-03   400   0.937E-02    0.974E-02
DAV:   5    -0.217824454765E+02    0.10905E-03   -0.11703E-03   384   0.968E-02    0.309E-02
DAV:   6    -0.217824622537E+02   -0.16777E-04   -0.16303E-05   240   0.144E-02
  48 F= -.21782462E+02 E0= -.21782462E+02  d E =-.121826E-01  mag=     0.0000
 curvature: -94.83 expect dE=-0.699E-02 dE for cont linesearch -0.125E-02
 ZBRENT: extrapolating
 opt : 108.6564  next Energy=   -21.783266 (dE=-0.130E-01)
 bond charge predicted
       N       E                     dE             d eps       ncg     rms          rms(c)
DAV:   1    -0.217767371425E+02    0.57083E-02   -0.13134E+01   352   0.100E+01    0.101E-01
DAV:   2    -0.217831327953E+02   -0.63957E-02   -0.62303E-02   400   0.953E-01    0.939E-02
DAV:   3    -0.217830902088E+02    0.42587E-04   -0.86551E-04   384   0.104E-01
  49 F= -.21783090E+02 E0= -.21783090E+02  d E =-.128105E-01  mag=     0.0000
 curvature: -60.84 expect dE=-0.783E-02 dE for cont linesearch -0.769E-05
 trial: gam= 0.96546 g(F)=  0.129E-03 g(S)=  0.000E+00 ort = 0.628E-05 (trialstep = 0.206E+02)
 search vector abs. value=  0.432E-03
 bond charge predicted
       N       E                     dE             d eps       ncg     rms          rms(c)
DAV:   1    -0.217787536930E+02    0.43791E-02   -0.12251E+01   352   0.987E+00    0.120E-01
DAV:   2    -0.217844383734E+02   -0.56847E-02   -0.56831E-02   400   0.938E-01    0.115E-01
DAV:   3    -0.217843530148E+02    0.85359E-04   -0.82406E-04   384   0.104E-01
  50 F= -.21784353E+02 E0= -.21784353E+02  d E =-.126281E-02  mag=     0.0000
 trial-energy change:   -0.001263  1 .order   -0.001681   -0.002770   -0.000592
 step:  26.1376(harm= 26.1376)  dis= 0.01819  next Energy=   -21.784852 (dE=-0.176E-02)
 bond charge predicted
       N       E                     dE             d eps       ncg     rms          rms(c)
DAV:   1    -0.217837417947E+02    0.69658E-03   -0.90931E-01   384   0.269E+00    0.591E-02
DAV:   2    -0.217841268195E+02   -0.38502E-03   -0.39782E-03   400   0.250E-01    0.464E-02
DAV:   3    -0.217841066304E+02    0.20189E-04   -0.78516E-05   224   0.294E-02
  51 F= -.21784107E+02 E0= -.21784107E+02  d E =-.101642E-02  mag=     0.0000
 curvature: -41.90 expect dE=-0.641E-02 dE for cont linesearch -0.333E-03
 trial: gam= 0.00000 g(F)=  0.153E-03 g(S)=  0.000E+00 ort =-0.586E-04 (trialstep = 0.217E+02)
 search vector abs. value=  0.153E-03
 bond charge predicted
       N       E                     dE             d eps       ncg     rms          rms(c)
DAV:   1    -0.217825336587E+02    0.15932E-02   -0.48529E+00   352   0.624E+00    0.134E-01
DAV:   2    -0.217847200844E+02   -0.21864E-02   -0.23303E-02   384   0.606E-01    0.107E-01
DAV:   3    -0.217847074893E+02    0.12595E-04   -0.43879E-04   400   0.783E-02
  52 F= -.21784707E+02 E0= -.21784707E+02  d E =-.600859E-03  mag=     0.0000
 trial-energy change:   -0.000601  1 .order   -0.000585   -0.003317    0.002148
 step:  13.1549(harm= 13.1549)  dis= 0.00613  next Energy=   -21.785114 (dE=-0.101E-02)
 bond charge predicted
       N       E                     dE             d eps       ncg     rms          rms(c)
DAV:   1    -0.217847575666E+02   -0.37482E-04   -0.74533E-01   384   0.244E+00    0.382E-02
DAV:   2    -0.217851014208E+02   -0.34385E-03   -0.36084E-03   368   0.243E-01    0.334E-02
DAV:   3    -0.217851023483E+02   -0.92744E-06   -0.62175E-05   224   0.329E-02
  53 F= -.21785102E+02 E0= -.21785102E+02  d E =-.995718E-03  mag=     0.0000
 curvature:  -6.58 expect dE=-0.462E-03 dE for cont linesearch -0.283E-04
 trial: gam= 0.29122 g(F)=  0.702E-04 g(S)=  0.000E+00 ort = 0.256E-04 (trialstep = 0.200E+02)
 search vector abs. value=  0.981E-04
 reached required accuracy - stopping structural energy minimisation
Application 90924115 resources: utime ~10355s, stime ~154s, Rss ~56552, inblocks ~82407, outblocks ~153481
