 running on   32 total cores
 distrk:  each k-point on   32 cores,    1 groups
 distr:  one band on    8 cores,    4 groups
 using from now: INCAR     
 vasp.5.3.5 31Mar14 (build Feb 01 2018 12:10:03) gamma-only                     
  
 POSCAR found type information on POSCAR  Ag
 POSCAR found :  1 types and      31 ions
 scaLAPACK will be used

 ----------------------------------------------------------------------------- 
|                                                                             |
|  ADVICE TO THIS USER RUNNING 'VASP/VAMP'   (HEAR YOUR MASTER'S VOICE ...):  |
|                                                                             |
|      You have a (more or less) 'large supercell' and for larger cells       |
|      it might be more efficient to use real space projection opertators     |
|      So try LREAL= Auto  in the INCAR   file.                               |
|      Mind: At the moment your POTCAR file does not contain real space       |
|       projectors, and has to be modified,  BUT if you                       |
|      want to do an extremely  accurate calculation you might also keep the  |
|      reciprocal projection scheme          (i.e. LREAL=.FALSE.)             |
|                                                                             |
 ----------------------------------------------------------------------------- 

 LDA part: xc-table for Pade appr. of Perdew
 POSCAR, INCAR and KPOINTS ok, starting setup
 WARNING: small aliasing (wrap around) errors must be expected
 FFT: planning ...
 WAVECAR not read
 entering main loop
       N       E                     dE             d eps       ncg     rms          rms(c)
DAV:   1     0.303359161311E+04    0.30336E+04   -0.59652E+04   896   0.583E+02
DAV:   2     0.790193226928E+03   -0.22434E+04   -0.19986E+04  1560   0.134E+02
DAV:   3    -0.664298171413E+01   -0.79684E+03   -0.73166E+03  1184   0.907E+01
DAV:   4    -0.604715742799E+02   -0.53829E+02   -0.52740E+02   964   0.258E+01
DAV:   5    -0.612954088723E+02   -0.82383E+00   -0.82219E+00   992   0.383E+00    0.323E+01
DAV:   6    -0.212785283022E+02    0.40017E+02   -0.12172E+02   892   0.167E+01    0.168E+01
DAV:   7    -0.155988940411E+02    0.56796E+01   -0.70214E+00   960   0.631E+00    0.103E+01
DAV:   8    -0.117068207975E+02    0.38921E+01   -0.22203E+00   948   0.376E+00    0.537E+00
DAV:   9    -0.173875553645E+02   -0.56807E+01   -0.13417E+00   968   0.182E+00    0.346E+00
DAV:  10    -0.270078807526E+02   -0.96203E+01   -0.27272E+00   912   0.250E+00    0.264E+00
DAV:  11    -0.394828226848E+02   -0.12475E+02   -0.56004E+00   936   0.305E+00    0.254E+00
DAV:  12    -0.410721639083E+02   -0.15893E+01   -0.31144E-01  1016   0.101E+00    0.214E+00
DAV:  13    -0.471792800597E+02   -0.61071E+01   -0.21609E+00   900   0.230E+00    0.225E+00
DAV:  14    -0.491275342086E+02   -0.19483E+01   -0.38079E-01   960   0.118E+00    0.169E+00
DAV:  15    -0.531578861443E+02   -0.40304E+01   -0.11330E+00   904   0.130E+00    0.108E+00
DAV:  16    -0.559270193121E+02   -0.27691E+01   -0.54342E-01   924   0.803E-01    0.740E-01
DAV:  17    -0.573693131342E+02   -0.14423E+01   -0.14675E-01   928   0.597E-01    0.140E+00
DAV:  18    -0.575498722503E+02   -0.18056E+00   -0.93955E-03   960   0.233E-01    0.125E+00
DAV:  19    -0.578730832114E+02   -0.32321E+00   -0.13899E-02   944   0.284E-01    0.103E+00
DAV:  20    -0.592066962791E+02   -0.13336E+01   -0.14912E-01   896   0.846E-01    0.370E-01
DAV:  21    -0.597328783853E+02   -0.52618E+00   -0.27299E-02   936   0.285E-01    0.225E-01
DAV:  22    -0.600361587684E+02   -0.30328E+00   -0.56869E-03   920   0.134E-01    0.138E-01
DAV:  23    -0.602561760216E+02   -0.22002E+00   -0.78964E-03   924   0.148E-01    0.103E-01
DAV:  24    -0.603152370504E+02   -0.59061E-01   -0.10087E-03   816   0.798E-02    0.600E-02
DAV:  25    -0.603515577751E+02   -0.36321E-01   -0.73341E-04   672   0.417E-02    0.560E-02
DAV:  26    -0.603657625888E+02   -0.14205E-01   -0.53648E-04   620   0.445E-02    0.243E-02
DAV:  27    -0.603695618624E+02   -0.37993E-02   -0.30851E-04   632   0.312E-02    0.135E-02
DAV:  28    -0.603727756030E+02   -0.32137E-02   -0.95321E-05   648   0.115E-02    0.151E-02
DAV:  29    -0.603756050050E+02   -0.28294E-02   -0.52627E-05   608   0.100E-02    0.116E-02
DAV:  30    -0.603767876193E+02   -0.11826E-02   -0.13425E-05   616   0.646E-03    0.709E-03
DAV:  31    -0.603778181166E+02   -0.10305E-02   -0.78546E-06   588   0.536E-03    0.292E-03
DAV:  32    -0.603783747336E+02   -0.55662E-03   -0.57695E-06   608   0.396E-03    0.179E-03
DAV:  33    -0.603785191010E+02   -0.14437E-03   -0.14997E-06   600   0.211E-03    0.130E-03
DAV:  34    -0.603785853739E+02   -0.66273E-04   -0.66223E-07   592   0.137E-03
   1 F= -.60378585E+02 E0= -.60378585E+02  d E =-.603786E+02  mag=     1.0007
 curvature:   0.00 expect dE= 0.000E+00 dE for cont linesearch  0.000E+00
 trial: gam= 0.00000 g(F)=  0.755E-01 g(S)=  0.000E+00 ort = 0.000E+00 (trialstep = 0.100E+01)
 search vector abs. value=  0.755E-01
 bond charge predicted
       N       E                     dE             d eps       ncg     rms          rms(c)
DAV:   1    -0.604495146222E+02   -0.70996E-01   -0.50792E+00   928   0.413E+00    0.192E-01
DAV:   2    -0.604518465045E+02   -0.23319E-02   -0.24091E-02   936   0.401E-01    0.141E-01
DAV:   3    -0.604517844865E+02    0.62018E-04   -0.49603E-04   944   0.634E-02
   2 F= -.60451784E+02 E0= -.60451784E+02  d E =-.731991E-01  mag=     1.0004
 ZBRENT: can't locate minimum, use default step
 trial-energy change:   -0.073199  1 .order   -0.073000   -0.075536   -0.070463
 step:   4.0000(harm= 14.8889)  dis= 0.03111  next Energy=   -60.940911 (dE=-0.562E+00)
 bond charge predicted
       N       E                     dE             d eps       ncg     rms          rms(c)
DAV:   1    -0.606233811460E+02   -0.17153E+00   -0.45803E+01   884   0.124E+01    0.544E-01
DAV:   2    -0.606443156426E+02   -0.20934E-01   -0.21638E-01   936   0.120E+00    0.418E-01
DAV:   3    -0.606438416193E+02    0.47402E-03   -0.41524E-03   940   0.179E-01    0.256E-01
DAV:   4    -0.606435703821E+02    0.27124E-03   -0.20181E-03   960   0.101E-01    0.411E-02
DAV:   5    -0.606435414584E+02    0.28924E-04   -0.78102E-05   600   0.321E-02
   3 F= -.60643541E+02 E0= -.60643541E+02  d E =-.264956E+00  mag=     1.0002
 curvature:  -2.87 expect dE=-0.130E+00 dE for cont linesearch -0.126E+00
 ZBRENT: increasing intervall
 opt :  10.0000  next Energy=   -60.912204 (dE=-0.534E+00)
 bond charge predicted
       N       E                     dE             d eps       ncg     rms          rms(c)
DAV:   1    -0.608330924285E+02   -0.18952E+00   -0.18362E+02   880   0.249E+01    0.947E-01
DAV:   2    -0.609163127592E+02   -0.83220E-01   -0.85633E-01   916   0.241E+00    0.802E-01
DAV:   3    -0.609149043611E+02    0.14084E-02   -0.14876E-02   932   0.328E-01    0.547E-01
DAV:   4    -0.609133381297E+02    0.15662E-02   -0.90654E-03   940   0.198E-01    0.124E-01
DAV:   5    -0.609133294621E+02    0.86676E-05   -0.28359E-04   640   0.606E-02
   4 F= -.60913329E+02 E0= -.60913329E+02  d E =-.534744E+00  mag=     1.0001
 curvature:  -6.11 expect dE=-0.138E+00 dE for cont linesearch -0.929E-01
 ZBRENT: increasing intervall
 opt :  22.0000  next Energy=   -61.035285 (dE=-0.657E+00)
 bond charge predicted
       N       E                     dE             d eps       ncg     rms          rms(c)
DAV:   1    -0.607404340465E+02    0.17290E+00   -0.74417E+02   880   0.507E+01    0.153E+00
DAV:   2    -0.610795062677E+02   -0.33907E+00   -0.34681E+00   916   0.492E+00    0.153E+00
DAV:   3    -0.610782149109E+02    0.12914E-02   -0.56011E-02   944   0.608E-01    0.116E+00
DAV:   4    -0.610694334779E+02    0.87814E-02   -0.24541E-02   924   0.326E-01    0.555E-01
DAV:   5    -0.610698491587E+02   -0.41568E-03   -0.61367E-03   960   0.168E-01    0.171E-01
DAV:   6    -0.610696380792E+02    0.21108E-03   -0.68337E-04   952   0.484E-02    0.850E-02
DAV:   7    -0.610696940238E+02   -0.55945E-04   -0.20562E-04   624   0.320E-02
   5 F= -.61069694E+02 E0= -.61069694E+02  d E =-.691109E+00  mag=     1.0000
 curvature:  -8.02 expect dE=-0.202E+00 dE for cont linesearch -0.342E-02
 ZBRENT: bracketing found
 ZBRENT: interpolating
 opt :  20.2786  next Energy=   -61.074579 (dE=-0.696E+00)
 bond charge predicted
       N       E                     dE             d eps       ncg     rms          rms(c)
DAV:   1    -0.610678964565E+02    0.17416E-02   -0.15062E+01   888   0.711E+00    0.240E-01
DAV:   2    -0.610749858784E+02   -0.70894E-02   -0.72396E-02   952   0.691E-01    0.165E-01
DAV:   3    -0.610749497295E+02    0.36149E-04   -0.12762E-03   960   0.941E-02    0.111E-01
DAV:   4    -0.610750424945E+02   -0.92765E-04   -0.57453E-04   948   0.503E-02
   6 F= -.61075042E+02 E0= -.61075042E+02  d E =-.696457E+00  mag=     1.0000
 curvature: -11.45 expect dE=-0.254E+00 dE for cont linesearch -0.624E-04
 trial: gam= 0.30218 g(F)=  0.222E-01 g(S)=  0.000E+00 ort =-0.642E-03 (trialstep = 0.486E+01)
 search vector abs. value=  0.287E-01
 bond charge predicted
       N       E                     dE             d eps       ncg     rms          rms(c)
DAV:   1    -0.611491489075E+02   -0.74199E-01   -0.45327E+01   880   0.124E+01    0.375E-01
DAV:   2    -0.611695484870E+02   -0.20400E-01   -0.20755E-01   948   0.117E+00    0.303E-01
DAV:   3    -0.611691048244E+02    0.44366E-03   -0.33574E-03   976   0.148E-01    0.209E-01
DAV:   4    -0.611686247523E+02    0.48007E-03   -0.21489E-03   960   0.919E-02    0.543E-02
DAV:   5    -0.611686580665E+02   -0.33314E-04   -0.75744E-05   616   0.277E-02
   7 F= -.61168658E+02 E0= -.61168658E+02  d E =-.936156E-01  mag=     1.0000
 ZBRENT: can't locate minimum, use default step
 trial-energy change:   -0.093616  1 .order   -0.093819   -0.106777   -0.080860
 step:  19.4229(harm= 20.0055)  dis= 0.06937  next Energy=   -61.295003 (dE=-0.220E+00)
 bond charge predicted
       N       E                     dE             d eps       ncg     rms          rms(c)
DAV:   1    -0.611174606905E+02    0.51164E-01   -0.41168E+02   880   0.376E+01    0.102E+00
DAV:   2    -0.613042855635E+02   -0.18682E+00   -0.18942E+00   952   0.356E+00    0.879E-01
DAV:   3    -0.613016782894E+02    0.26073E-02   -0.29169E-02   968   0.433E-01    0.639E-01
DAV:   4    -0.612965946757E+02    0.50836E-02   -0.14456E-02   960   0.238E-01    0.244E-01
DAV:   5    -0.612967056914E+02   -0.11102E-03   -0.20741E-03   960   0.102E-01    0.853E-02
DAV:   6    -0.612966998269E+02    0.58644E-05   -0.23210E-04   648   0.301E-02
   8 F= -.61296700E+02 E0= -.61296700E+02  d E =-.221657E+00  mag=     1.0000
 curvature: -13.03 expect dE=-0.161E+00 dE for cont linesearch -0.112E-02
 trial: gam= 0.47697 g(F)=  0.123E-01 g(S)=  0.000E+00 ort = 0.157E-02 (trialstep = 0.777E+01)
 search vector abs. value=  0.204E-01
 bond charge predicted
       N       E                     dE             d eps       ncg     rms          rms(c)
DAV:   1    -0.613550851206E+02   -0.58379E-01   -0.82370E+01   884   0.167E+01    0.333E-01
DAV:   2    -0.613935528393E+02   -0.38468E-01   -0.38704E-01   944   0.160E+00    0.302E-01
DAV:   3    -0.613930152104E+02    0.53763E-03   -0.59979E-03   976   0.198E-01    0.225E-01
DAV:   4    -0.613919099595E+02    0.11053E-02   -0.17227E-03   936   0.826E-02    0.120E-01
DAV:   5    -0.613918265071E+02    0.83452E-04   -0.15132E-03   936   0.757E-02    0.413E-02
DAV:   6    -0.613919108301E+02   -0.84323E-04   -0.37726E-05   584   0.126E-02
   9 F= -.61391911E+02 E0= -.61391911E+02  d E =-.952110E-01  mag=     1.0000
 ZBRENT: can't locate minimum, use default step
 trial-energy change:   -0.095211  1 .order   -0.095250   -0.101717   -0.088782
 step:  31.0767(harm= 61.0938)  dis= 0.09230  next Energy=   -61.696633 (dE=-0.400E+00)
 bond charge predicted
       N       E                     dE             d eps       ncg     rms          rms(c)
DAV:   1    -0.612392835970E+02    0.15254E+00   -0.75408E+02   880   0.511E+01    0.131E+00
DAV:   2    -0.616026251768E+02   -0.36334E+00   -0.36525E+00   952   0.497E+00    0.941E-01
DAV:   3    -0.615969210682E+02    0.57041E-02   -0.57933E-02   968   0.622E-01    0.645E-01
DAV:   4    -0.615882162430E+02    0.87048E-02   -0.15259E-02   928   0.247E-01    0.331E-01
DAV:   5    -0.615873308990E+02    0.88534E-03   -0.76473E-03   944   0.172E-01    0.959E-02
DAV:   6    -0.615875726282E+02   -0.24173E-03   -0.24577E-04   656   0.337E-02    0.585E-02
DAV:   7    -0.615879342925E+02   -0.36166E-03   -0.93655E-05   624   0.196E-02    0.210E-02
DAV:   8    -0.615882655093E+02   -0.33122E-03   -0.23529E-05   616   0.987E-03    0.668E-03
DAV:   9    -0.615885886164E+02   -0.32311E-03   -0.82957E-06   608   0.500E-03    0.353E-03
DAV:  10    -0.615888509417E+02   -0.26233E-03   -0.46771E-06   616   0.267E-03    0.249E-03
DAV:  11    -0.615891785981E+02   -0.32766E-03   -0.65084E-06   608   0.239E-03    0.179E-03
DAV:  12    -0.615895032163E+02   -0.32462E-03   -0.73656E-06   624   0.236E-03    0.120E-03
DAV:  13    -0.615896558455E+02   -0.15263E-03   -0.26545E-06   616   0.146E-03    0.807E-04
DAV:  14    -0.615897605003E+02   -0.10465E-03   -0.13478E-06   608   0.104E-03    0.441E-04
DAV:  15    -0.615898230317E+02   -0.62531E-04   -0.58175E-07   600   0.732E-04
  10 F= -.61589823E+02 E0= -.61589823E+02  d E =-.293123E+00  mag=     1.0000
 curvature: -32.46 expect dE=-0.302E+00 dE for cont linesearch -0.466E-01
 ZBRENT: increasing intervall
 opt :  77.6916  next Energy=   -61.561371 (dE=-0.265E+00)
 bond charge predicted
       N       E                     dE             d eps       ncg     rms          rms(c)
DAV:   1    -0.598353827319E+02    0.17544E+01   -0.31858E+03   880   0.109E+02    0.456E+00
DAV:   2    -0.615231679369E+02   -0.16878E+01   -0.17012E+01   956   0.111E+01    0.238E+00
DAV:   3    -0.615051972784E+02    0.17971E-01   -0.29009E-01   976   0.148E+00    0.141E+00
DAV:   4    -0.614801509393E+02    0.25046E-01   -0.43526E-02   952   0.429E-01    0.865E-01
DAV:   5    -0.614753827603E+02    0.47682E-02   -0.29040E-02   944   0.337E-01    0.195E-01
DAV:   6    -0.614759448497E+02   -0.56209E-03   -0.76601E-04   956   0.687E-02    0.116E-01
DAV:   7    -0.614765548678E+02   -0.61002E-03   -0.11461E-04   624   0.241E-02    0.471E-02
DAV:   8    -0.614771285236E+02   -0.57366E-03   -0.43114E-05   624   0.125E-02    0.142E-02
DAV:   9    -0.614776384544E+02   -0.50993E-03   -0.15000E-05   616   0.611E-03    0.648E-03
DAV:  10    -0.614780387206E+02   -0.40027E-03   -0.92365E-06   616   0.348E-03    0.391E-03
DAV:  11    -0.614784765875E+02   -0.43787E-03   -0.95900E-06   616   0.280E-03    0.274E-03
DAV:  12    -0.614790484794E+02   -0.57189E-03   -0.20483E-05   632   0.343E-03    0.215E-03
DAV:  13    -0.614793033020E+02   -0.25482E-03   -0.50058E-06   632   0.194E-03    0.133E-03
DAV:  14    -0.614794717659E+02   -0.16846E-03   -0.31153E-06   616   0.147E-03    0.705E-04
DAV:  15    -0.614795633978E+02   -0.91632E-04   -0.96385E-07   616   0.933E-04
  11 F= -.61479563E+02 E0= -.61479563E+02  d E =-.182864E+00  mag=     1.0000
 curvature:  19.81 expect dE= 0.142E+01 dE for cont linesearch  0.141E+00
 ZBRENT: bracketing found
 ZBRENT: interpolating
 opt :  45.5242  next Energy=   -61.628893 (dE=-0.332E+00)
 bond charge predicted
       N       E                     dE             d eps       ncg     rms          rms(c)
DAV:   1    -0.609476911364E+02    0.53178E+00   -0.14619E+03   880   0.720E+01    0.193E+00
DAV:   2    -0.616626336428E+02   -0.71494E+00   -0.71559E+00   952   0.704E+00    0.159E+00
DAV:   3    -0.616551893891E+02    0.74443E-02   -0.11206E-01   984   0.859E-01    0.113E+00
DAV:   4    -0.616384192747E+02    0.16770E-01   -0.27947E-02   960   0.341E-01    0.638E-01
DAV:   5    -0.616362576632E+02    0.21616E-02   -0.17919E-02   944   0.268E-01    0.182E-01
DAV:   6    -0.616364256956E+02   -0.16803E-03   -0.43596E-04   864   0.490E-02    0.109E-01
DAV:   7    -0.616367209451E+02   -0.29525E-03   -0.22191E-04   640   0.330E-02    0.408E-02
DAV:   8    -0.616369962541E+02   -0.27531E-03   -0.59847E-05   608   0.175E-02    0.169E-02
DAV:   9    -0.616372825602E+02   -0.28631E-03   -0.11364E-05   608   0.675E-03    0.675E-03
DAV:  10    -0.616375092800E+02   -0.22672E-03   -0.52053E-06   624   0.370E-03    0.310E-03
DAV:  11    -0.616376970617E+02   -0.18778E-03   -0.27965E-06   608   0.190E-03    0.201E-03
DAV:  12    -0.616380629156E+02   -0.36585E-03   -0.11270E-05   596   0.266E-03    0.174E-03
DAV:  13    -0.616381714600E+02   -0.10854E-03   -0.18724E-06   616   0.139E-03    0.146E-03
DAV:  14    -0.616382849713E+02   -0.11351E-03   -0.15852E-06   600   0.108E-03    0.713E-04
DAV:  15    -0.616383523735E+02   -0.67402E-04   -0.81601E-07   608   0.819E-04
  12 F= -.61638352E+02 E0= -.61638352E+02  d E =-.341653E+00  mag=     1.0000
 curvature:  -5.49 expect dE=-0.919E-01 dE for cont linesearch -0.356E-03
 trial: gam= 1.35351 g(F)=  0.167E-01 g(S)=  0.000E+00 ort = 0.115E-02 (trialstep = 0.546E+01)
 search vector abs. value=  0.572E-01
 bond charge predicted
       N       E                     dE             d eps       ncg     rms          rms(c)
DAV:   1    -0.616774166244E+02   -0.39132E-01   -0.11412E+02   888   0.197E+01    0.386E-01
DAV:   2    -0.617309269196E+02   -0.53510E-01   -0.53486E-01   952   0.189E+00    0.356E-01
DAV:   3    -0.617302898556E+02    0.63706E-03   -0.83435E-03   968   0.235E-01    0.265E-01
DAV:   4    -0.617287881001E+02    0.15018E-02   -0.22305E-03   936   0.938E-02    0.147E-01
DAV:   5    -0.617285782356E+02    0.20986E-03   -0.23134E-03   952   0.928E-02    0.491E-02
DAV:   6    -0.617285758804E+02    0.23551E-05   -0.55211E-05   600   0.154E-02
  13 F= -.61728576E+02 E0= -.61728576E+02  d E =-.902235E-01  mag=     1.0000
 ZBRENT: can't locate minimum, use default step
 trial-energy change:   -0.090224  1 .order   -0.090715   -0.099888   -0.081542
 step:  21.8328(harm= 29.7176)  dis= 0.10159  next Energy=   -61.910276 (dE=-0.272E+00)
 bond charge predicted
       N       E                     dE             d eps       ncg     rms          rms(c)
DAV:   1    -0.613811418043E+02    0.34744E+00   -0.10485E+03   880   0.606E+01    0.167E+00
DAV:   2    -0.618920690047E+02   -0.51093E+00   -0.51449E+00   960   0.595E+00    0.115E+00
DAV:   3    -0.618847330119E+02    0.73360E-02   -0.84067E-02   960   0.775E-01    0.756E-01
DAV:   4    -0.618733497417E+02    0.11383E-01   -0.19733E-02   936   0.281E-01    0.407E-01
DAV:   5    -0.618720443243E+02    0.13054E-02   -0.11060E-02   944   0.206E-01    0.114E-01
DAV:   6    -0.618721643721E+02   -0.12005E-03   -0.34720E-04   704   0.405E-02    0.665E-02
DAV:   7    -0.618723554335E+02   -0.19106E-03   -0.89036E-05   616   0.204E-02    0.247E-02
DAV:   8    -0.618724866617E+02   -0.13123E-03   -0.19243E-05   624   0.936E-03    0.822E-03
DAV:   9    -0.618726163326E+02   -0.12967E-03   -0.70065E-06   592   0.467E-03    0.333E-03
DAV:  10    -0.618727237672E+02   -0.10743E-03   -0.41899E-06   616   0.255E-03    0.206E-03
DAV:  11    -0.618728139025E+02   -0.90135E-04   -0.27611E-06   592   0.162E-03
  14 F= -.61872814E+02 E0= -.61872814E+02  d E =-.234462E+00  mag=     1.0000
 curvature: -41.51 expect dE=-0.604E+00 dE for cont linesearch -0.364E-02
 trial: gam= 0.57199 g(F)=  0.146E-01 g(S)=  0.000E+00 ort = 0.224E-02 (trialstep = 0.873E+01)
 search vector abs. value=  0.358E-01
 bond charge predicted
       N       E                     dE             d eps       ncg     rms          rms(c)
DAV:   1    -0.619130305853E+02   -0.40307E-01   -0.18342E+02   880   0.250E+01    0.524E-01
DAV:   2    -0.619975427389E+02   -0.84512E-01   -0.84575E-01   936   0.238E+00    0.470E-01
DAV:   3    -0.619965089030E+02    0.10338E-02   -0.13188E-02   992   0.292E-01    0.342E-01
DAV:   4    -0.619941467197E+02    0.23622E-02   -0.41761E-03   928   0.127E-01    0.177E-01
DAV:   5    -0.619939831451E+02    0.16357E-03   -0.26934E-03   940   0.102E-01    0.604E-02
DAV:   6    -0.619940074808E+02   -0.24336E-04   -0.76897E-05   608   0.183E-02
  15 F= -.61994007E+02 E0= -.61994007E+02  d E =-.121194E+00  mag=     1.0000
 ZBRENT: can't locate minimum, use default step
 trial-energy change:   -0.121194  1 .order   -0.121825   -0.138271   -0.105379
 step:  34.9325(harm= 36.7124)  dis= 0.18677  next Energy=   -62.163445 (dE=-0.291E+00)
 bond charge predicted
       N       E                     dE             d eps       ncg     rms          rms(c)
DAV:   1    -0.613299277017E+02    0.66406E+00   -0.17146E+03   880   0.784E+01    0.241E+00
DAV:   2    -0.621692691580E+02   -0.83934E+00   -0.84455E+00   940   0.769E+00    0.153E+00
DAV:   3    -0.621592526691E+02    0.10016E-01   -0.13684E-01   976   0.966E-01    0.996E-01
DAV:   4    -0.621433017230E+02    0.15951E-01   -0.26463E-02   952   0.329E-01    0.573E-01
DAV:   5    -0.621410619843E+02    0.22397E-02   -0.16641E-02   944   0.254E-01    0.154E-01
DAV:   6    -0.621414675710E+02   -0.40559E-03   -0.37437E-04   736   0.476E-02    0.850E-02
DAV:   7    -0.621418828481E+02   -0.41528E-03   -0.11032E-04   624   0.225E-02    0.335E-02
DAV:   8    -0.621421548003E+02   -0.27195E-03   -0.27951E-05   632   0.113E-02    0.124E-02
DAV:   9    -0.621424139663E+02   -0.25917E-03   -0.12254E-05   632   0.574E-03    0.434E-03
DAV:  10    -0.621425812474E+02   -0.16728E-03   -0.58834E-06   608   0.308E-03    0.259E-03
DAV:  11    -0.621427077956E+02   -0.12655E-03   -0.35131E-06   616   0.192E-03    0.180E-03
DAV:  12    -0.621429286144E+02   -0.22082E-03   -0.14350E-05   604   0.284E-03    0.157E-03
DAV:  13    -0.621429798425E+02   -0.51228E-04   -0.15372E-06   616   0.123E-03
  16 F= -.62142980E+02 E0= -.62142980E+02  d E =-.270166E+00  mag=     1.0000
 curvature: -41.36 expect dE=-0.666E+00 dE for cont linesearch -0.506E-03
 trial: gam= 1.13378 g(F)=  0.161E-01 g(S)=  0.000E+00 ort =-0.662E-03 (trialstep = 0.825E+01)
 search vector abs. value=  0.607E-01
 bond charge predicted
       N       E                     dE             d eps       ncg     rms          rms(c)
DAV:   1    -0.621261183045E+02    0.16810E-01   -0.27875E+02   880   0.307E+01    0.634E-01
DAV:   2    -0.622565802071E+02   -0.13046E+00   -0.13066E+00   932   0.296E+00    0.535E-01
DAV:   3    -0.622548885490E+02    0.16917E-02   -0.20364E-02   984   0.363E-01    0.386E-01
DAV:   4    -0.622515270104E+02    0.33615E-02   -0.49579E-03   952   0.141E-01    0.213E-01
DAV:   5    -0.622508734074E+02    0.65360E-03   -0.43249E-03   944   0.127E-01    0.650E-02
DAV:   6    -0.622509150850E+02   -0.41678E-04   -0.83089E-05   600   0.198E-02
  17 F= -.62250915E+02 E0= -.62250915E+02  d E =-.107935E+00  mag=     1.0000
 trial-energy change:   -0.107935  1 .order   -0.109872   -0.126738   -0.093005
 step:  31.0030(harm= 31.0030)  dis= 0.18618  next Energy=   -62.381061 (dE=-0.238E+00)
 bond charge predicted
       N       E                     dE             d eps       ncg     rms          rms(c)
DAV:   1    -0.611695364126E+02    0.10813E+01   -0.22444E+03   880   0.902E+01    0.332E+00
DAV:   2    -0.623418109094E+02   -0.11723E+01   -0.11836E+01   928   0.916E+00    0.182E+00
DAV:   3    -0.623301105909E+02    0.11700E-01   -0.19865E-01   968   0.120E+00    0.111E+00
DAV:   4    -0.623127086262E+02    0.17402E-01   -0.26504E-02   936   0.341E-01    0.711E-01
DAV:   5    -0.623082234593E+02    0.44852E-02   -0.23023E-02   928   0.298E-01    0.176E-01
DAV:   6    -0.623088631835E+02   -0.63972E-03   -0.43003E-04   808   0.531E-02    0.106E-01
DAV:   7    -0.623096433708E+02   -0.78019E-03   -0.10252E-04   640   0.212E-02    0.461E-02
DAV:   8    -0.623103765202E+02   -0.73315E-03   -0.43674E-05   632   0.123E-02    0.147E-02
DAV:   9    -0.623110542318E+02   -0.67771E-03   -0.18397E-05   616   0.573E-03    0.640E-03
DAV:  10    -0.623116068538E+02   -0.55262E-03   -0.11477E-05   608   0.350E-03    0.402E-03
DAV:  11    -0.623121452674E+02   -0.53841E-03   -0.10112E-05   624   0.282E-03    0.305E-03
DAV:  12    -0.623129294854E+02   -0.78422E-03   -0.25178E-05   608   0.364E-03    0.215E-03
DAV:  13    -0.623132694681E+02   -0.33998E-03   -0.67845E-06   632   0.212E-03    0.133E-03
DAV:  14    -0.623134770100E+02   -0.20754E-03   -0.33424E-06   616   0.156E-03    0.718E-04
DAV:  15    -0.623135875255E+02   -0.11052E-03   -0.13265E-06   600   0.102E-03    0.428E-04
DAV:  16    -0.623136688780E+02   -0.81353E-04   -0.63569E-07   592   0.768E-04
  18 F= -.62313669E+02 E0= -.62313669E+02  d E =-.170689E+00  mag=     1.0000
 curvature: -61.21 expect dE=-0.142E+01 dE for cont linesearch -0.524E-01
 ZBRENT: interpolating
 opt :  22.1306  next Energy=   -62.345632 (dE=-0.203E+00)
 bond charge predicted
       N       E                     dE             d eps       ncg     rms          rms(c)
DAV:   1    -0.621951787706E+02    0.11841E+00   -0.32280E+02   888   0.332E+01    0.655E-01
DAV:   2    -0.623444199331E+02   -0.14924E+00   -0.14958E+00   940   0.317E+00    0.627E-01
DAV:   3    -0.623430389208E+02    0.13810E-02   -0.23434E-02   984   0.389E-01    0.472E-01
DAV:   4    -0.623391169172E+02    0.39220E-02   -0.51706E-03   952   0.146E-01    0.285E-01
DAV:   5    -0.623381771319E+02    0.93979E-03   -0.66355E-03   956   0.156E-01    0.895E-02
DAV:   6    -0.623382290696E+02   -0.51938E-04   -0.10454E-04   632   0.224E-02
  19 F= -.62338229E+02 E0= -.62338229E+02  d E =-.195249E+00  mag=     1.0000
 curvature: -37.34 expect dE=-0.517E+00 dE for cont linesearch -0.264E-03
 trial: gam= 0.47077 g(F)=  0.138E-01 g(S)=  0.000E+00 ort = 0.655E-03 (trialstep = 0.110E+02)
 search vector abs. value=  0.279E-01
 bond charge predicted
       N       E                     dE             d eps       ncg     rms          rms(c)
DAV:   1    -0.623476467736E+02   -0.94696E-02   -0.23006E+02   884   0.279E+01    0.712E-01
DAV:   2    -0.624561576057E+02   -0.10851E+00   -0.10962E+00   932   0.270E+00    0.583E-01
DAV:   3    -0.624548576566E+02    0.12999E-02   -0.17701E-02   976   0.341E-01    0.409E-01
DAV:   4    -0.624522645964E+02    0.25931E-02   -0.64991E-03   932   0.161E-01    0.180E-01
DAV:   5    -0.624522295492E+02    0.35047E-04   -0.17836E-03   976   0.907E-02    0.604E-02
DAV:   6    -0.624522661794E+02   -0.36630E-04   -0.14270E-04   608   0.234E-02
  20 F= -.62452266E+02 E0= -.62452266E+02  d E =-.114037E+00  mag=     1.0000
 trial-energy change:   -0.114037  1 .order   -0.111891   -0.156076   -0.067707
 step:  17.8635(harm= 19.4769)  dis= 0.10177  next Energy=   -62.473762 (dE=-0.136E+00)
 bond charge predicted
       N       E                     dE             d eps       ncg     rms          rms(c)
DAV:   1    -0.624357159080E+02    0.16514E-01   -0.87810E+01   896   0.172E+01    0.439E-01
DAV:   2    -0.624763383251E+02   -0.40622E-01   -0.41379E-01   944   0.165E+00    0.362E-01
DAV:   3    -0.624757037496E+02    0.63458E-03   -0.66785E-03   976   0.209E-01    0.251E-01
DAV:   4    -0.624745745893E+02    0.11292E-02   -0.26816E-03   932   0.104E-01    0.105E-01
DAV:   5    -0.624745823104E+02   -0.77211E-05   -0.60980E-04   960   0.543E-02
  21 F= -.62474582E+02 E0= -.62474582E+02  d E =-.136353E+00  mag=     1.0000
 curvature: -18.50 expect dE=-0.139E+00 dE for cont linesearch -0.233E-03
 trial: gam= 0.43051 g(F)=  0.754E-02 g(S)=  0.000E+00 ort = 0.593E-03 (trialstep = 0.124E+02)
 search vector abs. value=  0.132E-01
 bond charge predicted
       N       E                     dE             d eps       ncg     rms          rms(c)
DAV:   1    -0.624839059818E+02   -0.93314E-02   -0.13627E+02   880   0.215E+01    0.456E-01
DAV:   2    -0.625471911951E+02   -0.63285E-01   -0.63547E-01   936   0.207E+00    0.411E-01
DAV:   3    -0.625464974462E+02    0.69375E-03   -0.10345E-02   992   0.268E-01    0.295E-01
DAV:   4    -0.625448507023E+02    0.16467E-02   -0.27978E-03   924   0.105E-01    0.161E-01
DAV:   5    -0.625447606625E+02    0.90040E-04   -0.23575E-03   936   0.947E-02    0.537E-02
DAV:   6    -0.625448367902E+02   -0.76128E-04   -0.84981E-05   608   0.183E-02
  22 F= -.62544837E+02 E0= -.62544837E+02  d E =-.702545E-01  mag=     1.0000
 trial-energy change:   -0.070254  1 .order   -0.070813   -0.096572   -0.045053
 step:  24.8596(harm= 23.2340)  dis= 0.09287  next Energy=   -62.566923 (dE=-0.923E-01)
 bond charge predicted
       N       E                     dE             d eps       ncg     rms          rms(c)
DAV:   1    -0.625010388371E+02    0.43722E-01   -0.13781E+02   884   0.216E+01    0.469E-01
DAV:   2    -0.625650508928E+02   -0.64012E-01   -0.64232E-01   928   0.209E+00    0.415E-01
DAV:   3    -0.625642569726E+02    0.79392E-03   -0.10452E-02   984   0.270E-01    0.297E-01
DAV:   4    -0.625625111389E+02    0.17458E-02   -0.30554E-03   944   0.110E-01    0.156E-01
DAV:   5    -0.625624126151E+02    0.98524E-04   -0.21724E-03   936   0.914E-02    0.527E-02
DAV:   6    -0.625624801013E+02   -0.67486E-04   -0.85660E-05   608   0.183E-02
  23 F= -.62562480E+02 E0= -.62562480E+02  d E =-.878978E-01  mag=     1.0000
 curvature: -19.26 expect dE=-0.169E+00 dE for cont linesearch -0.653E-03
 trial: gam= 1.20693 g(F)=  0.877E-02 g(S)=  0.000E+00 ort =-0.669E-03 (trialstep = 0.745E+01)
 search vector abs. value=  0.264E-01
 bond charge predicted
       N       E                     dE             d eps       ncg     rms          rms(c)
DAV:   1    -0.625665634920E+02   -0.41509E-02   -0.98327E+01   880   0.182E+01    0.346E-01
DAV:   2    -0.626123163389E+02   -0.45753E-01   -0.46015E-01   920   0.177E+00    0.373E-01
DAV:   3    -0.626120239908E+02    0.29235E-03   -0.74838E-03  1000   0.225E-01    0.279E-01
DAV:   4    -0.626106720541E+02    0.13519E-02   -0.16966E-03   944   0.836E-02    0.181E-01
DAV:   5    -0.626104441104E+02    0.22794E-03   -0.28671E-03   944   0.103E-01    0.657E-02
DAV:   6    -0.626105194399E+02   -0.75329E-04   -0.58760E-05   616   0.155E-02
  24 F= -.62610519E+02 E0= -.62610519E+02  d E =-.480393E-01  mag=     1.0000
 trial-energy change:   -0.048039  1 .order   -0.048882   -0.059341   -0.038422
 step:  21.1361(harm= 21.1361)  dis= 0.08429  next Energy=   -62.646646 (dE=-0.842E-01)
 bond charge predicted
       N       E                     dE             d eps       ncg     rms          rms(c)
DAV:   1    -0.624922702850E+02    0.11817E+00   -0.33360E+02   880   0.337E+01    0.689E-01
DAV:   2    -0.626489468469E+02   -0.15668E+00   -0.15762E+00   932   0.329E+00    0.688E-01
DAV:   3    -0.626476150000E+02    0.13318E-02   -0.25761E-02   992   0.419E-01    0.499E-01
DAV:   4    -0.626431248178E+02    0.44902E-02   -0.59217E-03   932   0.156E-01    0.313E-01
DAV:   5    -0.626422465625E+02    0.87826E-03   -0.74604E-03   924   0.166E-01    0.106E-01
DAV:   6    -0.626423565542E+02   -0.10999E-03   -0.16006E-04   640   0.255E-02    0.615E-02
DAV:   7    -0.626425489634E+02   -0.19241E-03   -0.11206E-04   616   0.210E-02    0.228E-02
DAV:   8    -0.626427153327E+02   -0.16637E-03   -0.26238E-05   624   0.115E-02    0.809E-03
DAV:   9    -0.626429135092E+02   -0.19818E-03   -0.92077E-06   600   0.618E-03    0.257E-03
DAV:  10    -0.626430437800E+02   -0.13027E-03   -0.26869E-06   616   0.264E-03    0.169E-03
DAV:  11    -0.626431948695E+02   -0.15109E-03   -0.26715E-06   608   0.169E-03    0.128E-03
DAV:  12    -0.626433499144E+02   -0.15504E-03   -0.33756E-06   624   0.144E-03    0.893E-04
DAV:  13    -0.626434284252E+02   -0.78511E-04   -0.13605E-06   624   0.937E-04
  25 F= -.62643428E+02 E0= -.62643428E+02  d E =-.809483E-01  mag=     1.0000
 curvature: -35.05 expect dE=-0.191E+00 dE for cont linesearch -0.169E-03
 trial: gam= 0.39859 g(F)=  0.545E-02 g(S)=  0.000E+00 ort =-0.357E-03 (trialstep = 0.102E+02)
 search vector abs. value=  0.936E-02
 bond charge predicted
       N       E                     dE             d eps       ncg     rms          rms(c)
DAV:   1    -0.626591911458E+02   -0.15841E-01   -0.65199E+01   888   0.148E+01    0.311E-01
DAV:   2    -0.626894556638E+02   -0.30265E-01   -0.30488E-01   924   0.142E+00    0.293E-01
DAV:   3    -0.626890786243E+02    0.37704E-03   -0.47719E-03   984   0.173E-01    0.218E-01
DAV:   4    -0.626880844577E+02    0.99417E-03   -0.16560E-03   928   0.820E-02    0.112E-01
DAV:   5    -0.626879387170E+02    0.14574E-03   -0.10729E-03   968   0.646E-02    0.415E-02
DAV:   6    -0.626879493697E+02   -0.10653E-04   -0.41394E-05   600   0.126E-02
  26 F= -.62687949E+02 E0= -.62687949E+02  d E =-.445209E-01  mag=     1.0000
 trial-energy change:   -0.044521  1 .order   -0.045086   -0.054060   -0.036112
 step:  30.6870(harm= 30.6870)  dis= 0.05890  next Energy=   -62.724844 (dE=-0.814E-01)
 bond charge predicted
       N       E                     dE             d eps       ncg     rms          rms(c)
DAV:   1    -0.626054037113E+02    0.82535E-01   -0.26531E+02   880   0.301E+01    0.667E-01
DAV:   2    -0.627297175496E+02   -0.12431E+00   -0.12559E+00   912   0.290E+00    0.592E-01
DAV:   3    -0.627280481631E+02    0.16694E-02   -0.19840E-02   984   0.355E-01    0.428E-01
DAV:   4    -0.627242654488E+02    0.37827E-02   -0.64378E-03   928   0.161E-01    0.219E-01
DAV:   5    -0.627238791501E+02    0.38630E-03   -0.36247E-03   944   0.119E-01    0.753E-02
DAV:   6    -0.627239824559E+02   -0.10331E-03   -0.15242E-04   632   0.239E-02    0.435E-02
DAV:   7    -0.627242099304E+02   -0.22747E-03   -0.98924E-05   600   0.197E-02    0.143E-02
DAV:   8    -0.627244316469E+02   -0.22172E-03   -0.21887E-05   616   0.995E-03    0.446E-03
DAV:   9    -0.627246534362E+02   -0.22179E-03   -0.71242E-06   600   0.505E-03    0.284E-03
DAV:  10    -0.627248179061E+02   -0.16447E-03   -0.29388E-06   608   0.237E-03    0.198E-03
DAV:  11    -0.627251274810E+02   -0.30957E-03   -0.79561E-06   612   0.261E-03    0.168E-03
DAV:  12    -0.627252775072E+02   -0.15003E-03   -0.23493E-06   624   0.168E-03    0.999E-04
DAV:  13    -0.627254035540E+02   -0.12605E-03   -0.19504E-06   608   0.115E-03    0.634E-04
DAV:  14    -0.627254908011E+02   -0.87247E-04   -0.98068E-07   624   0.802E-04
  27 F= -.62725491E+02 E0= -.62725491E+02  d E =-.820624E-01  mag=     1.0000
 curvature: -27.07 expect dE=-0.137E+00 dE for cont linesearch -0.763E-04
 trial: gam= 0.90320 g(F)=  0.507E-02 g(S)=  0.000E+00 ort = 0.162E-03 (trialstep = 0.103E+02)
 search vector abs. value=  0.130E-01
 bond charge predicted
       N       E                     dE             d eps       ncg     rms          rms(c)
DAV:   1    -0.627281607471E+02   -0.27572E-02   -0.92364E+01   880   0.177E+01    0.358E-01
DAV:   2    -0.627710100592E+02   -0.42849E-01   -0.43050E-01   932   0.169E+00    0.315E-01
DAV:   3    -0.627704590464E+02    0.55101E-03   -0.67024E-03   984   0.206E-01    0.233E-01
DAV:   4    -0.627692022020E+02    0.12568E-02   -0.19580E-03   936   0.887E-02    0.119E-01
DAV:   5    -0.627689955864E+02    0.20662E-03   -0.14875E-03   952   0.747E-02    0.411E-02
DAV:   6    -0.627690159732E+02   -0.20387E-04   -0.44894E-05   600   0.135E-02
  28 F= -.62769016E+02 E0= -.62769016E+02  d E =-.435252E-01  mag=     1.0000
 trial-energy change:   -0.043525  1 .order   -0.044161   -0.053661   -0.034661
 step:  29.0589(harm= 29.0589)  dis= 0.07359  next Energy=   -62.801267 (dE=-0.758E-01)
 bond charge predicted
       N       E                     dE             d eps       ncg     rms          rms(c)
DAV:   1    -0.626572442427E+02    0.11175E+00   -0.30944E+02   880   0.325E+01    0.737E-01
DAV:   2    -0.628027984513E+02   -0.14555E+00   -0.14662E+00   932   0.312E+00    0.576E-01
DAV:   3    -0.628006606023E+02    0.21378E-02   -0.23128E-02   984   0.386E-01    0.409E-01
DAV:   4    -0.627968708701E+02    0.37897E-02   -0.65329E-03   920   0.162E-01    0.200E-01
DAV:   5    -0.627965042573E+02    0.36661E-03   -0.35577E-03   952   0.117E-01    0.628E-02
DAV:   6    -0.627966389642E+02   -0.13471E-03   -0.12665E-04   616   0.227E-02    0.368E-02
DAV:   7    -0.627968641864E+02   -0.22522E-03   -0.70304E-05   624   0.165E-02    0.125E-02
DAV:   8    -0.627970776268E+02   -0.21344E-03   -0.17673E-05   608   0.846E-03    0.411E-03
DAV:   9    -0.627972774203E+02   -0.19979E-03   -0.57680E-06   616   0.408E-03    0.252E-03
DAV:  10    -0.627974232914E+02   -0.14587E-03   -0.27774E-06   608   0.199E-03    0.170E-03
DAV:  11    -0.627976652428E+02   -0.24195E-03   -0.63644E-06   604   0.213E-03    0.135E-03
DAV:  12    -0.627977953390E+02   -0.13010E-03   -0.22388E-06   624   0.148E-03    0.823E-04
DAV:  13    -0.627978930219E+02   -0.97683E-04   -0.16971E-06   600   0.101E-03
  29 F= -.62797893E+02 E0= -.62797893E+02  d E =-.724022E-01  mag=     1.0000
 curvature: -36.21 expect dE=-0.255E+00 dE for cont linesearch -0.159E-03
 trial: gam= 1.48131 g(F)=  0.703E-02 g(S)=  0.000E+00 ort =-0.239E-03 (trialstep = 0.524E+01)
 search vector abs. value=  0.348E-01
 bond charge predicted
       N       E                     dE             d eps       ncg     rms          rms(c)
DAV:   1    -0.628016067253E+02   -0.38114E-02   -0.64067E+01   888   0.147E+01    0.255E-01
DAV:   2    -0.628314646069E+02   -0.29858E-01   -0.29705E-01   932   0.140E+00    0.247E-01
DAV:   3    -0.628311862240E+02    0.27838E-03   -0.44912E-03   976   0.166E-01    0.190E-01
DAV:   4    -0.628303690117E+02    0.81721E-03   -0.97564E-04   928   0.629E-02    0.113E-01
DAV:   5    -0.628301500811E+02    0.21893E-03   -0.15833E-03   960   0.751E-02    0.372E-02
DAV:   6    -0.628301650260E+02   -0.14945E-04   -0.21869E-05   592   0.103E-02
  30 F= -.62830165E+02 E0= -.62830165E+02  d E =-.322720E-01  mag=     1.0000
 ZBRENT: can't locate minimum, use default step
 trial-energy change:   -0.032272  1 .order   -0.032687   -0.034975   -0.030399
 step:  20.9543(harm= 40.0375)  dis= 0.10394  next Energy=   -62.931547 (dE=-0.134E+00)
 bond charge predicted
       N       E                     dE             d eps       ncg     rms          rms(c)
DAV:   1    -0.626193383299E+02    0.21081E+00   -0.58673E+02   880   0.449E+01    0.102E+00
DAV:   2    -0.629032781254E+02   -0.28394E+00   -0.28270E+00   952   0.436E+00    0.789E-01
DAV:   3    -0.628999824935E+02    0.32956E-02   -0.44293E-02   976   0.537E-01    0.552E-01
DAV:   4    -0.628934463265E+02    0.65362E-02   -0.87878E-03   936   0.188E-01    0.322E-01
DAV:   5    -0.628919443008E+02    0.15020E-02   -0.85418E-03   952   0.177E-01    0.892E-02
DAV:   6    -0.628921301606E+02   -0.18586E-03   -0.13107E-04   632   0.267E-02    0.541E-02
DAV:   7    -0.628923565686E+02   -0.22641E-03   -0.55984E-05   600   0.150E-02    0.209E-02
DAV:   8    -0.628925183861E+02   -0.16182E-03   -0.18282E-05   624   0.855E-03    0.684E-03
DAV:   9    -0.628926861618E+02   -0.16778E-03   -0.74416E-06   616   0.449E-03    0.283E-03
DAV:  10    -0.628927880804E+02   -0.10192E-03   -0.24316E-06   600   0.206E-03    0.160E-03
DAV:  11    -0.628928716636E+02   -0.83583E-04   -0.17867E-06   600   0.134E-03
  31 F= -.62892872E+02 E0= -.62892872E+02  d E =-.949786E-01  mag=     1.0000
 curvature: -73.06 expect dE=-0.467E+00 dE for cont linesearch -0.109E-01
 ZBRENT: increasing intervall
 opt :  52.3859  next Energy=   -62.853904 (dE=-0.560E-01)
 bond charge predicted
       N       E                     dE             d eps       ncg     rms          rms(c)
DAV:   1    -0.615458962783E+02    0.13469E+01   -0.24837E+03   880   0.953E+01    0.347E+00
DAV:   2    -0.628583747728E+02   -0.13125E+01   -0.13279E+01   948   0.975E+00    0.199E+00
DAV:   3    -0.628461959324E+02    0.12179E-01   -0.22424E-01   960   0.129E+00    0.121E+00
DAV:   4    -0.628267341947E+02    0.19462E-01   -0.26650E-02   936   0.340E-01    0.817E-01
DAV:   5    -0.628201255528E+02    0.66086E-02   -0.28752E-02   952   0.331E-01    0.208E-01
DAV:   6    -0.628208562143E+02   -0.73066E-03   -0.54826E-04   952   0.579E-02    0.118E-01
DAV:   7    -0.628215960703E+02   -0.73986E-03   -0.80745E-05   624   0.221E-02    0.511E-02
DAV:   8    -0.628221920657E+02   -0.59600E-03   -0.42519E-05   616   0.117E-02    0.146E-02
DAV:   9    -0.628226389851E+02   -0.44692E-03   -0.13903E-05   624   0.578E-03    0.658E-03
DAV:  10    -0.628229794380E+02   -0.34045E-03   -0.78116E-06   616   0.313E-03    0.306E-03
DAV:  11    -0.628232651726E+02   -0.28573E-03   -0.68978E-06   616   0.233E-03    0.222E-03
DAV:  12    -0.628235701026E+02   -0.30493E-03   -0.99210E-06   616   0.234E-03    0.176E-03
DAV:  13    -0.628237491822E+02   -0.17908E-03   -0.45657E-06   624   0.171E-03    0.104E-03
DAV:  14    -0.628238516288E+02   -0.10245E-03   -0.20258E-06   608   0.120E-03    0.576E-04
DAV:  15    -0.628239147072E+02   -0.63078E-04   -0.81308E-07   608   0.804E-04
  32 F= -.62823915E+02 E0= -.62823915E+02  d E =-.260217E-01  mag=     1.0000
 curvature: 260.83 expect dE= 0.795E+01 dE for cont linesearch  0.387E+00
 ZBRENT: bracketing found
 ZBRENT: interpolating
 opt :  28.5225  next Energy=   -62.901505 (dE=-0.104E+00)
 bond charge predicted
       N       E                     dE             d eps       ncg     rms          rms(c)
DAV:   1    -0.622423851736E+02    0.58147E+00   -0.13875E+03   880   0.700E+01    0.182E+00
DAV:   2    -0.629246834074E+02   -0.68230E+00   -0.68030E+00   940   0.682E+00    0.134E+00
DAV:   3    -0.629177311080E+02    0.69523E-02   -0.10725E-01   984   0.829E-01    0.940E-01
DAV:   4    -0.629044014782E+02    0.13330E-01   -0.16862E-02   944   0.274E-01    0.602E-01
DAV:   5    -0.629003282366E+02    0.40732E-02   -0.19503E-02   960   0.268E-01    0.162E-01
DAV:   6    -0.629008120337E+02   -0.48380E-03   -0.31283E-04   656   0.441E-02    0.894E-02
DAV:   7    -0.629013274046E+02   -0.51537E-03   -0.94225E-05   608   0.219E-02    0.388E-02
DAV:   8    -0.629016812375E+02   -0.35383E-03   -0.45428E-05   624   0.138E-02    0.135E-02
DAV:   9    -0.629020021140E+02   -0.32088E-03   -0.15180E-05   608   0.756E-03    0.600E-03
DAV:  10    -0.629022336813E+02   -0.23157E-03   -0.60546E-06   632   0.338E-03    0.249E-03
DAV:  11    -0.629023571108E+02   -0.12343E-03   -0.23575E-06   600   0.198E-03    0.169E-03
DAV:  12    -0.629025846403E+02   -0.22753E-03   -0.65848E-06   596   0.206E-03    0.125E-03
DAV:  13    -0.629026995529E+02   -0.11491E-03   -0.26837E-06   616   0.132E-03    0.954E-04
DAV:  14    -0.629027801479E+02   -0.80595E-04   -0.14752E-06   600   0.966E-04
  33 F= -.62902780E+02 E0= -.62902780E+02  d E =-.104887E+00  mag=     1.0000
 curvature:  -5.81 expect dE=-0.539E-01 dE for cont linesearch -0.851E-05
 trial: gam= 0.97512 g(F)=  0.927E-02 g(S)=  0.000E+00 ort = 0.226E-03 (trialstep = 0.805E+01)
 search vector abs. value=  0.428E-01
 bond charge predicted
       N       E                     dE             d eps       ncg     rms          rms(c)
DAV:   1    -0.628849436651E+02    0.17756E-01   -0.18660E+02   880   0.250E+01    0.493E-01
DAV:   2    -0.629731763236E+02   -0.88233E-01   -0.88055E-01   936   0.240E+00    0.434E-01
DAV:   3    -0.629721186481E+02    0.10577E-02   -0.13248E-02   984   0.284E-01    0.324E-01
DAV:   4    -0.629697435442E+02    0.23751E-02   -0.36894E-03   944   0.119E-01    0.170E-01
DAV:   5    -0.629694548678E+02    0.28868E-03   -0.29996E-03   952   0.106E-01    0.558E-02
DAV:   6    -0.629694943379E+02   -0.39470E-04   -0.60471E-05   612   0.172E-02
  34 F= -.62969494E+02 E0= -.62969494E+02  d E =-.667142E-01  mag=     1.0000
 ZBRENT: can't locate minimum, use default step
 trial-energy change:   -0.066714  1 .order   -0.067965   -0.076388   -0.059543
 step:  32.1901(harm= 36.4932)  dis= 0.20470  next Energy=   -63.075979 (dE=-0.173E+00)
 bond charge predicted
       N       E                     dE             d eps       ncg     rms          rms(c)
DAV:   1    -0.621754305528E+02    0.79402E+00   -0.17583E+03   880   0.790E+01    0.254E+00
DAV:   2    -0.630804841572E+02   -0.90505E+00   -0.90664E+00   944   0.791E+00    0.154E+00
DAV:   3    -0.630717536693E+02    0.87305E-02   -0.14536E-01   960   0.985E-01    0.982E-01
DAV:   4    -0.630565620792E+02    0.15192E-01   -0.21942E-02   928   0.301E-01    0.609E-01
DAV:   5    -0.630529614221E+02    0.36007E-02   -0.19207E-02   952   0.270E-01    0.157E-01
DAV:   6    -0.630534684445E+02   -0.50702E-03   -0.32523E-04   672   0.484E-02    0.900E-02
DAV:   7    -0.630539202654E+02   -0.45182E-03   -0.93302E-05   624   0.208E-02    0.381E-02
DAV:   8    -0.630542264051E+02   -0.30614E-03   -0.30758E-05   640   0.114E-02    0.142E-02
DAV:   9    -0.630545304009E+02   -0.30400E-03   -0.14910E-05   592   0.634E-03    0.504E-03
DAV:  10    -0.630547415413E+02   -0.21114E-03   -0.66658E-06   632   0.334E-03    0.259E-03
DAV:  11    -0.630548770388E+02   -0.13550E-03   -0.34976E-06   600   0.209E-03    0.189E-03
DAV:  12    -0.630551111363E+02   -0.23410E-03   -0.94875E-06   596   0.243E-03    0.128E-03
DAV:  13    -0.630551987865E+02   -0.87650E-04   -0.24030E-06   624   0.131E-03
  35 F= -.63055199E+02 E0= -.63055199E+02  d E =-.152419E+00  mag=     1.0000
 curvature: -80.47 expect dE=-0.106E+01 dE for cont linesearch -0.136E-02
 trial: gam= 1.28528 g(F)=  0.131E-01 g(S)=  0.000E+00 ort =-0.851E-03 (trialstep = 0.675E+01)
 search vector abs. value=  0.817E-01
 bond charge predicted
       N       E                     dE             d eps       ncg     rms          rms(c)
DAV:   1    -0.630023107363E+02    0.52800E-01   -0.25144E+02   880   0.290E+01    0.590E-01
DAV:   2    -0.631225249764E+02   -0.12021E+00   -0.12045E+00   932   0.282E+00    0.527E-01
DAV:   3    -0.631214402526E+02    0.10847E-02   -0.18571E-02   984   0.345E-01    0.384E-01
DAV:   4    -0.631185155871E+02    0.29247E-02   -0.40801E-03   936   0.129E-01    0.226E-01
DAV:   5    -0.631178932008E+02    0.62239E-03   -0.45260E-03   952   0.130E-01    0.703E-02
DAV:   6    -0.631179749807E+02   -0.81780E-04   -0.79831E-05   632   0.198E-02
  36 F= -.63117975E+02 E0= -.63117975E+02  d E =-.627762E-01  mag=     1.0000
 trial-energy change:   -0.062776  1 .order   -0.064477   -0.081173   -0.047781
 step:  16.4133(harm= 16.4133)  dis= 0.14708  next Energy=   -63.153861 (dE=-0.987E-01)
 bond charge predicted
       N       E                     dE             d eps       ncg     rms          rms(c)
DAV:   1    -0.628899763345E+02    0.22792E+00   -0.51963E+02   880   0.419E+01    0.983E-01
DAV:   2    -0.631428312969E+02   -0.25285E+00   -0.25390E+00   940   0.411E+00    0.784E-01
DAV:   3    -0.631403828767E+02    0.24484E-02   -0.39587E-02   984   0.507E-01    0.545E-01
DAV:   4    -0.631347650171E+02    0.56179E-02   -0.86012E-03   920   0.188E-01    0.312E-01
DAV:   5    -0.631339197720E+02    0.84525E-03   -0.69614E-03   936   0.163E-01    0.930E-02
DAV:   6    -0.631341686937E+02   -0.24892E-03   -0.14785E-04   648   0.269E-02    0.586E-02
DAV:   7    -0.631345022079E+02   -0.33351E-03   -0.85959E-05   616   0.180E-02    0.220E-02
DAV:   8    -0.631347644280E+02   -0.26222E-03   -0.24530E-05   640   0.103E-02    0.732E-03
DAV:   9    -0.631350329231E+02   -0.26850E-03   -0.82048E-06   600   0.519E-03    0.325E-03
DAV:  10    -0.631352399872E+02   -0.20706E-03   -0.39582E-06   624   0.254E-03    0.206E-03
DAV:  11    -0.631354377820E+02   -0.19779E-03   -0.40947E-06   600   0.190E-03    0.154E-03
DAV:  12    -0.631356783516E+02   -0.24057E-03   -0.69860E-06   624   0.200E-03    0.949E-04
DAV:  13    -0.631357484374E+02   -0.70086E-04   -0.12498E-06   624   0.980E-04
  37 F= -.63135748E+02 E0= -.63135748E+02  d E =-.805497E-01  mag=     1.0000
 curvature: -55.77 expect dE=-0.537E+00 dE for cont linesearch -0.871E-02
 ZBRENT: interpolating
 opt :  13.1728  next Energy=   -63.141535 (dE=-0.863E-01)
 bond charge predicted
       N       E                     dE             d eps       ncg     rms          rms(c)
DAV:   1    -0.631148266743E+02    0.20852E-01   -0.57530E+01   880   0.138E+01    0.265E-01
DAV:   2    -0.631419918543E+02   -0.27165E-01   -0.27101E-01   936   0.133E+00    0.249E-01
DAV:   3    -0.631417946216E+02    0.19723E-03   -0.41024E-03   984   0.160E-01    0.188E-01
DAV:   4    -0.631411071547E+02    0.68747E-03   -0.10848E-03   952   0.668E-02    0.105E-01
DAV:   5    -0.631410126374E+02    0.94517E-04   -0.11052E-03   952   0.651E-02    0.368E-02
DAV:   6    -0.631410359898E+02   -0.23352E-04   -0.26658E-05   600   0.107E-02
  38 F= -.63141036E+02 E0= -.63141036E+02  d E =-.858372E-01  mag=     1.0000
 curvature: -37.07 expect dE=-0.300E+00 dE for cont linesearch -0.226E-05
 trial: gam= 0.08996 g(F)=  0.808E-02 g(S)=  0.000E+00 ort = 0.705E-04 (trialstep = 0.804E+01)
 search vector abs. value=  0.876E-02
 bond charge predicted
       N       E                     dE             d eps       ncg     rms          rms(c)
DAV:   1    -0.631776366828E+02   -0.36624E-01   -0.37971E+01   892   0.113E+01    0.291E-01
DAV:   2    -0.631950193379E+02   -0.17383E-01   -0.17785E-01   928   0.109E+00    0.255E-01
DAV:   3    -0.631948329728E+02    0.18637E-03   -0.29785E-03   992   0.142E-01    0.178E-01
DAV:   4    -0.631943882184E+02    0.44475E-03   -0.11739E-03   928   0.705E-02    0.782E-02
DAV:   5    -0.631943708138E+02    0.17405E-04   -0.28194E-04   664   0.386E-02
  39 F= -.63194371E+02 E0= -.63194371E+02  d E =-.533348E-01  mag=     1.0000
 trial-energy change:   -0.053335  1 .order   -0.053854   -0.065007   -0.042702
 step:  23.4211(harm= 23.4211)  dis= 0.04228  next Energy=   -63.235767 (dE=-0.947E-01)
 bond charge predicted
       N       E                     dE             d eps       ncg     rms          rms(c)
DAV:   1    -0.631693691379E+02    0.25019E-01   -0.13951E+02   888   0.217E+01    0.573E-01
DAV:   2    -0.632329253600E+02   -0.63556E-01   -0.65673E-01   932   0.209E+00    0.487E-01
DAV:   3    -0.632320733172E+02    0.85204E-03   -0.10946E-02   992   0.270E-01    0.335E-01
DAV:   4    -0.632303685261E+02    0.17048E-02   -0.39869E-03   952   0.132E-01    0.148E-01
DAV:   5    -0.632303510986E+02    0.17428E-04   -0.10201E-03   960   0.709E-02    0.502E-02
DAV:   6    -0.632304281814E+02   -0.77083E-04   -0.98461E-05   632   0.190E-02
  40 F= -.63230428E+02 E0= -.63230428E+02  d E =-.893922E-01  mag=     1.0000
 curvature: -12.68 expect dE=-0.706E-01 dE for cont linesearch -0.236E-03
 trial: gam= 0.74308 g(F)=  0.557E-02 g(S)=  0.000E+00 ort =-0.404E-03 (trialstep = 0.993E+01)
 search vector abs. value=  0.980E-02
 bond charge predicted
       N       E                     dE             d eps       ncg     rms          rms(c)
DAV:   1    -0.632385450417E+02   -0.81939E-02   -0.64821E+01   896   0.148E+01    0.334E-01
DAV:   2    -0.632685923836E+02   -0.30047E-01   -0.30772E-01   916   0.143E+00    0.291E-01
DAV:   3    -0.632682104537E+02    0.38193E-03   -0.50560E-03   976   0.183E-01    0.205E-01
DAV:   4    -0.632673910342E+02    0.81942E-03   -0.14920E-03   928   0.797E-02    0.105E-01
DAV:   5    -0.632674000408E+02   -0.90067E-05   -0.82750E-04   928   0.581E-02
  41 F= -.63267400E+02 E0= -.63267400E+02  d E =-.369719E-01  mag=     1.0000
 trial-energy change:   -0.036972  1 .order   -0.037562   -0.052302   -0.022822
 step:  20.0750(harm= 17.6093)  dis= 0.04575  next Energy=   -63.278437 (dE=-0.480E-01)
 bond charge predicted
       N       E                     dE             d eps       ncg     rms          rms(c)
DAV:   1    -0.632421410472E+02    0.25250E-01   -0.67754E+01   880   0.151E+01    0.358E-01
DAV:   2    -0.632736129734E+02   -0.31472E-01   -0.32318E-01   916   0.146E+00    0.302E-01
DAV:   3    -0.632732270479E+02    0.38593E-03   -0.53339E-03   976   0.189E-01    0.208E-01
DAV:   4    -0.632724661718E+02    0.76088E-03   -0.15991E-03   912   0.830E-02    0.102E-01
DAV:   5    -0.632725423833E+02   -0.76211E-04   -0.71862E-04   928   0.553E-02
  42 F= -.63272542E+02 E0= -.63272542E+02  d E =-.421142E-01  mag=     1.0000
 curvature: -14.70 expect dE=-0.651E-01 dE for cont linesearch -0.170E-02
 ZBRENT: interpolating
 opt :  16.8604  next Energy=   -63.274255 (dE=-0.438E-01)
 bond charge predicted
       N       E                     dE             d eps       ncg     rms          rms(c)
DAV:   1    -0.632717586625E+02    0.70751E-03   -0.68029E+00   904   0.479E+00    0.101E-01
DAV:   2    -0.632750326494E+02   -0.32740E-02   -0.31383E-02   952   0.458E-01    0.997E-02
DAV:   3    -0.632750807005E+02   -0.48051E-04   -0.51159E-04   992   0.579E-02
  43 F= -.63275081E+02 E0= -.63275081E+02  d E =-.446525E-01  mag=     1.0000
 curvature: -14.79 expect dE=-0.456E-01 dE for cont linesearch -0.192E-04
 trial: gam= 0.46357 g(F)=  0.309E-02 g(S)=  0.000E+00 ort =-0.113E-03 (trialstep = 0.113E+02)
 search vector abs. value=  0.509E-02
 bond charge predicted
       N       E                     dE             d eps       ncg     rms          rms(c)
DAV:   1    -0.632829713039E+02   -0.79387E-02   -0.43558E+01   880   0.121E+01    0.248E-01
DAV:   2    -0.633031373034E+02   -0.20166E-01   -0.20257E-01   924   0.116E+00    0.225E-01
DAV:   3    -0.633029529341E+02    0.18437E-03   -0.32361E-03   964   0.146E-01    0.163E-01
DAV:   4    -0.633024570633E+02    0.49587E-03   -0.81688E-04   936   0.582E-02    0.899E-02
DAV:   5    -0.633024560245E+02    0.10388E-05   -0.70451E-04   940   0.518E-02
  44 F= -.63302456E+02 E0= -.63302456E+02  d E =-.273753E-01  mag=     1.0000
 trial-energy change:   -0.027375  1 .order   -0.027503   -0.034323   -0.020682
 step:  28.4650(harm= 28.4650)  dis= 0.04735  next Energy=   -63.318263 (dE=-0.432E-01)
 bond charge predicted
       N       E                     dE             d eps       ncg     rms          rms(c)
DAV:   1    -0.632706960627E+02    0.31761E-01   -0.10029E+02   880   0.184E+01    0.388E-01
DAV:   2    -0.633168223563E+02   -0.46126E-01   -0.46652E-01   920   0.176E+00    0.348E-01
DAV:   3    -0.633162978728E+02    0.52448E-03   -0.74253E-03   968   0.219E-01    0.250E-01
DAV:   4    -0.633150531376E+02    0.12447E-02   -0.20820E-03   912   0.931E-02    0.134E-01
DAV:   5    -0.633149510784E+02    0.10206E-03   -0.14977E-03   944   0.763E-02    0.456E-02
DAV:   6    -0.633149962925E+02   -0.45214E-04   -0.51030E-05   592   0.142E-02
  45 F= -.63314996E+02 E0= -.63314996E+02  d E =-.399156E-01  mag=     1.0000
 curvature: -23.87 expect dE=-0.741E-01 dE for cont linesearch -0.250E-03
 trial: gam= 1.06770 g(F)=  0.311E-02 g(S)=  0.000E+00 ort =-0.231E-03 (trialstep = 0.892E+01)
 search vector abs. value=  0.841E-02
 bond charge predicted
       N       E                     dE             d eps       ncg     rms          rms(c)
DAV:   1    -0.633159947283E+02   -0.10436E-02   -0.44717E+01   880   0.123E+01    0.217E-01
DAV:   2    -0.633367406871E+02   -0.20746E-01   -0.20663E-01   916   0.117E+00    0.199E-01
DAV:   3    -0.633365242927E+02    0.21639E-03   -0.31285E-03   968   0.140E-01    0.154E-01
DAV:   4    -0.633359960580E+02    0.52823E-03   -0.62665E-04   936   0.499E-02    0.894E-02
DAV:   5    -0.633358804285E+02    0.11563E-03   -0.10346E-03   936   0.609E-02    0.275E-02
DAV:   6    -0.633359464509E+02   -0.66022E-04   -0.14602E-05   600   0.842E-03
  46 F= -.63335946E+02 E0= -.63335946E+02  d E =-.209502E-01  mag=     1.0000
 trial-energy change:   -0.020950  1 .order   -0.021344   -0.025496   -0.017191
 step:  27.3734(harm= 27.3734)  dis= 0.06020  next Energy=   -63.354132 (dE=-0.391E-01)
 bond charge predicted
       N       E                     dE             d eps       ncg     rms          rms(c)
DAV:   1    -0.632651795014E+02    0.70701E-01   -0.19229E+02   880   0.255E+01    0.494E-01
DAV:   2    -0.633544659370E+02   -0.89286E-01   -0.89362E-01   928   0.243E+00    0.417E-01
DAV:   3    -0.633532773533E+02    0.11886E-02   -0.13629E-02   976   0.295E-01    0.314E-01
DAV:   4    -0.633509810630E+02    0.22963E-02   -0.29244E-03   928   0.107E-01    0.173E-01
DAV:   5    -0.633504490608E+02    0.53200E-03   -0.34452E-03   936   0.112E-01    0.495E-02
DAV:   6    -0.633505760743E+02   -0.12701E-03   -0.57094E-05   624   0.168E-02    0.324E-02
DAV:   7    -0.633507691125E+02   -0.19304E-03   -0.44783E-05   600   0.124E-02    0.125E-02
DAV:   8    -0.633509625094E+02   -0.19340E-03   -0.14731E-05   608   0.790E-03    0.363E-03
DAV:   9    -0.633511600341E+02   -0.19752E-03   -0.43211E-06   608   0.386E-03    0.215E-03
DAV:  10    -0.633513122776E+02   -0.15224E-03   -0.13920E-06   584   0.181E-03    0.150E-03
DAV:  11    -0.633514904055E+02   -0.17813E-03   -0.14737E-06   604   0.130E-03    0.972E-04
DAV:  12    -0.633516925088E+02   -0.20210E-03   -0.23754E-06   600   0.126E-03    0.626E-04
DAV:  13    -0.633517779000E+02   -0.85391E-04   -0.83615E-07   600   0.743E-04
  47 F= -.63351778E+02 E0= -.63351778E+02  d E =-.367816E-01  mag=     1.0000
 curvature: -40.27 expect dE=-0.121E+00 dE for cont linesearch -0.199E-03
 trial: gam= 0.77014 g(F)=  0.299E-02 g(S)=  0.000E+00 ort =-0.204E-03 (trialstep = 0.126E+02)
 search vector abs. value=  0.767E-02
 bond charge predicted
       N       E                     dE             d eps       ncg     rms          rms(c)
DAV:   1    -0.633391393702E+02    0.12553E-01   -0.81932E+01   880   0.165E+01    0.338E-01
DAV:   2    -0.633776135036E+02   -0.38474E-01   -0.39004E-01   904   0.160E+00    0.314E-01
DAV:   3    -0.633772065528E+02    0.40695E-03   -0.60868E-03   976   0.195E-01    0.232E-01
DAV:   4    -0.633760857615E+02    0.11208E-02   -0.16445E-03   944   0.836E-02    0.126E-01
DAV:   5    -0.633758620976E+02    0.22366E-03   -0.13939E-03   952   0.726E-02    0.442E-02
DAV:   6    -0.633759092526E+02   -0.47155E-04   -0.41870E-05   608   0.129E-02
  48 F= -.63375909E+02 E0= -.63375909E+02  d E =-.241314E-01  mag=     1.0000
 trial-energy change:   -0.024131  1 .order   -0.025023   -0.035755   -0.014291
 step:  21.0028(harm= 21.0028)  dis= 0.06324  next Energy=   -63.381558 (dE=-0.298E-01)
 bond charge predicted
       N       E                     dE             d eps       ncg     rms          rms(c)
DAV:   1    -0.633637399631E+02    0.12122E-01   -0.36259E+01   880   0.110E+01    0.223E-01
DAV:   2    -0.633807784388E+02   -0.17038E-01   -0.17276E-01   916   0.106E+00    0.205E-01
DAV:   3    -0.633806026987E+02    0.17574E-03   -0.26806E-03   976   0.130E-01    0.151E-01
DAV:   4    -0.633801338957E+02    0.46880E-03   -0.70725E-04   920   0.553E-02    0.823E-02
DAV:   5    -0.633801099354E+02    0.23960E-04   -0.60727E-04   928   0.480E-02
  49 F= -.63380110E+02 E0= -.63380110E+02  d E =-.283320E-01  mag=     1.0000
 curvature: -28.40 expect dE=-0.641E-01 dE for cont linesearch -0.581E-05
 trial: gam= 0.71725 g(F)=  0.226E-02 g(S)=  0.000E+00 ort = 0.396E-04 (trialstep = 0.143E+02)
 search vector abs. value=  0.626E-02
 bond charge predicted
       N       E                     dE             d eps       ncg     rms          rms(c)
DAV:   1    -0.633631153569E+02    0.17019E-01   -0.85864E+01   880   0.169E+01    0.334E-01
DAV:   2    -0.634037450716E+02   -0.40630E-01   -0.40873E-01   920   0.163E+00    0.310E-01
DAV:   3    -0.634034443590E+02    0.30071E-03   -0.62793E-03   968   0.197E-01    0.229E-01
DAV:   4    -0.634024690788E+02    0.97528E-03   -0.14617E-03   920   0.792E-02    0.130E-01
DAV:   5    -0.634023944910E+02    0.74588E-04   -0.14967E-03   944   0.748E-02    0.443E-02
DAV:   6    -0.634024908261E+02   -0.96335E-04   -0.35092E-05   592   0.120E-02
  50 F= -.63402491E+02 E0= -.63402491E+02  d E =-.223809E-01  mag=     1.0000
 trial-energy change:   -0.022381  1 .order   -0.023283   -0.032667   -0.013898
 step:  24.8666(harm= 24.8666)  dis= 0.08515  next Energy=   -63.408539 (dE=-0.284E-01)
 bond charge predicted
       N       E                     dE             d eps       ncg     rms          rms(c)
DAV:   1    -0.633856837777E+02    0.16711E-01   -0.47007E+01   880   0.125E+01    0.244E-01
DAV:   2    -0.634079783006E+02   -0.22295E-01   -0.22309E-01   924   0.121E+00    0.227E-01
DAV:   3    -0.634078204632E+02    0.15784E-03   -0.34122E-03   960   0.145E-01    0.169E-01
DAV:   4    -0.634073023130E+02    0.51815E-03   -0.82073E-04   928   0.592E-02    0.952E-02
DAV:   5    -0.634073132696E+02   -0.10957E-04   -0.83566E-04   936   0.558E-02
  51 F= -.63407313E+02 E0= -.63407313E+02  d E =-.272033E-01  mag=     1.0000
 curvature: -34.04 expect dE=-0.610E-01 dE for cont linesearch -0.214E-04
 trial: gam= 0.75894 g(F)=  0.179E-02 g(S)=  0.000E+00 ort = 0.627E-04 (trialstep = 0.164E+02)
 search vector abs. value=  0.549E-02
 bond charge predicted
       N       E                     dE             d eps       ncg     rms          rms(c)
DAV:   1    -0.633834553010E+02    0.23847E-01   -0.99102E+01   880   0.182E+01    0.347E-01
DAV:   2    -0.634300909955E+02   -0.46636E-01   -0.46364E-01   912   0.173E+00    0.302E-01
DAV:   3    -0.634296192374E+02    0.47176E-03   -0.69564E-03   968   0.207E-01    0.226E-01
DAV:   4    -0.634285106494E+02    0.11086E-02   -0.16028E-03   936   0.805E-02    0.124E-01
DAV:   5    -0.634283883692E+02    0.12228E-03   -0.16924E-03   944   0.789E-02    0.397E-02
DAV:   6    -0.634284894083E+02   -0.10104E-03   -0.30506E-05   600   0.120E-02    0.254E-02
DAV:   7    -0.634286345778E+02   -0.14517E-03   -0.28640E-05   600   0.102E-02    0.957E-03
DAV:   8    -0.634287791977E+02   -0.14462E-03   -0.96282E-06   600   0.650E-03    0.259E-03
DAV:   9    -0.634289329646E+02   -0.15377E-03   -0.28078E-06   600   0.316E-03    0.178E-03
DAV:  10    -0.634290459149E+02   -0.11295E-03   -0.10005E-06   584   0.146E-03    0.125E-03
DAV:  11    -0.634291968461E+02   -0.15093E-03   -0.13616E-06   608   0.114E-03    0.832E-04
DAV:  12    -0.634293471842E+02   -0.15034E-03   -0.17653E-06   600   0.100E-03    0.526E-04
DAV:  13    -0.634294152056E+02   -0.68021E-04   -0.67603E-07   608   0.653E-04
  52 F= -.63429415E+02 E0= -.63429415E+02  d E =-.221019E-01  mag=     1.0000
 trial-energy change:   -0.022102  1 .order   -0.021643   -0.030155   -0.013132
 step:  26.4409(harm= 29.0563)  dis= 0.07929  next Energy=   -63.433538 (dE=-0.262E-01)
 bond charge predicted
       N       E                     dE             d eps       ncg     rms          rms(c)
DAV:   1    -0.634176074417E+02    0.11740E-01   -0.37037E+01   880   0.111E+01    0.202E-01
DAV:   2    -0.634348494518E+02   -0.17242E-01   -0.17167E-01   928   0.106E+00    0.186E-01
DAV:   3    -0.634346791761E+02    0.17028E-03   -0.25663E-03   960   0.126E-01    0.142E-01
DAV:   4    -0.634342149383E+02    0.46424E-03   -0.62291E-04   936   0.501E-02    0.786E-02
DAV:   5    -0.634341018910E+02    0.11305E-03   -0.73001E-04   952   0.516E-02    0.262E-02
DAV:   6    -0.634341128988E+02   -0.11008E-04   -0.11946E-05   584   0.748E-03
  53 F= -.63434113E+02 E0= -.63434113E+02  d E =-.267996E-01  mag=     1.0000
 curvature: -41.55 expect dE=-0.594E-01 dE for cont linesearch -0.325E-03
 trial: gam= 0.56760 g(F)=  0.143E-02 g(S)=  0.000E+00 ort = 0.207E-03 (trialstep = 0.184E+02)
 search vector abs. value=  0.343E-02
 bond charge predicted
       N       E                     dE             d eps       ncg     rms          rms(c)
DAV:   1    -0.634173858356E+02    0.16716E-01   -0.78155E+01   880   0.161E+01    0.327E-01
DAV:   2    -0.634536368742E+02   -0.36251E-01   -0.36344E-01   928   0.153E+00    0.271E-01
DAV:   3    -0.634531155696E+02    0.52130E-03   -0.53920E-03   968   0.177E-01    0.203E-01
DAV:   4    -0.634521049288E+02    0.10106E-02   -0.17974E-03   928   0.848E-02    0.926E-02
DAV:   5    -0.634520138935E+02    0.91035E-04   -0.87787E-04   952   0.584E-02
  54 F= -.63452014E+02 E0= -.63452014E+02  d E =-.179010E-01  mag=     1.0000
 trial-energy change:   -0.017901  1 .order   -0.019348   -0.028482   -0.010215
 step:  28.7062(harm= 28.7062)  dis= 0.05326  next Energy=   -63.456318 (dE=-0.222E-01)
 bond charge predicted
       N       E                     dE             d eps       ncg     rms          rms(c)
DAV:   1    -0.634428729294E+02    0.92320E-02   -0.24371E+01   896   0.899E+00    0.184E-01
DAV:   2    -0.634541852773E+02   -0.11312E-01   -0.11391E-01   912   0.853E-01    0.150E-01
DAV:   3    -0.634540502082E+02    0.13507E-03   -0.16868E-03   968   0.988E-02    0.111E-01
DAV:   4    -0.634538155817E+02    0.23463E-03   -0.54651E-04   928   0.473E-02    0.494E-02
DAV:   5    -0.634538765969E+02   -0.61015E-04   -0.23069E-04   640   0.316E-02
  55 F= -.63453877E+02 E0= -.63453877E+02  d E =-.197637E-01  mag=     1.0000
 curvature: -31.86 expect dE=-0.295E-01 dE for cont linesearch -0.675E-05
 trial: gam= 0.77155 g(F)=  0.925E-03 g(S)=  0.000E+00 ort =-0.270E-04 (trialstep = 0.205E+02)
 search vector abs. value=  0.293E-02
 bond charge predicted
       N       E                     dE             d eps       ncg     rms          rms(c)
DAV:   1    -0.634278571740E+02    0.25958E-01   -0.82262E+01   888   0.165E+01    0.303E-01
DAV:   2    -0.634665139532E+02   -0.38657E-01   -0.38254E-01   916   0.157E+00    0.279E-01
DAV:   3    -0.634660350511E+02    0.47890E-03   -0.55239E-03   984   0.179E-01    0.217E-01
DAV:   4    -0.634648994123E+02    0.11356E-02   -0.17073E-03   920   0.817E-02    0.111E-01
DAV:   5    -0.634647697241E+02    0.12969E-03   -0.13865E-03   936   0.716E-02    0.399E-02
DAV:   6    -0.634648635443E+02   -0.93820E-04   -0.25009E-05   600   0.110E-02
  56 F= -.63464864E+02 E0= -.63464864E+02  d E =-.109869E-01  mag=     1.0000
 trial-energy change:   -0.010987  1 .order   -0.012248   -0.018503   -0.005992
 step:  30.2742(harm= 30.2742)  dis= 0.04888  next Energy=   -63.467560 (dE=-0.137E-01)
 bond charge predicted
       N       E                     dE             d eps       ncg     rms          rms(c)
DAV:   1    -0.634574820381E+02    0.72877E-02   -0.18818E+01   888   0.789E+00    0.143E-01
DAV:   2    -0.634663875167E+02   -0.89055E-02   -0.87515E-02   928   0.748E-01    0.132E-01
DAV:   3    -0.634663165350E+02    0.70982E-04   -0.12578E-03   960   0.852E-02    0.103E-01
DAV:   4    -0.634661149990E+02    0.20154E-03   -0.39806E-04   816   0.398E-02    0.521E-02
DAV:   5    -0.634661914518E+02   -0.76453E-04   -0.33255E-04   808   0.364E-02
  57 F= -.63466191E+02 E0= -.63466191E+02  d E =-.123149E-01  mag=     1.0000
 curvature: -49.02 expect dE=-0.438E-01 dE for cont linesearch -0.211E-04
 trial: gam= 0.67840 g(F)=  0.893E-03 g(S)=  0.000E+00 ort = 0.355E-04 (trialstep = 0.224E+02)
 search vector abs. value=  0.229E-02
 bond charge predicted
       N       E                     dE             d eps       ncg     rms          rms(c)
DAV:   1    -0.634395232472E+02    0.26592E-01   -0.77334E+01   880   0.161E+01    0.315E-01
DAV:   2    -0.634760894963E+02   -0.36566E-01   -0.36564E-01   916   0.154E+00    0.282E-01
DAV:   3    -0.634757572519E+02    0.33224E-03   -0.54859E-03   992   0.181E-01    0.212E-01
DAV:   4    -0.634748253293E+02    0.93192E-03   -0.16058E-03   936   0.795E-02    0.107E-01
DAV:   5    -0.634747917023E+02    0.33627E-04   -0.11298E-03   952   0.655E-02    0.388E-02
DAV:   6    -0.634748753866E+02   -0.83684E-04   -0.32816E-05   600   0.118E-02
  58 F= -.63474875E+02 E0= -.63474875E+02  d E =-.868393E-02  mag=     1.0000
 trial-energy change:   -0.008684  1 .order   -0.009490   -0.020576    0.001595
 step:  20.4165(harm= 20.8164)  dis= 0.02254  next Energy=   -63.474948 (dE=-0.876E-02)
 bond charge predicted
       N       E                     dE             d eps       ncg     rms          rms(c)
DAV:   1    -0.634748364762E+02   -0.44774E-04   -0.62466E-01   928   0.144E+00    0.262E-02
DAV:   2    -0.634752380503E+02   -0.40157E-03   -0.28947E-03   960   0.137E-01    0.261E-02
DAV:   3    -0.634752844503E+02   -0.46400E-04   -0.39148E-05   584   0.163E-02
  59 F= -.63475284E+02 E0= -.63475284E+02  d E =-.909300E-02  mag=     1.0000
 curvature: -24.37 expect dE=-0.117E-01 dE for cont linesearch -0.645E-04
 trial: gam= 0.46582 g(F)=  0.480E-03 g(S)=  0.000E+00 ort = 0.778E-04 (trialstep = 0.220E+02)
 search vector abs. value=  0.105E-02
 bond charge predicted
       N       E                     dE             d eps       ncg     rms          rms(c)
DAV:   1    -0.634656070859E+02    0.96310E-02   -0.34095E+01   880   0.107E+01    0.216E-01
DAV:   2    -0.634815982543E+02   -0.15991E-01   -0.15921E-01   928   0.102E+00    0.206E-01
DAV:   3    -0.634814491564E+02    0.14910E-03   -0.23997E-03   984   0.120E-01    0.156E-01
DAV:   4    -0.634810086584E+02    0.44050E-03   -0.90156E-04   944   0.599E-02    0.792E-02
DAV:   5    -0.634810591785E+02   -0.50520E-04   -0.53593E-04   936   0.458E-02
  60 F= -.63481059E+02 E0= -.63481059E+02  d E =-.577473E-02  mag=     1.0000
 trial-energy change:   -0.005775  1 .order   -0.006314   -0.011371   -0.001256
 step:  26.4710(harm= 24.7642)  dis= 0.01948  next Energy=   -63.481181 (dE=-0.590E-02)
 bond charge predicted
       N       E                     dE             d eps       ncg     rms          rms(c)
DAV:   1    -0.634803597562E+02    0.64890E-03   -0.13824E+00   908   0.215E+00    0.523E-02
DAV:   2    -0.634810552227E+02   -0.69547E-03   -0.66608E-03   960   0.207E-01    0.402E-02
DAV:   3    -0.634810757637E+02   -0.20541E-04   -0.90072E-05   552   0.248E-02
  61 F= -.63481076E+02 E0= -.63481076E+02  d E =-.579131E-02  mag=     1.0000
 curvature: -15.38 expect dE=-0.955E-02 dE for cont linesearch -0.360E-03
 trial: gam= 0.00000 g(F)=  0.621E-03 g(S)=  0.000E+00 ort =-0.157E-03 (trialstep = 0.229E+02)
 search vector abs. value=  0.621E-03
 bond charge predicted
       N       E                     dE             d eps       ncg     rms          rms(c)
DAV:   1    -0.634705017271E+02    0.10553E-01   -0.22015E+01   888   0.856E+00    0.300E-01
DAV:   2    -0.634802672832E+02   -0.97656E-02   -0.10346E-01   928   0.818E-01    0.229E-01
DAV:   3    -0.634801762639E+02    0.91019E-04   -0.19594E-03   952   0.112E-01    0.140E-01
DAV:   4    -0.634800995153E+02    0.76749E-04   -0.63580E-04   936   0.576E-02
  62 F= -.63480100E+02 E0= -.63480100E+02  d E =0.976248E-03  mag=     1.0000
 trial-energy change:    0.000976  1 .order    0.000730   -0.014231    0.015691
 step:  10.8991(harm= 10.8991)  dis= 0.00837  next Energy=   -63.484460 (dE=-0.338E-02)
 bond charge predicted
       N       E                     dE             d eps       ncg     rms          rms(c)
DAV:   1    -0.634819526480E+02   -0.17764E-02   -0.60552E+00   928   0.449E+00    0.158E-01
DAV:   2    -0.634846133381E+02   -0.26607E-02   -0.27568E-02   936   0.424E-01    0.127E-01
DAV:   3    -0.634845752969E+02    0.38041E-04   -0.52715E-04   968   0.571E-02
  63 F= -.63484575E+02 E0= -.63484575E+02  d E =-.349953E-02  mag=     1.0000
 curvature:  -5.45 expect dE=-0.116E-02 dE for cont linesearch -0.171E-07
 trial: gam= 0.34070 g(F)=  0.213E-03 g(S)=  0.000E+00 ort = 0.140E-05 (trialstep = 0.205E+02)
 search vector abs. value=  0.286E-03
 bond charge predicted
       N       E                     dE             d eps       ncg     rms          rms(c)
DAV:   1    -0.634837127876E+02    0.90055E-03   -0.80441E+00   912   0.521E+00    0.113E-01
DAV:   2    -0.634874011819E+02   -0.36884E-02   -0.37410E-02   944   0.502E-01    0.104E-01
DAV:   3    -0.634873703984E+02    0.30783E-04   -0.61924E-04   976   0.653E-02
  64 F= -.63487370E+02 E0= -.63487370E+02  d E =-.279510E-02  mag=     1.0000
 trial-energy change:   -0.002795  1 .order   -0.002715   -0.004378   -0.001052
 step:  27.0006(harm= 27.0006)  dis= 0.01092  next Energy=   -63.487457 (dE=-0.288E-02)
 bond charge predicted
       N       E                     dE             d eps       ncg     rms          rms(c)
DAV:   1    -0.634871419914E+02    0.25919E-03   -0.81092E-01   936   0.166E+00    0.625E-02
DAV:   2    -0.634874782793E+02   -0.33629E-03   -0.35173E-03   960   0.154E-01    0.517E-02
DAV:   3    -0.634874661104E+02    0.12169E-04   -0.66869E-05   576   0.200E-02
  65 F= -.63487466E+02 E0= -.63487466E+02  d E =-.289081E-02  mag=     1.0000
 curvature: -18.09 expect dE=-0.352E-02 dE for cont linesearch -0.561E-04
 trial: gam= 0.92549 g(F)=  0.194E-03 g(S)=  0.000E+00 ort =-0.298E-04 (trialstep = 0.162E+02)
 search vector abs. value=  0.384E-03
 bond charge predicted
       N       E                     dE             d eps       ncg     rms          rms(c)
DAV:   1    -0.634868918248E+02    0.58645E-03   -0.67737E+00   920   0.477E+00    0.917E-02
DAV:   2    -0.634900133600E+02   -0.31215E-02   -0.31299E-02   940   0.455E-01    0.908E-02
DAV:   3    -0.634899827772E+02    0.30583E-04   -0.46903E-04   928   0.545E-02
  66 F= -.63489983E+02 E0= -.63489983E+02  d E =-.251667E-02  mag=     1.0000
 trial-energy change:   -0.002517  1 .order   -0.002315   -0.002708   -0.001921
 step:  55.8582(harm= 55.8582)  dis= 0.02062  next Energy=   -63.492126 (dE=-0.466E-02)
 bond charge predicted
       N       E                     dE             d eps       ncg     rms          rms(c)
DAV:   1    -0.634728791421E+02    0.17134E-01   -0.40371E+01   888   0.116E+01    0.242E-01
DAV:   2    -0.634912351357E+02   -0.18356E-01   -0.18512E-01   952   0.111E+00    0.241E-01
DAV:   3    -0.634909494582E+02    0.28568E-03   -0.27732E-03   984   0.131E-01    0.184E-01
DAV:   4    -0.634902285398E+02    0.72092E-03   -0.13754E-03   944   0.725E-02    0.938E-02
DAV:   5    -0.634901940647E+02    0.34475E-04   -0.76567E-04   952   0.553E-02
  67 F= -.63490194E+02 E0= -.63490194E+02  d E =-.272795E-02  mag=     1.0000
 curvature: -64.32 expect dE=-0.305E-01 dE for cont linesearch -0.675E-03
 trial: gam= 0.00000 g(F)=  0.475E-03 g(S)=  0.000E+00 ort =-0.635E-04 (trialstep = 0.196E+02)
 search vector abs. value=  0.475E-03
 bond charge predicted
       N       E                     dE             d eps       ncg     rms          rms(c)
DAV:   1    -0.634860334198E+02    0.41951E-02   -0.12275E+01   896   0.643E+00    0.245E-01
DAV:   2    -0.634915046361E+02   -0.54712E-02   -0.58224E-02   948   0.612E-01    0.180E-01
DAV:   3    -0.634914453942E+02    0.59242E-04   -0.11062E-03   968   0.795E-02    0.107E-01
DAV:   4    -0.634914265414E+02    0.18853E-04   -0.32342E-04   720   0.438E-02
  68 F= -.63491427E+02 E0= -.63491427E+02  d E =-.123248E-02  mag=     1.0000
 trial-energy change:   -0.001232  1 .order   -0.001390   -0.009283    0.006502
 step:  11.4990(harm= 11.4990)  dis= 0.00771  next Energy=   -63.492924 (dE=-0.273E-02)
 bond charge predicted
       N       E                     dE             d eps       ncg     rms          rms(c)
DAV:   1    -0.634920326744E+02   -0.58728E-03   -0.20849E+00   944   0.265E+00    0.103E-01
DAV:   2    -0.634929836153E+02   -0.95094E-03   -0.97187E-03   936   0.251E-01    0.772E-02
DAV:   3    -0.634929772107E+02    0.64045E-05   -0.17884E-04   608   0.327E-02
  69 F= -.63492977E+02 E0= -.63492977E+02  d E =-.278315E-02  mag=     1.0000
 curvature:  -5.75 expect dE=-0.549E-03 dE for cont linesearch -0.495E-04
 trial: gam= 0.06644 g(F)=  0.955E-04 g(S)=  0.000E+00 ort = 0.639E-04 (trialstep = 0.179E+02)
 search vector abs. value=  0.106E-03
 bond charge predicted
       N       E                     dE             d eps       ncg     rms          rms(c)
DAV:   1    -0.634930522821E+02   -0.68667E-04   -0.22829E+00   912   0.277E+00    0.603E-02
DAV:   2    -0.634941073287E+02   -0.10550E-02   -0.10634E-02   932   0.266E-01    0.555E-02
DAV:   3    -0.634940954719E+02    0.11857E-04   -0.15021E-04   568   0.330E-02
  70 F= -.63494095E+02 E0= -.63494095E+02  d E =-.111826E-02  mag=     1.0000
 trial-energy change:   -0.001118  1 .order   -0.000863   -0.001790    0.000064
 step:  17.3273(harm= 17.3273)  dis= 0.00467  next Energy=   -63.493841 (dE=-0.864E-03)
 bond charge predicted
       N       E                     dE             d eps       ncg     rms          rms(c)
DAV:   1    -0.634940528579E+02    0.54471E-04   -0.23710E-03   944   0.872E-02    0.150E-02
DAV:   2    -0.634940594929E+02   -0.66350E-05   -0.19237E-05   568   0.127E-02
  71 F= -.63494059E+02 E0= -.63494059E+02  d E =-.108228E-02  mag=     1.0000
 curvature:  -9.21 expect dE=-0.600E-03 dE for cont linesearch -0.142E-03
 trial: gam= 0.24523 g(F)=  0.651E-04 g(S)=  0.000E+00 ort = 0.404E-04 (trialstep = 0.178E+02)
 search vector abs. value=  0.913E-04
 bond charge predicted
       N       E                     dE             d eps       ncg     rms          rms(c)
DAV:   1    -0.634941158489E+02   -0.62991E-04   -0.19401E+00   896   0.256E+00    0.566E-02
DAV:   2    -0.634949960788E+02   -0.88023E-03   -0.89897E-03   944   0.243E-01    0.479E-02
DAV:   3    -0.634949814280E+02    0.14651E-04   -0.12642E-04   592   0.303E-02
  72 F= -.63494981E+02 E0= -.63494981E+02  d E =-.921935E-03  mag=     1.0000
 trial-energy change:   -0.000922  1 .order   -0.000665   -0.001337    0.000007
 step:  17.7212(harm= 17.7212)  dis= 0.00428  next Energy=   -63.494724 (dE=-0.665E-03)
 bond charge predicted
       N       E                     dE             d eps       ncg     rms          rms(c)
DAV:   1    -0.634949473212E+02    0.48758E-04   -0.79048E-05   592   0.163E-02    0.123E-02
DAV:   2    -0.634949462308E+02    0.10904E-05   -0.14035E-05   576   0.941E-03
  73 F= -.63494946E+02 E0= -.63494946E+02  d E =-.886738E-03  mag=     1.0000
 curvature: -10.78 expect dE=-0.502E-03 dE for cont linesearch -0.204E-03
 trial: gam= 0.00000 g(F)=  0.466E-04 g(S)=  0.000E+00 ort = 0.415E-04 (trialstep = 0.178E+02)
 search vector abs. value=  0.466E-04
 reached required accuracy - stopping structural energy minimisation
Application 90983235 resources: utime ~137848s, stime ~713s, Rss ~106740, inblocks ~83111, outblocks ~158278
