 vasp.5.3.5 31Mar14 (build Feb 01 2018 12:10:03) gamma-only                     
  
 executed on             LinuxIFC date 2019.04.09  01:54:29
 running on   32 total cores
 distrk:  each k-point on   32 cores,    1 groups
 distr:  one band on NCORES_PER_BAND=   8 cores,    4 groups


--------------------------------------------------------------------------------------------------------


 INCAR:
 POTCAR:    PAW_PBE Pd 04Jan2005                  
 POTCAR:    PAW_PBE Pd 04Jan2005                  
   VRHFIN =Pd : s1 d9                                                           
   LEXCH  = PE                                                                  
   EATOM  =   809.7530 eV,   59.5152 Ry                                         
                                                                                
   TITEL  = PAW_PBE Pd 04Jan2005                                                
   LULTRA =        F    use ultrasoft PP ?                                      
   IUNSCR =        1    unscreen: 0-lin 1-nonlin 2-no                           
   RPACOR =    2.000    partial core radius                                     
   POMASS =  106.420; ZVAL   =   10.000    mass and valenz                      
   RCORE  =    2.600    outmost cutoff radius                                   
   RWIGS  =    2.710; RWIGS  =    1.434    wigner-seitz radius (au A)           
   ENMAX  =  250.925; ENMIN  =  188.194 eV                                      
   ICORE  =        3    local potential                                         
   LCOR   =        T    correct aug charges                                     
   LPAW   =        T    paw PP                                                  
   EAUG   =  416.230                                                            
   DEXC   =    0.000                                                            
   RMAX   =    2.653    core radius for proj-oper                               
   RAUG   =    1.300    factor for augmentation sphere                          
   RDEP   =    2.734    radius for radial grids                                 
   RDEPT  =    2.103    core radius for aug-charge                              
                                                                                
   Atomic configuration                                                         
   12 entries                                                                   
     n  l   j            E        occ.                                          
     1  0  0.50    -24164.6631   2.0000                                         
     2  0  0.50     -3530.9218   2.0000                                         
     2  1  1.50     -3165.6822   6.0000                                         
     3  0  0.50      -639.4577   2.0000                                         
     3  1  1.50      -519.4532   6.0000                                         
     3  2  2.50      -328.9757  10.0000                                         
     4  0  0.50       -88.7014   2.0000                                         
     4  1  1.50       -54.4540   6.0000                                         
     4  2  2.50        -6.6878   9.0000                                         
     5  0  0.50        -4.3543   1.0000                                         
     5  1  0.50        -1.3606   0.0000                                         
     4  3  2.50        -1.3606   0.0000                                         
   Description                                                                  
     l       E           TYP  RCUT    TYP  RCUT                                 
     2     -6.6878251     23  2.400                                             
     2     -8.0484077     23  2.400                                             
     0     -4.3542939     23  2.400                                             
     0      4.3406793     23  2.400                                             
     1     -4.0817478     23  2.600                                             
     1     15.8380318     23  2.600                                             
     3     -4.0817478     23  2.400                                             
  local pseudopotential read in
  partial core-charges read in
  partial kinetic energy density read in
  atomic valenz-charges read in
  non local Contribution for L=           2  read in
    real space projection operators read in
  non local Contribution for L=           2  read in
    real space projection operators read in
  non local Contribution for L=           0  read in
    real space projection operators read in
  non local Contribution for L=           0  read in
    real space projection operators read in
  non local Contribution for L=           1  read in
    real space projection operators read in
  non local Contribution for L=           1  read in
    real space projection operators read in
    PAW grid and wavefunctions read in
 
   number of l-projection  operators is LMAX  =           6
   number of lm-projection operators is LMMAX =          18
 
  PAW_PBE Pd 04Jan2005                  :
 energy of atom  1       EATOM= -809.7530
 kinetic energy error for atom=    0.0653 (will be added to EATOM!!)
 
 
 POSCAR: Ti12, -71.64591586 <s> Pd </s>          
  positions in direct lattice
  No initial velocities read in
 exchange correlation table for  LEXCH =        8
   RHO(1)=    0.500       N(1)  =     2000
   RHO(2)=  100.500       N(2)  =     4000
 


--------------------------------------------------------------------------------------------------------


 ion  position               nearest neighbor table
   1  0.569  0.626  0.440-   2 2.21   4 2.32   5 2.50   3 2.59
   2  0.476  0.649  0.504-   1 2.21   3 2.50   6 2.63   5 2.67
   3  0.545  0.548  0.546-   2 2.50   5 2.58   1 2.59   7 2.63   6 2.69   8 2.70   4 2.70
   4  0.609  0.513  0.426-   1 2.32   8 2.44   5 2.51   3 2.70  11 2.86
   5  0.480  0.532  0.431-  10 2.32   1 2.50   4 2.51   3 2.58   6 2.63   2 2.67  11 2.72   8 2.87
                             7 3.38
   6  0.406  0.539  0.545-   7 2.45   5 2.63   2 2.63  10 2.68   3 2.69   9 2.78
   7  0.473  0.436  0.577-   8 2.32   9 2.36   6 2.45  12 2.57   3 2.63  10 2.80   5 3.38
   8  0.556  0.419  0.491-  11 2.25   7 2.32   4 2.44  12 2.58   3 2.70   5 2.87  10 3.02
   9  0.356  0.404  0.556-   7 2.36  10 2.37  12 2.58   6 2.78
  10  0.406  0.439  0.449-   5 2.32  12 2.36   9 2.37  11 2.59   6 2.68   7 2.80   8 3.02
  11  0.518  0.405  0.382-   8 2.25  10 2.59   5 2.72  12 2.84   4 2.86
  12  0.452  0.334  0.494-  10 2.36   7 2.57   8 2.58   9 2.58  11 2.84
 
  LATTYP: Found a simple cubic cell.
 ALAT       =    19.2664500672
  
  Lattice vectors:
  
 A1 = (  19.2664500672,   0.0000000000,   0.0000000000)
 A2 = (   0.0000000000,  19.2664500672,   0.0000000000)
 A3 = (   0.0000000000,   0.0000000000,  19.2664500672)


Analysis of symmetry for initial positions (statically):
=====================================================================
 Subroutine PRICEL returns:
 Original cell was already a primitive cell.
 

 Routine SETGRP: Setting up the symmetry group for a 
 simple cubic supercell.


 Subroutine GETGRP returns: Found  1 space group operations
 (whereof  1 operations were pure point group operations)
 out of a pool of 48 trial point group operations.


The static configuration has the point symmetry C_1 .


Analysis of symmetry for dynamics (positions and initial velocities):
=====================================================================
 Subroutine PRICEL returns:
 Original cell was already a primitive cell.
 

 Routine SETGRP: Setting up the symmetry group for a 
 simple cubic supercell.


 Subroutine GETGRP returns: Found  1 space group operations
 (whereof  1 operations were pure point group operations)
 out of a pool of 48 trial point group operations.


The dynamic configuration has the point symmetry C_1 .


Analysis of magnetic symmetry:
=====================================================================
 Subroutine PRICEL returns:
 Original cell was already a primitive cell.
 

 Subroutine MAGSYM returns: Found  1 space group operations
 (whereof  1 operations were pure point group operations)
 out of a pool of  1 trial space group operations
 (whereof  1 operations were pure point group operations)
 and found also     1 'primitive' translations


The magnetic configuration has the point symmetry C_1 .
 
 
 KPOINTS: Gamma-point only                        
  k-points in reciprocal lattice
Space group operators:
 irot       det(A)        alpha          n_x          n_y          n_z        tau_x        tau_y        tau_z
    1     1.000000     0.000001     1.000000     0.000000     0.000000     0.000000     0.000000     0.000000


--------------------------------------------------------------------------------------------------------




 Dimension of arrays:
   k-points           NKPTS =      1   k-points in BZ     NKDIM =      1   number of bands    NBANDS=     80
   number of dos      NEDOS =    301   number of ions     NIONS =     12
   non local maximal  LDIM  =      6   non local SUM 2l+1 LMDIM =     18
   total plane-waves  NPLWV = 512000
   max r-space proj   IRMAX =      1   max aug-charges    IRDMAX=   3672
   dimension x,y,z NGX =    80 NGY =   80 NGZ =   80
   dimension x,y,z NGXF=   160 NGYF=  160 NGZF=  160
   support grid    NGXF=   160 NGYF=  160 NGZF=  160
   ions per type =              12
 NGX,Y,Z   is equivalent  to a cutoff of   6.90,  6.90,  6.90 a.u.
 NGXF,Y,Z  is equivalent  to a cutoff of  13.81, 13.81, 13.81 a.u.


 I would recommend the setting:
   dimension x,y,z NGX =    75 NGY =   75 NGZ =   75
 SYSTEM =  unknown system                          
 POSCAR =  Ti12, -71.64591586 <s> Pd </s>          

 Startparameter for this run:
   NWRITE =      2    write-flag & timer
   PREC   = normal    normal or accurate (medium, high low for compatibility)
   ISTART =      0    job   : 0-new  1-cont  2-samecut
   ICHARG =      2    charge: 1-file 2-atom 10-const
   ISPIN  =      2    spin polarized calculation?
   LNONCOLLINEAR =      F non collinear calculations
   LSORBIT =      F    spin-orbit coupling
   INIWAV =      1    electr: 0-lowe 1-rand  2-diag
   LASPH  =      F    aspherical Exc in radial PAW
   METAGGA=      F    non-selfconsistent MetaGGA calc.

 Electronic Relaxation 1
   ENCUT  =  250.9 eV  18.44 Ry    4.29 a.u.  24.88 24.88 24.88*2*pi/ulx,y,z
   ENINI  =  250.9     initial cutoff
   ENAUG  =  416.2 eV  augmentation charge cutoff
   NELM   =     60;   NELMIN=  2; NELMDL= -5     # of ELM steps 
   EDIFF  = 0.1E-03   stopping-criterion for ELM
   LREAL  =      F    real-space projection
   NLSPLINE    = F    spline interpolate recip. space projectors
   LCOMPAT=      F    compatible to vasp.4.4
   GGA_COMPAT  = T    GGA compatible to vasp.4.4-vasp.4.6
   LMAXPAW     = -100 max onsite density
   LMAXMIX     =    2 max onsite mixed and CHGCAR
   VOSKOWN=      0    Vosko Wilk Nusair interpolation
   ROPT   =    0.00000
 Ionic relaxation
   EDIFFG = 0.1E-02   stopping-criterion for IOM
   NSW    =   1000    number of steps for IOM
   NBLOCK =      1;   KBLOCK =   1000    inner block; outer block 
   IBRION =      2    ionic relax: 0-MD 1-quasi-New 2-CG
   NFREE  =      1    steps in history (QN), initial steepest desc. (CG)
   ISIF   =      2    stress and relaxation
   IWAVPR =     11    prediction:  0-non 1-charg 2-wave 3-comb
   ISYM   =      2    0-nonsym 1-usesym 2-fastsym
   LCORR  =      T    Harris-Foulkes like correction to forces

   POTIM  = 0.1000    time-step for ionic-motion
   TEIN   =    0.0    initial temperature
   TEBEG  =    0.0;   TEEND  =   0.0 temperature during run
   SMASS  =  -3.00    Nose mass-parameter (am)
   estimated Nose-frequenzy (Omega)   =  0.10E-29 period in steps =****** mass=  -0.848E-26a.u.
   SCALEE = 1.0000    scale energy and forces
   NPACO  =    256;   APACO  = 16.0  distance and # of slots for P.C.
   PSTRESS=    0.0 pullay stress

  Mass of Ions in am
   POMASS = 106.42
  Ionic Valenz
   ZVAL   =  10.00
  Atomic Wigner-Seitz radii
   RWIGS  =  -1.00
  virtual crystal weights 
   VCA    =   1.00
   NELECT =     120.0000    total number of electrons
   NUPDOWN=      -1.0000    fix difference up-down

 DOS related values:
   EMIN   =  10.00;   EMAX   =-10.00  energy-range for DOS
   EFERMI =   0.00
   ISMEAR =     0;   SIGMA  =   0.00  broadening in eV -4-tet -1-fermi 0-gaus

 Electronic relaxation 2 (details)
   IALGO  =     38    algorithm
   LDIAG  =      T    sub-space diagonalisation (order eigenvalues)
   LSUBROT=      F    optimize rotation matrix (better conditioning)
   TURBO    =      0    0=normal 1=particle mesh
   IRESTART =      0    0=no restart 2=restart with 2 vectors
   NREBOOT  =      0    no. of reboots
   NMIN     =      0    reboot dimension
   EREF     =   0.00    reference energy to select bands
   IMIX   =      4    mixing-type and parameters
     AMIX     =   0.40;   BMIX     =  1.00
     AMIX_MAG =   1.60;   BMIX_MAG =  1.00
     AMIN     =   0.10
     WC   =   100.;   INIMIX=   1;  MIXPRE=   1;  MAXMIX= -45

 Intra band minimization:
   WEIMIN = 0.0010     energy-eigenvalue tresh-hold
   EBREAK =  0.31E-06  absolut break condition
   DEPER  =   0.30     relativ break condition  

   TIME   =   0.40     timestep for ELM

  volume/ion in A,a.u.               =     595.97      4021.80
  Fermi-wavevector in a.u.,A,eV,Ry     =   0.419115  0.792013  2.389968  0.175658
  Thomas-Fermi vector in A             =   1.380450
 
 Write flags
   LWAVE  =      F    write WAVECAR
   LCHARG =      F    write CHGCAR
   LVTOT  =      F    write LOCPOT, total local potential
   LVHAR  =      F    write LOCPOT, Hartree potential only
   LELF   =      F    write electronic localiz. function (ELF)
   LORBIT =      0    0 simple, 1 ext, 2 COOP (PROOUT)


 Dipole corrections
   LMONO  =      F    monopole corrections only (constant potential shift)
   LDIPOL =      F    correct potential (dipole corrections)
   IDIPOL =      0    1-x, 2-y, 3-z, 4-all directions 
   EPSILON=  1.0000000 bulk dielectric constant

 Exchange correlation treatment:
   GGA     =    PE    GGA type
   LEXCH   =     8    internal setting for exchange type
   VOSKOWN=      0    Vosko Wilk Nusair interpolation
   LHFCALC =     F    Hartree Fock is set to
   LHFONE  =     F    Hartree Fock one center treatment
   AEXX    =    0.0000 exact exchange contribution

 Linear response parameters
   LEPSILON=     F    determine dielectric tensor
   LRPA    =     F    only Hartree local field effects (RPA)
   LNABLA  =     F    use nabla operator in PAW spheres
   LVEL    =     F    velocity operator in full k-point grid
   LINTERFAST=   F  fast interpolation
   KINTER  =     0    interpolate to denser k-point grid
   CSHIFT  =0.1000    complex shift for real part using Kramers Kronig
   OMEGAMAX=  -1.0    maximum frequency
   DEG_THRESHOLD= 0.2000000E-02 threshold for treating states as degnerate
   RTIME   =    0.100 relaxation time in fs

 Orbital magnetization related:
   ORBITALMAG=     F  switch on orbital magnetization
   LCHIMAG   =     F  perturbation theory with respect to B field
   DQ        =  0.001000  dq finite difference perturbation B field



--------------------------------------------------------------------------------------------------------


 conjugate gradient relaxation of ions
 charge density and potential will be updated during run
 spin polarized calculation
 Variant of blocked Davidson
 Davidson routine will perform the subspace rotation
 perform sub-space diagonalisation
    after iterative eigenvector-optimisation
 modified Broyden-mixing scheme, WC =      100.0
 initial mixing is a Kerker type mixing with AMIX =  0.4000 and BMIX =      1.0000
 Hartree-type preconditioning will be used
 using additional bands           20
 reciprocal scheme for non local part
 use partial core corrections
 calculate Harris-corrections to forces 
   (improved forces if not selfconsistent)
 use gradient corrections 
 use of overlap-Matrix (Vanderbilt PP)
 Gauss-broadening in eV      SIGMA  =   0.00


--------------------------------------------------------------------------------------------------------


  energy-cutoff  :      250.93
  volume of cell :     7151.63
      direct lattice vectors                 reciprocal lattice vectors
    19.266450067  0.000000000  0.000000000     0.051903698  0.000000000  0.000000000
     0.000000000 19.266450067  0.000000000     0.000000000  0.051903698  0.000000000
     0.000000000  0.000000000 19.266450067     0.000000000  0.000000000  0.051903698

  length of vectors
    19.266450067 19.266450067 19.266450067     0.051903698  0.051903698  0.051903698


 
 k-points in units of 2pi/SCALE and weight: Gamma-point only                        
   0.00000000  0.00000000  0.00000000       1.000
 
 k-points in reciprocal lattice and weights: Gamma-point only                        
   0.00000000  0.00000000  0.00000000       1.000
 
 position of ions in fractional coordinates (direct lattice) 
   0.56861642  0.62635386  0.43999165
   0.47642343  0.64911498  0.50439626
   0.54533582  0.54766411  0.54638340
   0.60892881  0.51348898  0.42609830
   0.48007953  0.53205381  0.43065064
   0.40599609  0.53940636  0.54492799
   0.47301950  0.43619025  0.57743916
   0.55551092  0.41914238  0.49146859
   0.35640504  0.40433540  0.55615624
   0.40573396  0.43887051  0.44880284
   0.51755354  0.40494205  0.38198433
   0.45201296  0.33447868  0.49381068
 
 position of ions in cartesian coordinates  (Angst):
  10.95521991 12.06761542  8.47707722
   9.17898818 12.50614131  9.71792539
  10.50668539 10.55154330 10.52686846
  11.73189655  9.89310977  8.20940159
   9.24942831 10.25078807  8.29710909
   7.82210332 10.39244566 10.49882794
   9.11340665  8.40383761 11.12520270
  10.70272344  8.07538580  9.46885502
   6.86665990  7.79010776 10.71515644
   7.81705301  8.45547669  8.64683748
   9.97141942  7.80179575  7.35948205
   8.70868522  6.44421680  9.51397872
 


--------------------------------------------------------------------------------------------------------


 use parallel FFT for wavefunctions z direction half grid
 k-point  1 :   0.0000 0.0000 0.0000  plane waves:   32247

 maximum and minimum number of plane-waves per node :      4041     4023

 maximum number of plane-waves:     32247
 maximum index in each direction: 
   IXMAX=   24   IYMAX=   24   IZMAX=   24
   IXMIN=  -24   IYMIN=  -24   IZMIN=    0

 WARNING: aliasing errors must be expected set NGX to  98 to avoid them
 WARNING: aliasing errors must be expected set NGY to  98 to avoid them
 WARNING: aliasing errors must be expected set NGZ to  98 to avoid them
 aliasing errors are usually negligible using standard VASP settings
 and one can safely disregard these warnings

 parallel 3D FFT for wavefunctions:
    minimum data exchange during FFTs selected (reduces bandwidth)
 parallel 3D FFT for charge:
    minimum data exchange during FFTs selected (reduces bandwidth)


 total amount of memory used by VASP on root node    54197. kBytes
========================================================================

   base      :      30000. kBytes
   nonl-proj :       1356. kBytes
   fftplans  :       5765. kBytes
   grid      :      14451. kBytes
   one-center:         31. kBytes
   wavefun   :       2594. kBytes
 
     INWAV:  cpu time    0.00: real time    0.00
 Broyden mixing: mesh for mixing (old mesh)
   NGX = 49   NGY = 49   NGZ = 49
  (NGX  =160   NGY  =160   NGZ  =160)
  gives a total of 117649 points

 initial charge density was supplied:
 charge density of overlapping atoms calculated
 number of electron     120.0000000 magnetization      12.0000000
 keeping initial charge density in first step


--------------------------------------------------------------------------------------------------------


 Maximum index for augmentation-charges          271 (set IRDMAX)


--------------------------------------------------------------------------------------------------------


 First call to EWALD:  gamma=   0.092
 Maximum number of real-space cells 3x 3x 3
 Maximum number of reciprocal cells 3x 3x 3

 FEWALD executed in parallel
    FEWALD:  cpu time    0.00: real time    0.00


----------------------------------------- Iteration    1(   1)  ---------------------------------------


    POTLOK:  cpu time    0.24: real time    0.23
    SETDIJ:  cpu time    0.01: real time    0.01
     EDDAV:  cpu time    0.73: real time    0.73
       DOS:  cpu time    0.00: real time    0.00
    --------------------------------------------
      LOOP:  cpu time    0.98: real time    1.00

 eigenvalue-minimisations  :   320
 total energy-change (2. order) : 0.1084885E+04  (-0.1797203E+04)
 number of electron     120.0000000 magnetization      12.0000000
 augmentation part      120.0000000 magnetization      12.0000000

 Free energy of the ion-electron system (eV)
  ---------------------------------------------------
  alpha Z        PSCENC =        13.12320543
  Ewald energy   TEWEN  =     14493.51876583
  -Hartree energ DENC   =    -23703.26873847
  -exchange      EXHF   =         0.00000000
  -V(xc)+E(xc)   XCENC  =      -357.69463871
  PAW double counting   =      9679.77513946    -8933.18737828
  entropy T*S    EENTRO =         0.00000000
  eigenvalues    EBANDS =       176.36526708
  atomic energy  EATOM  =      9716.25289675
  ---------------------------------------------------
  free energy    TOTEN  =      1084.88451911 eV

  energy without entropy =     1084.88451911  energy(sigma->0) =     1084.88451911


--------------------------------------------------------------------------------------------------------




----------------------------------------- Iteration    1(   2)  ---------------------------------------


     EDDAV:  cpu time    1.21: real time    1.21
       DOS:  cpu time    0.00: real time    0.00
    --------------------------------------------
      LOOP:  cpu time    1.21: real time    1.23

 eigenvalue-minimisations  :   608
 total energy-change (2. order) :-0.6527881E+03  (-0.5832243E+03)
 number of electron     120.0000000 magnetization      12.0000000
 augmentation part      120.0000000 magnetization      12.0000000

 Free energy of the ion-electron system (eV)
  ---------------------------------------------------
  alpha Z        PSCENC =        13.12320543
  Ewald energy   TEWEN  =     14493.51876583
  -Hartree energ DENC   =    -23703.26873847
  -exchange      EXHF   =         0.00000000
  -V(xc)+E(xc)   XCENC  =      -357.69463871
  PAW double counting   =      9679.77513946    -8933.18737828
  entropy T*S    EENTRO =         0.00000000
  eigenvalues    EBANDS =      -476.42279590
  atomic energy  EATOM  =      9716.25289675
  ---------------------------------------------------
  free energy    TOTEN  =       432.09645613 eV

  energy without entropy =      432.09645613  energy(sigma->0) =      432.09645613


--------------------------------------------------------------------------------------------------------




----------------------------------------- Iteration    1(   3)  ---------------------------------------


     EDDAV:  cpu time    1.03: real time    1.04
       DOS:  cpu time    0.00: real time    0.00
    --------------------------------------------
      LOOP:  cpu time    1.04: real time    1.04

 eigenvalue-minimisations  :   496
 total energy-change (2. order) :-0.4045689E+03  (-0.3839454E+03)
 number of electron     120.0000000 magnetization      12.0000000
 augmentation part      120.0000000 magnetization      12.0000000

 Free energy of the ion-electron system (eV)
  ---------------------------------------------------
  alpha Z        PSCENC =        13.12320543
  Ewald energy   TEWEN  =     14493.51876583
  -Hartree energ DENC   =    -23703.26873847
  -exchange      EXHF   =         0.00000000
  -V(xc)+E(xc)   XCENC  =      -357.69463871
  PAW double counting   =      9679.77513946    -8933.18737828
  entropy T*S    EENTRO =         0.00000000
  eigenvalues    EBANDS =      -880.99167757
  atomic energy  EATOM  =      9716.25289675
  ---------------------------------------------------
  free energy    TOTEN  =        27.52757446 eV

  energy without entropy =       27.52757446  energy(sigma->0) =       27.52757446


--------------------------------------------------------------------------------------------------------




----------------------------------------- Iteration    1(   4)  ---------------------------------------


     EDDAV:  cpu time    0.92: real time    0.92
       DOS:  cpu time    0.00: real time    0.00
    --------------------------------------------
      LOOP:  cpu time    0.92: real time    0.92

 eigenvalue-minimisations  :   424
 total energy-change (2. order) :-0.6639561E+02  (-0.5938377E+02)
 number of electron     120.0000000 magnetization      12.0000000
 augmentation part      120.0000000 magnetization      12.0000000

 Free energy of the ion-electron system (eV)
  ---------------------------------------------------
  alpha Z        PSCENC =        13.12320543
  Ewald energy   TEWEN  =     14493.51876583
  -Hartree energ DENC   =    -23703.26873847
  -exchange      EXHF   =         0.00000000
  -V(xc)+E(xc)   XCENC  =      -357.69463871
  PAW double counting   =      9679.77513946    -8933.18737828
  entropy T*S    EENTRO =         0.00000000
  eigenvalues    EBANDS =      -947.38728983
  atomic energy  EATOM  =      9716.25289675
  ---------------------------------------------------
  free energy    TOTEN  =       -38.86803781 eV

  energy without entropy =      -38.86803781  energy(sigma->0) =      -38.86803781


--------------------------------------------------------------------------------------------------------




----------------------------------------- Iteration    1(   5)  ---------------------------------------


     EDDAV:  cpu time    0.86: real time    0.86
       DOS:  cpu time    0.00: real time    0.00
    CHARGE:  cpu time    0.06: real time    0.05
    MIXING:  cpu time    0.00: real time    0.01
    --------------------------------------------
      LOOP:  cpu time    0.92: real time    0.97

 eigenvalue-minimisations  :   392
 total energy-change (2. order) :-0.5977177E+01  (-0.5393278E+01)
 number of electron     120.0000305 magnetization      11.0771459
 augmentation part       51.0896493 magnetization       8.2890821

 Broyden mixing:
  rms(total) = 0.30916E+01    rms(broyden)= 0.30895E+01
  rms(prec ) = 0.31516E+01
  weight for this iteration     100.00

 Free energy of the ion-electron system (eV)
  ---------------------------------------------------
  alpha Z        PSCENC =        13.12320543
  Ewald energy   TEWEN  =     14493.51876583
  -Hartree energ DENC   =    -23703.26873847
  -exchange      EXHF   =         0.00000000
  -V(xc)+E(xc)   XCENC  =      -357.69463871
  PAW double counting   =      9679.77513946    -8933.18737828
  entropy T*S    EENTRO =         0.00000000
  eigenvalues    EBANDS =      -953.36446666
  atomic energy  EATOM  =      9716.25289675
  ---------------------------------------------------
  free energy    TOTEN  =       -44.84521464 eV

  energy without entropy =      -44.84521464  energy(sigma->0) =      -44.84521464


--------------------------------------------------------------------------------------------------------




----------------------------------------- Iteration    1(   6)  ---------------------------------------


    POTLOK:  cpu time    0.22: real time    0.22
    SETDIJ:  cpu time    0.00: real time    0.01
     EDDAV:  cpu time    0.75: real time    0.75
       DOS:  cpu time    0.00: real time    0.00
    CHARGE:  cpu time    0.05: real time    0.05
    MIXING:  cpu time    0.00: real time    0.01
    --------------------------------------------
      LOOP:  cpu time    1.04: real time    1.05

 eigenvalue-minimisations  :   328
 total energy-change (2. order) : 0.6245343E+01  (-0.1635016E+01)
 number of electron     120.0000314 magnetization      10.1585777
 augmentation part       51.0143725 magnetization       6.6869128

 Broyden mixing:
  rms(total) = 0.16827E+01    rms(broyden)= 0.16816E+01
  rms(prec ) = 0.17321E+01
  weight for this iteration     100.00

 eigenvalues of (default mixing * dielectric matrix)
  average eigenvalue GAMMA=   0.9048
  0.9048

 Free energy of the ion-electron system (eV)
  ---------------------------------------------------
  alpha Z        PSCENC =        13.12320543
  Ewald energy   TEWEN  =     14493.51876583
  -Hartree energ DENC   =    -23778.17464152
  -exchange      EXHF   =         0.00000000
  -V(xc)+E(xc)   XCENC  =      -355.59717695
  PAW double counting   =     10658.21010056    -9921.70351351
  entropy T*S    EENTRO =         0.00000000
  eigenvalues    EBANDS =      -864.22950863
  atomic energy  EATOM  =      9716.25289675
  ---------------------------------------------------
  free energy    TOTEN  =       -38.59987204 eV

  energy without entropy =      -38.59987204  energy(sigma->0) =      -38.59987204


--------------------------------------------------------------------------------------------------------




----------------------------------------- Iteration    1(   7)  ---------------------------------------


    POTLOK:  cpu time    0.22: real time    0.22
    SETDIJ:  cpu time    0.00: real time    0.01
     EDDAV:  cpu time    0.78: real time    0.78
       DOS:  cpu time    0.00: real time    0.00
    CHARGE:  cpu time    0.05: real time    0.05
    MIXING:  cpu time    0.01: real time    0.01
    --------------------------------------------
      LOOP:  cpu time    1.07: real time    1.07

 eigenvalue-minimisations  :   344
 total energy-change (2. order) : 0.2417013E+01  (-0.1716303E+01)
 number of electron     120.0000300 magnetization       9.4595272
 augmentation part       50.7558060 magnetization       6.6544881

 Broyden mixing:
  rms(total) = 0.20607E+01    rms(broyden)= 0.20569E+01
  rms(prec ) = 0.23736E+01
  weight for this iteration     100.00

 eigenvalues of (default mixing * dielectric matrix)
  average eigenvalue GAMMA=   0.9051
  0.4550  1.3553

 Free energy of the ion-electron system (eV)
  ---------------------------------------------------
  alpha Z        PSCENC =        13.12320543
  Ewald energy   TEWEN  =     14493.51876583
  -Hartree energ DENC   =    -23806.23988133
  -exchange      EXHF   =         0.00000000
  -V(xc)+E(xc)   XCENC  =      -350.68487555
  PAW double counting   =     11276.40539835   -10546.37613146
  entropy T*S    EENTRO =         0.00000000
  eigenvalues    EBANDS =      -832.18223708
  atomic energy  EATOM  =      9716.25289675
  ---------------------------------------------------
  free energy    TOTEN  =       -36.18285905 eV

  energy without entropy =      -36.18285905  energy(sigma->0) =      -36.18285905


--------------------------------------------------------------------------------------------------------




----------------------------------------- Iteration    1(   8)  ---------------------------------------


    POTLOK:  cpu time    0.22: real time    0.22
    SETDIJ:  cpu time    0.01: real time    0.01
     EDDAV:  cpu time    0.78: real time    0.78
       DOS:  cpu time    0.00: real time    0.00
    CHARGE:  cpu time    0.05: real time    0.05
    MIXING:  cpu time    0.01: real time    0.01
    --------------------------------------------
      LOOP:  cpu time    1.07: real time    1.08

 eigenvalue-minimisations  :   344
 total energy-change (2. order) : 0.2789506E+01  (-0.3941013E+01)
 number of electron     120.0000314 magnetization       9.0571251
 augmentation part       50.8482233 magnetization       6.0393772

 Broyden mixing:
  rms(total) = 0.15858E+01    rms(broyden)= 0.15804E+01
  rms(prec ) = 0.19774E+01
  weight for this iteration     100.00

 eigenvalues of (default mixing * dielectric matrix)
  average eigenvalue GAMMA=   0.8437
  1.7088  0.5736  0.2488

 Free energy of the ion-electron system (eV)
  ---------------------------------------------------
  alpha Z        PSCENC =        13.12320543
  Ewald energy   TEWEN  =     14493.51876583
  -Hartree energ DENC   =    -23824.52189415
  -exchange      EXHF   =         0.00000000
  -V(xc)+E(xc)   XCENC  =      -349.39719119
  PAW double counting   =     11575.38714329   -10848.93458336
  entropy T*S    EENTRO =         0.00000000
  eigenvalues    EBANDS =      -808.82169590
  atomic energy  EATOM  =      9716.25289675
  ---------------------------------------------------
  free energy    TOTEN  =       -33.39335329 eV

  energy without entropy =      -33.39335329  energy(sigma->0) =      -33.39335329


--------------------------------------------------------------------------------------------------------




----------------------------------------- Iteration    1(   9)  ---------------------------------------


    POTLOK:  cpu time    0.22: real time    0.22
    SETDIJ:  cpu time    0.00: real time    0.01
     EDDAV:  cpu time    0.79: real time    0.79
       DOS:  cpu time    0.00: real time    0.00
    CHARGE:  cpu time    0.05: real time    0.05
    MIXING:  cpu time    0.01: real time    0.01
    --------------------------------------------
      LOOP:  cpu time    1.08: real time    1.08

 eigenvalue-minimisations  :   352
 total energy-change (2. order) : 0.3221575E+01  (-0.1147152E+01)
 number of electron     120.0000318 magnetization       8.6487671
 augmentation part       51.2641749 magnetization       4.8353241

 Broyden mixing:
  rms(total) = 0.94252E+00    rms(broyden)= 0.93517E+00
  rms(prec ) = 0.10498E+01
  weight for this iteration     100.00

 eigenvalues of (default mixing * dielectric matrix)
  average eigenvalue GAMMA=   0.7659
  1.9557  0.6410  0.2624  0.2046

 Free energy of the ion-electron system (eV)
  ---------------------------------------------------
  alpha Z        PSCENC =        13.12320543
  Ewald energy   TEWEN  =     14493.51876583
  -Hartree energ DENC   =    -23830.81861108
  -exchange      EXHF   =         0.00000000
  -V(xc)+E(xc)   XCENC  =      -348.75329560
  PAW double counting   =     11692.42002871   -10967.43983781
  entropy T*S    EENTRO =        -0.00000000
  eigenvalues    EBANDS =      -798.47493075
  atomic energy  EATOM  =      9716.25289675
  ---------------------------------------------------
  free energy    TOTEN  =       -30.17177852 eV

  energy without entropy =      -30.17177852  energy(sigma->0) =      -30.17177852


--------------------------------------------------------------------------------------------------------




----------------------------------------- Iteration    1(  10)  ---------------------------------------


    POTLOK:  cpu time    0.22: real time    0.22
    SETDIJ:  cpu time    0.00: real time    0.01
     EDDAV:  cpu time    0.78: real time    0.78
       DOS:  cpu time    0.00: real time    0.00
    CHARGE:  cpu time    0.05: real time    0.05
    MIXING:  cpu time    0.01: real time    0.01
    --------------------------------------------
      LOOP:  cpu time    1.07: real time    1.07

 eigenvalue-minimisations  :   344
 total energy-change (2. order) :-0.1328637E+01  (-0.3634758E+00)
 number of electron     120.0000312 magnetization       8.3526689
 augmentation part       51.2355260 magnetization       5.6889398

 Broyden mixing:
  rms(total) = 0.53688E+00    rms(broyden)= 0.53023E+00
  rms(prec ) = 0.57082E+00
  weight for this iteration     100.00

 eigenvalues of (default mixing * dielectric matrix)
  average eigenvalue GAMMA=   0.6998
  2.0160  0.5437  0.4797  0.2299  0.2299

 Free energy of the ion-electron system (eV)
  ---------------------------------------------------
  alpha Z        PSCENC =        13.12320543
  Ewald energy   TEWEN  =     14493.51876583
  -Hartree energ DENC   =    -23842.11636143
  -exchange      EXHF   =         0.00000000
  -V(xc)+E(xc)   XCENC  =      -349.80351700
  PAW double counting   =     11812.93515775   -11088.86179040
  entropy T*S    EENTRO =         0.00000000
  eigenvalues    EBANDS =      -786.54877211
  atomic energy  EATOM  =      9716.25289675
  ---------------------------------------------------
  free energy    TOTEN  =       -31.50041517 eV

  energy without entropy =      -31.50041517  energy(sigma->0) =      -31.50041517


--------------------------------------------------------------------------------------------------------




----------------------------------------- Iteration    1(  11)  ---------------------------------------


    POTLOK:  cpu time    0.22: real time    0.22
    SETDIJ:  cpu time    0.01: real time    0.01
     EDDAV:  cpu time    0.79: real time    0.79
       DOS:  cpu time    0.00: real time    0.00
    CHARGE:  cpu time    0.05: real time    0.05
    MIXING:  cpu time    0.00: real time    0.01
    --------------------------------------------
      LOOP:  cpu time    1.08: real time    1.08

 eigenvalue-minimisations  :   352
 total energy-change (2. order) :-0.3749988E+00  (-0.1041336E+00)
 number of electron     120.0000309 magnetization       8.1677141
 augmentation part       51.1382312 magnetization       5.5588000

 Broyden mixing:
  rms(total) = 0.36722E+00    rms(broyden)= 0.36543E+00
  rms(prec ) = 0.39268E+00
  weight for this iteration     100.00

 eigenvalues of (default mixing * dielectric matrix)
  average eigenvalue GAMMA=   0.6256
  2.0133  0.4834  0.4834  0.2810  0.2810  0.2113

 Free energy of the ion-electron system (eV)
  ---------------------------------------------------
  alpha Z        PSCENC =        13.12320543
  Ewald energy   TEWEN  =     14493.51876583
  -Hartree energ DENC   =    -23850.90983422
  -exchange      EXHF   =         0.00000000
  -V(xc)+E(xc)   XCENC  =      -349.97766347
  PAW double counting   =     11843.33843598   -11119.20074233
  entropy T*S    EENTRO =         0.00000000
  eigenvalues    EBANDS =      -778.02047799
  atomic energy  EATOM  =      9716.25289675
  ---------------------------------------------------
  free energy    TOTEN  =       -31.87541401 eV

  energy without entropy =      -31.87541401  energy(sigma->0) =      -31.87541401


--------------------------------------------------------------------------------------------------------




----------------------------------------- Iteration    1(  12)  ---------------------------------------


    POTLOK:  cpu time    0.22: real time    0.22
    SETDIJ:  cpu time    0.01: real time    0.01
     EDDAV:  cpu time    0.77: real time    0.77
       DOS:  cpu time    0.00: real time    0.00
    CHARGE:  cpu time    0.05: real time    0.05
    MIXING:  cpu time    0.01: real time    0.01
    --------------------------------------------
      LOOP:  cpu time    1.07: real time    1.07

 eigenvalue-minimisations  :   344
 total energy-change (2. order) :-0.3912395E+00  (-0.1994202E-01)
 number of electron     120.0000309 magnetization       7.7738321
 augmentation part       51.0995914 magnetization       5.1739790

 Broyden mixing:
  rms(total) = 0.30485E+00    rms(broyden)= 0.30458E+00
  rms(prec ) = 0.32278E+00
  weight for this iteration     100.00

 eigenvalues of (default mixing * dielectric matrix)
  average eigenvalue GAMMA=   0.6800
  2.0077  0.6992  0.6992  0.6092  0.2886  0.2281  0.2281

 Free energy of the ion-electron system (eV)
  ---------------------------------------------------
  alpha Z        PSCENC =        13.12320543
  Ewald energy   TEWEN  =     14493.51876583
  -Hartree energ DENC   =    -23855.34152536
  -exchange      EXHF   =         0.00000000
  -V(xc)+E(xc)   XCENC  =      -350.22333275
  PAW double counting   =     11849.16244976   -11124.93330749
  entropy T*S    EENTRO =         0.00000000
  eigenvalues    EBANDS =      -773.82580566
  atomic energy  EATOM  =      9716.25289675
  ---------------------------------------------------
  free energy    TOTEN  =       -32.26665348 eV

  energy without entropy =      -32.26665348  energy(sigma->0) =      -32.26665348


--------------------------------------------------------------------------------------------------------




----------------------------------------- Iteration    1(  13)  ---------------------------------------


    POTLOK:  cpu time    0.22: real time    0.22
    SETDIJ:  cpu time    0.01: real time    0.01
     EDDAV:  cpu time    0.76: real time    0.76
       DOS:  cpu time    0.00: real time    0.00
    CHARGE:  cpu time    0.05: real time    0.05
    MIXING:  cpu time    0.01: real time    0.01
    --------------------------------------------
      LOOP:  cpu time    1.05: real time    1.06

 eigenvalue-minimisations  :   336
 total energy-change (2. order) :-0.1025454E+01  (-0.2607323E-01)
 number of electron     120.0000310 magnetization       7.1195837
 augmentation part       51.0438954 magnetization       4.5862836

 Broyden mixing:
  rms(total) = 0.24888E+00    rms(broyden)= 0.24845E+00
  rms(prec ) = 0.27333E+00
  weight for this iteration     100.00

 eigenvalues of (default mixing * dielectric matrix)
  average eigenvalue GAMMA=   0.7059
  1.9785  0.9497  0.9497  0.6160  0.4296  0.2353  0.2353  0.2531

 Free energy of the ion-electron system (eV)
  ---------------------------------------------------
  alpha Z        PSCENC =        13.12320543
  Ewald energy   TEWEN  =     14493.51876583
  -Hartree energ DENC   =    -23861.92344665
  -exchange      EXHF   =         0.00000000
  -V(xc)+E(xc)   XCENC  =      -350.94770594
  PAW double counting   =     11854.50446752   -11130.25527198
  entropy T*S    EENTRO =         0.00000000
  eigenvalues    EBANDS =      -767.56501879
  atomic energy  EATOM  =      9716.25289675
  ---------------------------------------------------
  free energy    TOTEN  =       -33.29210781 eV

  energy without entropy =      -33.29210781  energy(sigma->0) =      -33.29210781


--------------------------------------------------------------------------------------------------------




----------------------------------------- Iteration    1(  14)  ---------------------------------------


    POTLOK:  cpu time    0.22: real time    0.22
    SETDIJ:  cpu time    0.00: real time    0.01
     EDDAV:  cpu time    0.76: real time    0.76
       DOS:  cpu time    0.00: real time    0.00
    CHARGE:  cpu time    0.05: real time    0.05
    MIXING:  cpu time    0.01: real time    0.01
    --------------------------------------------
      LOOP:  cpu time    1.05: real time    1.13

 eigenvalue-minimisations  :   336
 total energy-change (2. order) :-0.1564888E+01  (-0.4944997E-01)
 number of electron     120.0000310 magnetization       6.6331377
 augmentation part       51.0121613 magnetization       4.1902655

 Broyden mixing:
  rms(total) = 0.19201E+00    rms(broyden)= 0.19106E+00
  rms(prec ) = 0.21236E+00
  weight for this iteration     100.00

 eigenvalues of (default mixing * dielectric matrix)
  average eigenvalue GAMMA=   0.7227
  2.0086  1.1169  1.1169  0.6273  0.6273  0.2848  0.2848  0.2190  0.2190

 Free energy of the ion-electron system (eV)
  ---------------------------------------------------
  alpha Z        PSCENC =        13.12320543
  Ewald energy   TEWEN  =     14493.51876583
  -Hartree energ DENC   =    -23870.37960015
  -exchange      EXHF   =         0.00000000
  -V(xc)+E(xc)   XCENC  =      -352.06543025
  PAW double counting   =     11854.43528486   -11130.14612695
  entropy T*S    EENTRO =         0.00000000
  eigenvalues    EBANDS =      -759.59599087
  atomic energy  EATOM  =      9716.25289675
  ---------------------------------------------------
  free energy    TOTEN  =       -34.85699534 eV

  energy without entropy =      -34.85699534  energy(sigma->0) =      -34.85699534


--------------------------------------------------------------------------------------------------------




----------------------------------------- Iteration    1(  15)  ---------------------------------------


    POTLOK:  cpu time    0.22: real time    0.22
    SETDIJ:  cpu time    0.01: real time    0.01
     EDDAV:  cpu time    0.78: real time    0.79
       DOS:  cpu time    0.00: real time    0.00
    CHARGE:  cpu time    0.05: real time    0.05
    MIXING:  cpu time    0.01: real time    0.01
    --------------------------------------------
      LOOP:  cpu time    1.08: real time    1.08

 eigenvalue-minimisations  :   352
 total energy-change (2. order) :-0.1123262E+01  (-0.3641400E-01)
 number of electron     120.0000308 magnetization       6.1105779
 augmentation part       50.9837579 magnetization       3.7599929

 Broyden mixing:
  rms(total) = 0.16444E+00    rms(broyden)= 0.16312E+00
  rms(prec ) = 0.18435E+00
  weight for this iteration     100.00

 eigenvalues of (default mixing * dielectric matrix)
  average eigenvalue GAMMA=   0.7250
  2.0209  1.2390  1.2390  0.7136  0.7136  0.3579  0.2902  0.2232  0.2232  0.2293

 Free energy of the ion-electron system (eV)
  ---------------------------------------------------
  alpha Z        PSCENC =        13.12320543
  Ewald energy   TEWEN  =     14493.51876583
  -Hartree energ DENC   =    -23875.09978655
  -exchange      EXHF   =         0.00000000
  -V(xc)+E(xc)   XCENC  =      -352.91659334
  PAW double counting   =     11857.10898658   -11132.93476843
  entropy T*S    EENTRO =         0.00000000
  eigenvalues    EBANDS =      -755.03296318
  atomic energy  EATOM  =      9716.25289675
  ---------------------------------------------------
  free energy    TOTEN  =       -35.98025690 eV

  energy without entropy =      -35.98025690  energy(sigma->0) =      -35.98025690


--------------------------------------------------------------------------------------------------------




----------------------------------------- Iteration    1(  16)  ---------------------------------------


    POTLOK:  cpu time    0.22: real time    0.22
    SETDIJ:  cpu time    0.01: real time    0.01
     EDDAV:  cpu time    0.77: real time    0.77
       DOS:  cpu time    0.00: real time    0.00
    CHARGE:  cpu time    0.05: real time    0.05
    MIXING:  cpu time    0.01: real time    0.01
    --------------------------------------------
      LOOP:  cpu time    1.06: real time    2.18

 eigenvalue-minimisations  :   344
 total energy-change (2. order) :-0.1191995E+01  (-0.3125558E-01)
 number of electron     120.0000309 magnetization       5.7825629
 augmentation part       50.9690465 magnetization       3.5362470

 Broyden mixing:
  rms(total) = 0.10131E+00    rms(broyden)= 0.10045E+00
  rms(prec ) = 0.10823E+00
  weight for this iteration     100.00

 eigenvalues of (default mixing * dielectric matrix)
  average eigenvalue GAMMA=   0.7384
  1.8369  1.8369  1.0092  0.8262  0.8262  0.5014  0.3416  0.2837  0.2240  0.2240
  0.2125

 Free energy of the ion-electron system (eV)
  ---------------------------------------------------
  alpha Z        PSCENC =        13.12320543
  Ewald energy   TEWEN  =     14493.51876583
  -Hartree energ DENC   =    -23879.61280841
  -exchange      EXHF   =         0.00000000
  -V(xc)+E(xc)   XCENC  =      -353.83982974
  PAW double counting   =     11856.72071737   -11132.65492961
  entropy T*S    EENTRO =         0.00000000
  eigenvalues    EBANDS =      -750.68026916
  atomic energy  EATOM  =      9716.25289675
  ---------------------------------------------------
  free energy    TOTEN  =       -37.17225153 eV

  energy without entropy =      -37.17225153  energy(sigma->0) =      -37.17225153


--------------------------------------------------------------------------------------------------------




----------------------------------------- Iteration    1(  17)  ---------------------------------------


    POTLOK:  cpu time    0.23: real time    0.23
    SETDIJ:  cpu time    0.01: real time    0.01
     EDDAV:  cpu time    0.75: real time    0.75
       DOS:  cpu time    0.00: real time    0.00
    CHARGE:  cpu time    0.05: real time    0.05
    MIXING:  cpu time    0.01: real time    0.01
    --------------------------------------------
      LOOP:  cpu time    1.05: real time    2.38

 eigenvalue-minimisations  :   336
 total energy-change (2. order) :-0.8737175E+00  (-0.1526767E-01)
 number of electron     120.0000310 magnetization       5.3932073
 augmentation part       50.9519913 magnetization       3.2352658

 Broyden mixing:
  rms(total) = 0.84676E-01    rms(broyden)= 0.84450E-01
  rms(prec ) = 0.91338E-01
  weight for this iteration     100.00

 eigenvalues of (default mixing * dielectric matrix)
  average eigenvalue GAMMA=   0.7844
  2.1358  2.1358  1.0013  1.0013  0.8164  0.5267  0.5267  0.3273  0.2832  0.2259
  0.2259  0.2066

 Free energy of the ion-electron system (eV)
  ---------------------------------------------------
  alpha Z        PSCENC =        13.12320543
  Ewald energy   TEWEN  =     14493.51876583
  -Hartree energ DENC   =    -23881.37760058
  -exchange      EXHF   =         0.00000000
  -V(xc)+E(xc)   XCENC  =      -354.54805954
  PAW double counting   =     11850.33192538   -11126.31900913
  entropy T*S    EENTRO =         0.00000000
  eigenvalues    EBANDS =      -749.02809319
  atomic energy  EATOM  =      9716.25289675
  ---------------------------------------------------
  free energy    TOTEN  =       -38.04596904 eV

  energy without entropy =      -38.04596904  energy(sigma->0) =      -38.04596904


--------------------------------------------------------------------------------------------------------




----------------------------------------- Iteration    1(  18)  ---------------------------------------


    POTLOK:  cpu time    0.22: real time    0.22
    SETDIJ:  cpu time    0.01: real time    0.01
     EDDAV:  cpu time    0.76: real time    0.77
       DOS:  cpu time    0.00: real time    0.00
    CHARGE:  cpu time    0.05: real time    0.05
    MIXING:  cpu time    0.01: real time    0.01
    --------------------------------------------
      LOOP:  cpu time    1.06: real time    1.06

 eigenvalue-minimisations  :   344
 total energy-change (2. order) :-0.9787402E+00  (-0.1795571E-01)
 number of electron     120.0000309 magnetization       4.9750098
 augmentation part       50.9447459 magnetization       2.9198657

 Broyden mixing:
  rms(total) = 0.63795E-01    rms(broyden)= 0.63516E-01
  rms(prec ) = 0.67988E-01
  weight for this iteration     100.00

 eigenvalues of (default mixing * dielectric matrix)
  average eigenvalue GAMMA=   0.8438
  2.3728  2.3728  1.2490  1.2490  0.7344  0.7344  0.6469  0.3796  0.2874  0.2874
  0.2250  0.2250  0.2059

 Free energy of the ion-electron system (eV)
  ---------------------------------------------------
  alpha Z        PSCENC =        13.12320543
  Ewald energy   TEWEN  =     14493.51876583
  -Hartree energ DENC   =    -23881.90995416
  -exchange      EXHF   =         0.00000000
  -V(xc)+E(xc)   XCENC  =      -355.37588124
  PAW double counting   =     11837.62668045   -11113.66528198
  entropy T*S    EENTRO =         0.00000000
  eigenvalues    EBANDS =      -748.59514030
  atomic energy  EATOM  =      9716.25289675
  ---------------------------------------------------
  free energy    TOTEN  =       -39.02470921 eV

  energy without entropy =      -39.02470921  energy(sigma->0) =      -39.02470921


--------------------------------------------------------------------------------------------------------




----------------------------------------- Iteration    1(  19)  ---------------------------------------


    POTLOK:  cpu time    0.22: real time    0.22
    SETDIJ:  cpu time    0.01: real time    0.01
     EDDAV:  cpu time    0.79: real time    0.79
       DOS:  cpu time    0.00: real time    0.00
    CHARGE:  cpu time    0.05: real time    0.05
    MIXING:  cpu time    0.01: real time    0.01
    --------------------------------------------
      LOOP:  cpu time    1.08: real time    1.09

 eigenvalue-minimisations  :   360
 total energy-change (2. order) :-0.8669558E+00  (-0.1753119E-01)
 number of electron     120.0000309 magnetization       4.8430559
 augmentation part       50.9449385 magnetization       2.8776468

 Broyden mixing:
  rms(total) = 0.54927E-01    rms(broyden)= 0.54209E-01
  rms(prec ) = 0.57642E-01
  weight for this iteration     100.00

 eigenvalues of (default mixing * dielectric matrix)
  average eigenvalue GAMMA=   0.8199
  2.3084  2.3084  1.3422  1.3422  0.7380  0.7380  0.7354  0.4006  0.3362  0.2862
  0.2862  0.2252  0.2252  0.2060

 Free energy of the ion-electron system (eV)
  ---------------------------------------------------
  alpha Z        PSCENC =        13.12320543
  Ewald energy   TEWEN  =     14493.51876583
  -Hartree energ DENC   =    -23881.47318571
  -exchange      EXHF   =         0.00000000
  -V(xc)+E(xc)   XCENC  =      -356.15069811
  PAW double counting   =     11827.94206055   -11104.11912342
  entropy T*S    EENTRO =         0.00000000
  eigenvalues    EBANDS =      -748.98558635
  atomic energy  EATOM  =      9716.25289675
  ---------------------------------------------------
  free energy    TOTEN  =       -39.89166501 eV

  energy without entropy =      -39.89166501  energy(sigma->0) =      -39.89166501


--------------------------------------------------------------------------------------------------------




----------------------------------------- Iteration    1(  20)  ---------------------------------------


    POTLOK:  cpu time    0.22: real time    0.22
    SETDIJ:  cpu time    0.01: real time    0.01
     EDDAV:  cpu time    0.81: real time    0.81
       DOS:  cpu time    0.00: real time    0.00
    CHARGE:  cpu time    0.05: real time    0.05
    MIXING:  cpu time    0.01: real time    0.01
    --------------------------------------------
      LOOP:  cpu time    1.11: real time    1.11

 eigenvalue-minimisations  :   368
 total energy-change (2. order) :-0.2893513E+00  (-0.2933844E-02)
 number of electron     120.0000309 magnetization       4.6482036
 augmentation part       50.9516978 magnetization       2.7138467

 Broyden mixing:
  rms(total) = 0.41399E-01    rms(broyden)= 0.41039E-01
  rms(prec ) = 0.43091E-01
  weight for this iteration     100.00

 eigenvalues of (default mixing * dielectric matrix)
  average eigenvalue GAMMA=   0.8746
  2.1656  2.1656  1.8607  1.8607  0.8007  0.8007  0.8297  0.5189  0.5189  0.3684
  0.2863  0.2863  0.2251  0.2251  0.2058

 Free energy of the ion-electron system (eV)
  ---------------------------------------------------
  alpha Z        PSCENC =        13.12320543
  Ewald energy   TEWEN  =     14493.51876583
  -Hartree energ DENC   =    -23879.95880619
  -exchange      EXHF   =         0.00000000
  -V(xc)+E(xc)   XCENC  =      -356.43695889
  PAW double counting   =     11822.58695847   -11098.82051579
  entropy T*S    EENTRO =        -0.00000000
  eigenvalues    EBANDS =      -750.44656190
  atomic energy  EATOM  =      9716.25289675
  ---------------------------------------------------
  free energy    TOTEN  =       -40.18101628 eV

  energy without entropy =      -40.18101628  energy(sigma->0) =      -40.18101628


--------------------------------------------------------------------------------------------------------




----------------------------------------- Iteration    1(  21)  ---------------------------------------


    POTLOK:  cpu time    0.22: real time    0.22
    SETDIJ:  cpu time    0.01: real time    0.01
     EDDAV:  cpu time    0.76: real time    0.76
       DOS:  cpu time    0.00: real time    0.00
    CHARGE:  cpu time    0.05: real time    0.05
    MIXING:  cpu time    0.01: real time    0.01
    --------------------------------------------
      LOOP:  cpu time    1.06: real time    1.12

 eigenvalue-minimisations  :   336
 total energy-change (2. order) :-0.3293863E+00  (-0.3658355E-02)
 number of electron     120.0000308 magnetization       4.4798376
 augmentation part       50.9520048 magnetization       2.5789467

 Broyden mixing:
  rms(total) = 0.42493E-01    rms(broyden)= 0.41796E-01
  rms(prec ) = 0.44475E-01
  weight for this iteration     100.00

 eigenvalues of (default mixing * dielectric matrix)
  average eigenvalue GAMMA=   0.9653
  2.9406  2.9406  2.0784  1.1942  1.1942  0.9257  0.9257  0.6307  0.6307  0.4131
  0.2059  0.2251  0.2251  0.3411  0.2867  0.2867

 Free energy of the ion-electron system (eV)
  ---------------------------------------------------
  alpha Z        PSCENC =        13.12320543
  Ewald energy   TEWEN  =     14493.51876583
  -Hartree energ DENC   =    -23878.56583532
  -exchange      EXHF   =         0.00000000
  -V(xc)+E(xc)   XCENC  =      -356.76525209
  PAW double counting   =     11816.99300265   -11093.26085217
  entropy T*S    EENTRO =        -0.00000000
  eigenvalues    EBANDS =      -751.80633364
  atomic energy  EATOM  =      9716.25289675
  ---------------------------------------------------
  free energy    TOTEN  =       -40.51040256 eV

  energy without entropy =      -40.51040256  energy(sigma->0) =      -40.51040256


--------------------------------------------------------------------------------------------------------




----------------------------------------- Iteration    1(  22)  ---------------------------------------


    POTLOK:  cpu time    0.23: real time    0.22
    SETDIJ:  cpu time    0.00: real time    0.01
     EDDAV:  cpu time    0.79: real time    0.79
       DOS:  cpu time    0.00: real time    0.00
    CHARGE:  cpu time    0.05: real time    0.05
    MIXING:  cpu time    0.01: real time    0.01
    --------------------------------------------
      LOOP:  cpu time    1.08: real time    1.09

 eigenvalue-minimisations  :   352
 total energy-change (2. order) :-0.2921474E+00  (-0.2987796E-02)
 number of electron     120.0000308 magnetization       4.3139580
 augmentation part       50.9535598 magnetization       2.4439088

 Broyden mixing:
  rms(total) = 0.29503E-01    rms(broyden)= 0.28916E-01
  rms(prec ) = 0.31644E-01
  weight for this iteration     100.00

 eigenvalues of (default mixing * dielectric matrix)
  average eigenvalue GAMMA=   0.9914
  3.1180  3.1180  2.3859  1.2716  1.2716  0.8843  0.8843  0.8172  0.6253  0.4716
  0.4284  0.2251  0.2251  0.2059  0.2868  0.2868  0.3476

 Free energy of the ion-electron system (eV)
  ---------------------------------------------------
  alpha Z        PSCENC =        13.12320543
  Ewald energy   TEWEN  =     14493.51876583
  -Hartree energ DENC   =    -23876.64923724
  -exchange      EXHF   =         0.00000000
  -V(xc)+E(xc)   XCENC  =      -357.07471649
  PAW double counting   =     11812.88654434   -11089.18980979
  entropy T*S    EENTRO =         0.00000000
  eigenvalues    EBANDS =      -753.67019882
  atomic energy  EATOM  =      9716.25289675
  ---------------------------------------------------
  free energy    TOTEN  =       -40.80254997 eV

  energy without entropy =      -40.80254997  energy(sigma->0) =      -40.80254997


--------------------------------------------------------------------------------------------------------




----------------------------------------- Iteration    1(  23)  ---------------------------------------


    POTLOK:  cpu time    0.22: real time    0.22
    SETDIJ:  cpu time    0.00: real time    0.01
     EDDAV:  cpu time    0.78: real time    0.77
       DOS:  cpu time    0.00: real time    0.00
    CHARGE:  cpu time    0.05: real time    0.05
    MIXING:  cpu time    0.01: real time    0.01
    --------------------------------------------
      LOOP:  cpu time    1.07: real time    1.07

 eigenvalue-minimisations  :   344
 total energy-change (2. order) :-0.2340445E+00  (-0.2060304E-02)
 number of electron     120.0000308 magnetization       4.2184118
 augmentation part       50.9603553 magnetization       2.3719449

 Broyden mixing:
  rms(total) = 0.23137E-01    rms(broyden)= 0.22676E-01
  rms(prec ) = 0.24781E-01
  weight for this iteration     100.00

 eigenvalues of (default mixing * dielectric matrix)
  average eigenvalue GAMMA=   1.0186
  3.3276  3.3276  2.4969  1.4606  1.4606  0.8997  0.8997  0.7828  0.7452  0.5522
  0.4474  0.3781  0.2059  0.2251  0.2251  0.2870  0.2870  0.3255

 Free energy of the ion-electron system (eV)
  ---------------------------------------------------
  alpha Z        PSCENC =        13.12320543
  Ewald energy   TEWEN  =     14493.51876583
  -Hartree energ DENC   =    -23875.25935513
  -exchange      EXHF   =         0.00000000
  -V(xc)+E(xc)   XCENC  =      -357.32487331
  PAW double counting   =     11810.26766379   -11086.60857374
  entropy T*S    EENTRO =         0.00000000
  eigenvalues    EBANDS =      -755.00632406
  atomic energy  EATOM  =      9716.25289675
  ---------------------------------------------------
  free energy    TOTEN  =       -41.03659444 eV

  energy without entropy =      -41.03659444  energy(sigma->0) =      -41.03659444


--------------------------------------------------------------------------------------------------------




----------------------------------------- Iteration    1(  24)  ---------------------------------------


    POTLOK:  cpu time    0.23: real time    0.22
    SETDIJ:  cpu time    0.00: real time    0.01
     EDDAV:  cpu time    0.83: real time    0.83
       DOS:  cpu time    0.00: real time    0.00
    CHARGE:  cpu time    0.05: real time    0.05
    MIXING:  cpu time    0.01: real time    0.01
    --------------------------------------------
      LOOP:  cpu time    1.12: real time    1.13

 eigenvalue-minimisations  :   376
 total energy-change (2. order) :-0.1242778E+00  (-0.6737905E-03)
 number of electron     120.0000308 magnetization       4.1554131
 augmentation part       50.9618999 magnetization       2.3193836

 Broyden mixing:
  rms(total) = 0.13369E-01    rms(broyden)= 0.13262E-01
  rms(prec ) = 0.14499E-01
  weight for this iteration     100.00

 eigenvalues of (default mixing * dielectric matrix)
  average eigenvalue GAMMA=   1.0314
  3.9435  2.7317  2.7317  1.5565  1.5565  1.0041  1.0041  0.7829  0.7829  0.6247
  0.5293  0.4445  0.2059  0.2251  0.2251  0.3606  0.2868  0.2868  0.3131

 Free energy of the ion-electron system (eV)
  ---------------------------------------------------
  alpha Z        PSCENC =        13.12320543
  Ewald energy   TEWEN  =     14493.51876583
  -Hartree energ DENC   =    -23874.41050087
  -exchange      EXHF   =         0.00000000
  -V(xc)+E(xc)   XCENC  =      -357.46040868
  PAW double counting   =     11809.37526957   -11085.73150760
  entropy T*S    EENTRO =         0.00000000
  eigenvalues    EBANDS =      -755.82859264
  atomic energy  EATOM  =      9716.25289675
  ---------------------------------------------------
  free energy    TOTEN  =       -41.16087219 eV

  energy without entropy =      -41.16087219  energy(sigma->0) =      -41.16087219


--------------------------------------------------------------------------------------------------------




----------------------------------------- Iteration    1(  25)  ---------------------------------------


    POTLOK:  cpu time    0.22: real time    0.23
    SETDIJ:  cpu time    0.01: real time    0.01
     EDDAV:  cpu time    0.79: real time    0.79
       DOS:  cpu time    0.00: real time    0.00
    CHARGE:  cpu time    0.05: real time    0.05
    MIXING:  cpu time    0.01: real time    0.01
    --------------------------------------------
      LOOP:  cpu time    1.09: real time    1.51

 eigenvalue-minimisations  :   352
 total energy-change (2. order) :-0.5772832E-01  (-0.2034484E-03)
 number of electron     120.0000308 magnetization       4.1075808
 augmentation part       50.9632794 magnetization       2.2780358

 Broyden mixing:
  rms(total) = 0.93064E-02    rms(broyden)= 0.92788E-02
  rms(prec ) = 0.10199E-01
  weight for this iteration     100.00

 eigenvalues of (default mixing * dielectric matrix)
  average eigenvalue GAMMA=   1.0521
  4.6128  2.6402  2.6402  1.6266  1.6266  1.1135  1.1135  0.8106  0.8106  0.6937
  0.5190  0.5190  0.4136  0.2059  0.2251  0.2251  0.3591  0.2871  0.2871  0.3118

 Free energy of the ion-electron system (eV)
  ---------------------------------------------------
  alpha Z        PSCENC =        13.12320543
  Ewald energy   TEWEN  =     14493.51876583
  -Hartree energ DENC   =    -23874.17489068
  -exchange      EXHF   =         0.00000000
  -V(xc)+E(xc)   XCENC  =      -357.52076718
  PAW double counting   =     11809.15127288   -11085.50825810
  entropy T*S    EENTRO =         0.00000000
  eigenvalues    EBANDS =      -756.06082547
  atomic energy  EATOM  =      9716.25289675
  ---------------------------------------------------
  free energy    TOTEN  =       -41.21860052 eV

  energy without entropy =      -41.21860052  energy(sigma->0) =      -41.21860052


--------------------------------------------------------------------------------------------------------




----------------------------------------- Iteration    1(  26)  ---------------------------------------


    POTLOK:  cpu time    0.22: real time    0.22
    SETDIJ:  cpu time    0.00: real time    0.01
     EDDAV:  cpu time    0.72: real time    0.72
       DOS:  cpu time    0.00: real time    0.00
    CHARGE:  cpu time    0.05: real time    0.05
    MIXING:  cpu time    0.02: real time    0.01
    --------------------------------------------
      LOOP:  cpu time    1.02: real time    1.03

 eigenvalue-minimisations  :   312
 total energy-change (2. order) :-0.4271590E-01  (-0.1328981E-03)
 number of electron     120.0000308 magnetization       4.0660427
 augmentation part       50.9612831 magnetization       2.2407214

 Broyden mixing:
  rms(total) = 0.58815E-02    rms(broyden)= 0.58483E-02
  rms(prec ) = 0.64942E-02
  weight for this iteration     100.00

 eigenvalues of (default mixing * dielectric matrix)
  average eigenvalue GAMMA=   1.0755
  5.1864  2.4579  2.4579  1.8551  1.8551  1.1663  1.1663  0.8452  0.8452  0.8048
  0.6395  0.5635  0.4443  0.4030  0.2251  0.2251  0.2059  0.3550  0.2869  0.2869
  0.3109

 Free energy of the ion-electron system (eV)
  ---------------------------------------------------
  alpha Z        PSCENC =        13.12320543
  Ewald energy   TEWEN  =     14493.51876583
  -Hartree energ DENC   =    -23873.96064813
  -exchange      EXHF   =         0.00000000
  -V(xc)+E(xc)   XCENC  =      -357.56503452
  PAW double counting   =     11809.47233105   -11085.81853717
  entropy T*S    EENTRO =         0.00000000
  eigenvalues    EBANDS =      -756.28429567
  atomic energy  EATOM  =      9716.25289675
  ---------------------------------------------------
  free energy    TOTEN  =       -41.26131642 eV

  energy without entropy =      -41.26131642  energy(sigma->0) =      -41.26131642


--------------------------------------------------------------------------------------------------------




----------------------------------------- Iteration    1(  27)  ---------------------------------------


    POTLOK:  cpu time    0.23: real time    0.23
    SETDIJ:  cpu time    0.00: real time    0.01
     EDDAV:  cpu time    0.72: real time    0.72
       DOS:  cpu time    0.00: real time    0.00
    CHARGE:  cpu time    0.05: real time    0.05
    MIXING:  cpu time    0.02: real time    0.01
    --------------------------------------------
      LOOP:  cpu time    1.02: real time    1.03

 eigenvalue-minimisations  :   312
 total energy-change (2. order) :-0.2909817E-01  (-0.9598659E-04)
 number of electron     120.0000308 magnetization       4.0434716
 augmentation part       50.9609124 magnetization       2.2227139

 Broyden mixing:
  rms(total) = 0.35664E-02    rms(broyden)= 0.35356E-02
  rms(prec ) = 0.40928E-02
  weight for this iteration     100.00

 eigenvalues of (default mixing * dielectric matrix)
  average eigenvalue GAMMA=   1.1061
  5.3178  2.4718  2.4718  2.1485  2.1485  1.2484  1.2484  0.8821  0.8821  0.7975
  0.7975  0.6152  0.5524  0.4537  0.2059  0.2251  0.2251  0.4022  0.3559  0.2870
  0.2870  0.3113

 Free energy of the ion-electron system (eV)
  ---------------------------------------------------
  alpha Z        PSCENC =        13.12320543
  Ewald energy   TEWEN  =     14493.51876583
  -Hartree energ DENC   =    -23873.66137001
  -exchange      EXHF   =         0.00000000
  -V(xc)+E(xc)   XCENC  =      -357.59732912
  PAW double counting   =     11809.73465255   -11086.07044584
  entropy T*S    EENTRO =         0.00000000
  eigenvalues    EBANDS =      -756.59079018
  atomic energy  EATOM  =      9716.25289675
  ---------------------------------------------------
  free energy    TOTEN  =       -41.29041459 eV

  energy without entropy =      -41.29041459  energy(sigma->0) =      -41.29041459


--------------------------------------------------------------------------------------------------------




----------------------------------------- Iteration    1(  28)  ---------------------------------------


    POTLOK:  cpu time    0.23: real time    0.23
    SETDIJ:  cpu time    0.00: real time    0.01
     EDDAV:  cpu time    0.73: real time    0.73
       DOS:  cpu time    0.00: real time    0.00
    CHARGE:  cpu time    0.05: real time    0.05
    MIXING:  cpu time    0.02: real time    0.02
    --------------------------------------------
      LOOP:  cpu time    1.03: real time    2.82

 eigenvalue-minimisations  :   312
 total energy-change (2. order) :-0.1470060E-01  (-0.4604374E-04)
 number of electron     120.0000308 magnetization       4.0267497
 augmentation part       50.9606395 magnetization       2.2073677

 Broyden mixing:
  rms(total) = 0.27239E-02    rms(broyden)= 0.26872E-02
  rms(prec ) = 0.31435E-02
  weight for this iteration     100.00

 eigenvalues of (default mixing * dielectric matrix)
  average eigenvalue GAMMA=   1.1219
  5.6001  2.7600  2.2970  2.2970  2.2151  1.2932  1.2932  0.8879  0.8879  0.8869
  0.8869  0.6553  0.5468  0.5468  0.4496  0.4043  0.2251  0.2251  0.2059  0.3558
  0.2870  0.2870  0.3110

 Free energy of the ion-electron system (eV)
  ---------------------------------------------------
  alpha Z        PSCENC =        13.12320543
  Ewald energy   TEWEN  =     14493.51876583
  -Hartree energ DENC   =    -23873.36423364
  -exchange      EXHF   =         0.00000000
  -V(xc)+E(xc)   XCENC  =      -357.61543096
  PAW double counting   =     11810.49159467   -11086.81997317
  entropy T*S    EENTRO =         0.00000000
  eigenvalues    EBANDS =      -756.89194012
  atomic energy  EATOM  =      9716.25289675
  ---------------------------------------------------
  free energy    TOTEN  =       -41.30511520 eV

  energy without entropy =      -41.30511520  energy(sigma->0) =      -41.30511520


--------------------------------------------------------------------------------------------------------




----------------------------------------- Iteration    1(  29)  ---------------------------------------


    POTLOK:  cpu time    0.22: real time    0.22
    SETDIJ:  cpu time    0.01: real time    0.01
     EDDAV:  cpu time    0.70: real time    0.70
       DOS:  cpu time    0.00: real time    0.00
    CHARGE:  cpu time    0.05: real time    0.05
    MIXING:  cpu time    0.02: real time    0.02
    --------------------------------------------
      LOOP:  cpu time    1.00: real time    1.00

 eigenvalue-minimisations  :   296
 total energy-change (2. order) :-0.7045720E-02  (-0.2284425E-04)
 number of electron     120.0000308 magnetization       4.0162788
 augmentation part       50.9608001 magnetization       2.1979040

 Broyden mixing:
  rms(total) = 0.20267E-02    rms(broyden)= 0.20173E-02
  rms(prec ) = 0.24216E-02
  weight for this iteration     100.00

 eigenvalues of (default mixing * dielectric matrix)
  average eigenvalue GAMMA=   1.1208
  5.8119  2.9065  2.2935  2.2935  2.1852  1.3536  1.3536  1.0083  1.0083  0.8383
  0.8383  0.6909  0.6248  0.5571  0.2059  0.2251  0.2251  0.4508  0.2870  0.2870
  0.3110  0.3565  0.4053  0.3820

 Free energy of the ion-electron system (eV)
  ---------------------------------------------------
  alpha Z        PSCENC =        13.12320543
  Ewald energy   TEWEN  =     14493.51876583
  -Hartree energ DENC   =    -23873.13075995
  -exchange      EXHF   =         0.00000000
  -V(xc)+E(xc)   XCENC  =      -357.62500470
  PAW double counting   =     11810.96076283   -11087.28441543
  entropy T*S    EENTRO =         0.00000000
  eigenvalues    EBANDS =      -757.12761168
  atomic energy  EATOM  =      9716.25289675
  ---------------------------------------------------
  free energy    TOTEN  =       -41.31216092 eV

  energy without entropy =      -41.31216092  energy(sigma->0) =      -41.31216092


--------------------------------------------------------------------------------------------------------




----------------------------------------- Iteration    1(  30)  ---------------------------------------


    POTLOK:  cpu time    0.23: real time    0.23
    SETDIJ:  cpu time    0.00: real time    0.01
     EDDAV:  cpu time    0.64: real time    0.63
       DOS:  cpu time    0.00: real time    0.00
    CHARGE:  cpu time    0.05: real time    0.05
    MIXING:  cpu time    0.02: real time    0.02
    --------------------------------------------
      LOOP:  cpu time    0.94: real time    2.74

 eigenvalue-minimisations  :   256
 total energy-change (2. order) :-0.3373512E-02  (-0.1124408E-04)
 number of electron     120.0000308 magnetization       4.0082881
 augmentation part       50.9611492 magnetization       2.1906864

 Broyden mixing:
  rms(total) = 0.12571E-02    rms(broyden)= 0.12486E-02
  rms(prec ) = 0.15375E-02
  weight for this iteration     100.00

 eigenvalues of (default mixing * dielectric matrix)
  average eigenvalue GAMMA=   1.1441
  6.0977  2.7097  2.7097  2.2747  2.2747  1.5921  1.2794  1.2794  0.8634  0.8634
  0.8762  0.8762  0.6520  0.5999  0.5636  0.4505  0.2251  0.2251  0.2059  0.4047
  0.2870  0.2870  0.3552  0.3109  0.3386

 Free energy of the ion-electron system (eV)
  ---------------------------------------------------
  alpha Z        PSCENC =        13.12320543
  Ewald energy   TEWEN  =     14493.51876583
  -Hartree energ DENC   =    -23872.91051573
  -exchange      EXHF   =         0.00000000
  -V(xc)+E(xc)   XCENC  =      -357.63095736
  PAW double counting   =     11811.23495218   -11087.55637646
  entropy T*S    EENTRO =         0.00000000
  eigenvalues    EBANDS =      -757.34750508
  atomic energy  EATOM  =      9716.25289675
  ---------------------------------------------------
  free energy    TOTEN  =       -41.31553443 eV

  energy without entropy =      -41.31553443  energy(sigma->0) =      -41.31553443


--------------------------------------------------------------------------------------------------------




----------------------------------------- Iteration    1(  31)  ---------------------------------------


    POTLOK:  cpu time    0.23: real time    0.22
    SETDIJ:  cpu time    0.00: real time    0.01
     EDDAV:  cpu time    0.64: real time    0.64
       DOS:  cpu time    0.00: real time    0.00
    CHARGE:  cpu time    0.05: real time    0.05
    MIXING:  cpu time    0.02: real time    0.02
    --------------------------------------------
      LOOP:  cpu time    0.94: real time    0.94

 eigenvalue-minimisations  :   256
 total energy-change (2. order) :-0.1695112E-02  (-0.1102544E-04)
 number of electron     120.0000308 magnetization       4.0046404
 augmentation part       50.9610424 magnetization       2.1876538

 Broyden mixing:
  rms(total) = 0.78890E-03    rms(broyden)= 0.78306E-03
  rms(prec ) = 0.10050E-02
  weight for this iteration     100.00

 eigenvalues of (default mixing * dielectric matrix)
  average eigenvalue GAMMA=   1.1600
  6.2303  3.4889  2.3113  2.3113  2.3517  1.6112  1.3480  1.3480  0.9461  0.9461
  0.8634  0.8634  0.6693  0.6693  0.5576  0.5528  0.4526  0.2059  0.2251  0.2251
  0.4046  0.2870  0.2870  0.3555  0.3110  0.3388

 Free energy of the ion-electron system (eV)
  ---------------------------------------------------
  alpha Z        PSCENC =        13.12320543
  Ewald energy   TEWEN  =     14493.51876583
  -Hartree energ DENC   =    -23872.74848068
  -exchange      EXHF   =         0.00000000
  -V(xc)+E(xc)   XCENC  =      -357.63388086
  PAW double counting   =     11811.59207238   -11087.91141292
  entropy T*S    EENTRO =         0.00000000
  eigenvalues    EBANDS =      -757.51039548
  atomic energy  EATOM  =      9716.25289675
  ---------------------------------------------------
  free energy    TOTEN  =       -41.31722954 eV

  energy without entropy =      -41.31722954  energy(sigma->0) =      -41.31722954


--------------------------------------------------------------------------------------------------------




----------------------------------------- Iteration    1(  32)  ---------------------------------------


    POTLOK:  cpu time    0.22: real time    0.23
    SETDIJ:  cpu time    0.01: real time    0.01
     EDDAV:  cpu time    0.61: real time    0.61
       DOS:  cpu time    0.00: real time    0.00
    CHARGE:  cpu time    0.05: real time    0.05
    MIXING:  cpu time    0.02: real time    0.02
    --------------------------------------------
      LOOP:  cpu time    0.91: real time    0.94

 eigenvalue-minimisations  :   240
 total energy-change (2. order) :-0.8022741E-03  (-0.5100045E-05)
 number of electron     120.0000308 magnetization       4.0023736
 augmentation part       50.9611108 magnetization       2.1857827

 Broyden mixing:
  rms(total) = 0.60645E-03    rms(broyden)= 0.60266E-03
  rms(prec ) = 0.75540E-03
  weight for this iteration     100.00

 eigenvalues of (default mixing * dielectric matrix)
  average eigenvalue GAMMA=   1.1675
  6.3185  3.9343  2.4165  2.3323  2.3323  1.4403  1.4403  1.3825  1.0312  1.0312
  0.8611  0.8611  0.7273  0.7273  0.5848  0.5548  0.2059  0.2251  0.2251  0.4537
  0.4537  0.4054  0.2870  0.2870  0.3554  0.3109  0.3370

 Free energy of the ion-electron system (eV)
  ---------------------------------------------------
  alpha Z        PSCENC =        13.12320543
  Ewald energy   TEWEN  =     14493.51876583
  -Hartree energ DENC   =    -23872.61388760
  -exchange      EXHF   =         0.00000000
  -V(xc)+E(xc)   XCENC  =      -357.63576514
  PAW double counting   =     11811.74571486   -11088.06375078
  entropy T*S    EENTRO =         0.00000000
  eigenvalues    EBANDS =      -757.64521117
  atomic energy  EATOM  =      9716.25289675
  ---------------------------------------------------
  free energy    TOTEN  =       -41.31803181 eV

  energy without entropy =      -41.31803181  energy(sigma->0) =      -41.31803181


--------------------------------------------------------------------------------------------------------




----------------------------------------- Iteration    1(  33)  ---------------------------------------


    POTLOK:  cpu time    0.22: real time    0.22
    SETDIJ:  cpu time    0.01: real time    0.01
     EDDAV:  cpu time    0.61: real time    0.61
       DOS:  cpu time    0.00: real time    0.00
    CHARGE:  cpu time    0.05: real time    0.05
    MIXING:  cpu time    0.02: real time    0.02
    --------------------------------------------
      LOOP:  cpu time    0.92: real time    0.94

 eigenvalue-minimisations  :   240
 total energy-change (2. order) :-0.5504337E-03  (-0.3947706E-05)
 number of electron     120.0000308 magnetization       4.0011117
 augmentation part       50.9612092 magnetization       2.1847026

 Broyden mixing:
  rms(total) = 0.41825E-03    rms(broyden)= 0.41535E-03
  rms(prec ) = 0.53044E-03
  weight for this iteration     100.00

 eigenvalues of (default mixing * dielectric matrix)
  average eigenvalue GAMMA=   1.1825
  6.3502  4.2902  2.3641  2.3641  2.3818  1.6766  1.6766  1.1884  1.1884  0.9382
  0.9382  0.8653  0.8653  0.7000  0.6380  0.6380  0.5451  0.2059  0.2251  0.2251
  0.4547  0.4072  0.4072  0.2870  0.2870  0.3555  0.3109  0.3348

 Free energy of the ion-electron system (eV)
  ---------------------------------------------------
  alpha Z        PSCENC =        13.12320543
[...]
     32      -5.6479      1.00000
     33      -5.6087      1.00000
     34      -5.5426      1.00000
     35      -5.4402      1.00000
     36      -5.4186      1.00000
     37      -5.3590      1.00000
     38      -5.3337      1.00000
     39      -5.2919      1.00000
     40      -5.2680      1.00000
     41      -5.2565      1.00000
     42      -5.2113      1.00000
     43      -5.1434      1.00000
     44      -5.1278      1.00000
     45      -5.0762      1.00000
     46      -5.0172      1.00000
     47      -4.9569      1.00000
     48      -4.9338      1.00000
     49      -4.8856      1.00000
     50      -4.8561      1.00000
     51      -4.8000      1.00000
     52      -4.7730      1.00000
     53      -4.7322      1.00000
     54      -4.6435      1.00000
     55      -4.6393      1.00000
     56      -4.5628      1.00000
     57      -4.5168      1.00000
     58      -4.4734      1.00000
     59      -4.4387      1.00000
     60      -4.4294      1.00000
     61      -4.4159      1.00000
     62      -4.3338      1.00000
     63      -4.2950      1.00000
     64      -3.7339      0.00000
     65      -3.3681      0.00000
     66      -3.1745      0.00000
     67      -2.5810      0.00000
     68      -1.9421      0.00000
     69      -1.8381      0.00000
     70      -1.5020      0.00000
     71      -1.3201      0.00000
     72      -1.1412      0.00000
     73      -0.9358      0.00000
     74      -0.5585      0.00000
     75      -0.1620      0.00000
     76      -0.0087      0.00000
     77      -0.0045      0.00000
     78       0.1831      0.00000
     79       0.3571      0.00000
     80       0.4060      0.00000

 spin component 2

 k-point     1 :       0.0000    0.0000    0.0000
  band No.  band energies     occupation 
      1      -8.3935      1.00000
      2      -8.1074      1.00000
      3      -7.9963      1.00000
      4      -7.7971      1.00000
      5      -7.6178      1.00000
      6      -7.5147      1.00000
      7      -7.4233      1.00000
      8      -7.4100      1.00000
      9      -7.2415      1.00000
     10      -7.2186      1.00000
     11      -7.1935      1.00000
     12      -7.1325      1.00000
     13      -7.1067      1.00000
     14      -6.9700      1.00000
     15      -6.9261      1.00000
     16      -6.8716      1.00000
     17      -6.8257      1.00000
     18      -6.4810      1.00000
     19      -6.4726      1.00000
     20      -6.3756      1.00000
     21      -6.3466      1.00000
     22      -6.1972      1.00000
     23      -6.0963      1.00000
     24      -6.0607      1.00000
     25      -5.9557      1.00000
     26      -5.9343      1.00000
     27      -5.7760      1.00000
     28      -5.7588      1.00000
     29      -5.6990      1.00000
     30      -5.5460      1.00000
     31      -5.4637      1.00000
     32      -5.4045      1.00000
     33      -5.3086      1.00000
     34      -5.2858      1.00000
     35      -5.2143      1.00000
     36      -5.1503      1.00000
     37      -5.0895      1.00000
     38      -5.0765      1.00000
     39      -5.0726      1.00000
     40      -4.9931      1.00000
     41      -4.9670      1.00000
     42      -4.9303      1.00000
     43      -4.9072      1.00000
     44      -4.8226      1.00000
     45      -4.7916      1.00000
     46      -4.7400      1.00000
     47      -4.7261      1.00000
     48      -4.6630      1.00000
     49      -4.6050      1.00000
     50      -4.5843      1.00000
     51      -4.5330      1.00000
     52      -4.4249      1.00000
     53      -4.3781      1.00000
     54      -4.3244      1.00000
     55      -4.2230      1.00000
     56      -4.1822      1.00000
     57      -4.1717      1.00000
     58      -4.0512      0.00000
     59      -4.0207      0.00000
     60      -3.9754      0.00000
     61      -3.9408      0.00000
     62      -3.8886      0.00000
     63      -3.8031      0.00000
     64      -3.4995      0.00000
     65      -3.1956      0.00000
     66      -3.0271      0.00000
     67      -2.4262      0.00000
     68      -1.8177      0.00000
     69      -1.7003      0.00000
     70      -1.3805      0.00000
     71      -1.1965      0.00000
     72      -1.0440      0.00000
     73      -0.8074      0.00000
     74      -0.4755      0.00000
     75      -0.1118      0.00000
     76       0.0375      0.00000
     77       0.0417      0.00000
     78       0.2096      0.00000
     79       0.4078      0.00000
     80       0.4341      0.00000


--------------------------------------------------------------------------------------------------------


 soft charge-density along one line, spin component           1
         0         1         2         3         4         5         6         7         8         9
 total charge-density along one line
 
 soft charge-density along one line, spin component           2
         0         1         2         3         4         5         6         7         8         9
 total charge-density along one line
 
 pseudopotential strength for first ion, spin component:           1
 -8.573   0.039  -0.001  -0.038   0.009  -8.541   0.037  -0.001
  0.039  -8.538   0.021  -0.009  -0.016   0.037  -8.507   0.020
 -0.001   0.021  -8.506   0.040   0.026  -0.001   0.020  -8.476
 -0.038  -0.009   0.040  -8.590   0.107  -0.036  -0.009   0.038
  0.009  -0.016   0.026   0.107  -8.641   0.009  -0.016   0.025
 -8.541   0.037  -0.001  -0.036   0.009  -8.486   0.035  -0.001
  0.037  -8.507   0.020  -0.009  -0.016   0.035  -8.454   0.020
 -0.001   0.020  -8.476   0.038   0.025  -0.001   0.020  -8.424
 -0.036  -0.009   0.038  -8.557   0.103  -0.035  -0.009   0.037
  0.009  -0.016   0.025   0.103  -8.606   0.008  -0.015   0.024
  0.003   0.002  -0.019  -0.037   0.012   0.003   0.002  -0.018
  0.004   0.003  -0.032  -0.062   0.020   0.004   0.003  -0.031
  0.017  -0.008  -0.014  -0.001  -0.023   0.016  -0.008  -0.013
 -0.001   0.025  -0.009   0.016   0.001  -0.001   0.024  -0.009
  0.027  -0.001  -0.009  -0.005   0.015   0.026  -0.001  -0.009
  0.018  -0.008  -0.015  -0.001  -0.025   0.017  -0.008  -0.015
 -0.001   0.028  -0.010   0.016   0.002  -0.001   0.027  -0.009
  0.030  -0.001  -0.010  -0.004   0.015   0.028  -0.001  -0.009
 pseudopotential strength for first ion, spin component:           2
 -8.413   0.054   0.004   0.001  -0.006  -8.387   0.052   0.004
  0.054  -8.348  -0.001  -0.004   0.005   0.052  -8.326  -0.001
  0.004  -0.001  -8.344   0.026   0.014   0.004  -0.001  -8.321
  0.001  -0.004   0.026  -8.360   0.035   0.001  -0.004   0.025
 -0.006   0.005   0.014   0.035  -8.389  -0.005   0.005   0.013
 -8.387   0.052   0.004   0.001  -0.005  -8.339   0.049   0.004
  0.052  -8.326  -0.001  -0.004   0.005   0.049  -8.280  -0.001
  0.004  -0.001  -8.321   0.025   0.013   0.004  -0.001  -8.276
  0.001  -0.004   0.025  -8.337   0.034   0.001  -0.004   0.024
 -0.005   0.005   0.013   0.034  -8.365  -0.005   0.004   0.013
  0.003   0.000  -0.012  -0.019   0.003   0.003   0.000  -0.012
  0.005   0.001  -0.021  -0.033   0.004   0.005   0.001  -0.020
  0.020  -0.009  -0.015   0.001  -0.027   0.019  -0.009  -0.014
  0.001   0.028  -0.011   0.021   0.000   0.001   0.027  -0.011
  0.027   0.001  -0.011  -0.008   0.020   0.026   0.001  -0.011
  0.022  -0.010  -0.017   0.002  -0.031   0.021  -0.010  -0.016
  0.002   0.032  -0.013   0.023   0.000   0.002   0.031  -0.012
  0.030   0.002  -0.013  -0.010   0.023   0.029   0.002  -0.012
 total augmentation occupancy for first ion, spin component:           1
  2.134  -0.173  -0.128  -0.233   0.062  -0.783   0.225   0.095   0.058  -0.062  -0.234   0.073   0.065  -0.032   0.117   0.018
 -0.173   1.853   0.096   0.065  -0.107   0.223  -0.503   0.027  -0.087   0.039   0.033  -0.015  -0.015   0.075  -0.031  -0.009
 -0.128   0.096   2.023   0.010   0.123   0.103   0.027  -0.472   0.048  -0.094   0.558  -0.141  -0.114  -0.030  -0.063  -0.014
 -0.233   0.065   0.010   1.899  -0.002   0.061  -0.092   0.045  -0.556   0.219   0.773  -0.205  -0.045   0.099  -0.100  -0.001
  0.062  -0.107   0.123  -0.002   2.154  -0.059   0.036  -0.093   0.221  -0.934  -0.001   0.014  -0.144  -0.036   0.122  -0.023
 -0.783   0.223   0.103   0.061  -0.059   1.292  -0.281  -0.082   0.045   0.072   0.119  -0.037  -0.114   0.017  -0.179   0.016
  0.225  -0.503   0.027  -0.092   0.036  -0.281   0.986  -0.108   0.104  -0.001  -0.004   0.011   0.039  -0.165   0.018  -0.007
  0.095   0.027  -0.472   0.045  -0.093  -0.082  -0.108   0.825  -0.072   0.086  -0.379   0.053   0.143   0.068   0.091  -0.013
  0.058  -0.087   0.048  -0.556   0.221   0.045   0.104  -0.072   1.017  -0.328  -0.474   0.049   0.017  -0.172   0.138  -0.001
 -0.062   0.039  -0.094   0.219  -0.934   0.072  -0.001   0.086  -0.328   1.472  -0.057   0.022   0.236   0.049  -0.212  -0.021
 -0.234   0.033   0.558   0.773  -0.001   0.119  -0.004  -0.379  -0.474  -0.057   1.684  -0.242  -0.251   0.089  -0.193   0.021
  0.073  -0.015  -0.141  -0.205   0.014  -0.037   0.011   0.053   0.049   0.022  -0.242   0.048   0.038  -0.011   0.025  -0.002
  0.065  -0.015  -0.114  -0.045  -0.144  -0.114   0.039   0.143   0.017   0.236  -0.251   0.038   0.107   0.002   0.003  -0.010
 -0.032   0.075  -0.030   0.099  -0.036   0.017  -0.165   0.068  -0.172   0.049   0.089  -0.011   0.002   0.067  -0.028   0.001
  0.117  -0.031  -0.063  -0.100   0.122  -0.179   0.018   0.091   0.138  -0.212  -0.193   0.025   0.003  -0.028   0.103  -0.002
  0.018  -0.009  -0.014  -0.001  -0.023   0.016  -0.007  -0.013  -0.001  -0.021   0.021  -0.002  -0.010   0.001  -0.002   0.003
  0.001   0.028  -0.013   0.019   0.003  -0.001   0.019  -0.007   0.017  -0.002  -0.004  -0.001   0.001  -0.007   0.002  -0.000
  0.027   0.001  -0.010  -0.004   0.018   0.020  -0.001  -0.010  -0.011   0.017   0.010   0.001  -0.002   0.001  -0.009   0.001
 total augmentation occupancy for first ion, spin component:           2
  0.256   0.037   0.036   0.199  -0.071  -0.099  -0.012  -0.017  -0.085   0.032   0.013  -0.006   0.015   0.014  -0.009   0.004
  0.037   0.362  -0.110   0.017   0.095  -0.011  -0.142   0.046  -0.005  -0.039  -0.011   0.005  -0.008   0.013   0.012  -0.002
  0.036  -0.110   0.240  -0.085  -0.065  -0.023   0.047  -0.094   0.034   0.028   0.032  -0.018   0.004  -0.007  -0.001  -0.001
  0.199   0.017  -0.085   0.603  -0.405  -0.089  -0.001   0.037  -0.257   0.186   0.105  -0.067   0.039   0.031  -0.034   0.007
 -0.071   0.095  -0.065  -0.405   0.746   0.031  -0.037   0.025   0.182  -0.323  -0.062   0.047  -0.039  -0.023   0.047  -0.011
 -0.099  -0.011  -0.023  -0.089   0.031  -0.001   0.003   0.010   0.032  -0.012  -0.003   0.002  -0.004  -0.003   0.006  -0.002
 -0.012  -0.142   0.047  -0.001  -0.037   0.003   0.013  -0.015  -0.002   0.011   0.002  -0.000   0.002  -0.000  -0.002   0.001
 -0.017   0.046  -0.094   0.037   0.025   0.010  -0.015   0.001  -0.012  -0.009  -0.002  -0.001  -0.003   0.001  -0.002   0.000
 -0.085  -0.005   0.034  -0.257   0.182   0.032  -0.002  -0.012   0.065  -0.074  -0.014   0.007  -0.014  -0.007   0.011  -0.004
  0.032  -0.039   0.028   0.186  -0.323  -0.012   0.011  -0.009  -0.074   0.091   0.011  -0.010   0.012   0.010  -0.015   0.005
  0.013  -0.011   0.032   0.105  -0.062  -0.003   0.002  -0.002  -0.014   0.011  -0.008  -0.011   0.007  -0.002   0.005   0.001
 -0.006   0.005  -0.018  -0.067   0.047   0.002  -0.000  -0.001   0.007  -0.010  -0.011   0.011  -0.003  -0.000  -0.000  -0.001
  0.015  -0.008   0.004   0.039  -0.039  -0.004   0.002  -0.003  -0.014   0.012   0.007  -0.003   0.001   0.002  -0.003   0.001
  0.014   0.013  -0.007   0.031  -0.023  -0.003  -0.000   0.001  -0.007   0.010  -0.002  -0.000   0.002   0.000  -0.001   0.000
 -0.009   0.012  -0.001  -0.034   0.047   0.006  -0.002  -0.002   0.011  -0.015   0.005  -0.000  -0.003  -0.001   0.001  -0.001
  0.004  -0.002  -0.001   0.007  -0.011  -0.002   0.001   0.000  -0.004   0.005   0.001  -0.001   0.001   0.000  -0.001   0.000
  0.003   0.007  -0.004   0.008  -0.002  -0.001  -0.003   0.002  -0.003   0.001   0.001  -0.001   0.000   0.001  -0.000   0.000
  0.003   0.002  -0.002  -0.004   0.010  -0.001  -0.001   0.001   0.001  -0.004  -0.002   0.001  -0.000  -0.000   0.001  -0.000


------------------------ aborting loop because EDIFF is reached ----------------------------------------


    CHARGE:  cpu time    0.05: real time    0.05
    FORLOC:  cpu time    0.01: real time    0.01
    FORNL :  cpu time    0.31: real time    0.31
    STRESS:  cpu time    0.36: real time    0.36
    FORCOR:  cpu time    0.22: real time    0.22
    FORHAR:  cpu time    0.03: real time    0.03
    MIXING:  cpu time    0.01: real time    0.01
    OFIELD:  cpu time    0.00: real time    0.00

  FORCE on cell =-STRESS in cart. coord.  units (eV):
  Direction    XX          YY          ZZ          XY          YZ          ZX
  --------------------------------------------------------------------------------------
  Alpha Z    13.12321    13.12321    13.12321
  Ewald    4592.42446  6575.27472  1648.30297   794.60879  -164.69546 -2192.80453
  Hartree  7681.85488  9405.20262  5163.70420   663.64935  -135.28382 -1842.04274
  E(xc)    -626.90681  -626.20047  -628.67650     0.67867    -0.21619    -1.44593
  Local  -14102.87321-17806.77911 -8652.77454 -1451.24296   296.96403  4025.36378
  n-local  -102.62049   -96.81707  -109.75453     3.34376    -1.19557    -5.86507
  augment   889.18127   886.15762   896.75716    -3.94157     1.60272     6.04376
  Kinetic  1651.85364  1645.93607  1665.30348    -7.02941     2.85158    10.71451
  Fock        0.00000     0.00000     0.00000     0.00000     0.00000     0.00000
  -------------------------------------------------------------------------------------
  Total      -3.96306    -4.10242    -4.01456     0.06663     0.02728    -0.03623
  in kB      -0.88784    -0.91906    -0.89938     0.01493     0.00611    -0.00812
  external pressure =       -0.90 kB  Pullay stress =        0.00 kB


 VOLUME and BASIS-vectors are now :
 -----------------------------------------------------------------------------
  energy-cutoff  :      250.93
  volume of cell :     7151.63
      direct lattice vectors                 reciprocal lattice vectors
    19.266450067  0.000000000  0.000000000     0.051903698  0.000000000  0.000000000
     0.000000000 19.266450067  0.000000000     0.000000000  0.051903698  0.000000000
     0.000000000  0.000000000 19.266450067     0.000000000  0.000000000  0.051903698

  length of vectors
    19.266450067 19.266450067 19.266450067     0.051903698  0.051903698  0.051903698


 FORCES acting on ions
    electron-ion (+dipol)            ewald-force                    non-local-force                 convergence-correction
 -----------------------------------------------------------------------------------------------
   -.497E+03 -.703E+03 0.227E+03   0.493E+03 0.697E+03 -.225E+03   0.440E+01 0.527E+01 -.208E+01   -.186E-01 -.674E-02 -.386E-02
   0.236E+03 -.847E+03 -.171E+03   -.233E+03 0.841E+03 0.169E+03   -.277E+01 0.621E+01 0.185E+01   -.117E-01 -.178E-01 -.123E-01
   -.448E+03 -.276E+03 -.615E+03   0.446E+03 0.276E+03 0.611E+03   0.218E+01 0.105E+00 0.405E+01   -.303E-01 0.271E-01 -.141E-01
   -.781E+03 -.557E+02 0.447E+03   0.776E+03 0.557E+02 -.444E+03   0.509E+01 -.158E-01 -.291E+01   -.144E-02 0.301E-01 -.112E-01
   0.287E+03 -.351E+03 0.683E+03   -.285E+03 0.351E+03 -.679E+03   -.243E+01 0.575E+00 -.396E+01   0.200E-02 0.321E-01 0.620E-02
   0.606E+03 -.442E+03 -.380E+03   -.603E+03 0.439E+03 0.378E+03   -.263E+01 0.286E+01 0.167E+01   0.130E-01 0.260E-01 0.115E-02
   -.265E+02 0.347E+03 -.781E+03   0.247E+02 -.346E+03 0.777E+03   0.177E+01 -.999E+00 0.444E+01   -.189E-01 0.470E-01 0.192E-01
   -.731E+03 0.475E+03 -.267E+03   0.726E+03 -.472E+03 0.264E+03   0.459E+01 -.237E+01 0.262E+01   0.180E-01 0.361E-01 -.348E-02
   0.738E+03 0.260E+03 -.412E+03   -.732E+03 -.257E+03 0.409E+03   -.634E+01 -.310E+01 0.342E+01   -.287E-02 0.282E-01 0.119E-02
   0.674E+03 0.271E+03 0.436E+03   -.671E+03 -.270E+03 -.432E+03   -.288E+01 -.490E+00 -.377E+01   -.518E-02 0.509E-01 -.154E-02
   -.113E+03 0.414E+03 0.807E+03   0.113E+03 -.412E+03 -.801E+03   -.106E+00 -.193E+01 -.548E+01   -.188E-02 0.408E-01 -.245E-01
   0.558E+02 0.909E+03 0.262E+02   -.547E+02 -.902E+03 -.264E+02   -.114E+01 -.702E+01 0.186E+00   -.124E-01 0.101E-02 -.303E-02
 -----------------------------------------------------------------------------------------------
   0.308E+00 0.601E+00 0.118E-01   0.711E-14 -.114E-12 0.369E-12   -.264E+00 -.908E+00 0.409E-01   -.702E-01 0.295E+00 -.463E-01
 
 
 POSITION                                       TOTAL-FORCE (eV/Angst)
 -----------------------------------------------------------------------------------
     11.18348     12.23148      8.55055        -0.025265      0.009435     -0.010508
      8.95490     12.54520      9.76915         0.015207     -0.034594      0.013717
     10.38008     10.33696     10.30325        -0.002032      0.007943      0.003656
     11.84889      9.75818      7.98387         0.013955     -0.002920     -0.007310
      9.14730     10.48109      8.09698         0.018543     -0.019635      0.028523
      7.58945     10.46304     10.48667        -0.006762      0.001229     -0.013476
      8.98833      8.18614     11.05196         0.007791      0.024234      0.003129
     11.25087      7.86236      9.71282        -0.002290      0.019485     -0.013702
      6.38811      8.25577     11.05002        -0.010590      0.000689      0.006075
      7.71321      8.34322      8.80766         0.003925     -0.000169     -0.023843
      9.96498      7.99444      7.45926        -0.009454      0.008697      0.005698
      9.21468      6.17457      9.28455        -0.003028     -0.014394      0.008040
 -----------------------------------------------------------------------------------
    total drift:                               -0.025496     -0.012604      0.006460


--------------------------------------------------------------------------------------------------------



  FREE ENERGIE OF THE ION-ELECTRON SYSTEM (eV)
  ---------------------------------------------------
  free  energy   TOTEN  =       -44.99983208 eV

  energy  without entropy=      -44.99983208  energy(sigma->0) =      -44.99983208
 
 d Force = 0.2802078E-04[ 0.260E-04, 0.301E-04]  d Energy = 0.5053563E-03-0.477E-03
 d Force = 0.2797661E+00[ 0.280E+00, 0.279E+00]  d Ewald  = 0.2797662E+00-0.100E-06


--------------------------------------------------------------------------------------------------------


    POTLOK:  cpu time    0.23: real time    0.23


--------------------------------------------------------------------------------------------------------




--------------------------------------------------------------------------------------------------------


  
 reached required accuracy - stopping structural energy minimisation
     LOOP+:  cpu time    5.86: real time    6.14
    4ORBIT:  cpu time    0.00: real time    0.00

 total amount of memory used by VASP on root node    54197. kBytes
========================================================================

   base      :      30000. kBytes
   nonl-proj :       1356. kBytes
   fftplans  :       5765. kBytes
   grid      :      14451. kBytes
   one-center:         31. kBytes
   wavefun   :       2594. kBytes
 
  
  
 General timing and accounting informations for this job:
 ========================================================
  
                  Total CPU time used (sec):      611.286
                            User time (sec):      600.910
                          System time (sec):       10.377
                         Elapsed time (sec):      832.497
  
                   Maximum memory used (kb):       62708.
                   Average memory used (kb):           0.
  
                          Minor page faults:      1806712
                          Major page faults:            0
                 Voluntary context switches:        14067
