<?xml version="1.0" encoding="ISO-8859-1"?>
<modeling>
 <generator>
  <i name="program" type="string">vasp </i>
  <i name="version" type="string">5.3.5  </i>
  <i name="subversion" type="string">31Mar14 (build Feb 01 2018 12:10:03) gamma-only                       parallel </i>
  <i name="platform" type="string">LinuxIFC </i>
  <i name="date" type="string">2019 03 21 </i>
  <i name="time" type="string">22:17:26 </i>
 </generator>
 <incar>
  <i type="string" name="PREC">normal</i>
  <i type="int" name="ISPIN">     2</i>
  <i type="int" name="IBRION">     2</i>
  <i type="int" name="NSW">  1000</i>
  <i type="int" name="ISIF">     2</i>
  <i name="POTIM">      0.10000000</i>
  <i type="logical" name="LPLANE"> T  </i>
  <i type="int" name="ISMEAR">     0</i>
  <i name="SIGMA">      0.00010000</i>
  <i type="logical" name="LWAVE"> F  </i>
  <i type="logical" name="LCHARG"> F  </i>
  <i type="logical" name="LVTOT"> F  </i>
  <i type="string" name="GGA"> PE</i>
 </incar>
 <kpoints>
  <varray name="kpointlist" >
   <v>       0.00000000       0.00000000       0.00000000 </v>
  </varray>
  <varray name="weights" >
   <v>       1.00000000 </v>
  </varray>
 </kpoints>
 <parameters>
  <separator name="general" >
   <i type="string" name="SYSTEM">unknown system</i>
   <i type="logical" name="LCOMPAT"> F  </i>
  </separator>
  <separator name="electronic" >
   <i type="string" name="PREC">normal</i>
   <i name="ENMAX">    249.84400000</i>
   <i name="ENAUG">    412.49600000</i>
   <i name="EDIFF">      0.00010000</i>
   <i type="int" name="IALGO">    38</i>
   <i type="int" name="IWAVPR">    11</i>
   <i type="int" name="NBANDS">   164</i>
   <i name="NELECT">    253.00000000</i>
   <i type="int" name="TURBO">     0</i>
   <i type="int" name="IRESTART">     0</i>
   <i type="int" name="NREBOOT">     0</i>
   <i type="int" name="NMIN">     0</i>
   <i name="EREF">      0.00000000</i>
   <separator name="electronic smearing" >
    <i type="int" name="ISMEAR">     0</i>
    <i name="SIGMA">      0.00010000</i>
    <i name="KSPACING">      0.50000000</i>
    <i type="logical" name="KGAMMA"> T  </i>
   </separator>
   <separator name="electronic projectors" >
    <i type="logical" name="LREAL"> F  </i>
    <v name="ROPT">      0.00000000</v>
    <i type="int" name="LMAXPAW">  -100</i>
    <i type="int" name="LMAXMIX">     2</i>
    <i type="logical" name="NLSPLINE"> F  </i>
   </separator>
   <separator name="electronic startup" >
    <i type="int" name="ISTART">     0</i>
    <i type="int" name="ICHARG">     2</i>
    <i type="int" name="INIWAV">     1</i>
   </separator>
   <separator name="electronic spin" >
    <i type="int" name="ISPIN">     2</i>
    <i type="logical" name="LNONCOLLINEAR"> F  </i>
    <v name="MAGMOM">      1.00000000      1.00000000      1.00000000      1.00000000      1.00000000      1.00000000      1.00000000      1.00000000      1.00000000      1.00000000      1.00000000      1.00000000      1.00000000      1.00000000      1.00000000      1.00000000      1.00000000      1.00000000      1.00000000      1.00000000
      1.00000000      1.00000000      1.00000000</v>
    <i name="NUPDOWN">     -1.00000000</i>
    <i type="logical" name="LSORBIT"> F  </i>
    <v name="SAXIS">      0.00000000      0.00000000      1.00000000</v>
    <i type="logical" name="LSPIRAL"> F  </i>
    <v name="QSPIRAL">      0.00000000      0.00000000      0.00000000</v>
    <i type="logical" name="LZEROZ"> F  </i>
   </separator>
   <separator name="electronic exchange-correlation" >
    <i type="logical" name="LASPH"> F  </i>
    <i type="logical" name="LMETAGGA"> F  </i>
   </separator>
   <separator name="electronic convergence" >
    <i type="int" name="NELM">    60</i>
    <i type="int" name="NELMDL">    -5</i>
    <i type="int" name="NELMIN">     2</i>
    <i name="ENINI">    249.84400000</i>
    <separator name="electronic convergence detail" >
     <i type="logical" name="LDIAG"> T  </i>
     <i type="logical" name="LSUBROT"> F  </i>
     <i name="WEIMIN">      0.00100000</i>
     <i name="EBREAK">      0.00000015</i>
     <i name="DEPER">      0.30000000</i>
     <i type="int" name="NRMM">     4</i>
     <i name="TIME">      0.40000000</i>
    </separator>
   </separator>
   <separator name="electronic mixer" >
    <i name="AMIX">      0.40000000</i>
    <i name="BMIX">      1.00000000</i>
    <i name="AMIN">      0.10000000</i>
    <i name="AMIX_MAG">      1.60000000</i>
    <i name="BMIX_MAG">      1.00000000</i>
    <separator name="electronic mixer details" >
     <i type="int" name="IMIX">     4</i>
     <i type="int" name="MAXMIX">   -45</i>
     <i name="WC">    100.00000000</i>
     <i type="int" name="INIMIX">     1</i>
     <i type="int" name="MIXPRE">     1</i>
     <i type="int" name="MREMOVE">     5</i>
    </separator>
   </separator>
   <separator name="electronic dipolcorrection" >
    <i type="logical" name="LDIPOL"> F  </i>
    <i type="logical" name="LMONO"> F  </i>
    <i type="int" name="IDIPOL">     0</i>
    <i name="EPSILON">      1.00000000</i>
    <v name="DIPOL">   -100.00000000   -100.00000000   -100.00000000</v>
    <i name="EFIELD">      0.00000000</i>
   </separator>
  </separator>
  <separator name="grids" >
   <i type="int" name="NGX">    80</i>
   <i type="int" name="NGY">    80</i>
   <i type="int" name="NGZ">    80</i>
   <i type="int" name="NGXF">   160</i>
   <i type="int" name="NGYF">   160</i>
   <i type="int" name="NGZF">   160</i>
   <i type="logical" name="ADDGRID"> F  </i>
  </separator>
  <separator name="ionic" >
   <i type="int" name="NSW">  1000</i>
   <i type="int" name="IBRION">     2</i>
   <i type="int" name="ISIF">     2</i>
   <i name="PSTRESS">      0.00000000</i>
   <i name="EDIFFG">      0.00100000</i>
   <i type="int" name="NFREE">     1</i>
   <i name="POTIM">      0.10000000</i>
   <i name="SMASS">     -3.00000000</i>
   <i name="SCALEE">      1.00000000</i>
  </separator>
  <separator name="ionic md" >
   <i name="TEBEG">      0.00010000</i>
   <i name="TEEND">      0.00010000</i>
   <i type="int" name="NBLOCK">     1</i>
   <i type="int" name="KBLOCK">  1000</i>
   <i type="int" name="NPACO">   256</i>
   <i name="APACO">     16.00000000</i>
  </separator>
  <separator name="symmetry" >
   <i type="int" name="ISYM">     2</i>
   <i name="SYMPREC">      0.00001000</i>
  </separator>
  <separator name="dos" >
   <i type="logical" name="LORBIT"> F  </i>
   <v name="RWIGS">     -1.00000000</v>
   <i type="int" name="NEDOS">   301</i>
   <i name="EMIN">     10.00000000</i>
   <i name="EMAX">    -10.00000000</i>
   <i name="EFERMI">      0.00000000</i>
  </separator>
  <separator name="writing" >
   <i type="int" name="NWRITE">     2</i>
   <i type="logical" name="LWAVE"> F  </i>
   <i type="logical" name="LCHARG"> F  </i>
   <i type="logical" name="LPARD"> F  </i>
   <i type="logical" name="LVTOT"> F  </i>
   <i type="logical" name="LVHAR"> F  </i>
   <i type="logical" name="LELF"> F  </i>
   <i type="logical" name="LOPTICS"> F  </i>
   <v name="STM">      0.00000000      0.00000000      0.00000000      0.00000000      0.00000000      0.00000000      0.00000000</v>
  </separator>
  <separator name="performance" >
   <i type="int" name="NPAR">     4</i>
   <i type="int" name="NSIM">     4</i>
   <i type="int" name="NBLK">    -1</i>
   <i type="logical" name="LPLANE"> T  </i>
   <i type="logical" name="LSCALAPACK"> T  </i>
   <i type="logical" name="LSCAAWARE"> F  </i>
   <i type="logical" name="LSCALU"> F  </i>
   <i type="logical" name="LASYNC"> F  </i>
   <i type="logical" name="LORBITALREAL"> F  </i>
  </separator>
  <separator name="miscellaneous" >
   <i type="int" name="IDIOT">     3</i>
   <i type="logical" name="LMUSIC"> F  </i>
   <v name="POMASS">    107.86800000</v>
   <v name="DARWINR">      0.00000000</v>
   <v name="DARWINV">      1.00000000</v>
   <i type="logical" name="LCORR"> T  </i>
  </separator>
  <i type="logical" name="GGA_COMPAT"> T  </i>
  <i type="logical" name="LBERRY"> F  </i>
  <i type="int" name="ICORELEVEL">     0</i>
  <i type="logical" name="LDAU"> F  </i>
  <i type="int" name="I_CONSTRAINED_M">     0</i>
  <separator name="electronic exchange-correlation" >
   <i type="string" name="GGA">PE</i>
   <i type="int" name="VOSKOWN">     0</i>
   <i type="logical" name="LHFCALC"> F  </i>
   <i type="string" name="PRECFOCK"></i>
   <i type="logical" name="LSYMGRAD"> F  </i>
   <i type="logical" name="LHFONE"> F  </i>
   <i type="logical" name="LRHFCALC"> F  </i>
   <i type="logical" name="LTHOMAS"> F  </i>
   <i type="logical" name="LMODELHF"> F  </i>
   <i name="ENCUT4O">     -1.00000000</i>
   <i type="int" name="EXXOEP">     0</i>
   <i type="int" name="FOURORBIT">     0</i>
   <i name="AEXX">      0.00000000</i>
   <i name="HFALPHA">      0.00000000</i>
   <i name="MCALPHA">      0.00000000</i>
   <i name="ALDAX">      1.00000000</i>
   <i name="AGGAX">      1.00000000</i>
   <i name="ALDAC">      1.00000000</i>
   <i name="AGGAC">      1.00000000</i>
   <i type="int" name="NKREDX">     1</i>
   <i type="int" name="NKREDY">     1</i>
   <i type="int" name="NKREDZ">     1</i>
   <i type="logical" name="SHIFTRED"> F  </i>
   <i type="logical" name="ODDONLY"> F  </i>
   <i type="logical" name="EVENONLY"> F  </i>
   <i type="int" name="LMAXFOCK">     0</i>
   <i type="int" name="NMAXFOCKAE">     0</i>
   <i type="logical" name="LFOCKAEDFT"> F  </i>
   <i name="HFSCREEN">      0.00000000</i>
   <i name="HFSCREENC">      0.00000000</i>
   <i type="int" name="NBANDSGWLOW">     0</i>
  </separator>
  <separator name="vdW DFT" >
   <i type="logical" name="LUSE_VDW"> F  </i>
   <i name="Zab_VDW">     -0.84910000</i>
   <i name="PARAM1">      0.12340000</i>
   <i name="PARAM2">      1.00000000</i>
   <i name="PARAM3">      0.00000000</i>
  </separator>
  <separator name="model GW" >
   <i type="int" name="MODEL_GW">     0</i>
   <i name="MODEL_EPS0">    209.24499617</i>
   <i name="MODEL_ALPHA">      1.00000000</i>
  </separator>
  <separator name="linear response parameters" >
   <i type="logical" name="LEPSILON"> F  </i>
   <i type="logical" name="LRPA"> F  </i>
   <i type="logical" name="LNABLA"> F  </i>
   <i type="logical" name="LVEL"> F  </i>
   <i type="int" name="KINTER">     0</i>
   <i name="CSHIFT">      0.10000000</i>
   <i name="OMEGAMAX">     -1.00000000</i>
   <i name="DEG_THRESHOLD">      0.00200000</i>
  </separator>
  <separator name="orbital magnetization" >
   <i type="logical" name="NUCIND"> F  </i>
   <v name="MAGPOS">      0.00000000      0.00000000      0.00000000</v>
   <i type="logical" name="LNICSALL"> T  </i>
   <i type="logical" name="ORBITALMAG"> F  </i>
   <i type="logical" name="LMAGBLOCH"> F  </i>
   <i type="logical" name="LCHIMAG"> F  </i>
   <i type="logical" name="LGAUGE"> T  </i>
   <i type="int" name="MAGATOM">     0</i>
   <v name="MAGDIPOL">      0.00000000      0.00000000      0.00000000</v>
   <v name="AVECCONST">      0.00000000      0.00000000      0.00000000</v>
  </separator>
  <separator name="response functions" >
   <i type="logical" name="LADDER"> F  </i>
   <i type="logical" name="LFXC"> F  </i>
   <i type="logical" name="LHARTREE"> T  </i>
   <i type="int" name="IBSE">     0</i>
   <i type="logical" name="LTCTE"> F  </i>
   <i type="logical" name="LTETE"> F  </i>
   <i type="logical" name="LTRIPLET"> F  </i>
   <i type="logical" name="LFXCEPS"> F  </i>
   <i type="logical" name="LFXHEG"> F  </i>
   <i type="logical" name="L2ORDER"> F  </i>
   <i type="logical" name="LUSEW"> F  </i>
   <i name="ENCUTGW">     -2.00000000</i>
   <i name="ENCUTGWSOFT">     -2.00000000</i>
   <i name="ENCUTLF">     -1.00000000</i>
   <i type="int" name="LMAXMP2">    -1</i>
   <i name="SCISSOR">      0.00000000</i>
   <i type="int" name="NOMEGA">     0</i>
   <i type="int" name="NOMEGAR">     0</i>
   <i type="int" name="NBANDSGW">    -1</i>
   <i type="int" name="NBANDSO">    -1</i>
   <i type="int" name="NBANDSV">    -1</i>
   <i type="int" name="NELM">     1</i>
   <i type="int" name="DIM">     3</i>
   <i type="int" name="ANTIRES">     0</i>
   <i name="OMEGAMAX">    -30.00000000</i>
   <i name="OMEGAMIN">    -30.00000000</i>
   <i name="OMEGATL">   -200.00000000</i>
   <i type="int" name="OMEGAGRID">     0</i>
   <i name="CSHIFT">     -0.10000000</i>
   <i type="logical" name="SELFENERGY"> F  </i>
   <i type="logical" name="LSPECTRAL"> F  </i>
   <i type="logical" name="ODDONLYGW"> F  </i>
   <i type="logical" name="EVENONLYGW"> F  </i>
   <i type="int" name="NKREDLFX">     1</i>
   <i type="int" name="NKREDLFY">     1</i>
   <i type="int" name="NKREDLFZ">     1</i>
   <i type="int" name="MAXMEM">  1800</i>
   <i type="int" name="TELESCOPE">     0</i>
   <i type="int" name="TAUPAR">     1</i>
  </separator>
  <separator name="External order field" >
   <i name="OFIELD_KAPPA">      0.00000000</i>
   <v name="OFIELD_K">      0.00000000      0.00000000      0.00000000</v>
   <i name="OFIELD_Q6_NEAR">      0.00000000</i>
   <i name="OFIELD_Q6_FAR">      0.00000000</i>
   <i name="OFIELD_A">      0.00000000</i>
  </separator>
 </parameters>
 <atominfo>
  <atoms>      23 </atoms>
  <types>       1 </types>
  <array name="atoms" >
   <dimension dim="1">ion</dimension>
   <field type="string">element</field>
   <field type="int">atomtype</field>
   <set>
    <rc><c>Ag</c><c>   1</c></rc>
    <rc><c>Ag</c><c>   1</c></rc>
    <rc><c>Ag</c><c>   1</c></rc>
    <rc><c>Ag</c><c>   1</c></rc>
    <rc><c>Ag</c><c>   1</c></rc>
    <rc><c>Ag</c><c>   1</c></rc>
    <rc><c>Ag</c><c>   1</c></rc>
    <rc><c>Ag</c><c>   1</c></rc>
    <rc><c>Ag</c><c>   1</c></rc>
    <rc><c>Ag</c><c>   1</c></rc>
    <rc><c>Ag</c><c>   1</c></rc>
    <rc><c>Ag</c><c>   1</c></rc>
    <rc><c>Ag</c><c>   1</c></rc>
    <rc><c>Ag</c><c>   1</c></rc>
    <rc><c>Ag</c><c>   1</c></rc>
    <rc><c>Ag</c><c>   1</c></rc>
    <rc><c>Ag</c><c>   1</c></rc>
    <rc><c>Ag</c><c>   1</c></rc>
    <rc><c>Ag</c><c>   1</c></rc>
    <rc><c>Ag</c><c>   1</c></rc>
    <rc><c>Ag</c><c>   1</c></rc>
    <rc><c>Ag</c><c>   1</c></rc>
    <rc><c>Ag</c><c>   1</c></rc>
   </set>
  </array>
  <array name="atomtypes" >
   <dimension dim="1">type</dimension>
   <field type="int">atomspertype</field>
   <field type="string">element</field>
   <field>mass</field>
   <field>valence</field>
   <field type="string">pseudopotential</field>
   <set>
    <rc><c>  23</c><c>Ag</c><c>    107.86800000</c><c>     11.00000000</c><c>  PAW_PBE Ag 02Apr2005                  </c></rc>
   </set>
  </array>
 </atominfo>
 <structure name="initialpos" >
  <crystal>
   <varray name="basis" >
    <v>      20.01753311       0.00000000       0.00000000 </v>
    <v>       0.00000000      20.01753311       0.00000000 </v>
    <v>       0.00000000       0.00000000      20.01753311 </v>
   </varray>
   <i name="volume">   8021.05818642 </i>
   <varray name="rec_basis" >
    <v>       0.04995621       0.00000000       0.00000000 </v>
    <v>       0.00000000       0.04995621       0.00000000 </v>
    <v>       0.00000000       0.00000000       0.04995621 </v>
   </varray>
  </crystal>
  <varray name="positions" >
   <v>       0.69477877       0.54976354       0.59555329 </v>
   <v>       0.66463676       0.45840839       0.49136925 </v>
   <v>       0.61788702       0.59117954       0.48770393 </v>
   <v>       0.62568851       0.44298441       0.62763013 </v>
   <v>       0.58870057       0.40047403       0.39763640 </v>
   <v>       0.65139614       0.67397347       0.60666656 </v>
   <v>       0.58238858       0.34280466       0.54793581 </v>
   <v>       0.49934196       0.42608948       0.65891957 </v>
   <v>       0.54682049       0.56645513       0.61432683 </v>
   <v>       0.55910248       0.53429295       0.38167544 </v>
   <v>       0.52507016       0.46160702       0.51706106 </v>
   <v>       0.47370859       0.58087858       0.49101103 </v>
   <v>       0.48697446       0.33378860       0.45307312 </v>
   <v>       0.53790237       0.69361772       0.53603700 </v>
   <v>       0.41725522       0.37709614       0.56695154 </v>
   <v>       0.42557421       0.65519265       0.60175650 </v>
   <v>       0.41353645       0.52209410       0.60467146 </v>
   <v>       0.53076800       0.66689158       0.39720329 </v>
   <v>       0.35446788       0.48082632       0.48727560 </v>
   <v>       0.44830337       0.45378212       0.38994679 </v>
   <v>       0.34396675       0.61354548       0.49940539 </v>
   <v>       0.35303293       0.35195793       0.44214808 </v>
   <v>       0.41617288       0.58639952       0.37054467 </v>
  </varray>
 </structure>
 <calculation>
  <scstep>
   <time name="dav">    2.05    2.05</time>
   <time name="total">    2.29    2.32</time>
   <energy>
    <i name="alphaZ">     56.09681267 </i>
    <i name="ewald">  41655.73537789 </i>
    <i name="hartreedc"> -64539.60801412 </i>
    <i name="XCdc">   -252.73396352 </i>
    <i name="pawpsdc">  23077.56009560 </i>
    <i name="pawaedc"> -22017.08600421 </i>
    <i name="eentropy">     -0.00000000 </i>
    <i name="bandstr">    368.97753342 </i>
    <i name="atom">  23855.56849199 </i>
    <i name="e_fr_energy">   2204.51032971 </i>
    <i name="e_wo_entrp">   2204.51032971 </i>
    <i name="e_0_energy">   2204.51032971 </i>
   </energy>
  </scstep>
  <scstep>
   <time name="dav">    3.28    3.28</time>
   <time name="total">    3.28    3.29</time>
   <energy>
    <i name="e_fr_energy">    480.60398554 </i>
    <i name="e_wo_entrp">    480.60398554 </i>
    <i name="e_0_energy">    480.60398554 </i>
   </energy>
  </scstep>
  <scstep>
   <time name="dav">    2.60    2.60</time>
   <time name="total">    2.60    2.61</time>
   <energy>
    <i name="e_fr_energy">    -20.37068793 </i>
    <i name="e_wo_entrp">    -20.37068793 </i>
    <i name="e_0_energy">    -20.37068793 </i>
   </energy>
  </scstep>
  <scstep>
   <time name="dav">    2.27    2.27</time>
   <time name="total">    2.27    2.28</time>
   <energy>
    <i name="e_fr_energy">    -45.79300329 </i>
    <i name="e_wo_entrp">    -45.79300329 </i>
    <i name="e_0_energy">    -45.79300329 </i>
   </energy>
  </scstep>
  <scstep>
   <time name="dav">    2.30    2.31</time>
   <time name="total">    2.40    2.48</time>
   <energy>
    <i name="e_fr_energy">    -46.15512093 </i>
    <i name="e_wo_entrp">    -46.15512093 </i>
    <i name="e_0_energy">    -46.15512093 </i>
   </energy>
  </scstep>
  <scstep>
   <time name="dav">    2.14    2.14</time>
   <time name="total">    2.47    2.47</time>
   <energy>
    <i name="e_fr_energy">    -16.07284273 </i>
    <i name="e_wo_entrp">    -16.07284273 </i>
    <i name="e_0_energy">    -16.07284273 </i>
   </energy>
  </scstep>
  <scstep>
   <time name="dav">    2.16    2.16</time>
   <time name="total">    2.49    2.50</time>
   <energy>
    <i name="e_fr_energy">    -15.91292635 </i>
    <i name="e_wo_entrp">    -15.91292635 </i>
    <i name="e_0_energy">    -15.91292635 </i>
   </energy>
  </scstep>
  <scstep>
   <time name="dav">    2.22    2.22</time>
   <time name="total">    2.55    2.55</time>
   <energy>
    <i name="e_fr_energy">    -11.63786768 </i>
    <i name="e_wo_entrp">    -11.63786768 </i>
    <i name="e_0_energy">    -11.63786768 </i>
   </energy>
  </scstep>
  <scstep>
   <time name="dav">    2.25    2.25</time>
   <time name="total">    2.58    2.58</time>
   <energy>
    <i name="e_fr_energy">    -16.79656979 </i>
    <i name="e_wo_entrp">    -16.79656979 </i>
    <i name="e_0_energy">    -16.79656979 </i>
   </energy>
  </scstep>
  <scstep>
   <time name="dav">    2.15    2.15</time>
   <time name="total">    2.48    2.49</time>
   <energy>
    <i name="e_fr_energy">    -24.99525824 </i>
    <i name="e_wo_entrp">    -24.99525824 </i>
    <i name="e_0_energy">    -24.99525824 </i>
   </energy>
  </scstep>
  <scstep>
   <time name="dav">    2.27    2.27</time>
   <time name="total">    2.60    2.61</time>
   <energy>
    <i name="e_fr_energy">    -26.38066235 </i>
    <i name="e_wo_entrp">    -26.38066235 </i>
    <i name="e_0_energy">    -26.38066235 </i>
   </energy>
  </scstep>
  <scstep>
   <time name="dav">    2.13    2.13</time>
   <time name="total">    2.46    2.47</time>
   <energy>
    <i name="e_fr_energy">    -32.59604688 </i>
    <i name="e_wo_entrp">    -32.59604688 </i>
    <i name="e_0_energy">    -32.59604688 </i>
   </energy>
  </scstep>
  <scstep>
   <time name="dav">    2.16    2.16</time>
   <time name="total">    2.49    2.49</time>
   <energy>
    <i name="e_fr_energy">    -38.82214678 </i>
    <i name="e_wo_entrp">    -38.82214678 </i>
    <i name="e_0_energy">    -38.82214678 </i>
   </energy>
  </scstep>
  <scstep>
   <time name="dav">    2.36    2.37</time>
   <time name="total">    2.70    2.70</time>
   <energy>
    <i name="e_fr_energy">    -39.06784891 </i>
    <i name="e_wo_entrp">    -39.06784891 </i>
    <i name="e_0_energy">    -39.06784891 </i>
   </energy>
  </scstep>
  <scstep>
   <time name="dav">    2.15    2.15</time>
   <time name="total">    2.48    2.50</time>
   <energy>
    <i name="e_fr_energy">    -39.78875488 </i>
    <i name="e_wo_entrp">    -39.78875488 </i>
    <i name="e_0_energy">    -39.78875488 </i>
   </energy>
  </scstep>
  <scstep>
   <time name="dav">    2.13    2.13</time>
   <time name="total">    2.46    2.48</time>
   <energy>
    <i name="e_fr_energy">    -42.60017452 </i>
    <i name="e_wo_entrp">    -42.60017452 </i>
    <i name="e_0_energy">    -42.60017452 </i>
   </energy>
  </scstep>
  <scstep>
   <time name="dav">    2.16    2.16</time>
   <time name="total">    2.49    2.51</time>
   <energy>
    <i name="e_fr_energy">    -43.94940113 </i>
    <i name="e_wo_entrp">    -43.94940113 </i>
    <i name="e_0_energy">    -43.94940113 </i>
   </energy>
  </scstep>
  <scstep>
   <time name="dav">    2.20    2.20</time>
   <time name="total">    2.53    2.54</time>
   <energy>
    <i name="e_fr_energy">    -44.57410676 </i>
    <i name="e_wo_entrp">    -44.57410676 </i>
    <i name="e_0_energy">    -44.57410676 </i>
   </energy>
  </scstep>
  <scstep>
   <time name="dav">    2.22    2.22</time>
   <time name="total">    2.55    2.55</time>
   <energy>
    <i name="e_fr_energy">    -45.14795462 </i>
    <i name="e_wo_entrp">    -45.14795462 </i>
    <i name="e_0_energy">    -45.14795462 </i>
   </energy>
  </scstep>
  <scstep>
   <time name="dav">    2.19    2.19</time>
   <time name="total">    2.52    2.53</time>
   <energy>
    <i name="e_fr_energy">    -45.41831333 </i>
    <i name="e_wo_entrp">    -45.41831333 </i>
    <i name="e_0_energy">    -45.41831333 </i>
   </energy>
  </scstep>
  <scstep>
   <time name="dav">    1.98    1.98</time>
   <time name="total">    2.32    2.33</time>
   <energy>
    <i name="e_fr_energy">    -45.47233579 </i>
    <i name="e_wo_entrp">    -45.47233579 </i>
    <i name="e_0_energy">    -45.47233579 </i>
   </energy>
  </scstep>
  <scstep>
   <time name="dav">    2.17    2.17</time>
   <time name="total">    2.51    2.53</time>
   <energy>
    <i name="e_fr_energy">    -45.52953415 </i>
    <i name="e_wo_entrp">    -45.52953415 </i>
    <i name="e_0_energy">    -45.52953415 </i>
   </energy>
  </scstep>
  <scstep>
   <time name="dav">    1.70    1.70</time>
   <time name="total">    2.03    2.74</time>
   <energy>
    <i name="e_fr_energy">    -45.53094705 </i>
    <i name="e_wo_entrp">    -45.53094705 </i>
    <i name="e_0_energy">    -45.53094705 </i>
   </energy>
  </scstep>
  <scstep>
   <time name="dav">    1.70    1.70</time>
   <time name="total">    2.04    2.19</time>
   <energy>
    <i name="e_fr_energy">    -45.53238794 </i>
    <i name="e_wo_entrp">    -45.53238794 </i>
    <i name="e_0_energy">    -45.53238794 </i>
   </energy>
  </scstep>
  <scstep>
   <time name="dav">    1.66    1.67</time>
   <time name="total">    2.00    2.04</time>
   <energy>
    <i name="e_fr_energy">    -45.53757018 </i>
    <i name="e_wo_entrp">    -45.53757018 </i>
    <i name="e_0_energy">    -45.53757018 </i>
   </energy>
  </scstep>
  <scstep>
   <time name="dav">    1.62    1.63</time>
   <time name="total">    1.96    1.98</time>
   <energy>
    <i name="e_fr_energy">    -45.53869154 </i>
    <i name="e_wo_entrp">    -45.53869154 </i>
    <i name="e_0_energy">    -45.53869154 </i>
   </energy>
  </scstep>
  <scstep>
   <time name="dav">    1.62    1.62</time>
   <time name="total">    1.96    1.98</time>
   <energy>
    <i name="e_fr_energy">    -45.53951223 </i>
    <i name="e_wo_entrp">    -45.53951223 </i>
    <i name="e_0_energy">    -45.53951223 </i>
   </energy>
  </scstep>
  <scstep>
   <time name="dav">    1.63    1.63</time>
   <time name="total">    1.86    1.88</time>
   <energy>
    <i name="alphaZ">     56.09681267 </i>
    <i name="ewald">  41655.73537789 </i>
    <i name="hartreedc"> -64507.62110980 </i>
    <i name="XCdc">   -261.19717101 </i>
    <i name="pawpsdc">  24923.17734983 </i>
    <i name="pawaedc"> -23903.97448374 </i>
    <i name="eentropy">      0.00000000 </i>
    <i name="bandstr">  -1863.32480140 </i>
    <i name="atom">  23855.56849199 </i>
    <i name="e_fr_energy">    -45.53953358 </i>
    <i name="e_wo_entrp">    -45.53953358 </i>
    <i name="e_0_energy">    -45.53953358 </i>
   </energy>
  </scstep>
  <structure>
   <crystal>
    <varray name="basis" >
     <v>      20.01753311       0.00000000       0.00000000 </v>
     <v>       0.00000000      20.01753311       0.00000000 </v>
     <v>       0.00000000       0.00000000      20.01753311 </v>
    </varray>
    <i name="volume">   8021.05818642 </i>
    <varray name="rec_basis" >
     <v>       0.04995621       0.00000000       0.00000000 </v>
     <v>       0.00000000       0.04995621       0.00000000 </v>
     <v>       0.00000000       0.00000000       0.04995621 </v>
    </varray>
   </crystal>
   <varray name="positions" >
    <v>       0.69477877       0.54976354       0.59555329 </v>
    <v>       0.66463676       0.45840839       0.49136925 </v>
    <v>       0.61788702       0.59117954       0.48770393 </v>
    <v>       0.62568851       0.44298441       0.62763013 </v>
    <v>       0.58870057       0.40047403       0.39763640 </v>
    <v>       0.65139614       0.67397347       0.60666656 </v>
    <v>       0.58238858       0.34280466       0.54793581 </v>
    <v>       0.49934196       0.42608948       0.65891957 </v>
    <v>       0.54682049       0.56645513       0.61432683 </v>
    <v>       0.55910248       0.53429295       0.38167544 </v>
    <v>       0.52507016       0.46160702       0.51706106 </v>
    <v>       0.47370859       0.58087858       0.49101103 </v>
    <v>       0.48697446       0.33378860       0.45307312 </v>
    <v>       0.53790237       0.69361772       0.53603700 </v>
    <v>       0.41725522       0.37709614       0.56695154 </v>
    <v>       0.42557421       0.65519265       0.60175650 </v>
    <v>       0.41353645       0.52209410       0.60467146 </v>
    <v>       0.53076800       0.66689158       0.39720329 </v>
    <v>       0.35446788       0.48082632       0.48727560 </v>
    <v>       0.44830337       0.45378212       0.38994679 </v>
    <v>       0.34396675       0.61354548       0.49940539 </v>
    <v>       0.35303293       0.35195793       0.44214808 </v>
    <v>       0.41617288       0.58639952       0.37054467 </v>
   </varray>
  </structure>
  <varray name="forces" >
   <v>       0.32540211       0.16689390      -0.04309623 </v>
   <v>       0.11307897       0.14420181       0.18201562 </v>
   <v>       0.26524830       0.20380306       0.35328215 </v>
   <v>       0.30156886      -0.05173284       0.08115744 </v>
   <v>      -0.04409957       0.10261177      -0.29751741 </v>
   <v>      -0.04626384       0.17870725       0.00729444 </v>
   <v>       0.06966866      -0.11030279      -0.02014482 </v>
   <v>      -0.24911721       0.19632006       0.28610263 </v>
   <v>       0.30901045       0.12181304       0.05237663 </v>
   <v>      -0.00093625      -0.30912643      -0.23324172 </v>
   <v>       0.13786375      -0.30428870       0.08142706 </v>
   <v>      -0.09166644       0.10006049      -0.10606471 </v>
   <v>      -0.41796797      -0.28049372      -0.04906110 </v>
   <v>       0.20154444       0.33964514       0.07679503 </v>
   <v>      -0.32229576       0.09186697      -0.34446028 </v>
   <v>      -0.04587081       0.28349846       0.37112173 </v>
   <v>      -0.09536462      -0.51271120       0.11541131 </v>
   <v>       0.02785472       0.10070366      -0.08296095 </v>
   <v>       0.06358324      -0.19858885      -0.18708280 </v>
   <v>      -0.06689836      -0.39117174      -0.03209451 </v>
   <v>      -0.25991256       0.15133777      -0.03403366 </v>
   <v>      -0.03527826       0.03032062      -0.11541977 </v>
   <v>      -0.13915185      -0.05336770      -0.06180608 </v>
  </varray>
  <varray name="stress" >
   <v>      -0.53506405       0.55723828       0.32150814 </v>
   <v>       0.55723828      -0.58211293       0.52877236 </v>
   <v>       0.32150813       0.52877236      -0.89394666 </v>
  </varray>
  <energy>
   <i name="e_fr_energy">    -45.53953358 </i>
   <i name="e_wo_entrp">    -45.53953358 </i>
   <i name="e_0_energy">      0.00000000 </i>
  </energy>
  <time name="totalsc">   71.12   72.40</time>
 </calculation>
 <calculation>
  <scstep>
   <time name="dav">    2.25    2.25</time>
   <time name="total">    2.58    2.59</time>
   <energy>
    <i name="alphaZ">     56.09681267 </i>
    <i name="ewald">  41607.99080487 </i>
    <i name="hartreedc"> -64460.09871430 </i>
    <i name="XCdc">   -261.26130411 </i>
    <i name="pawpsdc">  24923.26508391 </i>
    <i name="pawaedc"> -23904.06173088 </i>
    <i name="eentropy">      0.00000000 </i>
    <i name="bandstr">  -1863.06451077 </i>
    <i name="atom">  23855.56849199 </i>
    <i name="e_fr_energy">    -45.56506662 </i>
    <i name="e_wo_entrp">    -45.56506662 </i>
    <i name="e_0_energy">    -45.56506662 </i>
   </energy>
  </scstep>
  <scstep>
   <time name="dav">    2.23    2.23</time>
   <time name="total">    2.56    2.56</time>
   <energy>
    <i name="e_fr_energy">    -45.56595799 </i>
    <i name="e_wo_entrp">    -45.56595799 </i>
    <i name="e_0_energy">    -45.56595799 </i>
   </energy>
  </scstep>
  <scstep>
   <time name="dav">    1.56    1.56</time>
   <time name="total">    1.80    1.82</time>
   <energy>
    <i name="alphaZ">     56.09681267 </i>
    <i name="ewald">  41607.99080487 </i>
    <i name="hartreedc"> -64460.52160028 </i>
    <i name="XCdc">   -261.25237971 </i>
    <i name="pawpsdc">  24917.73404520 </i>
    <i name="pawaedc"> -23898.44140484 </i>
    <i name="eentropy">      0.00000000 </i>
    <i name="bandstr">  -1862.74075085 </i>
    <i name="atom">  23855.56849199 </i>
    <i name="e_fr_energy">    -45.56598095 </i>
    <i name="e_wo_entrp">    -45.56598095 </i>
    <i name="e_0_energy">    -45.56598095 </i>
   </energy>
  </scstep>
  <structure>
   <crystal>
    <varray name="basis" >
     <v>      20.01753311       0.00000000       0.00000000 </v>
     <v>       0.00000000      20.01753311       0.00000000 </v>
     <v>       0.00000000       0.00000000      20.01753311 </v>
    </varray>
    <i name="volume">   8021.05818642 </i>
    <varray name="rec_basis" >
     <v>       0.04995621       0.00000000       0.00000000 </v>
     <v>       0.00000000       0.04995621       0.00000000 </v>
     <v>       0.00000000       0.00000000       0.04995621 </v>
    </varray>
   </crystal>
   <varray name="positions" >
    <v>       0.69493561       0.54984398       0.59553252 </v>
    <v>       0.66469126       0.45847790       0.49145698 </v>
    <v>       0.61801487       0.59127778       0.48787422 </v>
    <v>       0.62583387       0.44295947       0.62766925 </v>
    <v>       0.58867931       0.40052349       0.39749299 </v>
    <v>       0.65137385       0.67405961       0.60667007 </v>
    <v>       0.58242216       0.34275150       0.54792610 </v>
    <v>       0.49922189       0.42618410       0.65905748 </v>
    <v>       0.54696943       0.56651385       0.61435207 </v>
    <v>       0.55910203       0.53414395       0.38156302 </v>
    <v>       0.52513661       0.46146036       0.51710031 </v>
    <v>       0.47366441       0.58092681       0.49095991 </v>
    <v>       0.48677300       0.33365340       0.45304947 </v>
    <v>       0.53799952       0.69378143       0.53607401 </v>
    <v>       0.41709987       0.37714042       0.56678551 </v>
    <v>       0.42555210       0.65532930       0.60193539 </v>
    <v>       0.41349048       0.52184697       0.60472709 </v>
    <v>       0.53078142       0.66694012       0.39716330 </v>
    <v>       0.35449853       0.48073059       0.48718542 </v>
    <v>       0.44827113       0.45359357       0.38993132 </v>
    <v>       0.34384147       0.61361842       0.49938899 </v>
    <v>       0.35301593       0.35197255       0.44209244 </v>
    <v>       0.41610580       0.58637380       0.37051488 </v>
   </varray>
  </structure>
  <varray name="forces" >
   <v>       0.31679660       0.15946204      -0.03459590 </v>
   <v>       0.10012226       0.13291070       0.16489222 </v>
   <v>       0.23166043       0.18888682       0.31272723 </v>
   <v>       0.26999814      -0.05004868       0.07887170 </v>
   <v>      -0.04874892       0.08792641      -0.26785134 </v>
   <v>      -0.03630436       0.17148051       0.01317801 </v>
   <v>       0.06398086      -0.10781007      -0.02470952 </v>
   <v>      -0.22486661       0.18227949       0.25960357 </v>
   <v>       0.28316709       0.11182800       0.04143538 </v>
   <v>       0.00004384      -0.27027077      -0.19912823 </v>
   <v>       0.12410791      -0.26827733       0.07665427 </v>
   <v>      -0.07803413       0.08827653      -0.07927570 </v>
   <v>      -0.36890827      -0.26701994      -0.04593236 </v>
   <v>       0.17569748       0.31722007       0.06860856 </v>
   <v>      -0.29885304       0.09280939      -0.31320521 </v>
   <v>      -0.03938595       0.24019628       0.33900516 </v>
   <v>      -0.08307771      -0.45505808       0.09760803 </v>
   <v>       0.02819717       0.08152970      -0.07404218 </v>
   <v>       0.05945461      -0.16480717      -0.17718914 </v>
   <v>      -0.05902777      -0.36746723      -0.03579663 </v>
   <v>      -0.23556438       0.13435539      -0.02381416 </v>
   <v>      -0.05033396       0.02055704      -0.12085700 </v>
   <v>      -0.13012129      -0.05895912      -0.05618677 </v>
  </varray>
  <varray name="stress" >
   <v>      -0.59626325       0.53116251       0.31356363 </v>
   <v>       0.53116251      -0.65085492       0.51468512 </v>
   <v>       0.31356363       0.51468511      -0.94403586 </v>
  </varray>
  <energy>
   <i name="e_fr_energy">    -45.56598095 </i>
   <i name="e_wo_entrp">    -45.56598095 </i>
   <i name="e_0_energy">      0.00000000 </i>
  </energy>
  <time name="totalsc">   10.65   10.74</time>
 </calculation>
 <calculation>
  <scstep>
   <time name="dav">    2.17    2.17</time>
   <time name="total">    2.50    2.51</time>
   <energy>
    <i name="alphaZ">     56.09681267 </i>
    <i name="ewald">  41465.36760958 </i>
    <i name="hartreedc"> -64318.99756216 </i>
    <i name="XCdc">   -261.43726887 </i>
    <i name="pawpsdc">  24914.35908504 </i>
    <i name="pawaedc"> -23895.01437471 </i>
    <i name="eentropy">      0.00000000 </i>
    <i name="bandstr">  -1861.56875350 </i>
    <i name="atom">  23855.56849199 </i>
    <i name="e_fr_energy">    -45.62595996 </i>
    <i name="e_wo_entrp">    -45.62595996 </i>
    <i name="e_0_energy">    -45.62595996 </i>
   </energy>
  </scstep>
  <scstep>
   <time name="dav">    2.25    2.25</time>
   <time name="total">    2.58    2.58</time>
   <energy>
    <i name="e_fr_energy">    -45.63337184 </i>
    <i name="e_wo_entrp">    -45.63337184 </i>
    <i name="e_0_energy">    -45.63337184 </i>
   </energy>
  </scstep>
  <scstep>
   <time name="dav">    2.24    2.25</time>
   <time name="total">    2.57    2.70</time>
   <energy>
    <i name="e_fr_energy">    -45.63321885 </i>
    <i name="e_wo_entrp">    -45.63321885 </i>
    <i name="e_0_energy">    -45.63321885 </i>
   </energy>
  </scstep>
  <scstep>
   <time name="dav">    2.23    2.23</time>
   <time name="total">    2.47    2.49</time>
   <energy>
    <i name="alphaZ">     56.09681267 </i>
    <i name="ewald">  41465.36760958 </i>
    <i name="hartreedc"> -64320.72869020 </i>
    <i name="XCdc">   -261.40226259 </i>
    <i name="pawpsdc">  24888.90063215 </i>
    <i name="pawaedc"> -23869.14782659 </i>
    <i name="eentropy">     -0.00000000 </i>
    <i name="bandstr">  -1860.28791093 </i>
    <i name="atom">  23855.56849199 </i>
    <i name="e_fr_energy">    -45.63314392 </i>
    <i name="e_wo_entrp">    -45.63314392 </i>
    <i name="e_0_energy">    -45.63314392 </i>
   </energy>
  </scstep>
  <structure>
   <crystal>
    <varray name="basis" >
     <v>      20.01753311       0.00000000       0.00000000 </v>
     <v>       0.00000000      20.01753311       0.00000000 </v>
     <v>       0.00000000       0.00000000      20.01753311 </v>
    </varray>
    <i name="volume">   8021.05818642 </i>
    <varray name="rec_basis" >
     <v>       0.04995621       0.00000000       0.00000000 </v>
     <v>       0.00000000       0.04995621       0.00000000 </v>
     <v>       0.00000000       0.00000000       0.04995621 </v>
    </varray>
   </crystal>
   <varray name="positions" >
    <v>       0.69540615       0.55008531       0.59547020 </v>
    <v>       0.66485477       0.45868641       0.49172018 </v>
    <v>       0.61839842       0.59157248       0.48838507 </v>
    <v>       0.62626994       0.44288466       0.62778660 </v>
    <v>       0.58861555       0.40067187       0.39706278 </v>
    <v>       0.65130695       0.67431802       0.60668062 </v>
    <v>       0.58252290       0.34259200       0.54789697 </v>
    <v>       0.49886166       0.42646798       0.65947118 </v>
    <v>       0.54741626       0.56668999       0.61442781 </v>
    <v>       0.55910067       0.53369695       0.38122575 </v>
    <v>       0.52533596       0.46102035       0.51721805 </v>
    <v>       0.47353185       0.58107150       0.49080654 </v>
    <v>       0.48616862       0.33324780       0.45297853 </v>
    <v>       0.53829095       0.69427256       0.53618506 </v>
    <v>       0.41663383       0.37727326       0.56628742 </v>
    <v>       0.42548577       0.65573924       0.60247203 </v>
    <v>       0.41335258       0.52110558       0.60489398 </v>
    <v>       0.53082170       0.66708574       0.39704334 </v>
    <v>       0.35459047       0.48044343       0.48691490 </v>
    <v>       0.44817439       0.45302793       0.38988491 </v>
    <v>       0.34346564       0.61383726       0.49933978 </v>
    <v>       0.35296492       0.35201639       0.44192555 </v>
    <v>       0.41590459       0.58629663       0.37042551 </v>
   </varray>
  </structure>
  <varray name="forces" >
   <v>       0.31527057       0.15017523      -0.01406217 </v>
   <v>       0.07327087       0.11301096       0.13215737 </v>
   <v>       0.16045651       0.16506334       0.22882717 </v>
   <v>       0.20482880      -0.04789341       0.07770740 </v>
   <v>      -0.06443384       0.05416159      -0.20830935 </v>
   <v>      -0.01080127       0.16214447       0.02960622 </v>
   <v>       0.05519918      -0.11059697      -0.03876212 </v>
   <v>      -0.17395245       0.15750443       0.20778649 </v>
   <v>       0.23611695       0.09322251       0.01644562 </v>
   <v>       0.00115562      -0.18502654      -0.12695079 </v>
   <v>       0.09626859      -0.19349384       0.07052144 </v>
   <v>      -0.04793466       0.06438760      -0.01432784 </v>
   <v>      -0.26221759      -0.25552693      -0.04035496 </v>
   <v>       0.11864730       0.28282922       0.05265238 </v>
   <v>      -0.25879110       0.10239840      -0.25049109 </v>
   <v>      -0.02450484       0.14827412       0.27624974 </v>
   <v>      -0.05771202      -0.33703971       0.05726267 </v>
   <v>       0.03170308       0.03761250      -0.05558952 </v>
   <v>       0.05190526      -0.08492459      -0.16201911 </v>
   <v>      -0.04178590      -0.33113011      -0.04888926 </v>
   <v>      -0.19009619       0.09957089       0.00075165 </v>
   <v>      -0.09627343      -0.00619092      -0.14471980 </v>
   <v>      -0.11631942      -0.07853222      -0.04549214 </v>
  </varray>
  <varray name="stress" >
   <v>      -0.75333069       0.46197696       0.29301620 </v>
   <v>       0.46197696      -0.82435676       0.47404190 </v>
   <v>       0.29301621       0.47404190      -1.07816442 </v>
  </varray>
  <energy>
   <i name="e_fr_energy">    -45.63314392 </i>
   <i name="e_wo_entrp">    -45.63314392 </i>
   <i name="e_0_energy">     -0.00000000 </i>
  </energy>
  <time name="totalsc">   13.85   14.64</time>
 </calculation>
 <calculation>
  <scstep>
   <time name="dav">    2.13    2.13</time>
   <time name="total">    2.46    2.56</time>
   <energy>
    <i name="alphaZ">     56.09681267 </i>
    <i name="ewald">  41182.84122841 </i>
    <i name="hartreedc"> -64039.90149883 </i>
    <i name="XCdc">   -261.75413583 </i>
    <i name="pawpsdc">  24888.05293003 </i>
    <i name="pawaedc"> -23868.28794267 </i>
    <i name="eentropy">      0.00000000 </i>
    <i name="bandstr">  -1858.30461617 </i>
    <i name="atom">  23855.56849199 </i>
    <i name="e_fr_energy">    -45.68873041 </i>
    <i name="e_wo_entrp">    -45.68873041 </i>
    <i name="e_0_energy">    -45.68873041 </i>
   </energy>
  </scstep>
  <scstep>
   <time name="dav">    2.21    2.21</time>
   <time name="total">    2.54    2.55</time>
   <energy>
    <i name="e_fr_energy">    -45.71848450 </i>
    <i name="e_wo_entrp">    -45.71848450 </i>
    <i name="e_0_energy">    -45.71848450 </i>
   </energy>
  </scstep>
  <scstep>
   <time name="dav">    2.24    2.25</time>
   <time name="total">    2.58    2.59</time>
   <energy>
    <i name="e_fr_energy">    -45.71796322 </i>
    <i name="e_wo_entrp">    -45.71796322 </i>
    <i name="e_0_energy">    -45.71796322 </i>
   </energy>
  </scstep>
  <scstep>
   <time name="dav">    2.22    2.23</time>
   <time name="total">    2.56    2.57</time>
   <energy>
    <i name="e_fr_energy">    -45.71754868 </i>
    <i name="e_wo_entrp">    -45.71754868 </i>
    <i name="e_0_energy">    -45.71754868 </i>
   </energy>
  </scstep>
  <scstep>
   <time name="dav">    1.56    1.56</time>
   <time name="total">    1.80    1.80</time>
   <energy>
    <i name="alphaZ">     56.09681267 </i>
    <i name="ewald">  41182.84122841 </i>
    <i name="hartreedc"> -64043.25742215 </i>
    <i name="XCdc">   -261.68496564 </i>
    <i name="pawpsdc">  24841.35438964 </i>
    <i name="pawaedc"> -23820.81845696 </i>
    <i name="eentropy">      0.00000000 </i>
    <i name="bandstr">  -1855.81761354 </i>
    <i name="atom">  23855.56849199 </i>
    <i name="e_fr_energy">    -45.71753558 </i>
    <i name="e_wo_entrp">    -45.71753558 </i>
    <i name="e_0_energy">    -45.71753558 </i>
   </energy>
  </scstep>
  <structure>
   <crystal>
    <varray name="basis" >
     <v>      20.01753311       0.00000000       0.00000000 </v>
     <v>       0.00000000      20.01753311       0.00000000 </v>
     <v>       0.00000000       0.00000000      20.01753311 </v>
    </varray>
    <i name="volume">   8021.05818642 </i>
    <varray name="rec_basis" >
     <v>       0.04995621       0.00000000       0.00000000 </v>
     <v>       0.00000000       0.04995621       0.00000000 </v>
     <v>       0.00000000       0.00000000       0.04995621 </v>
    </varray>
   </crystal>
   <varray name="positions" >
    <v>       0.69634722       0.55056797       0.59534557 </v>
    <v>       0.66518180       0.45910345       0.49224657 </v>
    <v>       0.61916552       0.59216188       0.48940677 </v>
    <v>       0.62714209       0.44273505       0.62802131 </v>
    <v>       0.58848801       0.40096863       0.39620235 </v>
    <v>       0.65117315       0.67483484       0.60670171 </v>
    <v>       0.58272439       0.34227300       0.54783871 </v>
    <v>       0.49814121       0.42703575       0.66029860 </v>
    <v>       0.54830993       0.56704228       0.61457928 </v>
    <v>       0.55909797       0.53280295       0.38055121 </v>
    <v>       0.52573467       0.46014034       0.51745354 </v>
    <v>       0.47326675       0.58136087       0.49049980 </v>
    <v>       0.48495984       0.33243661       0.45283664 </v>
    <v>       0.53887382       0.69525482       0.53640715 </v>
    <v>       0.41570174       0.37753894       0.56529123 </v>
    <v>       0.42535311       0.65655913       0.60354533 </v>
    <v>       0.41307679       0.51962281       0.60522775 </v>
    <v>       0.53090226       0.66737698       0.39680341 </v>
    <v>       0.35477436       0.47986911       0.48637385 </v>
    <v>       0.44798092       0.45189666       0.38979210 </v>
    <v>       0.34271396       0.61427493       0.49924135 </v>
    <v>       0.35286289       0.35210408       0.44159175 </v>
    <v>       0.41550216       0.58614228       0.37024676 </v>
   </varray>
  </structure>
  <varray name="forces" >
   <v>       0.29720744       0.12391395       0.02926246 </v>
   <v>       0.01949850       0.06966624       0.06193142 </v>
   <v>       0.01834625       0.12028397       0.05884011 </v>
   <v>       0.07456001      -0.03848301       0.07111047 </v>
   <v>      -0.08445495      -0.02121717      -0.08599914 </v>
   <v>       0.04476961       0.13868364       0.06450297 </v>
   <v>       0.03833661      -0.11428859      -0.06179436 </v>
   <v>      -0.06331361       0.09743925       0.10994566 </v>
   <v>       0.13304513       0.05093769      -0.02955456 </v>
   <v>      -0.00546525      -0.00928441       0.00561077 </v>
   <v>       0.03534792      -0.03663913       0.05487928 </v>
   <v>       0.01320190       0.01783881       0.11146607 </v>
   <v>      -0.03919197      -0.23255579      -0.02576690 </v>
   <v>      -0.00214850       0.20134336       0.01642783 </v>
   <v>      -0.16946815       0.11123576      -0.11249520 </v>
   <v>       0.00780008      -0.02486023       0.14120842 </v>
   <v>      -0.01803476      -0.10353816      -0.02653760 </v>
   <v>       0.03661576      -0.04700749      -0.01580810 </v>
   <v>       0.03180819       0.08519301      -0.12401955 </v>
   <v>      -0.00417060      -0.24041035      -0.07549990 </v>
   <v>      -0.08695844       0.02723656       0.04590983 </v>
   <v>      -0.19418321      -0.06351832      -0.19094077 </v>
   <v>      -0.08314795      -0.11196960      -0.02267921 </v>
  </varray>
  <varray name="stress" >
   <v>      -1.02972524       0.32467833       0.26117806 </v>
   <v>       0.32467832      -1.12479113       0.39423052 </v>
   <v>       0.26117806       0.39423052      -1.31268954 </v>
  </varray>
  <energy>
   <i name="e_fr_energy">    -45.71753558 </i>
   <i name="e_wo_entrp">    -45.71753558 </i>
   <i name="e_0_energy">      0.00000000 </i>
  </energy>
  <time name="totalsc">   15.65   16.26</time>
 </calculation>
 <calculation>
  <scstep>
   <time name="dav">    2.12    2.13</time>
   <time name="total">    2.46    2.48</time>
   <energy>
    <i name="alphaZ">     56.09681267 </i>
    <i name="ewald">  40628.44314782 </i>
    <i name="hartreedc"> -63491.61558956 </i>
    <i name="XCdc">   -262.30766863 </i>
    <i name="pawpsdc">  24841.60290051 </i>
    <i name="pawaedc"> -23821.07165579 </i>
    <i name="eentropy">      0.00000000 </i>
    <i name="bandstr">  -1852.30799717 </i>
    <i name="atom">  23855.56849199 </i>
    <i name="e_fr_energy">    -45.59155815 </i>
    <i name="e_wo_entrp">    -45.59155815 </i>
    <i name="e_0_energy">    -45.59155815 </i>
   </energy>
  </scstep>
  <scstep>
   <time name="dav">    2.21    2.21</time>
   <time name="total">    2.54    2.54</time>
   <energy>
    <i name="e_fr_energy">    -45.71270150 </i>
    <i name="e_wo_entrp">    -45.71270150 </i>
    <i name="e_0_energy">    -45.71270150 </i>
   </energy>
  </scstep>
  <scstep>
   <time name="dav">    2.23    2.24</time>
   <time name="total">    2.56    2.58</time>
   <energy>
    <i name="e_fr_energy">    -45.71126347 </i>
    <i name="e_wo_entrp">    -45.71126347 </i>
    <i name="e_0_energy">    -45.71126347 </i>
   </energy>
  </scstep>
  <scstep>
   <time name="dav">    2.23    2.23</time>
   <time name="total">    2.56    2.56</time>
   <energy>
    <i name="e_fr_energy">    -45.70909914 </i>
    <i name="e_wo_entrp">    -45.70909914 </i>
    <i name="e_0_energy">    -45.70909914 </i>
   </energy>
  </scstep>
  <scstep>
   <time name="dav">    1.82    1.82</time>
   <time name="total">    2.05    2.06</time>
   <energy>
    <i name="alphaZ">     56.09681267 </i>
    <i name="ewald">  40628.44314782 </i>
    <i name="hartreedc"> -63497.75664182 </i>
    <i name="XCdc">   -262.17845103 </i>
    <i name="pawpsdc">  24768.15282202 </i>
    <i name="pawaedc"> -23746.32498096 </i>
    <i name="eentropy">      0.00000000 </i>
    <i name="bandstr">  -1847.71036218 </i>
    <i name="atom">  23855.56849199 </i>
    <i name="e_fr_energy">    -45.70916150 </i>
    <i name="e_wo_entrp">    -45.70916150 </i>
    <i name="e_0_energy">    -45.70916150 </i>
   </energy>
  </scstep>
  <structure>
   <crystal>
    <varray name="basis" >
     <v>      20.01753311       0.00000000       0.00000000 </v>
     <v>       0.00000000      20.01753311       0.00000000 </v>
     <v>       0.00000000       0.00000000      20.01753311 </v>
    </varray>
    <i name="volume">   8021.05818642 </i>
    <varray name="rec_basis" >
     <v>       0.04995621       0.00000000       0.00000000 </v>
     <v>       0.00000000       0.04995621       0.00000000 </v>
     <v>       0.00000000       0.00000000       0.04995621 </v>
    </varray>
   </crystal>
   <varray name="positions" >
    <v>       0.69822936       0.55153330       0.59509630 </v>
    <v>       0.66583585       0.45993752       0.49329936 </v>
    <v>       0.62069973       0.59334069       0.49145017 </v>
    <v>       0.62888637       0.44243583       0.62849073 </v>
    <v>       0.58823294       0.40156214       0.39448150 </v>
    <v>       0.65090556       0.67586849       0.60674391 </v>
    <v>       0.58312735       0.34163500       0.54772219 </v>
    <v>       0.49670030       0.42817127       0.66195343 </v>
    <v>       0.55009726       0.56774685       0.61488223 </v>
    <v>       0.55909255       0.53101495       0.37920213 </v>
    <v>       0.52653208       0.45838032       0.51792452 </v>
    <v>       0.47273655       0.58193963       0.48988631 </v>
    <v>       0.48254230       0.33081422       0.45255287 </v>
    <v>       0.54003957       0.69721934       0.53685134 </v>
    <v>       0.41383757       0.37807030       0.56329885 </v>
    <v>       0.42508779       0.65819890       0.60569191 </v>
    <v>       0.41252519       0.51665726       0.60589529 </v>
    <v>       0.53106337       0.66795945       0.39632356 </v>
    <v>       0.35514213       0.47872046       0.48529175 </v>
    <v>       0.44759398       0.44963410       0.38960646 </v>
    <v>       0.34121062       0.61515028       0.49904450 </v>
    <v>       0.35265884       0.35227946       0.44092416 </v>
    <v>       0.41469730       0.58583360       0.36988927 </v>
   </varray>
  </structure>
  <varray name="forces" >
   <v>       0.26821446       0.07504690       0.12264859 </v>
   <v>      -0.07256302      -0.00394606      -0.06177201 </v>
   <v>      -0.22538667       0.06086477      -0.23809660 </v>
   <v>      -0.13273542      -0.01642247       0.05171206 </v>
   <v>      -0.09821013      -0.18683218       0.10290784 </v>
   <v>       0.16378837       0.10311513       0.14323558 </v>
   <v>       0.02037673      -0.13393199      -0.09551032 </v>
   <v>       0.15002490      -0.03181848      -0.02939004 </v>
   <v>      -0.04691159      -0.02792569      -0.10391995 </v>
   <v>      -0.05093183       0.31304499       0.20531770 </v>
   <v>      -0.07505774       0.23936408       0.02420716 </v>
   <v>       0.12013840      -0.06178027       0.32316602 </v>
   <v>       0.37521404      -0.21532201       0.01014375 </v>
   <v>      -0.22977398       0.05399682      -0.06477060 </v>
   <v>      -0.00047133       0.09974690       0.16139952 </v>
   <v>       0.06916963      -0.27490915      -0.07229571 </v>
   <v>       0.00062320       0.27992509      -0.18115305 </v>
   <v>       0.04146675      -0.18965725       0.05757679 </v>
   <v>      -0.01763789       0.43242725      -0.05515720 </v>
   <v>       0.07823434      -0.06235939      -0.13790069 </v>
   <v>       0.10416650      -0.09639348       0.11506279 </v>
   <v>      -0.41910276      -0.18734063      -0.29731444 </v>
   <v>      -0.02263496      -0.16889288       0.01990280 </v>
  </varray>
  <varray name="stress" >
   <v>      -1.47502352       0.06731897       0.23303490 </v>
   <v>       0.06731897      -1.55621745       0.24322654 </v>
   <v>       0.23303490       0.24322655      -1.69685444 </v>
  </varray>
  <energy>
   <i name="e_fr_energy">    -45.70916150 </i>
   <i name="e_wo_entrp">    -45.70916150 </i>
   <i name="e_0_energy">      0.00000000 </i>
  </energy>
  <time name="totalsc">   15.90   15.97</time>
 </calculation>
 <calculation>
  <scstep>
   <time name="dav">    2.13    2.13</time>
   <time name="total">    2.46    2.47</time>
   <energy>
    <i name="alphaZ">     56.09681267 </i>
    <i name="ewald">  40909.64804726 </i>
    <i name="hartreedc"> -63777.80796574 </i>
    <i name="XCdc">   -261.86429694 </i>
    <i name="pawpsdc">  24768.27549670 </i>
    <i name="pawaedc"> -23746.44829179 </i>
    <i name="eentropy">      0.00000000 </i>
    <i name="bandstr">  -1849.17847945 </i>
    <i name="atom">  23855.56849199 </i>
    <i name="e_fr_energy">    -45.71018530 </i>
    <i name="e_wo_entrp">    -45.71018530 </i>
    <i name="e_0_energy">    -45.71018530 </i>
   </energy>
  </scstep>
  <scstep>
   <time name="dav">    2.25    2.25</time>
   <time name="total">    2.58    2.58</time>
   <energy>
    <i name="e_fr_energy">    -45.74212018 </i>
    <i name="e_wo_entrp">    -45.74212018 </i>
    <i name="e_0_energy">    -45.74212018 </i>
   </energy>
  </scstep>
  <scstep>
   <time name="dav">    2.22    2.22</time>
   <time name="total">    2.55    2.55</time>
   <energy>
    <i name="e_fr_energy">    -45.74149977 </i>
    <i name="e_wo_entrp">    -45.74149977 </i>
    <i name="e_0_energy">    -45.74149977 </i>
   </energy>
  </scstep>
  <scstep>
   <time name="dav">    2.22    2.22</time>
   <time name="total">    2.55    2.55</time>
   <energy>
    <i name="e_fr_energy">    -45.74127228 </i>
    <i name="e_wo_entrp">    -45.74127228 </i>
    <i name="e_0_energy">    -45.74127228 </i>
   </energy>
  </scstep>
  <scstep>
   <time name="dav">    1.64    1.64</time>
   <time name="total">    1.88    1.92</time>
   <energy>
    <i name="alphaZ">     56.09681267 </i>
    <i name="ewald">  40909.64804726 </i>
    <i name="hartreedc"> -63774.98385953 </i>
    <i name="XCdc">   -261.93336067 </i>
    <i name="pawpsdc">  24802.70027196 </i>
    <i name="pawaedc"> -23781.49641235 </i>
    <i name="eentropy">      0.00000000 </i>
    <i name="bandstr">  -1851.34129488 </i>
    <i name="atom">  23855.56849199 </i>
    <i name="e_fr_energy">    -45.74130355 </i>
    <i name="e_wo_entrp">    -45.74130355 </i>
    <i name="e_0_energy">    -45.74130355 </i>
   </energy>
  </scstep>
  <structure>
   <crystal>
    <varray name="basis" >
     <v>      20.01753311       0.00000000       0.00000000 </v>
     <v>       0.00000000      20.01753311       0.00000000 </v>
     <v>       0.00000000       0.00000000      20.01753311 </v>
    </varray>
    <i name="volume">   8021.05818642 </i>
    <varray name="rec_basis" >
     <v>       0.04995621       0.00000000       0.00000000 </v>
     <v>       0.00000000       0.04995621       0.00000000 </v>
     <v>       0.00000000       0.00000000       0.04995621 </v>
    </varray>
   </crystal>
   <varray name="positions" >
    <v>       0.69726874       0.55104061       0.59522352 </v>
    <v>       0.66550203       0.45951182       0.49276203 </v>
    <v>       0.61991669       0.59273904       0.49040724 </v>
    <v>       0.62799611       0.44258855       0.62825114 </v>
    <v>       0.58836312       0.40125922       0.39535980 </v>
    <v>       0.65104214       0.67534093       0.60672237 </v>
    <v>       0.58292168       0.34196063       0.54778166 </v>
    <v>       0.49743572       0.42759171       0.66110882 </v>
    <v>       0.54918503       0.56738724       0.61472761 </v>
    <v>       0.55909531       0.53192752       0.37989069 </v>
    <v>       0.52612509       0.45927862       0.51768414 </v>
    <v>       0.47300716       0.58164424       0.49019943 </v>
    <v>       0.48377619       0.33164227       0.45269770 </v>
    <v>       0.53944458       0.69621667       0.53662463 </v>
    <v>       0.41478902       0.37779910       0.56431574 </v>
    <v>       0.42522321       0.65736198       0.60459632 </v>
    <v>       0.41280672       0.51817085       0.60555459 </v>
    <v>       0.53098114       0.66766216       0.39656847 </v>
    <v>       0.35495442       0.47930672       0.48584404 </v>
    <v>       0.44779147       0.45078888       0.38970121 </v>
    <v>       0.34197791       0.61470351       0.49914497 </v>
    <v>       0.35276299       0.35218995       0.44126489 </v>
    <v>       0.41510809       0.58599115       0.37007173 </v>
   </varray>
  </structure>
  <varray name="forces" >
   <v>       0.27625318       0.09777361       0.07535568 </v>
   <v>      -0.03019374       0.03054558      -0.00400638 </v>
   <v>      -0.11282403       0.08541676      -0.09772805 </v>
   <v>      -0.04020270      -0.02633837       0.06115842 </v>
   <v>      -0.09404819      -0.10091987       0.02044335 </v>
   <v>       0.10273699       0.11742441       0.10271212 </v>
   <v>       0.02505213      -0.11878570      -0.08052895 </v>
   <v>       0.04582102       0.03258348       0.02734810 </v>
   <v>       0.03691356       0.00953519      -0.07088513 </v>
   <v>      -0.02331356       0.15698290       0.11907311 </v>
   <v>      -0.02157684       0.10783913       0.03943553 </v>
   <v>       0.06974964      -0.02466942       0.22390925 </v>
   <v>       0.17492679      -0.21175916      -0.00835162 </v>
   <v>      -0.12038477       0.11985513      -0.02334480 </v>
   <v>      -0.08097856       0.10915974       0.02418041 </v>
   <v>       0.04056357      -0.16099942       0.02044458 </v>
   <v>       0.00357141       0.09340861      -0.10763074 </v>
   <v>       0.03932692      -0.12415316       0.02291369 </v>
   <v>       0.00958112       0.25802831      -0.08716969 </v>
   <v>       0.03612553      -0.14671171      -0.10223689 </v>
   <v>       0.01403783      -0.03980964       0.08465051 </v>
   <v>      -0.30140022      -0.12333841      -0.23951733 </v>
   <v>      -0.04973707      -0.14106801      -0.00022518 </v>
  </varray>
  <varray name="stress" >
   <v>      -1.25491754       0.18988964       0.23969207 </v>
   <v>       0.18988964      -1.35212769       0.31790415 </v>
   <v>       0.23969207       0.31790414      -1.50112974 </v>
  </varray>
  <energy>
   <i name="e_fr_energy">    -45.74130355 </i>
   <i name="e_wo_entrp">    -45.74130355 </i>
   <i name="e_0_energy">      0.00000000 </i>
  </energy>
  <time name="totalsc">   15.75   15.88</time>
 </calculation>
 <calculation>
  <scstep>
   <time name="dav">    2.13    2.13</time>
   <time name="total">    2.46    2.48</time>
   <energy>
    <i name="alphaZ">     56.09681267 </i>
    <i name="ewald">  40816.36827462 </i>
    <i name="hartreedc"> -63682.41505545 </i>
    <i name="XCdc">   -262.06871885 </i>
    <i name="pawpsdc">  24802.38206997 </i>
    <i name="pawaedc"> -23781.17560799 </i>
    <i name="eentropy">      0.00000000 </i>
    <i name="bandstr">  -1850.52059742 </i>
    <i name="atom">  23855.56849199 </i>
    <i name="e_fr_energy">    -45.76433046 </i>
    <i name="e_wo_entrp">    -45.76433046 </i>
    <i name="e_0_energy">    -45.76433046 </i>
   </energy>
  </scstep>
  <scstep>
   <time name="dav">    2.25    2.25</time>
   <time name="total">    2.58    2.58</time>
   <energy>
    <i name="e_fr_energy">    -45.76921666 </i>
    <i name="e_wo_entrp">    -45.76921666 </i>
    <i name="e_0_energy">    -45.76921666 </i>
   </energy>
  </scstep>
  <scstep>
   <time name="dav">    2.26    2.27</time>
   <time name="total">    2.50    2.50</time>
   <energy>
    <i name="alphaZ">     56.09681267 </i>
    <i name="ewald">  40816.36827462 </i>
    <i name="hartreedc"> -63683.11325465 </i>
    <i name="XCdc">   -262.04862694 </i>
    <i name="pawpsdc">  24792.47272531 </i>
    <i name="pawaedc"> -23771.10974340 </i>
    <i name="eentropy">      0.00000000 </i>
    <i name="bandstr">  -1850.00382384 </i>
    <i name="atom">  23855.56849199 </i>
    <i name="e_fr_energy">    -45.76914425 </i>
    <i name="e_wo_entrp">    -45.76914425 </i>
    <i name="e_0_energy">    -45.76914425 </i>
   </energy>
  </scstep>
  <structure>
   <crystal>
    <varray name="basis" >
     <v>      20.01753311       0.00000000       0.00000000 </v>
     <v>       0.00000000      20.01753311       0.00000000 </v>
     <v>       0.00000000       0.00000000      20.01753311 </v>
    </varray>
    <i name="volume">   8021.05818642 </i>
    <varray name="rec_basis" >
     <v>       0.04995621       0.00000000       0.00000000 </v>
     <v>       0.00000000       0.04995621       0.00000000 </v>
     <v>       0.00000000       0.00000000       0.04995621 </v>
    </varray>
   </crystal>
   <varray name="positions" >
    <v>       0.69799613       0.55132954       0.59534167 </v>
    <v>       0.66551302       0.45965813       0.49286516 </v>
    <v>       0.61986200       0.59302677       0.49043506 </v>
    <v>       0.62810267       0.44250659       0.62841773 </v>
    <v>       0.58815608       0.40112832       0.39521785 </v>
    <v>       0.65121081       0.67567471       0.60692361 </v>
    <v>       0.58301210       0.34166589       0.54761511 </v>
    <v>       0.49737186       0.42777366       0.66133539 </v>
    <v>       0.54944387       0.56747967       0.61462368 </v>
    <v>       0.55905008       0.53204011       0.37997684 </v>
    <v>       0.52616768       0.45929999       0.51780927 </v>
    <v>       0.47308500       0.58165789       0.49056387 </v>
    <v>       0.48385690       0.33106578       0.45265184 </v>
    <v>       0.53933662       0.69665308       0.53662665 </v>
    <v>       0.41443766       0.37806418       0.56415237 </v>
    <v>       0.42527300       0.65722609       0.60486142 </v>
    <v>       0.41275551       0.51803769       0.60541863 </v>
    <v>       0.53107345       0.66748559       0.39656187 </v>
    <v>       0.35501149       0.47968020       0.48556314 </v>
    <v>       0.44781996       0.45026965       0.38948578 </v>
    <v>       0.34184658       0.61471936       0.49928644 </v>
    <v>       0.35216403       0.35197209       0.44073571 </v>
    <v>       0.41492808       0.58568838       0.37003367 </v>
   </varray>
  </structure>
  <varray name="forces" >
   <v>       0.21451193       0.07787218       0.05772800 </v>
   <v>      -0.04637025       0.03466858      -0.00633973 </v>
   <v>      -0.08973411       0.07729319      -0.06760204 </v>
   <v>      -0.03273198       0.00169858       0.03100974 </v>
   <v>      -0.08584376      -0.07919022       0.03799285 </v>
   <v>       0.07931672       0.09489219       0.08084616 </v>
   <v>       0.02564628      -0.08031004      -0.07416170 </v>
   <v>       0.04380840       0.02479455       0.00615967 </v>
   <v>       0.04176057       0.00720929      -0.06247776 </v>
   <v>      -0.03238853       0.12289592       0.12293428 </v>
   <v>      -0.01483665       0.07153603       0.03755336 </v>
   <v>       0.04839965      -0.00337187       0.17710240 </v>
   <v>       0.10491919      -0.18808087       0.00204296 </v>
   <v>      -0.10124818       0.10137533      -0.01017565 </v>
   <v>      -0.06694507       0.10415629      -0.00092820 </v>
   <v>       0.04177506      -0.15578419       0.01896206 </v>
   <v>       0.00357798       0.09808752      -0.09731943 </v>
   <v>       0.02735792      -0.11587118       0.02526652 </v>
   <v>       0.01757978       0.19682699      -0.11666484 </v>
   <v>       0.03761752      -0.14019056      -0.08891851 </v>
   <v>       0.02854312      -0.02405950       0.08739655 </v>
   <v>      -0.21984340      -0.07703740      -0.20082623 </v>
   <v>      -0.02487221      -0.14941080       0.04041954 </v>
  </varray>
  <varray name="stress" >
   <v>      -1.39265530       0.17293231       0.20689409 </v>
   <v>       0.17293231      -1.46275339       0.30443294 </v>
   <v>       0.20689410       0.30443293      -1.60826721 </v>
  </varray>
  <energy>
   <i name="e_fr_energy">    -45.76914425 </i>
   <i name="e_wo_entrp">    -45.76914425 </i>
   <i name="e_0_energy">      0.00000000 </i>
  </energy>
  <time name="totalsc">   11.27   11.34</time>
 </calculation>
 <calculation>
  <scstep>
   <time name="dav">    2.13    2.13</time>
   <time name="total">    2.46    2.47</time>
   <energy>
    <i name="alphaZ">     56.09681267 </i>
    <i name="ewald">  40537.62720444 </i>
    <i name="hartreedc"> -63406.51891283 </i>
    <i name="XCdc">   -262.43409390 </i>
    <i name="pawpsdc">  24786.26817503 </i>
    <i name="pawaedc"> -23764.80347158 </i>
    <i name="eentropy">      0.00000000 </i>
    <i name="bandstr">  -1847.58247548 </i>
    <i name="atom">  23855.56849199 </i>
    <i name="e_fr_energy">    -45.77826966 </i>
    <i name="e_wo_entrp">    -45.77826966 </i>
    <i name="e_0_energy">    -45.77826966 </i>
   </energy>
  </scstep>
  <scstep>
   <time name="dav">    2.20    2.21</time>
   <time name="total">    2.54    2.54</time>
   <energy>
    <i name="e_fr_energy">    -45.82191075 </i>
    <i name="e_wo_entrp">    -45.82191075 </i>
    <i name="e_0_energy">    -45.82191075 </i>
   </energy>
  </scstep>
  <scstep>
   <time name="dav">    2.28    2.28</time>
   <time name="total">    2.62    2.81</time>
   <energy>
    <i name="e_fr_energy">    -45.82142210 </i>
    <i name="e_wo_entrp">    -45.82142210 </i>
    <i name="e_0_energy">    -45.82142210 </i>
   </energy>
  </scstep>
  <scstep>
   <time name="dav">    2.21    2.21</time>
   <time name="total">    2.54    2.54</time>
   <energy>
    <i name="e_fr_energy">    -45.82002453 </i>
    <i name="e_wo_entrp">    -45.82002453 </i>
    <i name="e_0_energy">    -45.82002453 </i>
   </energy>
  </scstep>
  <scstep>
   <time name="dav">    2.25    2.25</time>
   <time name="total">    2.48    2.49</time>
   <energy>
    <i name="alphaZ">     56.09681267 </i>
    <i name="ewald">  40537.62720444 </i>
    <i name="hartreedc"> -63409.72984001 </i>
    <i name="XCdc">   -262.35270561 </i>
    <i name="pawpsdc">  24732.32108823 </i>
    <i name="pawaedc"> -23709.94352640 </i>
    <i name="eentropy">      0.00000000 </i>
    <i name="bandstr">  -1845.40756370 </i>
    <i name="atom">  23855.56849199 </i>
    <i name="e_fr_energy">    -45.82003839 </i>
    <i name="e_wo_entrp">    -45.82003839 </i>
    <i name="e_0_energy">    -45.82003839 </i>
   </energy>
  </scstep>
  <structure>
   <crystal>
    <varray name="basis" >
     <v>      20.01753311       0.00000000       0.00000000 </v>
     <v>       0.00000000      20.01753311       0.00000000 </v>
     <v>       0.00000000       0.00000000      20.01753311 </v>
    </varray>
    <i name="volume">   8021.05818642 </i>
    <varray name="rec_basis" >
     <v>       0.04995621       0.00000000       0.00000000 </v>
     <v>       0.00000000       0.04995621       0.00000000 </v>
     <v>       0.00000000       0.00000000       0.04995621 </v>
    </varray>
   </crystal>
   <varray name="positions" >
    <v>       0.70017833       0.55219635       0.59569610 </v>
    <v>       0.66554599       0.46009707       0.49317455 </v>
    <v>       0.61969792       0.59388995       0.49051853 </v>
    <v>       0.62842235       0.44226071       0.62891749 </v>
    <v>       0.58753495       0.40073564       0.39479199 </v>
    <v>       0.65171685       0.67667604       0.60752732 </v>
    <v>       0.58328333       0.34078166       0.54711543 </v>
    <v>       0.49718027       0.42831949       0.66201511 </v>
    <v>       0.55022041       0.56775695       0.61431189 </v>
    <v>       0.55891436       0.53237788       0.38023529 </v>
    <v>       0.52629544       0.45936412       0.51818465 </v>
    <v>       0.47331850       0.58169883       0.49165719 </v>
    <v>       0.48409903       0.32933631       0.45251423 </v>
    <v>       0.53901274       0.69796231       0.53663272 </v>
    <v>       0.41338358       0.37885940       0.56366226 </v>
    <v>       0.42542239       0.65681843       0.60565673 </v>
    <v>       0.41260187       0.51763822       0.60501074 </v>
    <v>       0.53135037       0.66695588       0.39654206 </v>
    <v>       0.35518268       0.48080066       0.48472041 </v>
    <v>       0.44790543       0.44871194       0.38883951 </v>
    <v>       0.34145258       0.61476693       0.49971085 </v>
    <v>       0.35036715       0.35131852       0.43914817 </v>
    <v>       0.41438806       0.58478005       0.36991950 </v>
   </varray>
  </structure>
  <varray name="forces" >
   <v>       0.04327388       0.02764322       0.01139236 </v>
   <v>      -0.09316474       0.04513224      -0.01060451 </v>
   <v>      -0.03551913       0.05585204       0.00417389 </v>
   <v>      -0.02612325       0.07266835      -0.05193181 </v>
   <v>      -0.06901500      -0.02339843       0.09249586 </v>
   <v>       0.01505916       0.02496024       0.02003117 </v>
   <v>       0.02650126       0.02395164      -0.06309924 </v>
   <v>       0.04596842       0.00354268      -0.05537745 </v>
   <v>       0.05197491      -0.00135282      -0.04077822 </v>
   <v>      -0.05809164       0.02971727       0.13916362 </v>
   <v>       0.00504785      -0.02315095       0.03413105 </v>
   <v>      -0.01189542       0.05596670       0.03993432 </v>
   <v>      -0.06371796      -0.10492329       0.02717216 </v>
   <v>      -0.05153995       0.03859207       0.02268977 </v>
   <v>      -0.02065717       0.08483893      -0.05970095 </v>
   <v>       0.04627771      -0.14893179       0.00680735 </v>
   <v>       0.00327968       0.12110920      -0.07058467 </v>
   <v>       0.00279538      -0.09423834       0.03570185 </v>
   <v>       0.04045471       0.03602412      -0.19326825 </v>
   <v>       0.03912368      -0.11540674      -0.05102734 </v>
   <v>       0.07224952       0.01921180       0.09947431 </v>
   <v>      -0.00460126       0.04724909      -0.08859962 </v>
   <v>       0.04231934      -0.17505723       0.15180434 </v>
  </varray>
  <varray name="stress" >
   <v>      -1.75118758       0.12501764       0.11610508 </v>
   <v>       0.12501764      -1.73915156       0.26652676 </v>
   <v>       0.11610509       0.26652676      -1.87542494 </v>
  </varray>
  <energy>
   <i name="e_fr_energy">    -45.82003839 </i>
   <i name="e_wo_entrp">    -45.82003839 </i>
   <i name="e_0_energy">      0.00000000 </i>
  </energy>
  <time name="totalsc">   16.37   16.70</time>
 </calculation>
 <calculation>
  <scstep>
   <time name="dav">    2.13    2.13</time>
   <time name="total">    2.46    2.48</time>
   <energy>
    <i name="alphaZ">     56.09681267 </i>
    <i name="ewald">  39985.12170930 </i>
    <i name="hartreedc"> -62860.40855891 </i>
    <i name="XCdc">   -263.07838136 </i>
    <i name="pawpsdc">  24732.13112788 </i>
    <i name="pawaedc"> -23709.74137690 </i>
    <i name="eentropy">      0.00000000 </i>
    <i name="bandstr">  -1841.31156587 </i>
    <i name="atom">  23855.56849199 </i>
    <i name="e_fr_energy">    -45.62174122 </i>
    <i name="e_wo_entrp">    -45.62174122 </i>
    <i name="e_0_energy">    -45.62174122 </i>
   </energy>
  </scstep>
  <scstep>
   <time name="dav">    2.23    2.23</time>
   <time name="total">    2.56    2.57</time>
   <energy>
    <i name="e_fr_energy">    -45.80086536 </i>
    <i name="e_wo_entrp">    -45.80086536 </i>
    <i name="e_0_energy">    -45.80086536 </i>
   </energy>
  </scstep>
  <scstep>
   <time name="dav">    2.36    2.36</time>
   <time name="total">    2.69    2.69</time>
   <energy>
    <i name="e_fr_energy">    -45.80013124 </i>
    <i name="e_wo_entrp">    -45.80013124 </i>
    <i name="e_0_energy">    -45.80013124 </i>
   </energy>
  </scstep>
  <scstep>
   <time name="dav">    2.23    2.23</time>
   <time name="total">    2.56    2.86</time>
   <energy>
    <i name="e_fr_energy">    -45.79522270 </i>
    <i name="e_wo_entrp">    -45.79522270 </i>
    <i name="e_0_energy">    -45.79522270 </i>
   </energy>
  </scstep>
  <scstep>
   <time name="dav">    2.21    2.21</time>
   <time name="total">    2.54    2.56</time>
   <energy>
    <i name="e_fr_energy">    -45.79486054 </i>
    <i name="e_wo_entrp">    -45.79486054 </i>
    <i name="e_0_energy">    -45.79486054 </i>
   </energy>
  </scstep>
  <scstep>
   <time name="dav">    1.71    1.71</time>
   <time name="total">    1.94    1.96</time>
   <energy>
    <i name="alphaZ">     56.09681267 </i>
    <i name="ewald">  39985.12170930 </i>
    <i name="hartreedc"> -62866.26333095 </i>
    <i name="XCdc">   -262.92794082 </i>
    <i name="pawpsdc">  24642.43528902 </i>
    <i name="pawaedc"> -23618.47289356 </i>
    <i name="eentropy">      0.00000000 </i>
    <i name="bandstr">  -1837.35305737 </i>
    <i name="atom">  23855.56849199 </i>
    <i name="e_fr_energy">    -45.79491972 </i>
    <i name="e_wo_entrp">    -45.79491972 </i>
    <i name="e_0_energy">    -45.79491972 </i>
   </energy>
  </scstep>
  <structure>
   <crystal>
    <varray name="basis" >
     <v>      20.01753311       0.00000000       0.00000000 </v>
     <v>       0.00000000      20.01753311       0.00000000 </v>
     <v>       0.00000000       0.00000000      20.01753311 </v>
    </varray>
    <i name="volume">   8021.05818642 </i>
    <varray name="rec_basis" >
     <v>       0.04995621       0.00000000       0.00000000 </v>
     <v>       0.00000000       0.04995621       0.00000000 </v>
     <v>       0.00000000       0.00000000       0.04995621 </v>
    </varray>
   </crystal>
   <varray name="positions" >
    <v>       0.70454271       0.55392996       0.59640497 </v>
    <v>       0.66561192       0.46097494       0.49379333 </v>
    <v>       0.61936976       0.59561633       0.49068548 </v>
    <v>       0.62906171       0.44176897       0.62991701 </v>
    <v>       0.58629269       0.39995027       0.39394028 </v>
    <v>       0.65272893       0.67867871       0.60873474 </v>
    <v>       0.58382581       0.33901320       0.54611609 </v>
    <v>       0.49679708       0.42941116       0.66337454 </v>
    <v>       0.55177348       0.56831151       0.61368831 </v>
    <v>       0.55864293       0.53305342       0.38075220 </v>
    <v>       0.52655096       0.45949237       0.51893543 </v>
    <v>       0.47378552       0.58178072       0.49384383 </v>
    <v>       0.48458328       0.32587738       0.45223901 </v>
    <v>       0.53836497       0.70058078       0.53664485 </v>
    <v>       0.41127541       0.38044986       0.56268204 </v>
    <v>       0.42572116       0.65600311       0.60724734 </v>
    <v>       0.41229459       0.51683928       0.60419498 </v>
    <v>       0.53190422       0.66589645       0.39650245 </v>
    <v>       0.35552507       0.48304157       0.48303496 </v>
    <v>       0.44807637       0.44559653       0.38754697 </v>
    <v>       0.34066458       0.61486207       0.50055968 </v>
    <v>       0.34677340       0.35001137       0.43597309 </v>
    <v>       0.41330800       0.58296340       0.36969115 </v>
   </varray>
  </structure>
  <varray name="forces" >
   <v>      -0.24232767      -0.03841404      -0.07880284 </v>
   <v>      -0.17278193       0.06582600      -0.00562152 </v>
   <v>       0.06587982       0.01274721       0.11824561 </v>
   <v>      -0.03244167       0.16897667      -0.18670953 </v>
   <v>      -0.03774393       0.06889835       0.18514140 </v>
   <v>      -0.09095443      -0.10657502      -0.09356033 </v>
   <v>       0.02835718       0.21206139      -0.04858470 </v>
   <v>       0.05917873      -0.02959396      -0.16276208 </v>
   <v>       0.07603229      -0.01711128       0.01228748 </v>
   <v>      -0.10206703      -0.16872133       0.16609470 </v>
   <v>       0.04591175      -0.19446534       0.03515296 </v>
   <v>      -0.11288023       0.17986533      -0.18314815 </v>
   <v>      -0.30401142       0.05046981       0.06101737 </v>
   <v>       0.03118949      -0.07863840       0.07559542 </v>
   <v>       0.05438344       0.03627030      -0.16626966 </v>
   <v>       0.05436537      -0.13892498      -0.01106661 </v>
   <v>      -0.00558377       0.17414776      -0.01307412 </v>
   <v>      -0.06261288      -0.01819896       0.05522040 </v>
   <v>       0.08635672      -0.25388157      -0.33750443 </v>
   <v>       0.02087300      -0.06672587       0.02424633 </v>
   <v>       0.15188452       0.11853593       0.12595017 </v>
   <v>       0.32402969       0.23610510       0.09057459 </v>
   <v>       0.16496295      -0.21265312       0.33757755 </v>
  </varray>
  <varray name="stress" >
   <v>      -2.34902108       0.03048952      -0.04134086 </v>
   <v>       0.03048952      -2.18195659       0.19824124 </v>
   <v>      -0.04134085       0.19824124      -2.30795525 </v>
  </varray>
  <energy>
   <i name="e_fr_energy">    -45.79491972 </i>
   <i name="e_wo_entrp">    -45.79491972 </i>
   <i name="e_0_energy">      0.00000000 </i>
  </energy>
  <time name="totalsc">   18.49   18.89</time>
 </calculation>
 <calculation>
  <scstep>
   <time name="dav">    2.13    2.13</time>
   <time name="total">    2.46    2.47</time>
   <energy>
    <i name="alphaZ">     56.09681267 </i>
    <i name="ewald">  40328.34178223 </i>
    <i name="hartreedc"> -63208.07691472 </i>
    <i name="XCdc">   -262.46389069 </i>
    <i name="pawpsdc">  24643.44028998 </i>
    <i name="pawaedc"> -23619.46820516 </i>
    <i name="eentropy">      0.00000000 </i>
    <i name="bandstr">  -1839.19822032 </i>
    <i name="atom">  23855.56849199 </i>
    <i name="e_fr_energy">    -45.75985403 </i>
    <i name="e_wo_entrp">    -45.75985403 </i>
    <i name="e_0_energy">    -45.75985403 </i>
   </energy>
  </scstep>
  <scstep>
   <time name="dav">    2.23    2.23</time>
   <time name="total">    2.56    2.56</time>
   <energy>
    <i name="e_fr_energy">    -45.83140549 </i>
    <i name="e_wo_entrp">    -45.83140549 </i>
    <i name="e_0_energy">    -45.83140549 </i>
   </energy>
  </scstep>
  <scstep>
   <time name="dav">    2.30    2.30</time>
   <time name="total">    2.64    2.69</time>
   <energy>
    <i name="e_fr_energy">    -45.83040760 </i>
    <i name="e_wo_entrp">    -45.83040760 </i>
    <i name="e_0_energy">    -45.83040760 </i>
   </energy>
  </scstep>
  <scstep>
   <time name="dav">    2.21    2.21</time>
   <time name="total">    2.54    2.55</time>
   <energy>
    <i name="e_fr_energy">    -45.82914258 </i>
    <i name="e_wo_entrp">    -45.82914258 </i>
    <i name="e_0_energy">    -45.82914258 </i>
   </energy>
  </scstep>
  <scstep>
   <time name="dav">    2.24    2.25</time>
   <time name="total">    2.58    2.63</time>
   <energy>
    <i name="e_fr_energy">    -45.82928174 </i>
    <i name="e_wo_entrp">    -45.82928174 </i>
    <i name="e_0_energy">    -45.82928174 </i>
   </energy>
  </scstep>
  <scstep>
   <time name="dav">    1.64    1.64</time>
   <time name="total">    1.88    1.91</time>
   <energy>
    <i name="alphaZ">     56.09681267 </i>
    <i name="ewald">  40328.34178223 </i>
    <i name="hartreedc"> -63204.43282196 </i>
[...]
       <r>    -0.7619     0.0000   141.0000 </r>
       <r>    -0.7231     0.0000   141.0000 </r>
       <r>    -0.6842     0.0000   142.0000 </r>
       <r>    -0.6454     0.0000   142.0000 </r>
       <r>    -0.6065     0.0000   143.0000 </r>
       <r>    -0.5676     0.0000   143.0000 </r>
       <r>    -0.5288     0.0000   144.0000 </r>
       <r>    -0.4899     0.0000   144.0000 </r>
       <r>    -0.4511     0.0000   145.0000 </r>
       <r>    -0.4122     0.0000   146.0000 </r>
       <r>    -0.3733     0.0000   146.0000 </r>
       <r>    -0.3345     0.0000   146.0000 </r>
       <r>    -0.2956     0.0000   146.0000 </r>
       <r>    -0.2568     0.0000   146.0000 </r>
       <r>    -0.2179     0.0000   147.0000 </r>
       <r>    -0.1790     0.0000   148.0000 </r>
       <r>    -0.1402     0.0000   148.0000 </r>
       <r>    -0.1013     0.0000   148.0000 </r>
       <r>    -0.0625     0.0000   149.0000 </r>
       <r>    -0.0236     0.0000   149.0000 </r>
       <r>     0.0153     0.0000   149.0000 </r>
       <r>     0.0541     0.0000   149.0000 </r>
       <r>     0.0930     0.0000   149.0000 </r>
       <r>     0.1318     0.0000   149.0000 </r>
       <r>     0.1707     0.0000   149.0000 </r>
       <r>     0.2096     0.0000   149.0000 </r>
       <r>     0.2484     0.0000   150.0000 </r>
       <r>     0.2873     0.0000   150.0000 </r>
       <r>     0.3261     0.0000   150.0000 </r>
       <r>     0.3650     0.0000   150.0000 </r>
       <r>     0.4038     0.0000   151.0000 </r>
       <r>     0.4427     0.0000   151.0000 </r>
       <r>     0.4816     0.0000   151.0000 </r>
       <r>     0.5204     0.0000   152.0000 </r>
       <r>     0.5593     0.0000   152.0000 </r>
       <r>     0.5981     0.0000   153.0000 </r>
       <r>     0.6370     0.0000   153.0000 </r>
       <r>     0.6759     0.0000   154.0000 </r>
       <r>     0.7147     0.0000   155.0000 </r>
       <r>     0.7536     0.0000   155.0000 </r>
       <r>     0.7924     0.0000   157.0000 </r>
       <r>     0.8313     0.0000   158.0000 </r>
       <r>     0.8702     0.0000   159.0000 </r>
       <r>     0.9090     0.0000   159.0000 </r>
       <r>     0.9479     0.0000   161.0000 </r>
       <r>     0.9867     0.0000   161.0000 </r>
       <r>     1.0256     0.0000   163.0000 </r>
       <r>     1.0645     0.0000   164.0000 </r>
       <r>     1.1033     0.0000   164.0000 </r>
       <r>     1.1422     0.0000   164.0000 </r>
       <r>     1.1810     0.0000   164.0000 </r>
       <r>     1.2199     0.0000   164.0000 </r>
       <r>     1.2588     0.0000   164.0000 </r>
       <r>     1.2976     0.0000   164.0000 </r>
       <r>     1.3365     0.0000   164.0000 </r>
       <r>     1.3753     0.0000   164.0000 </r>
       <r>     1.4142     0.0000   164.0000 </r>
       <r>     1.4530     0.0000   164.0000 </r>
       <r>     1.4919     0.0000   164.0000 </r>
       <r>     1.5308     0.0000   164.0000 </r>
       <r>     1.5696     0.0000   164.0000 </r>
       <r>     1.6085     0.0000   164.0000 </r>
      </set>
      <set comment="spin 2">
       <r>   -10.0493     0.0000     0.0000 </r>
       <r>   -10.0104     0.0000     0.0000 </r>
       <r>    -9.9716     0.0000     0.0000 </r>
       <r>    -9.9327     0.0000     0.0000 </r>
       <r>    -9.8939     0.0000     0.0000 </r>
       <r>    -9.8550     0.0000     0.0000 </r>
       <r>    -9.8161     0.0000     0.0000 </r>
       <r>    -9.7773     0.0000     0.0000 </r>
       <r>    -9.7384     0.0000     0.0000 </r>
       <r>    -9.6996     0.0000     0.0000 </r>
       <r>    -9.6607     0.0000     0.0000 </r>
       <r>    -9.6218     0.0000     0.0000 </r>
       <r>    -9.5830     0.0000     0.0000 </r>
       <r>    -9.5441     0.0000     0.0000 </r>
       <r>    -9.5053     0.0000     0.0000 </r>
       <r>    -9.4664     0.0000     1.0000 </r>
       <r>    -9.4275     0.0000     1.0000 </r>
       <r>    -9.3887     0.0000     1.0000 </r>
       <r>    -9.3498     0.0000     1.0000 </r>
       <r>    -9.3110     0.0000     1.0000 </r>
       <r>    -9.2721     0.0000     1.0000 </r>
       <r>    -9.2332     0.0000     1.0000 </r>
       <r>    -9.1944     0.0000     1.0000 </r>
       <r>    -9.1555     0.0000     1.0000 </r>
       <r>    -9.1167     0.0000     2.0000 </r>
       <r>    -9.0778     0.0000     2.0000 </r>
       <r>    -9.0389     0.0000     3.0000 </r>
       <r>    -9.0001     0.0000     4.0000 </r>
       <r>    -8.9612     0.0000     4.0000 </r>
       <r>    -8.9224     0.0000     6.0000 </r>
       <r>    -8.8835     0.0000     6.0000 </r>
       <r>    -8.8447     0.0000     8.0000 </r>
       <r>    -8.8058     0.0000     9.0000 </r>
       <r>    -8.7669     0.0000    10.0000 </r>
       <r>    -8.7281     0.0000    11.0000 </r>
       <r>    -8.6892     0.0000    12.0000 </r>
       <r>    -8.6504     0.0000    12.0000 </r>
       <r>    -8.6115     0.0000    13.0000 </r>
       <r>    -8.5726     0.0000    15.0000 </r>
       <r>    -8.5338    25.7339    17.0000 </r>
       <r>    -8.4949     0.0000    17.0000 </r>
       <r>    -8.4561     0.0000    19.0000 </r>
       <r>    -8.4172     0.0000    21.0000 </r>
       <r>    -8.3783     0.0000    21.0000 </r>
       <r>    -8.3395     0.0000    22.0000 </r>
       <r>    -8.3006     0.0000    25.0000 </r>
       <r>    -8.2618     0.0000    26.0000 </r>
       <r>    -8.2229     0.0000    27.0000 </r>
       <r>    -8.1840     0.0000    29.0000 </r>
       <r>    -8.1452     0.0000    31.0000 </r>
       <r>    -8.1063     0.0000    33.0000 </r>
       <r>    -8.0675     0.0000    34.0000 </r>
       <r>    -8.0286     0.0000    36.0000 </r>
       <r>    -7.9897     0.0000    37.0000 </r>
       <r>    -7.9509     0.0000    38.0000 </r>
       <r>    -7.9120     0.0000    39.0000 </r>
       <r>    -7.8732     0.0000    40.0000 </r>
       <r>    -7.8343     0.0000    42.0000 </r>
       <r>    -7.7955     0.0000    44.0000 </r>
       <r>    -7.7566     0.0000    45.0000 </r>
       <r>    -7.7177     0.0000    47.0000 </r>
       <r>    -7.6789     0.0484    48.0019 </r>
       <r>    -7.6400     0.0000    49.0000 </r>
       <r>    -7.6012     0.0001    50.0000 </r>
       <r>    -7.5623     0.1149    52.0045 </r>
       <r>    -7.5234    25.7339    55.0000 </r>
       <r>    -7.4846     0.0000    56.0000 </r>
       <r>    -7.4457     0.0000    56.0000 </r>
       <r>    -7.4069     0.0000    57.0000 </r>
       <r>    -7.3680     0.0000    60.0000 </r>
       <r>    -7.3291     0.0000    62.0000 </r>
       <r>    -7.2903     0.0000    62.0000 </r>
       <r>    -7.2514     0.0000    63.0000 </r>
       <r>    -7.2126     0.0000    65.0000 </r>
       <r>    -7.1737     0.0000    65.0000 </r>
       <r>    -7.1348     0.0000    67.0000 </r>
       <r>    -7.0960     0.0000    68.0000 </r>
       <r>    -7.0571     0.0000    70.0000 </r>
       <r>    -7.0183     0.0000    73.0000 </r>
       <r>    -6.9794     0.0000    75.0000 </r>
       <r>    -6.9405     0.0000    78.0000 </r>
       <r>    -6.9017     0.0000    80.0000 </r>
       <r>    -6.8628     0.0000    82.0000 </r>
       <r>    -6.8240     0.0000    85.0000 </r>
       <r>    -6.7851     0.0000    88.0000 </r>
       <r>    -6.7463     0.0000    91.0000 </r>
       <r>    -6.7074    25.7339    93.0000 </r>
       <r>    -6.6685     0.0000    95.0000 </r>
       <r>    -6.6297     0.0000    97.0000 </r>
       <r>    -6.5908     0.0000    99.0000 </r>
       <r>    -6.5520     0.0000   101.0000 </r>
       <r>    -6.5131     0.0000   103.0000 </r>
       <r>    -6.4742    25.7339   107.0000 </r>
       <r>    -6.4354    25.5673   108.9935 </r>
       <r>    -6.3965     0.0000   110.0000 </r>
       <r>    -6.3577     0.0000   113.0000 </r>
       <r>    -6.3188     0.0000   114.0000 </r>
       <r>    -6.2799     0.0000   116.0000 </r>
       <r>    -6.2411     0.0000   117.0000 </r>
       <r>    -6.2022     0.0000   117.0000 </r>
       <r>    -6.1634     0.0000   118.0000 </r>
       <r>    -6.1245     0.0000   118.0000 </r>
       <r>    -6.0856     0.0000   119.0000 </r>
       <r>    -6.0468     0.0000   119.0000 </r>
       <r>    -6.0079     0.0000   119.0000 </r>
       <r>    -5.9691     0.0000   119.0000 </r>
       <r>    -5.9302     0.0000   119.0000 </r>
       <r>    -5.8913     0.0000   119.0000 </r>
       <r>    -5.8525     0.0000   119.0000 </r>
       <r>    -5.8136     0.0000   119.0000 </r>
       <r>    -5.7748     0.0000   119.0000 </r>
       <r>    -5.7359     0.0000   119.0000 </r>
       <r>    -5.6971     0.0000   119.0000 </r>
       <r>    -5.6582     0.0000   119.0000 </r>
       <r>    -5.6193     0.0000   119.0000 </r>
       <r>    -5.5805     0.0000   119.0000 </r>
       <r>    -5.5416     0.0000   119.0000 </r>
       <r>    -5.5028     0.0000   119.0000 </r>
       <r>    -5.4639     0.0000   119.0000 </r>
       <r>    -5.4250     0.0000   120.0000 </r>
       <r>    -5.3862     0.0000   120.0000 </r>
       <r>    -5.3473     0.0000   120.0000 </r>
       <r>    -5.3085     0.0000   120.0000 </r>
       <r>    -5.2696     0.0000   120.0000 </r>
       <r>    -5.2307     0.0000   120.0000 </r>
       <r>    -5.1919     0.0000   120.0000 </r>
       <r>    -5.1530     0.0000   120.0000 </r>
       <r>    -5.1142     0.0000   121.0000 </r>
       <r>    -5.0753     0.0000   121.0000 </r>
       <r>    -5.0364     0.0000   121.0000 </r>
       <r>    -4.9976     0.0000   121.0000 </r>
       <r>    -4.9587     0.0000   122.0000 </r>
       <r>    -4.9199     0.0000   122.0000 </r>
       <r>    -4.8810     0.0000   122.0000 </r>
       <r>    -4.8421     0.0000   122.0000 </r>
       <r>    -4.8033     0.0000   122.0000 </r>
       <r>    -4.7644     0.0000   122.0000 </r>
       <r>    -4.7256     0.0000   122.0000 </r>
       <r>    -4.6867     0.0000   122.0000 </r>
       <r>    -4.6479     0.0000   122.0000 </r>
       <r>    -4.6090     0.0000   122.0000 </r>
       <r>    -4.5701     0.0000   122.0000 </r>
       <r>    -4.5313     0.0000   122.0000 </r>
       <r>    -4.4924     0.0000   122.0000 </r>
       <r>    -4.4536     0.0000   123.0000 </r>
       <r>    -4.4147     0.0000   123.0000 </r>
       <r>    -4.3758     0.0000   123.0000 </r>
       <r>    -4.3370     0.0000   123.0000 </r>
       <r>    -4.2981     0.0000   124.0000 </r>
       <r>    -4.2593     0.0000   124.0000 </r>
       <r>    -4.2204     0.0000   124.0000 </r>
       <r>    -4.1815     0.0000   124.0000 </r>
       <r>    -4.1427     0.0000   124.0000 </r>
       <r>    -4.1038     0.0000   124.0000 </r>
       <r>    -4.0650     0.0000   124.0000 </r>
       <r>    -4.0261     0.0000   124.0000 </r>
       <r>    -3.9872     0.0000   124.0000 </r>
       <r>    -3.9484     0.0000   124.0000 </r>
       <r>    -3.9095     0.0000   124.0000 </r>
       <r>    -3.8707     0.0000   125.0000 </r>
       <r>    -3.8318     0.0000   125.0000 </r>
       <r>    -3.7930     0.0000   125.0000 </r>
       <r>    -3.7541     0.0000   125.0000 </r>
       <r>    -3.7152     0.0000   125.0000 </r>
       <r>    -3.6764     0.0000   125.0000 </r>
       <r>    -3.6375     0.0000   125.0000 </r>
       <r>    -3.5987     0.0000   125.0000 </r>
       <r>    -3.5598     0.0000   126.0000 </r>
       <r>    -3.5209     0.0000   126.0000 </r>
       <r>    -3.4821     0.0000   126.0000 </r>
       <r>    -3.4432     0.0000   126.0000 </r>
       <r>    -3.4044     0.0000   126.0000 </r>
       <r>    -3.3655     0.0000   126.0000 </r>
       <r>    -3.3266     0.0000   127.0000 </r>
       <r>    -3.2878     0.0000   127.0000 </r>
       <r>    -3.2489     0.0000   127.0000 </r>
       <r>    -3.2101     0.0000   127.0000 </r>
       <r>    -3.1712     0.0000   127.0000 </r>
       <r>    -3.1323     0.0000   127.0000 </r>
       <r>    -3.0935     0.0000   127.0000 </r>
       <r>    -3.0546     0.0000   127.0000 </r>
       <r>    -3.0158     0.0000   127.0000 </r>
       <r>    -2.9769     0.0000   127.0000 </r>
       <r>    -2.9380     0.0000   127.0000 </r>
       <r>    -2.8992     0.0000   128.0000 </r>
       <r>    -2.8603     0.0000   128.0000 </r>
       <r>    -2.8215     0.0000   129.0000 </r>
       <r>    -2.7826     0.0000   129.0000 </r>
       <r>    -2.7438     0.0000   129.0000 </r>
       <r>    -2.7049     0.0000   130.0000 </r>
       <r>    -2.6660     0.0000   130.0000 </r>
       <r>    -2.6272     0.0000   130.0000 </r>
       <r>    -2.5883     0.0000   130.0000 </r>
       <r>    -2.5495     0.0000   130.0000 </r>
       <r>    -2.5106     0.0000   131.0000 </r>
       <r>    -2.4717     0.0000   131.0000 </r>
       <r>    -2.4329     0.0000   131.0000 </r>
       <r>    -2.3940    25.7332   132.0000 </r>
       <r>    -2.3552     0.0000   132.0000 </r>
       <r>    -2.3163     0.0000   132.0000 </r>
       <r>    -2.2774     0.0000   132.0000 </r>
       <r>    -2.2386     0.0000   132.0000 </r>
       <r>    -2.1997     0.0000   133.0000 </r>
       <r>    -2.1609     0.0000   133.0000 </r>
       <r>    -2.1220     0.0000   133.0000 </r>
       <r>    -2.0831     0.0000   133.0000 </r>
       <r>    -2.0443     0.0000   133.0000 </r>
       <r>    -2.0054     0.0000   133.0000 </r>
       <r>    -1.9666     0.0000   133.0000 </r>
       <r>    -1.9277     0.0000   134.0000 </r>
       <r>    -1.8888     0.0000   134.0000 </r>
       <r>    -1.8500     0.0000   135.0000 </r>
       <r>    -1.8111     0.0000   135.0000 </r>
       <r>    -1.7723     0.0000   135.0000 </r>
       <r>    -1.7334     0.0000   135.0000 </r>
       <r>    -1.6946     0.0000   135.0000 </r>
       <r>    -1.6557     0.0000   136.0000 </r>
       <r>    -1.6168     0.0000   136.0000 </r>
       <r>    -1.5780     0.0000   136.0000 </r>
       <r>    -1.5391     0.0000   136.0000 </r>
       <r>    -1.5003     0.0000   137.0000 </r>
       <r>    -1.4614     0.0000   137.0000 </r>
       <r>    -1.4225     0.0000   137.0000 </r>
       <r>    -1.3837     0.0000   137.0000 </r>
       <r>    -1.3448     0.0000   137.0000 </r>
       <r>    -1.3060     0.0000   137.0000 </r>
       <r>    -1.2671     0.0000   137.0000 </r>
       <r>    -1.2282     0.0000   138.0000 </r>
       <r>    -1.1894     0.0000   138.0000 </r>
       <r>    -1.1505     0.0000   139.0000 </r>
       <r>    -1.1117     0.0000   139.0000 </r>
       <r>    -1.0728     0.0000   139.0000 </r>
       <r>    -1.0339     0.0000   139.0000 </r>
       <r>    -0.9951     0.0000   140.0000 </r>
       <r>    -0.9562     0.0000   140.0000 </r>
       <r>    -0.9174     0.0000   140.0000 </r>
       <r>    -0.8785     0.0000   140.0000 </r>
       <r>    -0.8396     0.0000   141.0000 </r>
       <r>    -0.8008     0.0000   141.0000 </r>
       <r>    -0.7619     0.0000   141.0000 </r>
       <r>    -0.7231     0.0000   141.0000 </r>
       <r>    -0.6842     0.0000   141.0000 </r>
       <r>    -0.6454     0.0000   142.0000 </r>
       <r>    -0.6065     0.0000   142.0000 </r>
       <r>    -0.5676     0.0000   143.0000 </r>
       <r>    -0.5288     0.0000   143.0000 </r>
       <r>    -0.4899     0.0000   144.0000 </r>
       <r>    -0.4511     0.0000   145.0000 </r>
       <r>    -0.4122     0.0000   145.0000 </r>
       <r>    -0.3733     0.0000   146.0000 </r>
       <r>    -0.3345     0.0000   146.0000 </r>
       <r>    -0.2956     0.0000   146.0000 </r>
       <r>    -0.2568     0.0000   146.0000 </r>
       <r>    -0.2179     0.0000   146.0000 </r>
       <r>    -0.1790     0.0000   147.0000 </r>
       <r>    -0.1402     0.0000   148.0000 </r>
       <r>    -0.1013     0.0000   148.0000 </r>
       <r>    -0.0625     0.0000   148.0000 </r>
       <r>    -0.0236     0.0000   148.0000 </r>
       <r>     0.0153     0.0000   149.0000 </r>
       <r>     0.0541     0.0000   149.0000 </r>
       <r>     0.0930     0.0000   149.0000 </r>
       <r>     0.1318     0.0000   149.0000 </r>
       <r>     0.1707     0.0000   149.0000 </r>
       <r>     0.2096     0.0000   149.0000 </r>
       <r>     0.2484     0.0000   149.0000 </r>
       <r>     0.2873     0.0000   150.0000 </r>
       <r>     0.3261     0.0000   150.0000 </r>
       <r>     0.3650     0.0000   150.0000 </r>
       <r>     0.4038     0.0000   150.0000 </r>
       <r>     0.4427     0.0000   150.0000 </r>
       <r>     0.4816     0.0000   151.0000 </r>
       <r>     0.5204     0.0000   151.0000 </r>
       <r>     0.5593     0.0000   152.0000 </r>
       <r>     0.5981     0.0000   153.0000 </r>
       <r>     0.6370     0.0000   153.0000 </r>
       <r>     0.6759     0.0000   153.0000 </r>
       <r>     0.7147     0.0000   154.0000 </r>
       <r>     0.7536     0.0000   155.0000 </r>
       <r>     0.7924     0.0000   156.0000 </r>
       <r>     0.8313     0.0000   158.0000 </r>
       <r>     0.8702     0.0000   158.0000 </r>
       <r>     0.9090     0.0000   159.0000 </r>
       <r>     0.9479     0.0000   159.0000 </r>
       <r>     0.9867     0.0000   161.0000 </r>
       <r>     1.0256     0.0000   162.0000 </r>
       <r>     1.0645     0.0000   163.0000 </r>
       <r>     1.1033     0.0000   164.0000 </r>
       <r>     1.1422     0.0000   164.0000 </r>
       <r>     1.1810     0.0000   164.0000 </r>
       <r>     1.2199     0.0000   164.0000 </r>
       <r>     1.2588     0.0000   164.0000 </r>
       <r>     1.2976     0.0000   164.0000 </r>
       <r>     1.3365     0.0000   164.0000 </r>
       <r>     1.3753     0.0000   164.0000 </r>
       <r>     1.4142     0.0000   164.0000 </r>
       <r>     1.4530     0.0000   164.0000 </r>
       <r>     1.4919     0.0000   164.0000 </r>
       <r>     1.5308     0.0000   164.0000 </r>
       <r>     1.5696     0.0000   164.0000 </r>
       <r>     1.6085     0.0000   164.0000 </r>
      </set>
     </set>
    </array>
   </total>
  </dos>
 </calculation>
 <structure name="finalpos" >
  <crystal>
   <varray name="basis" >
    <v>      20.01753311       0.00000000       0.00000000 </v>
    <v>       0.00000000      20.01753311       0.00000000 </v>
    <v>       0.00000000       0.00000000      20.01753311 </v>
   </varray>
   <i name="volume">   8021.05818642 </i>
   <varray name="rec_basis" >
    <v>       0.04995621       0.00000000       0.00000000 </v>
    <v>       0.00000000       0.04995621       0.00000000 </v>
    <v>       0.00000000       0.00000000       0.04995621 </v>
   </varray>
  </crystal>
  <varray name="positions" >
   <v>       0.70009798       0.56208117       0.59759521 </v>
   <v>       0.65187583       0.47341290       0.49557874 </v>
   <v>       0.62048161       0.60946342       0.49085510 </v>
   <v>       0.63403618       0.44500616       0.63080701 </v>
   <v>       0.58570617       0.38793727       0.40617053 </v>
   <v>       0.64090898       0.68311610       0.61160003 </v>
   <v>       0.58764230       0.34784235       0.54350069 </v>
   <v>       0.49985011       0.41535035       0.64496143 </v>
   <v>       0.55488849       0.56200459       0.60851980 </v>
   <v>       0.56327504       0.52460082       0.39386823 </v>
   <v>       0.51113648       0.45821397       0.51180686 </v>
   <v>       0.46986045       0.59207394       0.49329773 </v>
   <v>       0.47491158       0.32199017       0.46339449 </v>
   <v>       0.53345478       0.70924261       0.53216740 </v>
   <v>       0.39116278       0.38753297       0.55811970 </v>
   <v>       0.44262314       0.65004433       0.62272453 </v>
   <v>       0.41559790       0.51581080       0.60592834 </v>
   <v>       0.53549215       0.66140621       0.39018549 </v>
   <v>       0.37038319       0.49308779       0.46540423 </v>
   <v>       0.45552993       0.43014067       0.37315332 </v>
   <v>       0.33760918       0.60785132       0.53880613 </v>
   <v>       0.34673309       0.35903953       0.42691037 </v>
   <v>       0.43421721       0.56685392       0.36114739 </v>
  </varray>
 </structure>
</modeling>
