10
Energy = -26.18942387 eV
Al 10.030816928236355 13.094512910685806 8.256357254040493
Al 10.024517788354661 8.568041451795278 8.752590774731502
Al 8.856462633333903 10.838011756055007 7.713675574903046
Al 11.537279009559853 10.945506904921103 8.40965707348032
Al 7.735831099030803 9.570663109986537 9.745777614613056
Al 10.772351617310052 7.120050365426078 11.167260946267046
Al 9.581986385453552 11.435309479368664 10.374968402789623
Al 11.561831783161983 9.625194073268485 10.669291293406369
Al 8.186649941068145 7.097718628495346 10.557172797252024
Al 9.245569898140365 9.238288403647653 11.886545352166475
