16
Energy = -45.93878608 eV
Al 11.061898555237711 12.203280760121055 8.010039062548312
Al 11.087746902655255 11.628593262621731 10.757213448627091
Al 9.003289611401293 11.38056007246443 12.236179994749204
Al 8.732575703427074 11.763658643255118 9.268887734819359
Al 11.921332339581522 9.698889930605796 9.234396950061038
Al 12.165865264306452 10.329349157862382 6.567143084157841
Al 9.682310108947096 9.867808703098063 7.4507706993820815
Al 6.855769963003349 10.746721956921546 10.90708930895235
Al 11.674870511083176 7.8658535564372425 7.132046224837951
Al 9.478985180762608 9.402225676224594 10.360712044500904
Al 7.195761259446856 9.766723675985228 8.309693614506774
Al 11.108146860492718 7.135344653970871 9.650136199245164
Al 7.052990162821231 8.174171802298275 10.516035044986156
Al 8.304893165913303 8.890741427121512 12.866111660210159
Al 9.163298989474002 6.808825650617445 11.401025899883566
Al 8.707344508988692 7.552313496265365 8.520670745123265
