14
Energy = -38.87216632 eV
Al 10.384363 14.122038412491905 10.144628366873881
Al 11.753384076500764 9.050391850939818 9.771533307484166
Al 11.753384076500764 11.718334149060183 9.771533307484166
Al 12.048787211307776 10.384363 12.059777598155852
Al 10.384363 12.556388975200825 12.228625012586205
Al 9.015341923499237 11.718334149060183 9.771533307484166
Al 9.015341923499237 9.050391850939818 9.771533307484166
Al 8.719938788692223 10.384363 12.059777598155852
Al 10.384363 10.384363 7.7628475878556635
Al 10.384363 13.044562592871724 7.786324880507874
Al 10.384363 7.724163407128275 7.786324880507874
Al 10.384363 8.212337024799176 12.228625012586205
Al 10.384363 10.384363 14.093389414492414
Al 10.384363 6.646687587508093 10.144628366873881
