16
Energy = -45.55705575 eV
Al 11.714117877677456 12.947815651151805 9.321500753651609
Al 10.254643065241275 13.275474951835884 11.670144008551071
Al 12.363321687129886 9.461555788837455 14.780844173356815
Al 11.270012670139927 11.523234017397979 13.42446404394469
Al 9.562040034804951 9.08959241029022 10.299745568866262
Al 9.129025767687907 11.910530465878546 9.820023125147253
Al 6.9911910112943305 10.352362942381573 10.662520306645375
Al 13.029350087877111 10.63939672196769 8.247879475057273
Al 8.933185735911396 10.822348222526506 12.413090734738619
Al 7.957506537919138 9.99721267158739 8.256843069261329
Al 11.629209693216488 10.695457866045812 10.669952840207436
Al 12.847502751984155 13.139462662441757 11.887764259714784
Al 14.243165432416292 11.620084022701446 10.228070536337913
Al 10.924451068214257 8.88418572030358 12.535004737172683
Al 13.558365412326149 10.38355370146791 12.544330547017967
Al 10.529925877974238 10.655686704585136 7.910881755396945
