15
Energy = -43.31509389 eV
Al 9.415390611501863 11.513528977805901 7.82936063397143
Al 9.366588227152981 12.270578408240313 10.59317103204565
Al 7.290804769622911 10.850842217214142 9.36669112971616
Al 11.709373588815614 11.445620027072167 9.276002794296945
Al 13.065873286360791 10.499496803134361 7.064509873258472
Al 10.863727074630411 9.058428751084476 7.520343911794856
Al 8.230120176625793 8.84281254836443 7.7953267867030505
Al 8.09880107891434 10.171277588059697 11.928618080220508
Al 9.68731424287497 9.750940245343498 9.813664548018282
Al 12.176096777398474 8.825832295461325 9.993199126653524
Al 7.712669720701045 8.05438620907008 10.348645976767418
Al 11.232084045724989 10.684750741009683 11.818415252246416
Al 9.535346228075829 11.28266569695947 13.877442155141976
Al 10.123851273469207 8.213277008320933 11.939092292062401
Al 10.088112579529387 7.131716164257851 9.431670088501653
