13
Energy = -35.76848807 eV
Al 8.893359559908214 12.864392045884706 11.663728057923349
Al 11.146175 9.810757654884554 9.712930915683565
Al 8.835017902240708 11.146175 9.675756238422046
Al 13.398990440091787 9.42795795411529 11.663728057923349
Al 11.146175 12.481592345115445 9.712930915683565
Al 13.457332097759448 11.146175 9.675756238422046
Al 11.146175 11.146175 12.110069802864706
Al 13.398990440091787 12.864392045884706 11.663728057923349
Al 11.146175 14.000132951709759 11.987897072801555
Al 11.146175 8.292217048290238 11.987897072801555
Al 8.893359559908214 9.42795795411529 11.663728057923349
Al 6.889751689519958 11.146175 11.691062255813618
Al 15.402598310480043 11.146175 11.691062255813618
