19
Energy = -55.97635076 eV
Al 6.7184639006126075 7.379446813221499 7.204214607114792
Al 8.968443761404902 6.974760619234019 8.631738484860183
Al 8.596183652215906 7.10811715533928 11.282200924795623
Al 8.44353902572355 9.43456314549449 7.302613034124416
Al 6.82879655948047 8.753793961976323 9.513128379490764
Al 11.29866027878741 7.405148310343206 10.340672186519516
Al 11.135990200711575 8.591815525262207 7.912364426475189
Al 10.36465677926714 8.836147689606166 12.474982587532576
Al 9.47904378447988 9.326974970438936 9.905860999710372
Al 7.626555545236585 9.619511658745452 11.86153752425132
Al 12.00960148077066 10.195429976195754 10.015718668179522
Al 12.249705856851037 10.623444313275867 12.651437715297284
Al 7.829860539574669 11.345101907297666 9.418559250678518
Al 13.985530233124836 11.808758913308507 10.875698804707675
Al 10.329633733923547 11.142415305422116 8.104682976645842
Al 9.524335120770255 11.399113029913059 11.664549916875037
Al 12.368517643358247 12.874833142012214 8.859257366023922
Al 11.609104529870224 12.885490149306186 11.407587967716744
Al 9.689698730787653 13.358670633977692 9.634706201479734
