19
Energy = -56.00988361 eV
Al 12.920679271699395 10.3628964 12.82182703601869
Al 12.920679271699395 10.3628964 7.90396576398131
Al 10.39440580932862 10.3628964 9.1334038290425
Al 9.569777684242808 8.049383936300245 10.3628964
Al 11.074442621619236 8.045571432356642 7.913300355941375
Al 11.074442621619236 12.680221367643359 12.812492444058623
Al 10.40425378267232 10.3628964 14.140121168374176
Al 12.348915802804326 11.825178606330715 10.3628964
Al 10.39440580932862 10.3628964 11.592388970957499
Al 11.074442621619236 8.045571432356642 12.812492444058623
Al 12.348915802804326 8.900614193669284 10.3628964
Al 7.8979295066883335 10.3628964 10.3628964
Al 9.569777684242808 12.676408863699757 10.3628964
Al 8.355816726334984 8.983675738392286 12.790861896432798
Al 8.355816726334984 11.742117061607715 12.790861896432798
Al 11.074442621619236 12.680221367643359 7.913300355941375
Al 10.40425378267232 10.3628964 6.585671631625822
Al 8.355816726334984 11.742117061607715 7.934930903567205
Al 8.355816726334984 8.983675738392286 7.934930903567205
