25
Energy = -75.85393012 eV
Al 11.273699882178823 10.731112421925154 6.576652658586266
Al 8.782972880182477 9.409868877042642 5.738460938907823
Al 10.72590474449853 7.827431633268398 6.493047821920796
Al 6.400204407675039 9.457355182621257 7.353404967395557
Al 8.299636868286818 7.71176657340436 7.899648755052027
Al 12.70465500780011 6.253049971951195 7.435214270080413
Al 11.023240945847933 12.024369393547401 8.900294239834816
Al 8.679640435276736 11.17934407686537 7.676200110585136
Al 6.259935995405242 11.56915949922945 8.89655484579591
Al 13.085390718411452 8.959061146781545 7.63265019097531
Al 10.24387596796265 5.877358571359272 8.412664036838304
Al 10.450088583984746 9.25923907956266 8.776036231420209
Al 7.859550995401757 5.445657174296376 9.355988752572419
Al 7.976413285062187 9.674286304737583 9.867709248949481
Al 12.706185680035075 10.278485610779391 10.009441079828074
Al 8.598735042301163 12.507737198686785 9.977827810098189
Al 6.520765359541712 7.456938186281411 10.136277046485363
Al 12.11092643012785 7.387526308307035 9.809878932097336
Al 5.360266481471612 9.713477936388676 10.95226196900324
Al 9.389523536031039 7.3647225086802255 10.53711352901562
Al 5.460714279611362 12.413843973865001 11.276142758421436
Al 10.147109167260435 10.720578820498375 11.188200229417898
Al 11.417773653408359 8.58192146492465 12.03059538135832
Al 7.613509354761591 11.13630908121594 12.144121102226016
Al 8.619431117248746 8.769549823553906 12.633763912907945
