21
Energy = -62.56873203 eV
Al 13.082880255935965 12.58952763276593 8.858130430134665
Al 8.182532675437562 10.80410779277593 10.927301039345107
Al 8.29944893843518 13.152551918902804 9.269383427953112
Al 10.088013434823852 9.342649705693788 7.087718946034781
Al 11.800747424299638 7.809007766818773 8.638183500219103
Al 12.255939690898082 11.222590378886338 14.044023162142878
Al 10.843430524895256 10.550703861490563 11.938124875219117
Al 10.83712579542811 8.775545466599386 14.00675622902412
Al 10.876989894549787 13.167939492536675 12.954522904350172
Al 13.02449594790644 9.915094214097833 10.047348631059169
Al 13.102540494767732 12.146423709625537 11.581524135502814
Al 8.047325596464653 10.650800155111853 8.26280655636741
Al 8.84796973102553 11.024227724809167 13.598903196092383
Al 10.456956703150565 12.072259463899433 7.861375278808475
Al 8.420566916285736 13.322418389947014 11.91064643432985
Al 8.758280944384715 8.611482981358098 12.311109850571723
Al 13.301920184143771 9.244754938320641 12.60031156893885
Al 12.51386752731221 10.335224148868488 7.553540238779224
Al 11.235204478870275 7.883733777180979 11.289273968494891
Al 10.25418473082664 9.813961766057822 9.591924937506699
Al 10.766230726366027 12.763925846983492 10.341720479784446
