24
Energy = -72.58893224 eV
Al 10.567656741832876 9.713277466989155 13.736167902113301
Al 9.953442643920642 12.51860427005736 14.18766440911027
Al 10.865129332056885 14.299770389125715 12.51841021875767
Al 12.107868657419264 11.596974074307633 12.898195526731717
Al 7.973473907604026 10.940604207533275 13.744877434183293
Al 13.595412384485549 10.340366237389794 11.081104140634702
Al 6.443639211807741 11.320155787999097 11.674280506419061
Al 10.729286154518485 10.194777919728557 10.927423655312799
Al 8.529242343397087 8.846626961387848 12.285780738197653
Al 9.039181608221218 12.412392332054416 11.568120755222036
Al 11.867903741206108 12.691304864179413 10.582299845012617
Al 9.975919819542288 14.64716441672252 9.969596126229122
Al 9.602697783181295 12.042426083637713 8.98140229816803
Al 11.651633525980849 7.915748339103006 12.167794519323365
Al 12.470796802645145 10.949418311344179 8.698050469990006
Al 11.597561367590473 13.573474286907508 8.03260645285739
Al 8.093522470214442 10.150046357411407 10.009930520549188
Al 12.430777160050829 8.417453536125379 9.629272159665078
Al 11.766669209916197 5.850327456149644 10.30915630253296
Al 9.582277605956733 7.601985895340672 10.245954160501634
Al 10.004180535114429 9.427560562617707 8.334980000406306
Al 10.873332224281963 11.441715111143928 6.612670295891216
Al 12.031798619612237 8.990139883503586 6.6303516783531755
Al 10.993169234569445 6.864258334367002 7.920482968963774
