28
Energy = -86.579349 eV
Al 9.373437623702031 14.504275483530956 13.232447843491407
Al 11.418331736646959 12.847807928780457 13.780121439480748
Al 13.456920531733905 11.308295130330537 14.456798388553437
Al 9.170816953918758 11.701839674638695 12.775697479029606
Al 11.205011058142572 10.093941088335816 13.46743137644664
Al 14.126339762029716 7.315165788559834 11.213458684918185
Al 8.13534720318232 13.601358166198029 11.003387447428311
Al 9.025315521915395 9.056675640673511 12.450994185708618
Al 11.463809796385867 7.953164670651279 11.745535098019968
Al 10.910535990827302 13.307386721760228 11.14995305000596
Al 7.901701480922532 10.859340065960337 10.6665975263784
Al 13.00371361715247 11.75352775757983 11.783640966242654
Al 8.98764126731404 6.471788975878531 11.670296959439007
Al 13.72578941328626 9.320257238098076 12.770621004848705
Al 9.690652191049567 12.494075302646438 8.996860538469347
Al 7.378049290690386 8.2445222601528 10.281566388029816
Al 10.663919158023077 10.46203490277399 10.625001358219826
Al 7.002922933959405 12.543651645009511 8.757840101595441
Al 12.437698060708405 12.20025915829578 9.260162092341275
Al 6.184505300389257 9.996475656195392 8.689818072730068
Al 9.895625222636822 7.86849821312397 9.530778348087326
Al 13.355497218498462 9.699391572637351 9.98470875340201
Al 12.472887161174032 7.104998957385796 9.21217353968896
Al 8.456661887078063 12.081713169461649 6.56289660005835
Al 8.879754059007217 9.931319865939146 8.202384082099726
Al 13.64030700436699 10.770085985468748 7.308629516612036
Al 11.464365707173222 9.343131202461677 8.072174207136266
Al 11.058680537041184 11.651255466427566 6.834262640492926
