23
Energy = -68.895687 eV
Al 11.13803548222832 9.839351298263118 12.664797422640332
Al 12.864918666307798 8.122118512419348 11.018473093488046
Al 12.778786366575552 12.197580710800112 12.642341283156176
Al 7.842658785334189 12.07302197760403 12.52754690330512
Al 11.950397803583913 13.701248019448952 10.733131930269597
Al 8.166935659737712 10.484157728211605 9.143055729013081
Al 12.318531804763568 8.709997307165253 8.295289652517617
Al 8.897629941655767 10.323244283556072 14.30450386099412
Al 8.087868599927335 7.823779860651555 9.736750694890125
Al 9.876264030826654 13.550808653698358 8.905645622173857
Al 10.340053751528618 12.441950934556377 13.505222510310007
Al 9.379038365505078 14.22808393522731 11.588757567599279
Al 7.580802026859223 12.842836857877714 10.03730414488883
Al 13.98404927859758 9.95591237667994 12.428129366041748
Al 12.453964961665447 13.012873350870873 8.196969447205353
Al 10.437801958570377 9.100441474460311 10.188072152963583
Al 10.760069278546734 11.02582026312619 8.035721807153765
Al 12.610346053087891 10.857439631799368 10.129370112934435
Al 8.368856585529137 9.37528595347169 11.879685227584456
Al 9.530954899461772 8.769169955444015 7.600326903159411
Al 13.011977088067104 6.110740973029121 9.297327510973473
Al 10.434301228450222 6.658622941520663 9.122563575293409
Al 10.036070711663108 11.645826328590823 10.86932680991774
