36
Energy = -113.59287241 eV
Al 8.690355781897024 6.217196264855634 12.483105657640277
Al 7.827231211272309 8.699161428015477 11.415216666103014
Al 8.449418831397395 8.370266795548954 14.047356718253136
Al 10.21379774581275 7.453618525535565 10.65855424278469
Al 10.957217503843905 7.792356495821739 13.247272893841869
Al 9.241813585893102 9.5203959436011 9.215265371308401
Al 7.6507700735174025 11.209032571773815 10.676605490451964
Al 7.916203170230383 10.841511906692345 13.363797241930767
Al 11.732501908899625 8.332292473938027 8.647927049326992
Al 10.165840767048522 10.224165545627034 11.953829776529455
Al 10.375915109491054 10.086071563899473 14.717505293870595
Al 12.471706030233914 8.965100531759271 11.22917882476548
Al 10.739096126634356 10.383019312501906 7.161998614158764
Al 13.222950295926582 9.241075911483048 6.5540154155882995
Al 9.262246438786491 12.087437469066973 8.684719658184546
Al 7.764279900512555 13.394467776709398 12.63274586834052
Al 12.948055347126749 9.410313114638246 13.85434801370095
Al 7.718809172507255 13.861331202124303 10.089227386690952
Al 14.06614663092393 9.808482105030906 9.111589448098844
Al 11.599501145682718 11.097575934980517 9.781910229969164
Al 9.426283529665552 14.776737592146079 8.308347263272568
Al 15.043686350382997 11.01597428532723 14.165394661590678
Al 13.061098971556316 11.850509050681007 7.437590073391534
Al 12.341698157857788 11.767197428512045 15.146111498261472
Al 10.016251224976774 12.62047770518144 13.881609097618746
Al 10.60578824277006 13.074840222260315 6.579869111745459
Al 14.74257352685825 10.403812751962748 11.621791750136119
Al 12.398124303077156 11.812252388134521 12.42965051187147
Al 10.180789043408812 13.145856122387496 11.187472309614868
Al 14.03506407519346 12.515146105570103 9.843682668505318
Al 11.781580390836398 13.757888001323154 8.998839008513727
Al 14.388582528568353 13.448528749574905 14.841232512136624
Al 11.959611401806976 14.3257948878654 13.943034857842571
Al 14.875361939377328 13.110830113636124 12.231472463255516
Al 12.654556788720932 14.420584938741893 11.345221158446602
Al 14.21721698094994 15.70082101673644 13.254635425902835
