31
Energy = -96.53124387 eV
Al 12.842676501114367 13.854170262321318 11.012143430619075
Al 14.52790567409711 12.068695487643199 9.861806927998877
Al 13.225366792689295 12.748854648620675 13.59895237426693
Al 10.217966179526531 13.824700596731084 10.138428955820187
Al 11.9649200473877 12.32435088302138 8.831336060174772
Al 14.786167483736858 10.943769982672912 12.296512949850403
Al 10.716474594115626 13.45848085764433 12.73231883819135
Al 9.287320040067241 11.90376947584419 8.367167511247887
Al 11.061467632208252 10.778882733437 6.7199799262804945
Al 13.632229421325825 10.540557066745217 7.720559243794633
Al 7.484266030352258 13.385668537723936 9.582235391810775
Al 11.958198267613547 11.332308074240792 11.485532836941296
Al 13.642489623394596 9.522557985247852 10.244713283540234
Al 8.284217601938577 14.232619433049166 12.011626548972131
Al 10.933960438357978 11.903079085609553 14.937063083032424
Al 11.025185476395896 9.874924020497737 9.326449051911124
Al 10.494726250685218 8.142250474352792 6.881298659624075
Al 12.808746703355878 8.010154768781355 8.13614766349946
Al 9.00841488738316 11.638662164306954 11.222797657567948
Al 12.40030997813913 9.972944687865205 13.877906220435534
Al 6.189243041738973 12.446541327199196 11.893618586366225
Al 8.361128630734786 12.261006094351432 13.916427423005345
Al 14.03520238658802 8.258276057621304 12.600861443280598
Al 11.39609061865771 8.647961858027967 11.72216799623191
Al 8.548809774747694 9.074059639877362 8.400089104694246
Al 13.030691901176603 6.8446063757510185 10.578938376108708
Al 6.878983273719612 10.621880959553849 9.924748017656745
Al 10.384622358808091 7.2505842358604715 9.594130408077914
Al 9.762162878008008 10.028849407836992 13.303427784809752
Al 8.762259978797877 8.820350555118146 11.094279078285739
Al 7.121569395688872 10.058256124997815 12.760109028454945
