38
Energy = -119.69793881 eV
Al 9.010110479828896 14.383838370070675 14.868799557551974
Al 11.34511647674113 14.707212452655185 13.589342240397901
Al 13.525018666098354 14.617384622134724 12.031703703892092
Al 8.584650372675824 14.515074066366877 12.253870378939373
Al 11.132422972335803 12.685453369946657 15.514326875984281
Al 15.380054111686194 13.602240697684035 10.402312726468434
Al 8.674959400709609 12.256203299460132 16.462130429420252
Al 13.510075924628378 12.994442648545734 14.249806789955407
Al 10.871951676214527 14.386368633617876 10.95261545144559
Al 15.964824352736695 13.200993847757276 13.13276902162713
Al 12.983641996192032 13.975083702082037 9.372248509876155
Al 10.587053317876787 12.247037263941037 12.661802640329979
Al 12.255826845337431 10.610198050240433 14.04582192242692
Al 8.245239232575026 14.536052876562701 9.57967734824486
Al 13.454919432024617 11.971936799507898 11.640719203937179
Al 9.596639766154428 10.333660695802212 14.755679142576534
Al 14.95283297366124 10.604883314816702 13.471201718077529
Al 7.919647999232934 12.225831282990661 13.635130701799074
Al 10.554560043863534 14.32616208619151 8.277438154923278
Al 8.456424773067129 12.169557162450387 10.794853750777753
Al 11.535951096210677 9.89428469615728 11.5703131605631
Al 16.394514701901077 11.27742718394006 11.261195320113163
Al 11.203965750212074 11.921042490118865 9.901107982767643
Al 9.067987680951271 12.023275185852958 8.109092640450793
Al 11.95035474168951 12.431683629578693 7.26174809835949
Al 8.555179027437633 10.035705667867894 12.270301029863635
Al 14.437894244926609 9.512698431463004 10.840481923990874
Al 14.189795317515149 11.598018937484396 8.87026987009222
Al 11.090659999367318 8.138634121598031 13.685168264316404
Al 13.599593926393482 8.322925447037255 13.103457870858039
Al 8.46511778482239 7.91580688910884 13.874983034582131
Al 9.386775674885353 9.893756760364841 9.71832868469554
Al 12.499678622323115 7.485443960518118 10.774347150980907
Al 10.579204975103202 9.879527333134126 7.150967555050974
Al 12.471363457884319 9.500037270169157 9.015111710556695
Al 9.619735718185167 7.7615078223078 11.36934398032987
Al 13.28627744609597 10.298489223305946 6.526032371576526
Al 10.461276203137023 7.5614168898507135 8.806796264882221
