38
Energy = -120.54363363 eV
Al 13.853937494692476 13.452589842093916 13.594277538422784
Al 7.0047815348262485 12.073142665431936 10.721740834804839
Al 11.637947233388774 9.86383618141647 9.985063598989088
Al 13.805271019828691 8.33283780450751 9.070004557538441
Al 10.788773006536372 9.832579763414508 15.864158632914252
Al 8.86677493845697 12.978709549512237 8.872415955850592
Al 11.662906998235174 7.121079470272821 10.352971677277372
Al 9.526497994808091 11.6793159155465 14.430399324943103
Al 15.75641664237505 12.307693437292107 11.991665738769056
Al 8.306037236541284 13.30230675349641 12.791549245337507
Al 9.490947894370592 8.442634997716738 11.240907614829739
Al 11.260420248054334 7.239625727239231 13.09863776183202
Al 7.988308531507002 10.343897075264104 12.42851244560272
Al 13.414671843387165 8.554699181331875 11.811572888861937
Al 12.808923839243814 11.877895919332804 11.56085570568949
Al 13.360615396556632 11.16699649989579 8.275628976881208
Al 14.41837206378804 10.520205553445834 13.363921380238468
Al 11.215820833819002 10.037680685416772 12.871640328507372
Al 15.339651751301998 14.890558802920445 11.736364919330965
Al 11.077585374263016 13.601790162098002 13.169128534789992
Al 9.968014069280256 11.80448677033131 11.149633019234505
Al 12.914775643463308 8.755415301043545 14.64042967254877
Al 14.920963046398212 10.339575388200648 10.488618821188155
Al 8.336370457046161 10.162121819696365 9.532566998413989
Al 12.080533825683215 9.24426459495264 7.068383176935475
Al 9.15787857456196 8.652829283321365 14.095322735828914
Al 14.448919232222956 13.126713898008651 9.682427487898583
Al 12.306000359770307 11.755544810566372 14.834315789602966
Al 9.910623665775173 8.223191759873805 8.50393634192561
Al 10.410723919120562 11.088610500037726 7.8450282679645715
Al 11.658411332831426 13.026236381239851 9.27838162244677
Al 7.3397194625092785 14.678345697408156 10.580049548951727
Al 10.03792412365511 14.607086100654689 10.755345635309727
Al 12.709792810976161 14.67719404622549 11.14329434212135
Al 12.060063043856276 6.657380363432917 7.719448869752565
Al 8.487289205930745 16.036567059212107 12.619628431691147
Al 11.102864472367902 16.400270892932234 12.509863069977689
Al 13.598011878569956 16.17763034521645 13.35544950679672
