31
Energy = -96.11077845 eV
Al 12.391591966706551 9.199630730721369 13.481123009195064
Al 9.894851757685776 8.358813588609635 12.711389471118226
Al 12.737052352133386 11.927491003641435 13.214181539758972
Al 10.513125250192402 13.397615021659275 13.987787409385836
Al 10.315544327241312 10.733134725356399 14.105174948485335
Al 7.787957117772636 9.991503699083314 13.30392009134181
Al 8.149383909918042 12.248336014753647 14.619205765578663
Al 13.840303129433826 10.113623358668931 11.401253981952234
Al 13.179024853026995 14.483279341009764 12.531103693164145
Al 12.042862671090154 8.050141671918203 11.107137670428322
Al 9.446999967233934 7.2766199691523425 10.26748484887174
Al 7.327104783205355 7.7734675849717805 11.884887410948705
Al 10.66177586185138 15.255684174708854 12.193322029716139
Al 11.061201979992523 10.63619882866606 11.427175462895502
Al 8.995359783495555 12.401419582626007 11.941475712853737
Al 9.319222786354791 14.559710926434992 10.060922549439718
Al 8.510520897650025 10.033761839221505 10.676479772021324
Al 7.753840162185361 12.501302976985912 9.5249287713787
Al 14.319632769983565 12.716546795531533 10.907622247392961
Al 10.742101385160597 9.582115778269229 9.085412928347614
Al 11.67715141803619 6.870758309559876 8.785059307847654
Al 15.329396628038529 10.887950430130116 9.207496958409175
Al 7.0664936826016005 8.236370885355505 9.102157164528796
Al 13.544646522078255 8.900857092192071 8.932786998559957
Al 11.570496941051616 13.16928672509522 10.805894501736299
Al 10.269461065372017 12.690541866422588 8.446602256917195
Al 8.39214228565959 10.560202077752809 7.917743486447997
Al 12.628672097278649 11.527300367096636 8.979985533722218
Al 9.300628333375501 7.9474893462852325 7.521694321703574
Al 10.833363108942768 10.93491592695468 6.65598924763955
Al 11.879373217358939 8.515212373273652 6.693883920321254
