31
Energy = -95.71482961 eV
Al 13.286020122449493 9.658331365184125 7.340338747978865
Al 10.868236510980651 10.45265928396134 6.311605949407458
Al 13.054823379058739 12.39581994428315 6.557650354018979
Al 11.03105676894643 8.669332310562424 8.388732933635383
Al 14.592601024004091 11.671601259944783 8.609711735967778
Al 10.514481406965183 13.007162122720503 7.283128087933564
Al 13.669260345477435 9.231340413338827 9.894338489372421
Al 11.781851032670156 11.172406044459176 9.197813181111272
Al 9.00654304966521 10.924494895005978 8.24127531293406
Al 8.733986064589285 8.188266167605637 9.650679073524843
Al 12.651935934759349 13.709766986836796 9.009852628293283
Al 11.329722739803357 8.611646552777078 11.032345693693037
Al 10.05462231508524 13.240738395360909 9.816935139824572
Al 14.076689249180877 11.698896552844257 11.134783910674587
Al 13.747551688254806 9.072259996802037 12.566876658478488
Al 6.855520221649507 10.140790564606954 9.561927068257042
Al 9.410241716241313 10.530491486569497 10.970107273923517
Al 14.245040778668656 13.193455527851066 13.326820032547749
Al 12.208253780474436 13.683294532866428 11.612558634177535
Al 7.573580128533724 12.547067905423134 10.62793597962278
Al 9.03116818425836 7.921170753233207 12.303741474592739
Al 11.765524812053247 10.950944093295728 12.466689622606927
Al 6.944852570024556 9.633671549981086 12.198550461499485
Al 9.757533212594442 12.840112264275701 12.432000862794002
Al 7.344040029614405 12.070403411619527 13.331583154603399
Al 13.911170276859057 10.860132332237733 14.610862431259983
Al 11.407052496148523 8.35242649141448 13.752157391824301
Al 11.80269684675147 13.06119329115052 14.26231674548845
Al 9.232415362879637 10.138496716868207 13.727653687711042
Al 9.340674920635072 12.443158789852234 15.094378406777283
Al 11.363989062955163 10.511789313948231 15.291493067252508
