38
Energy = -119.84452994 eV
Al 15.561623375256714 14.697933593444588 10.104332665012418
Al 14.094238150153819 12.844785657574656 8.853671655578772
Al 15.285785611547174 12.186562399492729 11.33066502415344
Al 13.800109784464437 10.341266486924685 9.868152215485875
Al 12.673812857578849 11.084065379804533 7.469857568783078
Al 14.288537692141146 14.529353071736386 12.455225659539986
Al 12.842442755964575 15.162415751367785 10.14936617546778
Al 14.61731073915863 9.903029242780912 12.454450653996819
Al 11.352911837762848 9.383017715090098 5.834702562687842
Al 12.413535618498043 8.425868517380968 8.269200401567858
Al 11.415026210040441 13.161254054843731 8.893132857536582
Al 12.605465115022287 12.532786775997849 11.221799795931345
Al 13.614920533327977 12.351093507753825 13.73998947915037
Al 13.14499401280793 7.970469030406114 10.942368537921913
Al 13.499500406218399 7.835297650782949 13.6246856133546
Al 9.634561234720497 8.944218671122938 7.8799326330515
Al 9.990183297521428 11.53618645916557 7.245843129425922
Al 11.680779993464704 14.65144829654631 12.74998702223751
Al 10.075977286270245 15.284248405220023 10.41787130782657
Al 11.905794950721173 10.12555243583112 12.339878467979121
Al 8.8049171154775 13.609421915292806 8.776391511305375
Al 11.057738720126855 10.422096259700654 9.758596421052419
Al 11.003230631629968 7.533520715446026 12.915967114849014
Al 10.918686227725985 12.3787399525197 13.936606917379843
Al 10.558560546512048 7.5532241352010265 10.131223807887979
Al 9.938302449909916 12.463949659345454 11.241294105667897
Al 12.76252999563999 10.160280402132651 14.91298552034784
Al 8.430875626792298 10.973358872521535 9.423258286358562
Al 10.132383770001653 9.846090447281673 14.472113088073352
Al 9.00894894871732 14.498547777393258 12.88064935497022
Al 7.952343908675038 8.328960213127983 9.850056400038902
Al 9.31427089093798 9.50524954105271 11.89839450552296
Al 7.342463435515374 13.18031332514452 10.934257443910232
Al 8.334315787131498 11.977559771889478 13.494650045590307
Al 6.844771167687554 10.633410042343193 11.52520669979546
Al 8.865375629718658 6.442383845187107 11.788321679874986
Al 7.527450827088281 9.558854612511762 14.08206114739984
Al 6.717905131193046 7.995767681762986 12.145434796408875
