35
Energy = -110.37646554 eV
Al 14.437075202725056 11.636720016056348 12.622103575395057
Al 12.814081399989652 13.84171274913865 12.369543955703367
Al 13.31005708162394 12.371517480588949 14.946370161999896
Al 14.011022956774264 9.590509895542127 11.018483984895507
Al 13.173073441343236 12.070373213874554 10.254679792251324
Al 13.942987903688365 7.931353045551067 8.926166894221934
Al 11.86560789560931 14.421195491825621 9.916913518056651
Al 12.344221308957087 12.788237890960419 7.738553873151954
Al 10.855167300718234 13.498671988903718 14.256651415932614
Al 11.572000241350551 11.325600438503344 12.377791987289504
Al 13.050173786691992 9.67477312214447 13.953398226292714
Al 13.169747952438733 10.32115818843154 8.210032479376274
Al 12.432400748978495 7.696817735584862 12.348307679415747
Al 10.059521595935424 13.622721364819233 11.735367916366055
Al 11.076314459559919 15.26809028708597 7.531602543867828
Al 10.959509083523722 10.973222476610408 15.160418213404784
Al 9.127406136748604 14.23138412445392 9.244225939189468
Al 9.77588298644246 13.090622062589421 6.808299460053134
Al 11.4386330310598 9.188970520477852 10.142522089387295
Al 10.488663354016705 11.792386234697458 9.579746977197775
Al 12.12102492639327 6.360797152549454 10.053907064882242
Al 10.26674995097592 9.044385148826017 13.554227264115637
Al 11.522707320606218 8.114665949257173 7.5943676097423305
Al 8.94503984020254 11.693636258845835 13.387832718596956
Al 10.6587551745238 10.617270326214218 7.03233531410318
Al 7.761823369558152 12.593402820476802 10.777795925366789
Al 9.084398009348277 10.059151865049964 11.168449382861565
Al 8.088036029038271 11.645230318266327 8.189197982601522
Al 9.911035797050701 7.307866792152147 11.610054885627386
Al 9.721231506970565 6.600342705515588 9.005798852914728
Al 7.698835903025565 8.44907966706334 12.868649914731455
Al 9.077453222112554 9.154956470341265 8.590900315900916
Al 6.589181043189376 10.894396723360519 12.400540290736476
Al 6.629327702652697 10.077607717098983 9.825016857875545
Al 7.51984054144247 7.550396210786314 10.289027852222842
