49
Energy = -156.49127723 eV
Al 15.120192239480227 16.636489864403362 11.0603874791968
Al 13.937106245663628 14.956953001775156 9.34530884305977
Al 15.827500441140451 16.099556421091023 13.59933243746234
Al 13.200265176665983 16.672945282841553 13.507551015940527
Al 10.576387207840904 16.986700200643966 12.994786737873856
Al 12.40950801548331 16.65894483118785 10.868006369958827
Al 9.61387956091465 16.04403598792014 10.584578832451086
Al 11.33258885654638 15.49930392509419 8.603888730077353
Al 11.469921282346059 15.12647068886051 14.979079795859226
Al 14.108767963019504 14.578658094412242 15.097656058831575
Al 15.879820536800512 13.407512239609545 10.569163690066526
Al 14.637281769210167 12.656834256799243 8.227530320380556
Al 13.965418572627469 14.39427193907616 12.212059564750234
Al 8.957870791039793 14.953175037913384 13.771289388906041
Al 16.3215552371424 13.46097203084964 13.53534290301012
Al 11.283759333877184 14.40362298656948 12.152552011867911
Al 9.750633896715657 13.162040477090152 15.577962091877389
Al 12.817574118334756 12.589021963526484 10.410222357779965
Al 14.83460846857632 12.091154775299756 15.603925859246049
Al 10.157310105494378 13.396647186418821 9.794348505539144
Al 12.023332696279214 13.106622451481426 7.668117012010076
Al 7.902264823263964 14.076746373246651 11.375034421018077
Al 12.342624648908528 13.082027229785462 16.63618130403474
Al 12.314511278295067 12.524271944876405 13.999914848342277
Al 14.578192070957655 11.763780670659536 12.511963622383472
Al 6.929967414974133 11.872460715676647 12.695430572908853
Al 13.334481204822083 10.346653687975698 17.03632729628592
Al 9.615564208536236 12.412559565688982 12.73086649394841
Al 8.48388155411239 10.905432230085617 14.736808907311632
Al 13.055033493932195 9.965747067434544 11.329913349453014
Al 17.250269446541076 11.38083979694726 11.729402257243779
Al 10.873046952352754 10.805973926691824 16.02626495586263
Al 16.606480435009146 10.610136179970674 14.226432623060617
Al 15.389813196108593 10.651559218899644 9.901001161306347
Al 8.13597428698461 11.6454858941892 10.178606946881912
Al 10.704996011176963 10.83258632084755 10.801777387310368
Al 13.08336045246651 10.51061411632088 8.404018736599774
Al 13.86904083365543 9.944215489296154 14.353688133207262
Al 10.299208780949815 11.047577837171536 8.157863935980153
Al 11.16137360769215 10.234380575275004 13.385270181113361
Al 15.483417632557725 9.009254839563257 12.279495211746305
Al 8.481395273241189 9.707779217100393 12.222357240646913
Al 14.308622170472477 8.117458458511576 9.8460811940524
Al 9.546140122671476 8.411120134419441 14.481169479002698
Al 9.024549685259165 9.004713439208146 9.598143068403223
Al 12.061627850262193 8.318968098104659 15.46774261713059
Al 11.627677740257818 8.537638056592044 9.281383254332344
Al 13.119657362939037 7.713442156130966 12.90256669225213
Al 10.602454630620418 8.045620794804023 11.834858901374291
