45
Energy = -143.88145228 eV
Al 13.623258021952376 9.058468498679597 9.845920919391382
Al 11.234149467676058 13.128301739002577 8.318565828285921
Al 6.696237850560282 12.109105832453356 9.964273155017471
Al 13.455821598045972 16.166272228225054 11.220026169875887
Al 13.687022924151881 11.518881904435736 13.925187530015032
Al 9.11648997277604 8.948304578912706 9.948985575665706
Al 6.783613185731906 9.661846499263236 11.333540401216608
Al 8.998608472996708 16.05672137348509 11.319906700530563
Al 11.358690670927498 8.17084015901349 8.478919136109356
Al 11.21029359719598 15.436782266881917 9.778261750562528
Al 9.065935897931084 13.693105040874785 12.744227747616906
Al 13.536662856388046 9.155974386826978 7.090045727921766
Al 11.452806142584931 10.77666575096994 15.381776973895402
Al 11.303485999801111 13.001893823208173 11.256468300619671
Al 9.14511230808449 8.932037293100523 12.571086089883297
Al 9.040150496366604 11.440858461001492 8.53057398937285
Al 6.773118039929051 14.452138520453303 11.352837652470942
Al 11.368179940267526 13.151093704985753 14.215834620331878
Al 15.978039884892295 9.886518182786176 11.123762692841298
Al 13.48908093595426 13.83365932781972 9.7752871861577
Al 15.951290815558549 12.323089679621154 12.560692108453212
Al 11.391843814756564 10.617657612238068 12.582300889402713
Al 9.057983012914573 11.363101506117989 11.27379121166409
Al 13.623986289191524 11.474784298705895 11.169657743215465
Al 11.278157107231655 15.392816856829644 12.73358368626253
Al 11.423260095024354 7.962856394228284 11.158374055453496
Al 9.015445124979825 13.723257666661892 9.876128348507038
Al 6.758736314717468 12.09930929132766 12.770460092497347
Al 13.784199351720105 9.112372707372064 15.18134769863469
Al 13.570119015487052 13.8029323614598 12.642065458227362
Al 11.32929595349285 10.621175105253217 9.85430867960729
Al 13.713891281921034 9.042833603605208 12.466459342795503
Al 15.757162960540018 14.673340416933232 11.150755572778685
Al 11.263376732000761 10.730671383027754 7.008324934163101
Al 13.514723483823179 11.55098805671925 8.429564158482291
Al 9.120438344484581 11.408323200792895 14.02987841090359
Al 9.075531719468223 9.046431316581245 7.190989161327841
Al 6.824089343282411 9.760685995713555 8.588135811631414
Al 15.810514635886115 9.982205827796875 8.384193503124127
Al 15.885795494660753 12.335194209526891 9.756177112072965
Al 11.480932198442945 8.093758767649717 13.800089356995489
Al 15.96760737311671 9.906473124021332 13.87328453327158
Al 6.919913176908433 9.687175773677104 14.080676580920128
Al 9.19785671555199 9.001938697350067 15.287026723333101
Al 11.540173880623572 8.280239074410401 16.54932917849259
