44
Energy = -139.76624041 eV
Al 13.924626858334166 9.7120684853314 15.962964140778572
Al 13.866546138228564 12.43713416918916 15.998665675074685
Al 11.636119648234818 13.739108819396716 14.998864502878522
Al 11.625947022250115 10.95693642399995 15.228313793783215
Al 11.896367959798422 8.16914497804425 15.201481643937948
Al 9.695074468107316 14.993679183874898 13.619499166313904
Al 9.653359730883299 12.21482217090142 13.914963628745195
Al 14.551301545062367 13.65982546775991 13.62468183639508
Al 9.684562590919946 9.456267695567206 14.109087144197144
Al 14.443095348534214 8.119512387102759 13.73308956888294
Al 12.494470708019074 14.996035092744394 12.534976762068064
Al 14.617829993878185 10.970006848970506 13.75448321320086
Al 7.601384958346753 13.444425362443884 12.624544757743399
Al 9.747834126842868 6.624939231774074 14.230930740867565
Al 7.695649579269806 10.726969005039086 12.6965515759245
Al 12.286600373838345 12.236640822409907 12.759595638314574
Al 10.397489309408373 16.419523678745307 11.413596525168053
Al 12.28922677956124 9.567029805986943 12.847045054338555
Al 7.682036532418039 7.9741208812994095 12.825400225215962
Al 8.058616135355598 14.894895571503973 10.486634987734737
Al 12.229446338215924 6.501678484698205 13.070376287420178
Al 10.230768719547598 13.55395890373729 11.406231807758788
Al 10.207617566802815 10.819840517283055 11.529493333743662
Al 10.239044332715675 7.994679343863328 11.746066768254206
Al 9.824632856012576 16.02564331395485 8.831978952103047
Al 8.161114677282434 9.274429258495529 10.351884095277828
Al 14.81610490128358 9.678639665788136 11.496678812139573
Al 8.107919872006118 12.127089913650961 10.274857370700474
Al 12.667759596811381 11.109399701199717 10.368494684081403
Al 16.281734667938004 12.124241444707051 11.949681782392625
Al 12.95647267328635 7.698026255980405 10.855544388659672
Al 12.077137143241728 14.856251028512721 9.8063696218612
Al 14.034926480689487 13.406144572480256 10.943041592186946
Al 10.649870936093388 12.41954998614587 9.083023724431715
Al 10.916568580640261 9.244167614615508 9.39545679075438
Al 8.463073676495794 13.623660126293775 8.063980820124018
Al 8.64832415211292 10.611070072255183 8.048912336229495
Al 15.298948468019196 11.477145838623711 9.54394649834256
Al 13.756147237387331 9.18395724143132 8.845886758903564
Al 11.142404249592275 14.407100251692938 7.155876120197571
Al 13.26731844778506 12.970748058453564 8.310895142110363
Al 9.891548363783958 12.15211738040416 6.299329465585842
Al 11.92734017842575 10.697085766228493 7.350466308131132
Al 14.604216734775191 10.978869835655294 6.9547366152830845
