40
Energy = -124.99345837 eV
Al 12.434591171223294 8.51311091162287 5.889906737388207
Al 13.438208413311154 12.663781832140854 7.712818589700715
Al 11.541199605012585 10.939603829642184 6.690582167353243
Al 13.949505806770453 10.005461900024848 7.861829497042753
Al 10.648551451929125 13.281423204249624 7.840294140818346
Al 12.515802596598222 15.180908706530454 8.437478633792507
Al 14.569950249260607 11.50335651984202 10.1383771547125
Al 12.867766175108397 7.52061181009544 8.300926023089811
Al 10.231821423368851 8.529875042726164 7.360954583963182
Al 11.639083390405393 10.082605208732293 9.34071067440341
Al 9.053651998405096 11.017167929820554 7.843183783532803
Al 10.29955855835303 14.768751015742806 10.004949630620878
Al 13.925666685068796 8.83159157538873 10.366286403025505
Al 7.999432630722088 13.53602356603423 8.67084562171174
Al 12.343618477115847 12.934170565429813 10.085771492166709
Al 14.055204752771793 13.231913390509797 12.144077247954609
Al 12.652607583130237 15.41767823990065 11.210996250362857
Al 9.89358484272776 11.91978716708098 10.25680444238331
Al 11.282988692923455 7.428406107277022 10.3842751464175
Al 9.035989983545427 8.958298209720288 9.68505954285575
Al 10.895740636699724 6.407423869563686 12.89997404906891
Al 14.811316529844825 10.254404937134224 12.621834726804043
Al 12.730267449664348 8.293461829387772 12.64883701784012
Al 10.930007333991783 13.255961242753996 12.406876381970621
Al 8.695242440684813 6.751461843660645 11.201142529764274
Al 10.107285712094875 9.196556394469654 12.199426082134504
Al 7.337677646920571 11.188119150664537 10.051356275048077
Al 8.197148825943671 13.924061059149748 11.417292834418404
Al 10.1654038864437 15.777622059597267 12.535179887114282
Al 13.058261596699174 10.05926428491127 14.755620696475088
Al 11.08888234339286 14.720221899960334 14.901205010344995
Al 12.808063935633989 12.659116439428637 14.41758523681816
Al 12.246129395509708 10.924948772265669 12.011580485037019
Al 10.889556947332533 8.430537880869384 14.707206087343856
Al 8.45571816223385 6.974722628028907 13.91294358813294
Al 8.754211458387276 13.693253085625875 14.13048128243774
Al 8.457347149803969 11.503400581797456 12.555544322452413
Al 7.3348315931829395 9.076633819639557 11.869924169243568
Al 10.510134837762447 11.244523293579865 14.294644354769563
Al 8.376767655350042 9.620660797942005 14.402148539939946
