45
Energy = -142.52863667 eV
Al 9.665264206648112 12.61300489734044 16.35869094395351
Al 11.380879818436293 14.005476051073959 14.747178773924077
Al 12.44511647467289 12.919175820093793 17.042409371814422
Al 11.170750268777077 10.588212849714969 17.512733198669903
Al 9.246436742978583 15.732955609156392 10.321780335509512
Al 14.042239828847917 12.803208519037428 14.850746663948398
Al 10.355812721912415 14.637972659647367 12.432646951710009
Al 13.063333235420485 14.699889164086363 12.663632571705177
Al 9.309587061012127 12.307691780445742 13.63999193345232
Al 9.24193890179223 10.118943588961622 15.316214657007276
Al 11.868816816952583 15.406387576852728 10.293384439011406
Al 8.069281088140523 13.430134871201266 11.479765910669245
Al 11.717167545175139 11.30999362431723 14.923400279987082
Al 11.911958793667788 12.1981257732525 12.347485745225663
Al 14.636663880254817 15.271382346520115 10.522848359121586
Al 13.95638713006977 10.189023117188299 16.047341799665706
Al 10.515785314319153 15.137642640047503 7.836958969378751
Al 7.559786225888558 14.541671731287762 8.624203673224425
Al 11.589953673595675 8.68642786056826 15.730694482730582
Al 7.666451133071928 9.397193769110284 10.21880672285096
Al 9.853077840389478 7.500899219922291 14.106933736684734
Al 15.00805833987336 12.81750901402034 12.357773619696443
Al 7.713090312186004 11.894553074264994 9.328099266544298
Al 8.32283026143657 9.419392614045126 12.859764771509266
Al 10.253318499610355 13.170607012633212 9.746361651929256
Al 9.624119035368242 11.065821388845125 11.152138132472702
Al 13.460138205823613 14.817394036775159 8.019662779193776
Al 13.224390290422425 13.008849271890147 10.156183775616267
Al 16.097785173449093 12.987817263027912 9.897775186410275
Al 11.153339665172805 9.601232754397143 12.905040577787572
Al 13.86540710122463 10.463734830047834 13.312892035510602
Al 11.769127482698753 12.685009171967351 7.547101712968387
Al 9.115261424060085 12.88077565332218 7.16440741057358
Al 13.346520567691373 7.801368169676318 13.992200570515047
Al 12.036737151286257 10.692484110889088 9.73813622838267
Al 11.548058701247829 6.783330591997651 12.146891290152453
Al 10.237341453404062 8.594293182037266 10.261111545395265
Al 14.769476090472468 10.72968273818442 10.616527557264789
Al 9.842052132948533 10.512187946832192 8.170243466664882
Al 14.512809981324548 12.096587523980947 7.885848257622965
Al 13.274979652504761 8.693910813956023 11.380723877783167
Al 12.713500275817164 10.367588336491416 6.9238044375329935
Al 12.253774287280812 6.855078475129515 9.615950420386879
Al 11.282183447514463 8.31340995356403 7.671628318514046
Al 13.97191088249725 8.921099202391103 8.807858785704092
