40
Energy = -125.85452166 eV
Al 14.6702603111537 11.587096048522637 10.118006961899702
Al 15.850533884292343 12.538033787084215 12.218886530400349
Al 13.824685445794087 10.558331044538546 7.8208059375420715
Al 14.055668134809757 8.95072216629384 10.074487390433719
Al 14.355981468935003 14.305825357551077 10.814215551801441
Al 14.402379729356774 10.191431227096812 12.474574962053527
Al 13.739270687510194 13.316876883838901 8.249180366695578
Al 14.28169266591089 12.302803651601842 14.289844581606017
Al 12.57593780494717 8.028171664271865 12.979900859665404
Al 12.377921191949623 15.20942059146104 12.48445248670297
Al 11.838370174988508 11.549417241148761 9.45815619035769
Al 11.786022869544558 8.877664532402658 8.6248729845308
Al 12.517902993589301 6.8784544476212055 10.411202918063307
Al 12.569784912790686 12.401428598424479 12.020165883887039
Al 11.681740096220635 10.40791278409503 6.287560447258658
Al 11.497183155737806 9.8122553963323 11.318617195937724
Al 11.759696402537125 14.26725875377351 10.069336471134735
Al 12.278232535849764 10.647647522134486 14.12891961450513
Al 12.038226910249852 13.650983183697349 14.623393813886151
Al 11.217018860784236 13.181467279814429 7.379553822629471
Al 10.203090737375732 7.2927620056755185 11.779603816217065
Al 10.299058467389564 6.566498048930294 8.964854939969028
Al 10.110907911249427 9.255693581941582 13.689446834866077
Al 9.935562280643936 12.10077751844248 14.332770801621663
Al 9.807844566330127 8.443085329436972 6.855905170732122
Al 9.208380807711585 9.053340569066899 9.698903654659599
Al 9.551165018150785 11.074365611008204 7.769019700018102
Al 7.933279013592927 6.621329601675412 10.571456674115339
Al 9.472231839293075 13.138741728805327 9.482757880635834
Al 9.960954252922456 13.924465953224397 12.182160663714015
Al 9.139842906455092 11.340038807180548 11.803931948143546
Al 7.909649364354952 8.736184289106882 12.213100706013108
Al 7.818426771593972 6.838142864697342 7.861673900340004
Al 7.804090086379987 10.515348264377542 14.207427570295263
Al 7.323055829299643 9.559457434970536 7.536652537102213
Al 7.530183377017972 13.218668027301444 13.701522458064092
Al 7.5136861887805155 11.305701475383003 9.50594747621421
Al 6.312229990743184 8.853492211041441 9.996708809461232
Al 7.377686203527444 13.51710176963137 11.07653728844152
Al 6.437552312517382 11.056461848475308 11.960186924415536
