4
Energy = -7.33275801 eV
Al 9.419149769472723 7.483264426758309 8.504065912334186
Al 7.020650550773068 7.144140762210534 7.037334374809964
Al 9.511467655037974 10.057601215478533 8.465215715446291
Al 7.2506242124485265 8.526222884452489 9.19897694720687
