48
Energy = -152.29563706 eV
Al 15.288711125029572 10.503217254721356 8.76811500424587
Al 15.905110928270378 10.204857597845766 11.422754671162444
Al 13.503966427022696 8.787746308949437 7.613082652051408
Al 14.304599212227156 8.313412658899534 10.158865487193273
Al 16.586295133330733 12.57038585823725 10.225268306069488
Al 15.082509336499415 15.006182690982497 10.895595694060583
Al 14.917724542290891 10.587937154705358 14.027724377878556
Al 14.14803887194847 12.938632771346608 9.066754182868028
Al 15.923055381566304 14.53191648638642 13.439564159895601
Al 11.756216605568437 7.724961872279237 9.441444246190395
Al 12.929968876809948 8.717931703497838 14.328347571844526
Al 13.201363351631482 10.11631697788549 11.928661810991901
Al 15.05041761811601 8.028193228236141 12.767538887970627
Al 10.581056070266722 12.338342655288553 10.460133249805123
Al 10.111567087227094 11.41131765568306 7.808541201535581
Al 14.302159371696714 13.150920749988407 15.062841451017801
Al 12.391948697621508 10.48710938935139 9.502414841343352
Al 12.757289947581318 16.726011392467658 11.287333625808564
Al 12.51917777801117 13.953864618626245 11.014823271319493
Al 12.529340997414907 7.201084528715144 12.021902872844407
Al 12.862126739727731 11.36692572338125 7.064701350732656
Al 16.92549747404163 12.151162748591815 13.07589735073348
Al 14.449000690224548 12.536145148233311 12.094853785570342
Al 13.290853736168792 15.590086712810512 8.842180540613146
Al 13.348641489965079 15.129868374869531 13.46003933877662
Al 10.61817720464091 7.160521809083976 14.03251420678225
Al 12.6122959685614 11.208594526264603 15.685935532586148
Al 9.855310959771613 9.558374786232623 9.777190448880617
Al 9.771971912990988 7.354295069595653 11.453430838028426
Al 10.778367423221278 9.662669986802484 12.811113821523538
Al 10.628905723615086 15.510401663940518 9.934115998667567
Al 10.790749114290302 9.179546612688279 15.817312990741899
Al 11.633503753458534 13.635969893283335 8.105981283490845
Al 7.94742378103112 9.370765587704007 11.694133114342558
Al 11.622035886045415 13.947026949055765 15.299406815675727
Al 11.838062600964367 12.271898261871803 13.074851240402765
Al 8.544052738255433 9.51298563406536 14.351067198181584
Al 8.921907680183041 13.832282477671072 8.674047563217073
Al 8.06132575328121 11.543254433568109 9.88314420722797
Al 9.130358314421771 11.78637103112773 12.60743490313318
Al 9.962096404516462 11.73114259206434 15.354303917110018
Al 10.820085789922777 15.354379158910437 12.746093231124764
Al 8.716966848087534 14.253274018692462 11.467350533247624
Al 7.343669257801133 11.995364041243816 14.61902598317376
Al 6.483226901065731 11.57527906313265 12.012957205657571
Al 9.023179612109033 14.11721259384797 14.237502975392184
Al 6.431117599435385 13.766820823386269 10.207162934507295
Al 6.427544817449912 14.215613434260058 12.992819582017756
