55
Energy = -176.68408103 eV
Al 11.69264562184347 11.769387449440659 14.166183952758335
Al 13.012522245630851 11.783869737738039 11.757141272361158
Al 8.93630235159322 9.40065385768037 15.75753771206894
Al 7.508698679347154 9.494668713864469 13.404088283027312
Al 11.666216482327354 14.05085683262773 12.501376142865665
Al 14.49999544532522 9.421488178601194 15.699341038971903
Al 10.276061664894119 14.131240997798157 14.990535596586987
Al 14.397960152124956 9.480799641037537 10.919065392206896
Al 10.312387781135397 11.618286336545179 16.570168640073923
Al 13.035617558788664 9.490234542985116 13.333339579099144
Al 14.446793691857295 14.066861748595358 12.519063908319943
Al 13.125666489153089 11.629058895634438 16.540173893637988
Al 8.891007189323068 7.199258191227705 12.694202236735267
Al 15.774433405820707 11.781248340218482 11.697076780695088
Al 11.61547122152114 14.035094140261483 7.608558369019425
Al 14.49721665920945 7.2197026284440176 12.634937551323368
Al 8.939417684214716 11.753705924294708 9.383138542311062
Al 13.007435755942774 11.761572248361723 6.897676130979574
Al 10.349506256660034 9.480267235215313 13.361463394938758
Al 10.189278867691623 9.455558078193151 8.576259693582472
Al 10.226619609562412 11.750141070427803 6.927157892600151
Al 8.940103020403557 11.805863472200153 14.19986709975456
Al 11.641826900827681 11.747222169143297 9.344489967107314
Al 8.847683248738583 14.036587206245448 7.730488337448855
Al 11.694083163894073 7.074834696034153 12.59257829216252
Al 15.838428069651247 14.05401328474394 10.04572980398402
Al 11.61786199899549 9.342366087588363 6.1586265667573405
Al 14.444596514635817 11.82658206782559 14.141145832338559
Al 10.305596076893469 14.027517778968125 10.12084614928287
Al 14.385200280296926 14.05927273759672 7.6737876937464025
Al 13.111426904616085 14.143347941148452 14.961274416591467
Al 7.44502378625996 14.02041829029905 10.132319307250976
Al 13.033780777981356 16.354346520546912 13.19142712502284
Al 15.876153928149733 9.526200761190426 13.315817201422137
Al 13.096716244937372 9.466893468579851 8.545282243327806
Al 10.294759736430047 16.343361036798626 13.220689597046263
Al 10.3215542019664 11.773152690281886 11.78502867724294
Al 11.644271989211965 7.258391627049509 7.911370285091721
Al 11.638986895317704 16.359207349363455 10.812656029380504
Al 8.886185400207394 14.045070834629035 12.577866767851088
Al 12.97686835082518 14.038692773179562 10.09327039413391
Al 8.869655424793605 16.284700070775 10.841369986184601
Al 11.667257873723264 9.460507377407328 10.954065901539938
Al 14.343502604008002 11.776083290818725 9.327534580169996
Al 14.409483856862272 16.30747072191375 10.783578618785581
Al 13.1016747851466 7.158509533149733 10.236514438220558
Al 13.117241157563408 7.107016232816944 15.040744608935798
Al 10.203924714566375 16.372619327410856 8.385617404275822
Al 8.93558507778999 9.458852695812164 10.975342297895248
Al 10.322612358453625 7.096566562558389 15.070213434346249
Al 13.02336016951636 16.383930117017464 8.356999161079289
Al 7.560559162992196 11.749170576863035 11.783021836969304
Al 11.71908849434317 9.40375083093674 15.803504822717189
Al 11.719578579530795 13.889107228230598 17.354453470363353
Al 10.236930936503711 7.14723535168339 10.26680914740993
