54
Energy = -171.89828253 eV
Al 17.259110185936382 12.660064312893313 15.012014648220298
Al 18.04729370480528 12.829396592116737 12.371767065835504
Al 16.543859891166022 10.574639572608373 13.373293279684988
Al 16.28876809230486 15.064008469780994 14.528675388949877
Al 15.547612222160174 10.666005535618078 15.99336664931936
Al 14.580605284577821 13.232931158186636 15.638251001111607
Al 15.826988433051701 8.409336323176781 11.610720789524708
Al 15.67926933474253 8.25452591768371 14.446889178633045
Al 16.86736759022083 10.977755676190704 10.750670014882846
Al 15.302717346010892 12.87413833970495 12.907210733753168
Al 16.2226177610248 13.888183672503361 10.55109057720857
Al 13.8785132162723 15.814580071703132 15.276081646586688
Al 13.2857726567219 9.046370794682126 15.707130560606906
Al 14.283595409964974 10.581495612751874 11.429950529557605
Al 13.703590127156453 11.0440075269374 13.941261281086048
Al 12.463354300425703 11.59832552488115 16.22317005827484
Al 14.425198096568124 15.34447514558703 12.377637268964408
Al 15.005954499575102 11.404012592293398 8.900526494961222
Al 12.592419741238391 13.545295171354763 13.661277702248972
Al 14.806573213847066 14.02666140743825 8.275280604271385
Al 13.360060862149476 8.509341266639261 12.98538604941044
Al 11.862794672758488 14.330682548493375 16.225374162589368
Al 13.552439070781926 13.055356666005308 10.576020001489734
Al 13.40764027487495 8.141665302960812 10.268057902372302
Al 11.881364642776541 16.232990428157983 13.636249114895342
Al 11.788552121309241 11.533066498964054 12.032842241500353
Al 10.997854256516717 9.391466586673468 14.296047985785314
Al 11.112256207399987 8.835556145180089 11.5008510134805
Al 11.792862769368996 14.882381715192185 11.33895855934841
Al 12.340406375831119 10.4817019722357 9.436729623537108
Al 9.808661490403116 14.711462833052627 14.598418014343501
Al 8.95251505705893 7.958362129885444 13.264755811360338
Al 10.315431089896913 12.034015857368502 14.543929081070033
Al 9.310177543904873 10.65262978589773 12.230085783473847
Al 12.703645315408854 12.368580816265448 7.5223685656484305
Al 8.192605157429744 10.215792963556167 14.592399357043035
Al 12.292311393581356 14.800191450371493 8.719588712060094
Al 10.880799832585964 8.243380316684938 8.804462829404917
Al 10.680805395237897 12.642155206506983 9.737723376651905
Al 9.20657276130435 10.29178882735038 9.645399015747994
Al 8.80191260761139 7.792612815652941 10.578702065341357
Al 9.631627017665163 13.400029658656722 12.170607327176752
Al 9.470636928964241 16.24358162284092 12.057624300004784
Al 10.398851867218266 10.75530937420798 7.329955738213893
Al 7.487764550292685 14.829807693379058 13.365464310112978
Al 6.833155821948974 9.475650352227875 12.241021002480016
Al 6.631765341864049 9.014403615199852 9.549938841154155
Al 7.199825153424094 12.193865620295204 12.938568923086422
Al 10.344932615086218 13.835512646969958 7.181772759082025
Al 9.652368436445947 15.194607754250448 9.534167182901179
Al 6.816508740649805 11.54666655793589 10.344971968583476
Al 7.383306095574811 10.66171455926037 7.639856249178681
Al 7.360544131857712 14.15906895421385 10.832360537684469
Al 8.20548598607429 13.001335448184546 8.506507547291095
