5
Energy = -10.42713866 eV
Al 10.472093699412937 7.238402732728701 8.52457844
Al 10.472093699412937 9.810754147271295 8.52457844
Al 7.981681005432078 9.824600744255262 8.52457844
Al 5.715342790067091 8.52457844 8.52457844
Al 7.981681005432078 7.224556135744735 8.52457844
