8
Energy = -19.94338925 eV
Al 9.754273712466581 9.880392440936282 7.501117012511616
Al 11.59179609518855 10.02929986611803 9.559030481554053
Al 10.167100641490716 7.898906686925782 9.125951188113065
Al 10.197317775774781 12.28375253956568 8.729767174562129
Al 8.900061020293396 6.102913656714068 10.837584775799707
Al 8.37388750265024 8.826870616247534 10.796590699278669
Al 7.937155416974588 10.719337445135999 9.074383988756058
Al 9.801763366566897 10.981882279762509 11.098930210830591
