9
Energy = -23.36785337 eV
Al 9.11522867109662 8.534756768152459 10.484303098735579
Al 10.349423821448816 10.889593258607402 9.81430112034816
Al 11.713353242105216 8.753848913010083 9.475497720426542
Al 7.866266443533934 10.859543429400135 10.825375465484447
Al 8.29605401614167 11.516247955326468 8.20214674654054
Al 10.582297315723821 6.597681939783257 8.719293918519005
Al 7.025991168871176 9.243797438294614 8.857349519639273
Al 8.07370723861662 6.951402046517607 8.428591897578809
Al 9.553235838698747 9.228738399248241 7.768629262672588
