9
Energy = -23.3325985 eV
Al 9.99566167426544 8.803303162606452 10.450661304081141
Al 7.74651976076007 10.254540682100084 10.02808507354864
Al 7.6017410381945005 7.68935948972093 9.841908674942466
Al 10.194328416480571 11.437007291339292 9.936323529004666
Al 10.378060174422798 8.96681724947283 7.914103596189162
Al 8.68739733938626 11.667272828967201 7.897419120713909
Al 8.3890917848194 6.502472371251456 7.519627590667626
Al 9.902840971667283 6.268509970015954 9.552826321800348
Al 7.837083701805405 9.135966621480163 7.558943383156005
