15
Energy = -116.99017324 eV
C 10.874547296715035 11.815831311203308 7.532716682239523
C 10.01850706934002 10.821519131033302 7.25309594600285
C 9.23114723282577 9.88555116595695 7.481410588941122
C 11.49018110767467 12.443866495833149 8.414560278546428
C 8.715743794005284 9.028118159295015 8.382783444813018
C 11.778731291548423 12.762921820945582 9.683306693230593
C 8.46075201959821 8.444781779637397 9.442843996952343
C 10.055942024034497 5.737048025054521 11.011115185970032
C 11.616074897811094 12.58846075332508 10.906787578715377
C 9.243850977311096 6.729226201602707 10.957147950540229
C 8.787742785752307 8.005930092461757 10.750581791349731
C 11.066543440354554 11.925872876180671 11.934459265216132
C 8.960828336636444 8.99851284328364 11.754117222033857
C 10.322073690229539 11.049150712905663 12.407800302802281
C 9.561947447759243 9.947822042877739 12.271886484242675
