16
Energy = -121.09819606 eV
C 7.359143343179398 4.423695712226237 8.66611930477381
C 7.79473435370683 4.475175717050491 7.31949378815714
C 8.365607004545382 5.5160364834608195 8.323342797796759
C 6.263491309772412 5.0640396714269675 7.8161910049939
C 6.635018444462681 4.620934459749826 6.451395023381492
C 7.74792856633577 6.832531170232589 8.092308423300206
C 6.334875170111599 6.548547168345103 7.924048922360619
C 8.188790281383575 7.935239988004599 7.390345920438817
C 5.42247913590956 7.443191093147704 7.424030330767604
C 6.342363988764218 5.260753240212415 5.29189297638559
C 7.806503478434886 8.842381513987963 6.584350247561096
C 5.005969302243606 8.3509629216135 6.660878858048023
C 5.918391524646966 6.249658683445659 4.620288927811212
C 7.053514315405926 9.08696742466993 5.518938413848884
C 5.829443810846931 7.554079997968348 4.472735258079508
C 5.774670717376539 8.58902802562053 5.37690166388214
