24
Energy = -187.27977468 eV
C 12.08365035957796 10.19108061936346 6.366323886026693
C 8.74928132326187 10.892876293058961 5.961513391397452
C 10.924636975328466 9.812820191237465 6.872063448706016
C 7.504569859785421 10.86908111548541 6.359551814712812
C 9.451416916572267 9.896982405454818 6.648291743405038
C 11.122320488905245 8.835167340400256 7.978894022197699
C 8.819828823274568 8.795907190697038 7.369267867276484
C 6.421903388686022 10.731175060106485 7.061291679156339
C 9.894249811584569 8.036260292347363 8.000705122225185
C 7.471886584864958 8.614094006955312 7.821662870949656
C 11.736305880462739 8.634521833718884 9.180287871218738
C 6.498991787814759 9.694933472666172 8.00585384099824
C 10.933781408426258 7.786234056136312 10.040024614046123
C 9.848309408696176 7.257785785057109 9.151156648562829
C 7.867289908156844 6.067413781990069 8.22945736940649
C 5.918623810772565 9.618060416039604 9.312130632842416
C 10.506949195983662 7.994968560045675 11.312420042550045
C 7.283141645368641 7.34156004110366 8.578265632818127
C 8.563762227120435 6.643527386286764 9.414807828729248
C 6.241082914529567 9.228686530768538 10.446753807241846
C 7.488515648077827 7.3936207814641595 10.0169700029203
C 9.400636729052165 8.076131621799107 11.989239268227644
C 7.162239659322085 8.303434830840944 11.017397874845184
C 8.169243470230786 8.45265339255453 12.007442038373494
