25
Energy = -198.92049866 eV
C 9.293394601051014 9.264524698484912 7.029584333024639
C 9.145387933506095 7.911794848643079 6.390559965219109
C 9.942145784194757 9.552469280674156 9.260459716080582
C 8.575958380352429 9.937257070468164 9.194799740538267
C 6.729780023270345 9.568281297702548 5.979205282588759
C 8.198918050505393 9.949151045831552 7.714170625096327
C 10.388988644009398 9.160200348650974 7.953723259358738
C 10.768266964496032 7.790857481678865 8.066549226603767
C 10.000031013533842 6.983248676525461 7.1903299853387646
C 7.108910248150142 8.555093000736518 5.380007101255538
C 8.183717227641896 8.831192561854563 10.069877951550787
C 6.867780935107643 10.169295941149885 7.262795346826242
C 7.984804988316456 7.491287754563138 5.70443413099126
C 9.396923485501633 6.293302827787051 8.360231914448446
C 10.106178477389303 7.217712561608835 9.298057459327033
C 7.637925363111661 6.152921817013416 6.020462917649955
C 5.810163186314612 10.476512509694555 8.146247623769662
C 5.788469286024795 9.947529079340498 9.32640309277127
C 9.589403071230626 8.300021835105682 10.017308558919542
C 7.627526755476502 5.529393476927641 7.095138521270077
C 8.145523440288443 5.64795340076981 8.404420997784676
C 7.387003710843761 5.911079175766397 9.57103748838413
C 5.735858064593084 9.02299539884167 10.258572606611484
C 6.9947932616733866 6.824718250155348 10.305248057056561
C 6.916028487818239 8.246165290325003 10.346567683384537
