26
Energy = -193.59875958 eV
C 11.321388267771104 10.059013410164031 8.617156194720499
C 10.830694936253893 9.761540583832538 10.058885816107326
C 11.74853501361553 8.875792993327627 9.324616870895309
C 10.052809894285264 10.5629480831404 9.142888176351764
C 10.681538926341473 7.904168419076794 8.756558184001552
C 9.738438630050188 8.425026647691828 7.6931472345837415
C 9.286513642634615 8.048870274407843 9.226534227591685
C 8.804540035276181 5.520922610106962 7.509823141991104
C 9.188938871484446 7.6974693497221285 6.568240414569004
C 8.414401887318794 5.750604979421071 8.91576686322556
C 7.521924654389835 5.095632386216659 8.059807403222742
C 9.14451359467624 9.432116136559666 8.611578304169868
C 8.252392354952889 7.07558775735928 9.506889775724831
C 9.363812919447913 6.28968367656173 6.596552953433239
C 6.915577919696551 7.377065641948918 9.428422125111375
C 8.080857829271675 8.116542414163717 5.8332123545933054
C 6.838153561783803 7.985011259951526 5.727819781349798
C 5.882945522532902 11.15505867099218 8.535975921079672
C 5.4073461274416035 7.951727029331138 7.648434904253873
C 5.110152689182731 10.577884671973397 7.425292036806964
C 5.1370839844576945 9.275817546311794 7.983477002196262
C 6.295348567448401 5.723917954459295 7.658301478697794
C 5.714405478719312 7.413164713619668 6.317103712160984
C 5.116521449491935 10.126960534838162 9.156205439580663
C 5.989209716683669 6.961313750846186 8.516471574896402
C 5.868301152228905 5.992328355523035 6.380414465423782
