38
Energy = -301.03363421 eV
C 11.940362246730555 6.583159663976855 12.410747855745422
C 11.177965559363077 6.967788068646896 8.853451671849037
C 11.884176821592462 11.283473792886832 9.107749669612721
C 8.2704440177033 5.4759726414339704 8.717220464119741
C 10.434067916156176 10.68152751030695 11.096169353084171
C 11.609214840639831 9.257091748806776 7.804779771862258
C 6.965165988849806 10.651119948747308 10.491726267530911
C 6.510400008140917 9.119519383565747 6.604683859738466
C 10.475708038629877 11.55628412910593 7.344971475504159
C 9.597722799993978 9.759985188617621 11.155478332043234
C 7.855222326938792 13.233111489736833 8.312109942236047
C 11.357726617391224 7.341645622820219 11.3092994044733
C 11.667336963554911 8.070712997168817 8.1516486729439
C 7.407865562592991 9.356242082879039 10.27452857291038
C 8.14640377943567 6.76093754506711 9.504789392448487
C 7.15441732697262 10.979736818308503 7.7398499704562465
C 9.089394787721053 13.339384907669812 8.279242164650173
C 7.414377227307585 9.845184137532808 5.742258130724151
C 8.66468066340304 8.814601943316452 10.720132254807567
C 11.191704701581823 12.498449022761658 9.326672346475316
C 8.073293489940907 10.857525465402468 6.529861420144963
C 10.338038855740688 12.750739321867558 8.228170942034282
C 11.248775538707823 11.480735286809505 10.346955201069456
C 9.107257867952173 7.526676687344714 10.200716160523557
C 6.803525947217353 8.789576462304005 9.071429028564502
C 11.469976992332438 10.639400079207052 7.900573823633255
C 10.564473941433985 7.260633331542533 10.213212440915324
C 6.507706455179635 8.922874197218011 5.203402489719405
C 6.45359353229469 6.45150040901599 7.9965532808921
C 10.689530743480667 5.775087604891537 8.41920746465899
C 12.241167463219544 7.897967656733385 12.2526530529272
C 9.396789747496815 11.130953917665304 6.568663258558034
C 6.6417712066982935 11.686790074629108 9.884562070933988
C 6.575088636430631 9.635859717186442 7.9324046251347555
C 7.044620254429457 5.3121436088860685 7.992711937451233
C 6.952718541791294 7.390333022578802 8.93242342845431
C 9.577438635062286 5.183826161099951 8.489639042838984
C 7.066129893590468 12.097530335611875 8.595308783672683
