39
Energy = -318.19345449 eV
C 7.997803497587568 9.770901564970359 5.087283664820204
C 8.021315983877773 10.89323675182835 5.978660428060102
C 7.824699941415198 7.013808543975597 5.544761446920048
C 7.663981828493102 5.516865602869736 5.76242268906012
C 6.371698171874126 5.646125988802204 6.5370366521553995
C 9.14639221750019 7.65888744730034 5.481907418690841
C 5.630784754420257 6.969625248050033 6.432036440878295
C 9.24643943367345 10.864633627225508 6.650445343777873
C 6.778594620501633 9.222102705132302 5.588180845446889
C 6.520003659538627 7.837190314943228 5.665587251895421
C 7.666790001829827 6.431747625242513 7.026399954076904
C 10.058545338288338 7.307160698719391 6.564283638093191
C 8.683949913632189 5.246255475042866 6.916236952034433
C 10.114109832552058 8.617307117550355 7.291588707919401
C 9.926955623693171 9.691782136204777 6.362210106363955
C 5.954326292272915 4.875192693967202 7.7090382217480835
C 9.907675904904593 6.097235729607761 7.220279535609845
C 4.898103831453028 7.043781987930883 7.685192707088495
C 9.21841256219947 9.029291861548398 5.22179543627015
C 6.049444274749747 7.523121059998823 9.651023179229684
C 5.123692849513352 5.807881161170337 8.403629397373553
C 6.730347841307219 10.422149336454883 6.617135895962524
C 8.34595555032102 4.4534623630826955 8.151288065420934
C 7.3799886862258095 8.029445203567041 9.794046740617567
C 5.197415940515643 8.110906519359458 8.649291513783737
C 6.906121427259661 9.721014968024367 8.059941985825331
C 9.321200494938672 8.531330911370524 8.498312394646378
C 5.4852562688458155 9.413004721319442 8.253881996019064
C 9.953753990176342 6.096927116469465 8.660010580516538
C 6.982843190040161 4.377420862361275 8.561996492536652
C 9.118474409875569 5.070041263625138 9.187065242530013
C 7.910811240439948 9.003854879428715 8.781915163595835
C 9.52127594688392 7.338633673407309 9.261336196420707
C 6.876041952000831 5.166751007924623 9.82735952074981
C 5.324332041366487 11.103713571206958 6.619710356484439
C 5.8155766530340145 6.0967644663322975 9.646954189350573
C 4.780065791099657 10.280412798257867 7.397436290185358
C 8.162261746526395 5.659121835827117 10.138662720499186
C 8.397821344938016 7.074174209667081 10.126919687109195
