40
Energy = -323.64586267 eV
C 3.0627643227036097 2.5419077611615757 0.34131323601798885
C 3.682244626226715 5.121339408530438 1.6714037164554891
C 6.064642499327843 4.338848005304614 2.679686994294443
C 4.022247312822476 2.2435030332749846 1.1733992386732393
C 4.909309202227796 6.602208927437107 2.482121539847107
C 2.630856176612069 4.328948902610503 2.108056343661165
C 2.5131726118314925 2.9553810007528285 1.6897512600014148
C 3.510714140547117 6.45866072034679 2.1952607185646493
C 2.599942698148386 1.9594727552774789 2.8292610226325774
C 5.126104804204569 5.187484530267548 2.0109584801776075
C 0.4503713073656102 4.294760168776794 3.1698322864837363
C 2.4111019511970415 6.589846817460866 3.046156130424245
C 6.1074238709455155 2.9665601068314897 3.2272684740101316
C 5.229143154003867 1.7693534870237464 3.2791780013458576
C 4.0324604450211465 1.6993392870688233 2.5126870822892737
C 6.849689662825745 5.119546058980703 3.631969101203954
C 6.410068323724511 6.310799607323832 4.2926805355614555
C 1.6423116816658467 2.1519938434940875 3.865569621632769
C 5.322570995163409 7.045138291752901 3.7741648927447446
C 1.7672034271299697 5.094959923823251 3.2033220821746693
C 2.1029641386812252 4.922750516035323 4.7417289700889995
C 0.6479986061486002 3.0832784066957815 3.4202577509990966
C 7.188558425128762 4.346162058639397 4.812604952183369
C 4.428545272715378 0.4084076250870152 5.248526959653217
C 6.125065782941188 2.1107711594676997 5.400481482912041
C 5.3892965690264045 1.1247999623445444 4.548468382389518
C 6.721355676280314 3.057153031595997 4.533274753430608
C 2.8847970798453084 7.067591513956133 4.295134243705216
C 2.8883365764124904 2.0095876635190235 6.304592181030745
C 6.305055460314336 5.356424292477382 5.411280958695428
C 2.1266790805149727 3.774420882850769 5.543965576893636
C 4.090600412155505 6.166386213163289 5.7305043909758036
C 5.154025130987223 2.4671310446734678 6.3392083923703435
C 4.255920649598536 7.251863129025674 4.706784594554257
C 1.9288685070574512 2.366425403417985 5.279366690490741
C 4.532078501890324 3.797647568804505 6.491930405549608
C 4.101756797742639 1.344891056203526 6.252108339960445
C 2.6891227983405996 6.051402543877543 5.297746243851055
C 3.163587884180945 3.4675525100851554 6.49343714702711
C 5.018633986627083 5.132891330863651 6.052147375325924
