41
Energy = -329.15962753 eV
C 6.805742334135608 6.663605718043052 4.562564085263506
C 7.600658212401829 8.831086642623466 4.892007659304218
C 8.842098647428607 7.901602092563567 4.702375781214167
C 6.318351480755687 7.989851854391436 4.6554057254361645
C 8.255156327406475 6.611553824528505 4.542405324362937
C 8.61870715966393 5.743231765938097 5.62428671778188
C 5.438899296374667 7.959860584684653 5.846164590501692
C 6.307128583092024 5.791371526967902 5.659541752126119
C 7.741982768514293 9.946948768175961 5.921571634541378
C 7.988313848328692 8.32822273210878 6.269767457819166
C 9.435901495944409 7.8457018470330855 6.2165104932983555
C 6.511975373965166 10.157993065797307 6.824988601838352
C 7.437562456069069 5.106451036714253 6.256889886930752
C 5.500227217591649 6.574400948477793 6.539036285595774
C 9.381337436584106 6.379562264069951 6.59257254340152
C 5.757962130704283 8.926661731209375 6.793199378993959
C 6.9744638293127155 8.111945012498913 7.18361352267551
C 8.934934556412566 10.133134343687445 6.826028291083894
C 9.928244058147532 8.985678035077568 7.084209854492572
C 8.933758069627125 5.875477012830097 7.909587981967496
C 8.43627464223267 10.485006693759843 8.112771652865506
C 7.590371912539149 5.029641088587066 7.640618575474025
C 10.113739057719918 8.869645917077229 8.475614408765951
C 6.980246681888909 10.324737444046292 8.182824067528323
C 5.530287260523682 6.378139696999766 7.991030389339494
C 6.506810158190916 5.441428076638285 8.537310848972762
C 9.272747896581675 9.922349509375241 9.118397269148526
C 9.555989220361347 6.326510165544295 9.253804415655324
C 7.247553082963562 7.802886755351982 8.444641441310045
C 10.123611116967814 7.729999051212498 9.485176922187215
C 8.284888914586153 6.920162760070831 8.748675724248669
C 6.498939641873701 9.471431864514747 9.309067248639426
C 5.888326980667418 7.666458537905616 9.089957357360747
C 8.374653792174458 6.1688028411695015 10.208995168408043
C 6.920048202185744 5.810770732342046 9.913070074154351
C 8.752934648400528 9.465018930894724 10.320902504024403
C 6.266586742924586 7.041123254212724 10.360609177732563
C 9.442685799079555 8.197598365418367 10.659813667143881
C 8.445742363372526 7.298307815356472 11.119455482961293
C 7.306342325696324 9.264116042141554 10.47468650157378
C 7.147404536131655 7.921113909481301 11.049439793398982
