42
Energy = -328.89711741 eV
C 7.545518324207375 8.355119379034399 4.487884335562741
C 6.265764421513303 8.994298497210911 4.879480126435127
C 7.958723188869349 6.87637048786341 4.632486175443535
C 8.520109432861947 9.349993861362748 5.035947071640495
C 9.29415258277702 6.968340376596423 5.783622094262109
C 6.4288314989810775 10.217745462495632 5.686147147003538
C 7.847956759109016 10.532389957449038 5.7650380877768015
C 5.618994457923327 6.9709899594076825 6.1903775314882035
C 6.953875807030375 6.3174023427621675 5.81442729985104
C 9.560050899070973 8.769364914481613 5.964356058145634
C 5.494300436955941 8.298150637536134 5.844381724986723
C 7.989926798471984 7.230639152481225 6.459156710580224
C 9.77688132877161 9.828336272380106 7.051696141663697
C 7.118190189922062 5.162098559773906 6.840628367949357
C 8.077478801236136 8.618337584447751 6.296022681396609
C 9.641831571972396 5.965636683383679 6.870704755093466
C 8.625139026588052 10.755178490921116 6.973291832974173
C 5.853199645714733 9.304196529051142 6.951639410399351
C 5.23193335704764 6.591192812911073 7.536826019431226
C 6.089027107827463 5.46674099498759 7.946440333239822
C 8.502095311627036 5.0701080425563765 7.440707159161812
C 7.469092227028419 6.148569855970429 8.197295940846072
C 7.33196467306827 8.923241106838628 7.471631970866283
C 5.23545599808954 9.000244990362171 8.296438253316534
C 8.922368212200476 4.536052065729878 8.790244531030277
C 4.942249164541413 7.59689807772376 8.503558873576353
C 9.380961074610763 7.7769806024726655 8.462172668765852
C 10.06833121457517 6.516909068794039 8.16025228548686
C 9.45901736023966 9.320509602726219 8.41291213988481
C 7.908144356769277 7.484440790473365 7.934187443761604
C 8.04693646322614 9.932773503825048 8.33326923189794
C 6.747623808284152 5.463747857365501 9.344390537563973
C 9.760887623529285 5.653444132272769 9.282214110309134
C 7.968563427536429 4.728439947827091 9.844051097407217
C 6.002417616782863 9.052516180502948 9.5712973141546
C 9.585898178433572 8.585147834887094 9.692806302846407
C 5.637537049515839 7.6388208750483075 9.829044615992188
C 6.552627964449857 6.699285829208457 10.220283164429937
C 8.287375097618144 8.511487663728236 10.289618506685946
C 7.925275956960073 7.092970323976551 10.598470792051144
C 7.335211847862349 9.47688581784535 9.7055634222381
C 8.764428724027827 5.94435186115573 10.33538472023138
