43
Energy = -348.15539897 eV
C 6.049154934399109 6.3363983390501994 9.930520219501876
C 5.033338332090115 6.358193600561172 8.887432395412636
C 5.461315730772425 8.833677039321975 8.506606392010339
C 6.45164505805495 4.532637639393182 8.478639364833152
C 6.912776314590406 5.1831251428207175 9.636320905947501
C 6.918345064172652 7.516413920812311 10.025225127109495
C 5.284141276078071 5.207927967570989 8.005550245841613
C 8.251827786951457 5.724789080675574 9.281211279958267
C 5.434410983571308 5.399486025488877 6.570016988346055
C 6.516909099167303 8.887353361429597 9.493475102059193
C 7.690899700203851 6.964867792648406 8.659414615060774
C 4.668924224470468 7.597676779735203 8.281483018249062
C 8.425771795546181 7.1282352039707355 9.993736600562517
C 7.485957337961226 7.580279315163637 7.531844437759557
C 7.4715833279668 4.559615058071498 7.431309398861155
C 4.3114629185479485 7.5701828419932475 6.911259808476828
C 6.826859270038197 5.089408946087431 6.220429460479483
C 4.856191527098696 6.538556049833313 6.027536447182256
C 8.69103102489467 5.129545730143241 7.908151557538434
C 7.593193393115136 10.69277218475897 8.082273844950658
C 8.972265268868023 9.503721525327398 9.585328193777645
C 10.826309971533233 9.363507859049134 6.515443913288899
C 7.844191077281493 9.491680556949625 5.988828178101421
C 8.938426057171833 11.060819774034977 7.9131454257964196
C 9.355214578271648 7.540893057315578 5.205169927697909
C 10.474041580424188 7.978495405511319 6.136984287814772
C 10.700476299117108 9.363702164430732 7.99101224320137
C 8.07492414765981 8.308156027331467 5.06778761904856
C 10.367889236094419 7.020265963666291 7.372366673127176
C 6.982855915275098 7.306010027970665 4.976486447998443
C 9.81407644298253 10.312866109011964 8.723130906976664
C 9.619728687703228 8.485112094584128 7.293080885074243
C 6.848023510955972 10.197074518223165 6.9260581930039455
C 10.387798492336406 7.947196174314884 8.58037216703788
C 8.237542689336806 8.577444704574429 7.065425486277686
C 8.941161350305153 6.240502550897844 5.684235095421979
C 5.025476047729632 8.613628337047082 6.215737361168331
C 7.540066963119023 6.001733277937716 5.412450221800045
C 5.658213433441341 7.559712007369854 5.353335851873924
C 9.472220997084994 5.9247062376252515 6.999197532358818
C 5.654932215861042 9.472187509981268 7.182954426222386
C 7.559155765607753 9.824112948649255 9.314103344265536
C 9.429230753532643 8.135289730047703 9.694888989909382
