44
Energy = -355.11700116 eV
C 7.31144580659138 7.184662685205979 2.436362129199206
C 3.8194066609400203 5.442646792939133 1.7090836778689071
C 8.77285025469488 6.623295002963049 4.2256768634014845
C 8.370609198536844 6.712465823633478 2.8891731121218682
C 4.890565697896315 7.246294702287763 3.1491077005569945
C 8.056582479654699 7.589837325824217 5.036900509471646
C 6.813156905788832 8.0813385683474 4.499481391557621
C 7.996517238671987 7.804846301617714 6.535610005034667
C 9.15509827925092 5.387587724980318 4.867442842283671
C 9.004969149436906 5.5895506769439365 7.390427334392286
C 8.512156744791213 4.211500142780075 5.211073935195985
C 3.1467436419049095 4.207218890964379 1.4633183640155372
C 6.256777936546092 7.657307091192081 3.2372775543105
C 6.783709370712282 8.508797568573147 6.789794342076464
C 4.165224633245362 7.117590062434523 4.3851743370813
C 9.19925521702453 4.941668672892768 6.218417869610676
C 8.49130634400976 6.889742160051243 7.505508106178047
C 7.102468148272414 3.750651164018048 5.304154802350683
C 5.558954953044059 5.718175314053555 6.182061280000291
C 4.4220481154193925 6.485219957505908 2.0667996772637176
C 5.952006854421781 8.369274695891123 5.608337957833066
C 6.239368210811661 8.833781951569103 8.02490555918198
C 3.152268332399319 4.4769327342146665 6.457282912403025
C 3.857871397810255 2.496719772896725 5.600764884915927
C 4.0016523608082535 3.917344235620985 7.480555843006662
C 4.340096438506579 2.5734797456546255 6.904531539836139
C 3.1125531913079305 4.629057176559027 4.137007413995951
C 5.047826131646857 7.005355784440381 9.201945108415652
C 3.242545800273478 5.836322826583497 6.0848433089064065
C 5.879341184427603 6.051688905591835 9.931444584491047
C 4.445978482350994 6.269654077421661 8.18090020043037
C 5.761403215210172 4.783097440962398 9.348812348973274
C 6.304375917098562 4.9004483984742055 5.648777859140891
C 5.273490965248853 2.3064434151672013 5.838693368977903
C 3.14003267964828 3.7184479898157567 5.240043616274491
C 5.5456141845699625 8.255336639508307 8.863336947019326
C 3.255458664185877 6.003447939869636 4.7000515629559745
C 4.6601821288709 4.799692707276556 8.36175241421332
C 7.035992401553986 5.488620134480343 9.26855183889393
C 6.517865760804969 2.538982644912343 5.420379666402816
C 4.39201693934073 6.57230489041011 6.678989302223949
C 3.1546531214639186 4.384058183387701 2.7655064681024566
C 4.7221259188227185 7.668953814609432 5.606080871365126
C 8.064752793498096 5.89947711698627 8.472978439580826
