44
Energy = -348.33485694 eV
C 5.1793978475000815 4.224456465110548 0.15634218177358136
C 4.3073174688096705 6.026451411487294 1.6718938373147088
C 3.976292419793182 1.1293136637654493 1.855299829904584
C 3.1488521078723783 2.7168818982879284 0.22622133346054266
C 4.0342125539302 3.5239638682227716 -0.14095546826593758
C 6.270458129889311 3.5849498368468673 0.9139365612804022
C 5.381677019716654 5.447779938213455 0.9692256181634206
C 2.0059729325440445 5.307039655194347 1.706858865602345
C 4.372571034808218 6.235388995692043 3.061167630533722
C 6.112164504264333 2.827013823278927 2.13507128004866
C 2.869007717332533 1.7222930287713878 1.1246682638362457
C 0.6934912962349746 3.554759564013568 3.0438346307013466
C 2.9569031113182795 5.946759414166133 1.2350875408720354
C 6.456173381378897 4.781960039467252 1.7167549107786395
C 1.0870388573314076 2.0944030920758205 3.0042894136345426
C 1.98456818492207 1.3278132107239766 2.2799544773874545
C 3.1065279603798652 0.4719814018622462 2.838213614283261
C 1.403510810050882 4.757374907636838 2.804665282829406
C 6.4212713954640295 4.078343221261064 2.962921496778949
C 0.1108249806818938 3.3962501797173155 4.387397079356119
C 4.66327552208285 0.35404425721711497 4.853248896491596
C 4.980111858261017 2.0530608050416763 2.440943310010914
C 0.6773554221165644 2.081923507800211 4.474258235296237
C 5.922842264134784 4.47391727839271 4.269072463723665
C 3.3293476588418307 3.3837063134779384 3.96674122949327
C 3.702166321956692 0.21625384165719388 4.045257994359943
C 2.010765566577102 5.424112688477504 4.173761621652197
C 5.208776720865844 5.747607619661502 4.247398067345389
C 0.7061868606768509 5.638422510286029 4.909108158054234
C 4.195511669425125 2.7451402852552325 3.3666613656990307
C 6.61641517683833 2.0951612066939904 5.056073447864479
C 3.333039460360417 6.284803380503357 4.044542013523169
C 2.4358733411577256 1.8055401422454427 6.253715825987018
C 5.39889235516331 1.3745640653434268 5.418970906932655
C 0.06504197067819986 4.574115317695764 5.145901620169231
C 1.398039953349723 1.633628365647452 5.582830238917902
C 4.295044034115838 6.352048429362168 5.199751463772584
C 2.6835928247593017 4.227209024848739 4.855201118420701
C 4.787698857034574 2.5674039407722296 6.017497854777096
C 5.824733407849277 3.325943030641346 5.212424485548437
C 3.162893431903712 5.243812081177861 6.968996553846223
C 3.4966761215477353 2.727410617377964 6.488220706582441
C 2.9378155431124764 4.070710478489469 6.236978205159656
C 3.951052277938854 6.105665531109665 6.480978171068205
