45
Energy = -354.52056936 eV
C 7.073160673670398 4.399231706744738 4.739325134209248
C 8.262309192518266 6.378693459808196 6.039921879723095
C 7.2472228977715885 8.663849420803722 5.509524132346496
C 8.790770975049382 10.510987593219319 5.720753520903271
C 8.440561142093621 7.7784856446854596 5.488559031966604
C 9.88773746054369 9.618773224308898 5.7142284528379035
C 9.745463977855751 8.246015382008162 5.898403366798054
C 4.560790496759963 5.961504074101414 5.8516799714060586
C 5.8761302406531835 8.300908700296446 6.305451557089459
C 6.1672463136002325 4.301029652729677 5.925179427006872
C 7.479506079538412 5.503533728437261 5.2070213124736116
C 9.246240371653967 5.45415703719012 6.794861646409218
C 4.8723009018934444 7.082059627735367 6.523381307575611
C 7.475036612176263 10.044738921949214 5.885678148321752
C 4.840497176548443 4.720593188216009 5.786997972116323
C 5.48193006483572 9.57418897378547 7.12695699547639
C 6.5957957910490395 10.46390153951084 6.996870348993817
C 6.538964497392522 7.686078179141827 7.491122430090846
C 6.811400428728586 4.494884598873123 7.216494150276694
C 9.81244816740695 10.618862449074587 6.745028069990765
C 10.316698242889291 7.664048223004449 7.2104048224098
C 7.798390996795257 7.008387663541343 7.48128269917781
C 10.091626217328963 6.3257937268405335 7.654988478424748
C 8.38422211547888 4.5330672389748035 7.4878695550662595
C 9.68331843707168 10.240427087772858 8.050512665052278
C 7.123848222314855 8.523786017765763 8.582151276471334
C 5.379201440463699 6.808136473873501 7.957867081000355
C 5.180933405131492 9.234053326289098 8.591944741551886
C 7.442203504637039 6.02302650456516 8.635609089899374
C 6.216580760422683 5.439400826205611 8.130156555758793
C 9.893698078958103 8.743358584054747 8.251861335601312
C 7.202705243782777 10.762535534021792 8.335765347872057
C 8.554886937517269 4.97685406257286 8.931939664606686
C 9.62499355363435 6.029518568607431 9.034463714401126
C 8.53159305762209 10.557218169149804 8.887012941854497
C 8.4054896807912 8.232430875627553 8.072064317583735
C 6.381380720999983 9.88540374846716 9.167431402808512
C 5.214631637723837 7.860960918882626 9.146430071173603
C 9.075395297648146 7.02969115739098 9.874096059552945
C 7.470031039310246 5.0811199273666166 9.986387126495517
C 6.60139558065974 7.801200055671209 9.98387821703791
C 8.507313260909077 9.575306989460783 10.033315821420672
C 9.359048327020473 8.418990832622477 9.61574210538637
C 7.597108617466491 6.626064570583537 10.073416944580233
C 7.132784350111376 9.191734002496256 10.230961297230929
