45
Energy = -359.98643126 eV
C 7.290346641443675 9.876047179644889 4.583012699857874
C 5.999926318041143 10.168832409745747 5.150859056910862
C 6.539817651452537 7.611134418734452 5.3245419390436215
C 6.35637948452275 8.83606619011551 4.729002335828757
C 7.759562272433603 10.670054783942966 6.563419035218876
C 8.36276050782407 9.948459528616738 5.53409460453798
C 8.015480697077278 7.322883876661565 5.792490913779089
C 9.081085747499271 6.166713894313742 5.792807706480755
C 8.932777404436699 8.646220820416488 6.101832868286224
C 6.305421760403583 10.582300402215443 6.514266303858089
C 10.359590064194872 8.109645012389334 6.2513157239375845
C 5.579200492151502 7.0892840983909 6.2390999816539345
C 10.295275160211496 6.6799710980129055 6.295164078918425
C 8.635337726201113 5.193626507002721 6.795045463039398
C 5.833884241307549 5.856872660867385 6.923766048950092
C 7.8398291537641125 6.779224632594803 7.178067717723253
C 7.20125267288743 5.305096962215915 7.2445044312029765
C 8.672549768993008 8.856222375167867 7.717343543507326
C 10.520708547814339 6.229247663170946 7.685999663240461
C 6.331944572976368 9.92820825491689 7.798473022913499
C 9.494147449445189 5.24549420815214 7.997580668085009
C 10.968202270282523 8.592523943073568 7.4080041902861975
C 5.186356250233712 7.643177759565116 7.63023608585624
C 7.877930394392346 10.170360806972777 7.9731098524274175
C 8.284861512685513 7.527817899129748 8.255141297595307
C 5.243551143790418 6.2693977555703935 8.188903503889623
C 9.09821504116434 10.578403069620474 8.787433481101669
C 5.707528861428533 8.748053413768709 8.368040791096764
C 10.128159506214253 9.565737563606126 8.16513851987143
C 7.2412718463911 5.073745273144792 8.699488352916557
C 10.887370767584473 7.433221361245484 8.405815499807467
C 10.465929048845524 9.373809065396497 9.595997075124053
C 6.186988776324759 5.927058261591722 9.209459368740465
C 6.20503986765232 8.361505799104243 9.730510860872167
C 9.520511794162283 10.287531185022813 10.146104073865507
C 8.36488688399374 6.784042986139394 9.69370788722828
C 8.558860487163688 5.362870822328628 9.118459559612043
C 10.481943461908102 7.969601583998138 9.717223191158173
C 6.829001887543647 7.006059545305586 9.793696680180933
C 6.50177766063342 8.999378749774428 10.894455094525354
C 8.86477164847112 9.888785898357868 11.31670671964413
C 9.345342868698687 7.538853940522537 10.54928356910639
C 7.364585765246783 8.497661529302036 11.995129015131441
C 7.422501431159675 9.847001528846148 11.611588080605815
C 8.826788106164791 8.421448898540572 11.50333505960005
