45
Energy = -361.04382159 eV
C 7.883831023638319 7.905565747949568 10.162007659623285
C 8.439523416640588 9.262877968499184 9.810129847976393
C 11.304346092387473 6.639700917581804 7.566806813057762
C 8.4828298526537 5.532081737066464 5.426405585568476
C 6.029726182528625 9.251759746821296 9.399512544494222
C 7.464630157762575 4.774298274943826 6.134543071679689
C 5.272000670116659 8.35779768106631 5.8967366063784805
C 5.860985666826743 6.648342428144079 10.079145291535779
C 9.543534601810755 7.819450609761804 8.227866431890083
C 8.308368560993525 6.4533612376281795 10.144302769577516
C 4.716565439672879 7.632588318656486 8.151428681461606
C 8.432778713830178 7.872636997755051 4.9369247814293695
C 6.519222727363016 6.585019729821438 4.589775388609123
C 8.792412483811429 9.803913250942811 7.612026585481199
C 6.727501333881606 10.264371661215037 6.7270053017160105
C 5.03680690772788 5.661948673606666 6.745053475695362
C 9.477810502861775 9.212824683890355 8.842814142146171
C 10.929527743418372 6.102700868932851 8.649471356981584
C 5.548261299558702 9.435609178290369 6.858648603462921
C 6.662720734439504 5.044741528686417 8.56805474782647
C 7.948664005224334 6.49398845438926 4.488893715359907
C 6.240327108445423 5.582113288255537 5.807463139531357
C 10.174733200880238 7.402710150978497 6.816613683834637
C 9.430274714175846 6.370552038342711 8.96282606009573
C 7.322430635126816 8.836611043130151 4.78634422648666
C 7.653909531783968 9.917189618296613 5.63425453101013
C 5.222931590244732 5.3289189134801145 8.124797127623124
C 9.657093844922166 8.489838906993109 5.6799833548554375
C 6.412702791252309 7.986656333451864 10.092434567702915
C 7.742771021857348 4.521168166331112 7.557998086526137
C 7.227847288116345 10.02539079835309 9.26214386791677
C 7.01239804585597 5.724366720932381 9.973960542554117
C 9.047088209683917 9.693048544386615 6.142666872297315
C 5.2027636883780914 8.969434543900299 8.235068170766837
C 4.924948144706903 6.497717101106673 8.988017119382922
C 7.506584996512974 10.462340081907143 7.9304720158118815
C 6.1194080645643805 8.0255273664972 4.773380755089673
C 5.005657996489589 7.190607899184902 6.795472324029989
C 7.3827003113905585 7.676075801292053 8.669813529579292
C 9.082705132639354 6.343829626499194 6.5439018415951455
C 6.672556944239875 6.763219643255474 6.724651764598187
C 7.212977221520804 6.3777436989915195 8.025731040909978
C 8.179461308426312 8.294505703240006 7.643768747030166
C 7.967264427772837 7.476761200902696 6.41720626463452
C 8.643638927960366 5.715315183043466 7.8207002282809155
