47
Energy = -375.61263613 eV
C 3.6957779975913083 4.46049748182645 4.487945394855194
C 6.916789434067728 5.476487717975513 3.6825247051007737
C 5.605332580583296 1.0828011939556415 4.215869328029121
C 6.3740033965148655 5.107066776657237 1.3696871053885706
C 1.5858970259692966 3.2151522294756876 2.649863212656707
C 4.8222332059298925 3.2654090073080875 1.0081253139519921
C 4.139288923703473 6.426486455471398 1.6466419182111873
C 7.098398107915288 4.000230084147039 3.620523875583352
C 6.124959105748798 3.896948682046935 6.7628342831521495
C 3.2673534591579245 0.539726548303269 4.999539686934262
C 5.557359365229542 1.9733001504994965 3.041665586478779
C 4.445088608357329 6.942348675775825 6.055440369798435
C 3.513036830711279 3.992122856463982 1.107355221163833
C 4.8413758474825395 3.858214035422801 7.511834838716253
C 0.4785250551865149 4.467765640844889 4.368080426749283
C 3.0727899104965912 4.744208794295465 5.663301957972476
C 1.481269606999293 2.2440869984417313 4.827669736392163
C 5.819187538610166 3.404670912490685 3.4688588247553382
C 5.448802576577203 6.8546711761181305 5.02544519579878
C 1.490961804364281 6.780737399952242 4.98612514442142
C 5.134418226652822 6.849767515521665 2.5725250302946576
C 2.241607699700237 7.4385940262674195 3.929040251787985
C 5.08376630991725 2.170648593514855 1.802825348169882
C 4.447038513210007 0.46035672428022345 4.583121267428254
C 3.6475262606367385 5.398335423773884 1.1474124770868044
C 2.7590479555644944 3.7949433833463324 6.680400353647932
C 2.5240002358060636 1.6388784260665776 5.488118788219727
C 7.619605025832965 2.3096810146655176 4.762104457006556
C 5.891615070897561 2.4127612975717136 6.3717297785378735
C 8.19923602554211 3.122867665378812 3.977516062708314
C 2.419465915430577 3.4485141974875666 1.7602704281837005
C 1.0401789723387915 3.2136353616203426 3.9484131793395023
C 3.4213895287056038 7.805874452901076 5.674769830682938
C 4.809739389278829 7.411395524059036 3.8214081743115487
C 3.201695284446057 2.4407404152402443 6.5100748072598265
C 5.937252198223805 4.129257681960599 0.7403283580356118
C 4.553717748727216 2.5134608575504447 6.969935978891486
C 4.6657864602401515 4.041003070385299 3.8407526817546898
C 6.631355175635054 4.893384279198631 6.018877033779392
C 2.3220449785325927 6.978301467600811 6.148025942253086
C 0.7194209134922108 5.63880938615283 4.687973254332172
C 3.444975355401682 5.915490330230068 6.5922717421882
C 3.4823619015703513 7.963629660286402 4.226498430773593
C 6.322691741603181 5.97347194927641 2.4924886948536598
C 6.477372113715791 1.714913337499139 5.291465490565326
C 3.6920527742417386 4.6650403382627905 7.419888267845737
C 6.476815648119281 5.867918607086892 4.987039568611058
