49
Energy = -390.85213752 eV
C 5.892588177182167 7.891047699038174 4.877798300194863
C 7.3755126659911445 9.660961601218192 4.30351327169541
C 5.879053649999485 9.449581582006976 4.742485648577956
C 6.976029544241986 7.177000889194384 4.074491013456345
C 7.995194758815333 8.290827338110091 4.318007844817462
C 4.778226700969747 7.381820573133403 5.765883819396436
C 9.23171490550625 8.04604571859892 5.15719820226834
C 8.492143747837385 5.651872979707779 5.2256945786365625
C 7.175961159826139 5.878460077183934 4.539417471763325
C 4.951070772940673 9.793232239654042 5.834256536494056
C 6.230708752916534 5.412188581576807 5.701610270210784
C 7.1996688141677 9.632591753280527 5.732503372627264
C 9.530601875867287 6.648720599676147 5.399740343199472
C 6.929860336160727 8.208630530289826 5.9937642911409466
C 5.121262621608779 6.163716822834107 6.429356560172948
C 4.32021408246645 8.570517041084823 6.369555626768666
C 9.654556759841503 8.7924630792138 6.352021532119199
C 8.439329019827495 4.832629025248004 6.5154426996659724
C 7.340683761618269 7.324028325791797 6.949191231942175
C 7.4313019092254775 6.0060276142062365 6.464282585795617
C 10.08049447469853 6.467989471646072 6.710769040130657
C 6.9135750310623525 4.557642583649431 6.736205686490444
C 9.007644753800326 10.02059660267848 7.0185538557457186
C 7.642632209546659 10.361806214291855 6.893599242072365
C 5.258353431728262 10.151051294343649 7.263602660210356
C 10.220220672667553 7.799361615305735 7.333489867319429
C 9.529527338637255 5.348978133654912 7.412750675277041
C 6.168134862764299 4.707622971035354 7.965625301723756
C 9.645283790939233 10.155658832560666 8.271764464121205
C 5.2447038569884095 5.864128798285625 7.854731904565351
C 4.587745802040628 8.96784342518967 7.758996667234974
C 7.75933848644503 7.47394294762993 8.209492547872733
C 6.548928511556599 10.206780327031227 7.888887034164193
C 8.151517089374256 6.393186741017534 9.021573724926832
C 6.553295208408356 9.218272130744122 8.969544926040538
C 8.123388792621776 4.8810080781283105 9.611491324693176
C 5.356025484445235 8.330684560212173 8.771619999163768
C 9.343459580078369 5.4298846603222986 8.893642194832015
C 10.12050782560861 7.917481926269247 8.767282303238598
C 6.754867401166604 4.347845901582918 9.186382471474262
C 7.886785555370445 8.542540464992445 9.259320298771396
C 5.331317764773095 6.860818341629177 9.049934855815343
C 9.342536788774506 9.12674008413616 9.070385907747433
C 9.606205244771989 6.813731404282692 9.61157039622475
C 8.215724202404818 7.329468793341374 10.246599834176575
C 7.5491030887975725 5.207679300942863 11.025804829791484
C 6.287301038477007 4.949885128778909 10.370095680504233
C 5.873679022092617 6.342652096989757 10.280075383668777
C 7.185014273233494 6.645348698564804 11.032987321343533
