5
Energy = -35.52237869 eV
C 6.534903930538194 5.287402574431167 5.220509035266352
C 6.057074929034951 6.107457920522414 6.091747769670212
C 5.3799918619956575 7.799741071099046 7.905743339781678
C 5.61722377257147 6.932618226899134 6.9745249526978474
C 7.066603042431187 4.450702937687474 4.383247921914695
