54
Energy = -440.57806229 eV
C 9.586835522118562 5.492072402390742 6.351423027979538
C 7.467278490026871 7.360358569853547 3.0707652543151225
C 6.701257546845388 7.089313671093007 8.792708598376745
C 3.6478599775452865 3.888931396493698 6.842675798401996
C 5.405356421644326 9.315014163710483 5.155157408713216
C 8.070039837047453 6.721796523272133 8.379102013358565
C 6.327104436038761 8.423817325806578 8.9391664850451
C 3.061994283293408 5.144134876865627 6.5418449672937955
C 7.251895319901545 4.381736962479045 9.05554208134373
C 7.679390477051699 9.207414322682322 4.505277388931358
C 9.650775887885056 7.9076094369003975 4.346665977710933
C 6.6560078996087375 3.3212512179604516 6.024065958958876
C 7.79234139691165 3.6350705501035225 6.854479742305196
C 7.44009896877783 5.986878552153486 2.783238515812819
C 5.753089701460843 6.375548403651497 7.947038599243403
C 6.457989062423069 4.714162395777312 10.147583648441765
C 6.145838747350511 7.899674730513065 3.3920974218012048
C 9.80919732200991 4.978714238130746 5.0750197145344895
C 9.317657226660858 4.698434275778518 3.9777862679313674
C 5.837136826229356 3.043451991925557 7.316339745747719
C 3.8324564919969286 4.486257732661762 5.557672532571426
C 8.21356220441625 5.283227008476965 8.374906483013609
C 3.319806864422207 6.4813760172010815 7.150489581438083
C 6.0681808868783085 6.344855961235558 6.6119597442182725
C 7.186129007211573 9.317330168821801 8.18035351238029
C 5.753833859127629 6.951493144320779 5.5451963963407085
C 5.033116832475085 5.6317175416498 3.693112446691938
C 4.5024189558590715 3.157589468153645 7.608995589032329
C 10.165888612907656 7.657542552462436 5.448757380307355
C 4.24994066978524 5.872925698646186 10.689288620420776
C 9.689551665547349 6.915220718063446 6.556023046091839
C 5.163048696489435 7.0602919495612895 4.177472564266086
C 8.154387731188438 4.792767638873725 3.257717996030385
C 4.382854415182745 6.127658947680256 8.22081444093566
C 6.866528615475874 4.166896522666614 3.590036725908443
C 3.922760841395448 8.393010573117134 7.827156434107526
C 5.087247869173754 9.074595756177665 8.312007232637514
C 8.707383125666807 4.7102124124228855 7.15842107979451
C 5.977169217341865 9.86768668458604 7.563129820867471
C 3.2334515773283656 7.193793680438269 8.521252042298185
C 4.8439398232620245 4.514385271224129 4.626486252320868
C 7.00208979243791 3.3775551588491193 8.084434643390965
C 6.147811751075159 3.756289001580712 4.737799871681904
C 5.394541277161775 5.1764359758787 10.632922601783497
C 8.113683963916408 8.90888674931808 7.193048281209155
C 4.591910973614947 8.097405657475123 5.3415393201484855
C 8.767544604580689 7.569710583656415 7.456823095681034
C 3.715610515702413 6.246266145710277 9.527916632083933
C 6.205050322766245 9.917249438966305 6.182192446283141
C 6.296078497515244 9.096887968740635 4.068108367034804
C 3.7547143476000553 7.824490728797533 6.53251945373892
C 7.607562098827 9.526789907735488 5.915493246719462
C 8.426313849860637 8.224840703527654 3.782609478537651
C 6.160028732097963 5.286714564901575 2.9711080649069914
