7
Energy = -51.89584263 eV
C 3.660491975621838 7.5614324319566375 4.27964539613318
C 7.494564744738206 6.291797402715554 7.2274831290106825
C 8.376614127736678 6.422166442285187 8.162953257902304
C 6.589104318290325 6.238911567805981 6.329615711913358
C 4.611441691751176 6.865531744644169 4.819218870082969
C 9.168772731313682 6.694291728156625 9.151092397243058
C 5.608143221687832 6.4890540309667255 5.548983494091354
