<?xml version="1.0" encoding="ISO-8859-1"?>
<modeling>
 <generator>
  <i name="program" type="string">vasp </i>
  <i name="version" type="string">5.3.5  </i>
  <i name="subversion" type="string">31Mar14 (build Feb 01 2018 12:10:03) gamma-only                       parallel </i>
  <i name="platform" type="string">LinuxIFC </i>
  <i name="date" type="string">2019 03 24 </i>
  <i name="time" type="string">03:33:22 </i>
 </generator>
 <incar>
  <i type="string" name="PREC">normal</i>
  <i type="int" name="ISPIN">     2</i>
  <i type="int" name="IBRION">     2</i>
  <i type="int" name="NSW">  1000</i>
  <i type="int" name="ISIF">     2</i>
  <i name="POTIM">      0.10000000</i>
  <i type="logical" name="LPLANE"> T  </i>
  <i type="int" name="ISMEAR">     0</i>
  <i name="SIGMA">      0.00010000</i>
  <i type="logical" name="LWAVE"> F  </i>
  <i type="logical" name="LCHARG"> F  </i>
  <i type="logical" name="LVTOT"> F  </i>
  <i type="string" name="GGA"> PE</i>
 </incar>
 <kpoints>
  <varray name="kpointlist" >
   <v>       0.00000000       0.00000000       0.00000000 </v>
  </varray>
  <varray name="weights" >
   <v>       1.00000000 </v>
  </varray>
 </kpoints>
 <parameters>
  <separator name="general" >
   <i type="string" name="SYSTEM">unknown system</i>
   <i type="logical" name="LCOMPAT"> F  </i>
  </separator>
  <separator name="electronic" >
   <i type="string" name="PREC">normal</i>
   <i name="ENMAX">    249.84400000</i>
   <i name="ENAUG">    412.49600000</i>
   <i name="EDIFF">      0.00010000</i>
   <i type="int" name="IALGO">    38</i>
   <i type="int" name="IWAVPR">    11</i>
   <i type="int" name="NBANDS">   320</i>
   <i name="NELECT">    495.00000000</i>
   <i type="int" name="TURBO">     0</i>
   <i type="int" name="IRESTART">     0</i>
   <i type="int" name="NREBOOT">     0</i>
   <i type="int" name="NMIN">     0</i>
   <i name="EREF">      0.00000000</i>
   <separator name="electronic smearing" >
    <i type="int" name="ISMEAR">     0</i>
    <i name="SIGMA">      0.00010000</i>
    <i name="KSPACING">      0.50000000</i>
    <i type="logical" name="KGAMMA"> T  </i>
   </separator>
   <separator name="electronic projectors" >
    <i type="logical" name="LREAL"> F  </i>
    <v name="ROPT">      0.00000000</v>
    <i type="int" name="LMAXPAW">  -100</i>
    <i type="int" name="LMAXMIX">     2</i>
    <i type="logical" name="NLSPLINE"> F  </i>
   </separator>
   <separator name="electronic startup" >
    <i type="int" name="ISTART">     0</i>
    <i type="int" name="ICHARG">     2</i>
    <i type="int" name="INIWAV">     1</i>
   </separator>
   <separator name="electronic spin" >
    <i type="int" name="ISPIN">     2</i>
    <i type="logical" name="LNONCOLLINEAR"> F  </i>
    <v name="MAGMOM">      1.00000000      1.00000000      1.00000000      1.00000000      1.00000000      1.00000000      1.00000000      1.00000000      1.00000000      1.00000000      1.00000000      1.00000000      1.00000000      1.00000000      1.00000000      1.00000000      1.00000000      1.00000000      1.00000000      1.00000000
      1.00000000      1.00000000      1.00000000      1.00000000      1.00000000      1.00000000      1.00000000      1.00000000      1.00000000      1.00000000      1.00000000      1.00000000      1.00000000      1.00000000      1.00000000      1.00000000      1.00000000      1.00000000      1.00000000      1.00000000
      1.00000000      1.00000000      1.00000000      1.00000000      1.00000000</v>
    <i name="NUPDOWN">     -1.00000000</i>
    <i type="logical" name="LSORBIT"> F  </i>
    <v name="SAXIS">      0.00000000      0.00000000      1.00000000</v>
    <i type="logical" name="LSPIRAL"> F  </i>
    <v name="QSPIRAL">      0.00000000      0.00000000      0.00000000</v>
    <i type="logical" name="LZEROZ"> F  </i>
   </separator>
   <separator name="electronic exchange-correlation" >
    <i type="logical" name="LASPH"> F  </i>
    <i type="logical" name="LMETAGGA"> F  </i>
   </separator>
   <separator name="electronic convergence" >
    <i type="int" name="NELM">    60</i>
    <i type="int" name="NELMDL">    -5</i>
    <i type="int" name="NELMIN">     2</i>
    <i name="ENINI">    249.84400000</i>
    <separator name="electronic convergence detail" >
     <i type="logical" name="LDIAG"> T  </i>
     <i type="logical" name="LSUBROT"> F  </i>
     <i name="WEIMIN">      0.00100000</i>
     <i name="EBREAK">      0.00000008</i>
     <i name="DEPER">      0.30000000</i>
     <i type="int" name="NRMM">     4</i>
     <i name="TIME">      0.40000000</i>
    </separator>
   </separator>
   <separator name="electronic mixer" >
    <i name="AMIX">      0.40000000</i>
    <i name="BMIX">      1.00000000</i>
    <i name="AMIN">      0.10000000</i>
    <i name="AMIX_MAG">      1.60000000</i>
    <i name="BMIX_MAG">      1.00000000</i>
    <separator name="electronic mixer details" >
     <i type="int" name="IMIX">     4</i>
     <i type="int" name="MAXMIX">   -45</i>
     <i name="WC">    100.00000000</i>
     <i type="int" name="INIMIX">     1</i>
     <i type="int" name="MIXPRE">     1</i>
     <i type="int" name="MREMOVE">     5</i>
    </separator>
   </separator>
   <separator name="electronic dipolcorrection" >
    <i type="logical" name="LDIPOL"> F  </i>
    <i type="logical" name="LMONO"> F  </i>
    <i type="int" name="IDIPOL">     0</i>
    <i name="EPSILON">      1.00000000</i>
    <v name="DIPOL">   -100.00000000   -100.00000000   -100.00000000</v>
    <i name="EFIELD">      0.00000000</i>
   </separator>
  </separator>
  <separator name="grids" >
   <i type="int" name="NGX">    90</i>
   <i type="int" name="NGY">    90</i>
   <i type="int" name="NGZ">    90</i>
   <i type="int" name="NGXF">   180</i>
   <i type="int" name="NGYF">   180</i>
   <i type="int" name="NGZF">   180</i>
   <i type="logical" name="ADDGRID"> F  </i>
  </separator>
  <separator name="ionic" >
   <i type="int" name="NSW">  1000</i>
   <i type="int" name="IBRION">     2</i>
   <i type="int" name="ISIF">     2</i>
   <i name="PSTRESS">      0.00000000</i>
   <i name="EDIFFG">      0.00100000</i>
   <i type="int" name="NFREE">     1</i>
   <i name="POTIM">      0.10000000</i>
   <i name="SMASS">     -3.00000000</i>
   <i name="SCALEE">      1.00000000</i>
  </separator>
  <separator name="ionic md" >
   <i name="TEBEG">      0.00010000</i>
   <i name="TEEND">      0.00010000</i>
   <i type="int" name="NBLOCK">     1</i>
   <i type="int" name="KBLOCK">  1000</i>
   <i type="int" name="NPACO">   256</i>
   <i name="APACO">     16.00000000</i>
  </separator>
  <separator name="symmetry" >
   <i type="int" name="ISYM">     2</i>
   <i name="SYMPREC">      0.00001000</i>
  </separator>
  <separator name="dos" >
   <i type="logical" name="LORBIT"> F  </i>
   <v name="RWIGS">     -1.00000000</v>
   <i type="int" name="NEDOS">   301</i>
   <i name="EMIN">     10.00000000</i>
   <i name="EMAX">    -10.00000000</i>
   <i name="EFERMI">      0.00000000</i>
  </separator>
  <separator name="writing" >
   <i type="int" name="NWRITE">     2</i>
   <i type="logical" name="LWAVE"> F  </i>
   <i type="logical" name="LCHARG"> F  </i>
   <i type="logical" name="LPARD"> F  </i>
   <i type="logical" name="LVTOT"> F  </i>
   <i type="logical" name="LVHAR"> F  </i>
   <i type="logical" name="LELF"> F  </i>
   <i type="logical" name="LOPTICS"> F  </i>
   <v name="STM">      0.00000000      0.00000000      0.00000000      0.00000000      0.00000000      0.00000000      0.00000000</v>
  </separator>
  <separator name="performance" >
   <i type="int" name="NPAR">     4</i>
   <i type="int" name="NSIM">     4</i>
   <i type="int" name="NBLK">    -1</i>
   <i type="logical" name="LPLANE"> T  </i>
   <i type="logical" name="LSCALAPACK"> T  </i>
   <i type="logical" name="LSCAAWARE"> F  </i>
   <i type="logical" name="LSCALU"> F  </i>
   <i type="logical" name="LASYNC"> F  </i>
   <i type="logical" name="LORBITALREAL"> F  </i>
  </separator>
  <separator name="miscellaneous" >
   <i type="int" name="IDIOT">     3</i>
   <i type="logical" name="LMUSIC"> F  </i>
   <v name="POMASS">    107.86800000</v>
   <v name="DARWINR">      0.00000000</v>
   <v name="DARWINV">      1.00000000</v>
   <i type="logical" name="LCORR"> T  </i>
  </separator>
  <i type="logical" name="GGA_COMPAT"> T  </i>
  <i type="logical" name="LBERRY"> F  </i>
  <i type="int" name="ICORELEVEL">     0</i>
  <i type="logical" name="LDAU"> F  </i>
  <i type="int" name="I_CONSTRAINED_M">     0</i>
  <separator name="electronic exchange-correlation" >
   <i type="string" name="GGA">PE</i>
   <i type="int" name="VOSKOWN">     0</i>
   <i type="logical" name="LHFCALC"> F  </i>
   <i type="string" name="PRECFOCK"></i>
   <i type="logical" name="LSYMGRAD"> F  </i>
   <i type="logical" name="LHFONE"> F  </i>
   <i type="logical" name="LRHFCALC"> F  </i>
   <i type="logical" name="LTHOMAS"> F  </i>
   <i type="logical" name="LMODELHF"> F  </i>
   <i name="ENCUT4O">     -1.00000000</i>
   <i type="int" name="EXXOEP">     0</i>
   <i type="int" name="FOURORBIT">     0</i>
   <i name="AEXX">      0.00000000</i>
   <i name="HFALPHA">      0.00000000</i>
   <i name="MCALPHA">      0.00000000</i>
   <i name="ALDAX">      1.00000000</i>
   <i name="AGGAX">      1.00000000</i>
   <i name="ALDAC">      1.00000000</i>
   <i name="AGGAC">      1.00000000</i>
   <i type="int" name="NKREDX">     1</i>
   <i type="int" name="NKREDY">     1</i>
   <i type="int" name="NKREDZ">     1</i>
   <i type="logical" name="SHIFTRED"> F  </i>
   <i type="logical" name="ODDONLY"> F  </i>
   <i type="logical" name="EVENONLY"> F  </i>
   <i type="int" name="LMAXFOCK">     0</i>
   <i type="int" name="NMAXFOCKAE">     0</i>
   <i type="logical" name="LFOCKAEDFT"> F  </i>
   <i name="HFSCREEN">      0.00000000</i>
   <i name="HFSCREENC">      0.00000000</i>
   <i type="int" name="NBANDSGWLOW">     0</i>
  </separator>
  <separator name="vdW DFT" >
   <i type="logical" name="LUSE_VDW"> F  </i>
   <i name="Zab_VDW">     -0.84910000</i>
   <i name="PARAM1">      0.12340000</i>
   <i name="PARAM2">      1.00000000</i>
   <i name="PARAM3">      0.00000000</i>
  </separator>
  <separator name="model GW" >
   <i type="int" name="MODEL_GW">     0</i>
   <i name="MODEL_EPS0">    170.56231352</i>
   <i name="MODEL_ALPHA">      1.00000000</i>
  </separator>
  <separator name="linear response parameters" >
   <i type="logical" name="LEPSILON"> F  </i>
   <i type="logical" name="LRPA"> F  </i>
   <i type="logical" name="LNABLA"> F  </i>
   <i type="logical" name="LVEL"> F  </i>
   <i type="int" name="KINTER">     0</i>
   <i name="CSHIFT">      0.10000000</i>
   <i name="OMEGAMAX">     -1.00000000</i>
   <i name="DEG_THRESHOLD">      0.00200000</i>
  </separator>
  <separator name="orbital magnetization" >
   <i type="logical" name="NUCIND"> F  </i>
   <v name="MAGPOS">      0.00000000      0.00000000      0.00000000</v>
   <i type="logical" name="LNICSALL"> T  </i>
   <i type="logical" name="ORBITALMAG"> F  </i>
   <i type="logical" name="LMAGBLOCH"> F  </i>
   <i type="logical" name="LCHIMAG"> F  </i>
   <i type="logical" name="LGAUGE"> T  </i>
   <i type="int" name="MAGATOM">     0</i>
   <v name="MAGDIPOL">      0.00000000      0.00000000      0.00000000</v>
   <v name="AVECCONST">      0.00000000      0.00000000      0.00000000</v>
  </separator>
  <separator name="response functions" >
   <i type="logical" name="LADDER"> F  </i>
   <i type="logical" name="LFXC"> F  </i>
   <i type="logical" name="LHARTREE"> T  </i>
   <i type="int" name="IBSE">     0</i>
   <i type="logical" name="LTCTE"> F  </i>
   <i type="logical" name="LTETE"> F  </i>
   <i type="logical" name="LTRIPLET"> F  </i>
   <i type="logical" name="LFXCEPS"> F  </i>
   <i type="logical" name="LFXHEG"> F  </i>
   <i type="logical" name="L2ORDER"> F  </i>
   <i type="logical" name="LUSEW"> F  </i>
   <i name="ENCUTGW">     -2.00000000</i>
   <i name="ENCUTGWSOFT">     -2.00000000</i>
   <i name="ENCUTLF">     -1.00000000</i>
   <i type="int" name="LMAXMP2">    -1</i>
   <i name="SCISSOR">      0.00000000</i>
   <i type="int" name="NOMEGA">     0</i>
   <i type="int" name="NOMEGAR">     0</i>
   <i type="int" name="NBANDSGW">    -1</i>
   <i type="int" name="NBANDSO">    -1</i>
   <i type="int" name="NBANDSV">    -1</i>
   <i type="int" name="NELM">     1</i>
   <i type="int" name="DIM">     3</i>
   <i type="int" name="ANTIRES">     0</i>
   <i name="OMEGAMAX">    -30.00000000</i>
   <i name="OMEGAMIN">    -30.00000000</i>
   <i name="OMEGATL">   -200.00000000</i>
   <i type="int" name="OMEGAGRID">     0</i>
   <i name="CSHIFT">     -0.10000000</i>
   <i type="logical" name="SELFENERGY"> F  </i>
   <i type="logical" name="LSPECTRAL"> F  </i>
   <i type="logical" name="ODDONLYGW"> F  </i>
   <i type="logical" name="EVENONLYGW"> F  </i>
   <i type="int" name="NKREDLFX">     1</i>
   <i type="int" name="NKREDLFY">     1</i>
   <i type="int" name="NKREDLFZ">     1</i>
   <i type="int" name="MAXMEM">  1800</i>
   <i type="int" name="TELESCOPE">     0</i>
   <i type="int" name="TAUPAR">     1</i>
  </separator>
  <separator name="External order field" >
   <i name="OFIELD_KAPPA">      0.00000000</i>
   <v name="OFIELD_K">      0.00000000      0.00000000      0.00000000</v>
   <i name="OFIELD_Q6_NEAR">      0.00000000</i>
   <i name="OFIELD_Q6_FAR">      0.00000000</i>
   <i name="OFIELD_A">      0.00000000</i>
  </separator>
 </parameters>
 <atominfo>
  <atoms>      45 </atoms>
  <types>       1 </types>
  <array name="atoms" >
   <dimension dim="1">ion</dimension>
   <field type="string">element</field>
   <field type="int">atomtype</field>
   <set>
    <rc><c>Ag</c><c>   1</c></rc>
    <rc><c>Ag</c><c>   1</c></rc>
    <rc><c>Ag</c><c>   1</c></rc>
    <rc><c>Ag</c><c>   1</c></rc>
    <rc><c>Ag</c><c>   1</c></rc>
    <rc><c>Ag</c><c>   1</c></rc>
    <rc><c>Ag</c><c>   1</c></rc>
    <rc><c>Ag</c><c>   1</c></rc>
    <rc><c>Ag</c><c>   1</c></rc>
    <rc><c>Ag</c><c>   1</c></rc>
    <rc><c>Ag</c><c>   1</c></rc>
    <rc><c>Ag</c><c>   1</c></rc>
    <rc><c>Ag</c><c>   1</c></rc>
    <rc><c>Ag</c><c>   1</c></rc>
    <rc><c>Ag</c><c>   1</c></rc>
    <rc><c>Ag</c><c>   1</c></rc>
    <rc><c>Ag</c><c>   1</c></rc>
    <rc><c>Ag</c><c>   1</c></rc>
    <rc><c>Ag</c><c>   1</c></rc>
    <rc><c>Ag</c><c>   1</c></rc>
    <rc><c>Ag</c><c>   1</c></rc>
    <rc><c>Ag</c><c>   1</c></rc>
    <rc><c>Ag</c><c>   1</c></rc>
    <rc><c>Ag</c><c>   1</c></rc>
    <rc><c>Ag</c><c>   1</c></rc>
    <rc><c>Ag</c><c>   1</c></rc>
    <rc><c>Ag</c><c>   1</c></rc>
    <rc><c>Ag</c><c>   1</c></rc>
    <rc><c>Ag</c><c>   1</c></rc>
    <rc><c>Ag</c><c>   1</c></rc>
    <rc><c>Ag</c><c>   1</c></rc>
    <rc><c>Ag</c><c>   1</c></rc>
    <rc><c>Ag</c><c>   1</c></rc>
    <rc><c>Ag</c><c>   1</c></rc>
    <rc><c>Ag</c><c>   1</c></rc>
    <rc><c>Ag</c><c>   1</c></rc>
    <rc><c>Ag</c><c>   1</c></rc>
    <rc><c>Ag</c><c>   1</c></rc>
    <rc><c>Ag</c><c>   1</c></rc>
    <rc><c>Ag</c><c>   1</c></rc>
    <rc><c>Ag</c><c>   1</c></rc>
    <rc><c>Ag</c><c>   1</c></rc>
    <rc><c>Ag</c><c>   1</c></rc>
    <rc><c>Ag</c><c>   1</c></rc>
    <rc><c>Ag</c><c>   1</c></rc>
   </set>
  </array>
  <array name="atomtypes" >
   <dimension dim="1">type</dimension>
   <field type="int">atomspertype</field>
   <field type="string">element</field>
   <field>mass</field>
   <field>valence</field>
   <field type="string">pseudopotential</field>
   <set>
    <rc><c>  45</c><c>Ag</c><c>    107.86800000</c><c>     11.00000000</c><c>  PAW_PBE Ag 02Apr2005                  </c></rc>
   </set>
  </array>
 </atominfo>
 <structure name="initialpos" >
  <crystal>
   <varray name="basis" >
    <v>      23.38737327       0.00000000       0.00000000 </v>
    <v>       0.00000000      23.38737327       0.00000000 </v>
    <v>       0.00000000       0.00000000      23.38737327 </v>
   </varray>
   <i name="volume">  12792.17351433 </i>
   <varray name="rec_basis" >
    <v>       0.04275812       0.00000000       0.00000000 </v>
    <v>       0.00000000       0.04275812       0.00000000 </v>
    <v>       0.00000000       0.00000000       0.04275812 </v>
   </varray>
  </crystal>
  <varray name="positions" >
   <v>       0.59258896       0.67895930       0.56465252 </v>
   <v>       0.69627879       0.63003029       0.54149516 </v>
   <v>       0.54399951       0.66686735       0.67659119 </v>
   <v>       0.70479260       0.54752002       0.45650619 </v>
   <v>       0.64091204       0.60181806       0.65575412 </v>
   <v>       0.60134381       0.60170533       0.47184953 </v>
   <v>       0.48805225       0.72646457       0.59506780 </v>
   <v>       0.65398021       0.52296192       0.56259073 </v>
   <v>       0.49629474       0.64535387       0.50343293 </v>
   <v>       0.54439788       0.56859304       0.58878570 </v>
   <v>       0.55131246       0.64352181       0.36860600 </v>
   <v>       0.61801313       0.53972562       0.36910856 </v>
   <v>       0.65449938       0.42482995       0.38449804 </v>
   <v>       0.60270041       0.49016664       0.66687253 </v>
   <v>       0.58907328       0.47182300       0.47665986 </v>
   <v>       0.44109546       0.61974616       0.63065443 </v>
   <v>       0.51273820       0.56286160       0.71048854 </v>
   <v>       0.70442099       0.43540011       0.48751985 </v>
   <v>       0.38712745       0.68413493       0.55009426 </v>
   <v>       0.64737195       0.40701884       0.58205101 </v>
   <v>       0.57667533       0.37165683       0.66303916 </v>
   <v>       0.50561647       0.54583740       0.42965321 </v>
   <v>       0.44104632       0.61405394       0.35133710 </v>
   <v>       0.50101036       0.44889536       0.71724493 </v>
   <v>       0.52035700       0.54452816       0.30032570 </v>
   <v>       0.51476993       0.45166095       0.58996368 </v>
   <v>       0.39114142       0.61185813       0.45874083 </v>
   <v>       0.44832666       0.53510074       0.53359860 </v>
   <v>       0.34328648       0.57189658       0.57492351 </v>
   <v>       0.54327504       0.44663966       0.35832149 </v>
   <v>       0.41658847       0.50971051       0.65054590 </v>
   <v>       0.55939141       0.35333578       0.52757804 </v>
   <v>       0.42106780       0.47920790       0.37596181 </v>
   <v>       0.48022283       0.43000524       0.46867477 </v>
   <v>       0.47580375       0.33679526       0.60421981 </v>
   <v>       0.48563631       0.33171056       0.72715059 </v>
   <v>       0.39934920       0.53558864       0.27357700 </v>
   <v>       0.56020853       0.34476008       0.41034956 </v>
   <v>       0.40080917       0.39786305       0.67000711 </v>
   <v>       0.33325099       0.55705134       0.37106633 </v>
   <v>       0.46545146       0.43854349       0.27127464 </v>
   <v>       0.34057053       0.50216157       0.47851798 </v>
   <v>       0.39631343       0.42592564       0.55718163 </v>
   <v>       0.45510239       0.36351609       0.36314420 </v>
   <v>       0.36958353       0.39184899       0.44443014 </v>
  </varray>
 </structure>
 <calculation>
  <scstep>
   <time name="dav">    5.38    5.39</time>
   <time name="total">    5.61    5.65</time>
   <energy>
    <i name="alphaZ">    134.64643735 </i>
    <i name="ewald"> 129043.58107482 </i>
    <i name="hartreedc">-173893.93331745 </i>
    <i name="XCdc">   -490.37337529 </i>
    <i name="pawpsdc">  45151.74801313 </i>
    <i name="pawaedc"> -43076.90739955 </i>
    <i name="eentropy">     -0.00000000 </i>
    <i name="bandstr">    644.59106847 </i>
    <i name="atom">  46673.93835389 </i>
    <i name="e_fr_energy">   4187.29085537 </i>
    <i name="e_wo_entrp">   4187.29085537 </i>
    <i name="e_0_energy">   4187.29085537 </i>
   </energy>
  </scstep>
  <scstep>
   <time name="dav">    7.93    7.93</time>
   <time name="total">    7.93    7.94</time>
   <energy>
    <i name="e_fr_energy">    722.95848364 </i>
    <i name="e_wo_entrp">    722.95848364 </i>
    <i name="e_0_energy">    722.95848364 </i>
   </energy>
  </scstep>
  <scstep>
   <time name="dav">    6.37    6.37</time>
   <time name="total">    6.37    6.91</time>
   <energy>
    <i name="e_fr_energy">    -63.31340748 </i>
    <i name="e_wo_entrp">    -63.31340748 </i>
    <i name="e_0_energy">    -63.31340748 </i>
   </energy>
  </scstep>
  <scstep>
   <time name="dav">    5.74    5.75</time>
   <time name="total">    5.75    5.75</time>
   <energy>
    <i name="e_fr_energy">    -96.54054137 </i>
    <i name="e_wo_entrp">    -96.54054137 </i>
    <i name="e_0_energy">    -96.54054137 </i>
   </energy>
  </scstep>
  <scstep>
   <time name="dav">    5.84    5.84</time>
   <time name="total">    5.97    5.98</time>
   <energy>
    <i name="e_fr_energy">    -97.03332753 </i>
    <i name="e_wo_entrp">    -97.03332753 </i>
    <i name="e_0_energy">    -97.03332753 </i>
   </energy>
  </scstep>
  <scstep>
   <time name="dav">    5.40    5.40</time>
   <time name="total">    5.78    5.78</time>
   <energy>
    <i name="e_fr_energy">    -44.84471747 </i>
    <i name="e_wo_entrp">    -44.84471747 </i>
    <i name="e_0_energy">    -44.84471747 </i>
   </energy>
  </scstep>
  <scstep>
   <time name="dav">    5.59    5.59</time>
   <time name="total">    5.95    6.28</time>
   <energy>
    <i name="e_fr_energy">    -36.83125235 </i>
    <i name="e_wo_entrp">    -36.83125235 </i>
    <i name="e_0_energy">    -36.83125235 </i>
   </energy>
  </scstep>
  <scstep>
   <time name="dav">    5.63    5.64</time>
   <time name="total">    5.99    6.00</time>
   <energy>
    <i name="e_fr_energy">    -28.65410946 </i>
    <i name="e_wo_entrp">    -28.65410946 </i>
    <i name="e_0_energy">    -28.65410946 </i>
   </energy>
  </scstep>
  <scstep>
   <time name="dav">    5.64    5.65</time>
   <time name="total">    6.00    7.19</time>
   <energy>
    <i name="e_fr_energy">    -33.69720783 </i>
    <i name="e_wo_entrp">    -33.69720783 </i>
    <i name="e_0_energy">    -33.69720783 </i>
   </energy>
  </scstep>
  <scstep>
   <time name="dav">    5.53    5.53</time>
   <time name="total">    5.90    5.93</time>
   <energy>
    <i name="e_fr_energy">    -47.87471061 </i>
    <i name="e_wo_entrp">    -47.87471061 </i>
    <i name="e_0_energy">    -47.87471061 </i>
   </energy>
  </scstep>
  <scstep>
   <time name="dav">    5.54    5.55</time>
   <time name="total">    5.93    5.95</time>
   <energy>
    <i name="e_fr_energy">    -66.87822467 </i>
    <i name="e_wo_entrp">    -66.87822467 </i>
    <i name="e_0_energy">    -66.87822467 </i>
   </energy>
  </scstep>
  <scstep>
   <time name="dav">    6.02    6.03</time>
   <time name="total">    6.40   12.42</time>
   <energy>
    <i name="e_fr_energy">    -69.22210990 </i>
    <i name="e_wo_entrp">    -69.22210990 </i>
    <i name="e_0_energy">    -69.22210990 </i>
   </energy>
  </scstep>
  <scstep>
   <time name="dav">    5.49    5.49</time>
   <time name="total">    5.86    5.96</time>
   <energy>
    <i name="e_fr_energy">    -77.32393267 </i>
    <i name="e_wo_entrp">    -77.32393267 </i>
    <i name="e_0_energy">    -77.32393267 </i>
   </energy>
  </scstep>
  <scstep>
   <time name="dav">    5.59    5.60</time>
   <time name="total">    5.95    5.98</time>
   <energy>
    <i name="e_fr_energy">    -81.00087174 </i>
    <i name="e_wo_entrp">    -81.00087174 </i>
    <i name="e_0_energy">    -81.00087174 </i>
   </energy>
  </scstep>
  <scstep>
   <time name="dav">    5.52    5.52</time>
   <time name="total">    5.89    5.92</time>
   <energy>
    <i name="e_fr_energy">    -86.78240243 </i>
    <i name="e_wo_entrp">    -86.78240243 </i>
    <i name="e_0_energy">    -86.78240243 </i>
   </energy>
  </scstep>
  <scstep>
   <time name="dav">    5.56    5.56</time>
   <time name="total">    5.93    5.94</time>
   <energy>
    <i name="e_fr_energy">    -88.02056031 </i>
    <i name="e_wo_entrp">    -88.02056031 </i>
    <i name="e_0_energy">    -88.02056031 </i>
   </energy>
  </scstep>
  <scstep>
   <time name="dav">    5.46    5.46</time>
   <time name="total">    5.82    5.87</time>
   <energy>
    <i name="e_fr_energy">    -90.03489420 </i>
    <i name="e_wo_entrp">    -90.03489420 </i>
    <i name="e_0_energy">    -90.03489420 </i>
   </energy>
  </scstep>
  <scstep>
   <time name="dav">    5.45    5.46</time>
   <time name="total">    5.82    5.84</time>
   <energy>
    <i name="e_fr_energy">    -92.62453430 </i>
    <i name="e_wo_entrp">    -92.62453430 </i>
    <i name="e_0_energy">    -92.62453430 </i>
   </energy>
  </scstep>
  <scstep>
   <time name="dav">    5.68    5.68</time>
   <time name="total">    6.04    7.92</time>
   <energy>
    <i name="e_fr_energy">    -93.70824730 </i>
    <i name="e_wo_entrp">    -93.70824730 </i>
    <i name="e_0_energy">    -93.70824730 </i>
   </energy>
  </scstep>
  <scstep>
   <time name="dav">    5.56    5.56</time>
   <time name="total">    5.93    5.99</time>
   <energy>
    <i name="e_fr_energy">    -94.92486866 </i>
    <i name="e_wo_entrp">    -94.92486866 </i>
    <i name="e_0_energy">    -94.92486866 </i>
   </energy>
  </scstep>
  <scstep>
   <time name="dav">    5.71    5.71</time>
   <time name="total">    6.08    6.10</time>
   <energy>
    <i name="e_fr_energy">    -95.34753424 </i>
    <i name="e_wo_entrp">    -95.34753424 </i>
    <i name="e_0_energy">    -95.34753424 </i>
   </energy>
  </scstep>
  <scstep>
   <time name="dav">    5.64    5.65</time>
   <time name="total">    6.02    9.72</time>
   <energy>
    <i name="e_fr_energy">    -95.51589293 </i>
    <i name="e_wo_entrp">    -95.51589293 </i>
    <i name="e_0_energy">    -95.51589293 </i>
   </energy>
  </scstep>
  <scstep>
   <time name="dav">    5.38    5.39</time>
   <time name="total">    5.75    5.78</time>
   <energy>
    <i name="e_fr_energy">    -95.60099839 </i>
    <i name="e_wo_entrp">    -95.60099839 </i>
    <i name="e_0_energy">    -95.60099839 </i>
   </energy>
  </scstep>
  <scstep>
   <time name="dav">    4.17    4.17</time>
   <time name="total">    4.58    5.03</time>
   <energy>
    <i name="e_fr_energy">    -95.63790165 </i>
    <i name="e_wo_entrp">    -95.63790165 </i>
    <i name="e_0_energy">    -95.63790165 </i>
   </energy>
  </scstep>
  <scstep>
   <time name="dav">    4.27    4.27</time>
   <time name="total">    4.66    4.73</time>
   <energy>
    <i name="e_fr_energy">    -95.65033590 </i>
    <i name="e_wo_entrp">    -95.65033590 </i>
    <i name="e_0_energy">    -95.65033590 </i>
   </energy>
  </scstep>
  <scstep>
   <time name="dav">    4.19    4.20</time>
   <time name="total">    4.56    4.57</time>
   <energy>
    <i name="e_fr_energy">    -95.66337069 </i>
    <i name="e_wo_entrp">    -95.66337069 </i>
    <i name="e_0_energy">    -95.66337069 </i>
   </energy>
  </scstep>
  <scstep>
   <time name="dav">    4.20    4.21</time>
   <time name="total">    4.57    4.60</time>
   <energy>
    <i name="e_fr_energy">    -95.67078490 </i>
    <i name="e_wo_entrp">    -95.67078490 </i>
    <i name="e_0_energy">    -95.67078490 </i>
   </energy>
  </scstep>
  <scstep>
   <time name="dav">    4.17    4.18</time>
   <time name="total">    4.55    4.56</time>
   <energy>
    <i name="e_fr_energy">    -95.67452923 </i>
    <i name="e_wo_entrp">    -95.67452923 </i>
    <i name="e_0_energy">    -95.67452923 </i>
   </energy>
  </scstep>
  <scstep>
   <time name="dav">    4.08    4.08</time>
   <time name="total">    4.46    4.55</time>
   <energy>
    <i name="e_fr_energy">    -95.67717553 </i>
    <i name="e_wo_entrp">    -95.67717553 </i>
    <i name="e_0_energy">    -95.67717553 </i>
   </energy>
  </scstep>
  <scstep>
   <time name="dav">    4.13    4.14</time>
   <time name="total">    4.52    4.54</time>
   <energy>
    <i name="e_fr_energy">    -95.67818501 </i>
    <i name="e_wo_entrp">    -95.67818501 </i>
    <i name="e_0_energy">    -95.67818501 </i>
   </energy>
  </scstep>
  <scstep>
   <time name="dav">    3.95    3.95</time>
   <time name="total">    4.35    4.51</time>
   <energy>
    <i name="e_fr_energy">    -95.67846880 </i>
    <i name="e_wo_entrp">    -95.67846880 </i>
    <i name="e_0_energy">    -95.67846880 </i>
   </energy>
  </scstep>
  <scstep>
   <time name="dav">    4.07    4.07</time>
   <time name="total">    4.45    5.92</time>
   <energy>
    <i name="e_fr_energy">    -95.67858201 </i>
    <i name="e_wo_entrp">    -95.67858201 </i>
    <i name="e_0_energy">    -95.67858201 </i>
   </energy>
  </scstep>
  <scstep>
   <time name="dav">    3.96    3.97</time>
   <time name="total">    4.20    4.22</time>
   <energy>
    <i name="alphaZ">    134.64643735 </i>
    <i name="ewald"> 129043.58107482 </i>
    <i name="hartreedc">-173813.03946290 </i>
    <i name="XCdc">   -508.20834690 </i>
    <i name="pawpsdc">  48896.88642164 </i>
    <i name="pawaedc"> -46908.37273527 </i>
    <i name="eentropy">      0.00000000 </i>
    <i name="bandstr">  -3615.11042236 </i>
    <i name="atom">  46673.93835389 </i>
    <i name="e_fr_energy">    -95.67867972 </i>
    <i name="e_wo_entrp">    -95.67867972 </i>
    <i name="e_0_energy">    -95.67867972 </i>
   </energy>
  </scstep>
  <structure>
   <crystal>
    <varray name="basis" >
     <v>      23.38737327       0.00000000       0.00000000 </v>
     <v>       0.00000000      23.38737327       0.00000000 </v>
     <v>       0.00000000       0.00000000      23.38737327 </v>
    </varray>
    <i name="volume">  12792.17351433 </i>
    <varray name="rec_basis" >
     <v>       0.04275812       0.00000000       0.00000000 </v>
     <v>       0.00000000       0.04275812       0.00000000 </v>
     <v>       0.00000000       0.00000000       0.04275812 </v>
    </varray>
   </crystal>
   <varray name="positions" >
    <v>       0.59258896       0.67895930       0.56465252 </v>
    <v>       0.69627879       0.63003029       0.54149516 </v>
    <v>       0.54399951       0.66686735       0.67659119 </v>
    <v>       0.70479260       0.54752002       0.45650619 </v>
    <v>       0.64091204       0.60181806       0.65575412 </v>
    <v>       0.60134381       0.60170533       0.47184953 </v>
    <v>       0.48805225       0.72646457       0.59506780 </v>
    <v>       0.65398021       0.52296192       0.56259073 </v>
    <v>       0.49629474       0.64535387       0.50343293 </v>
    <v>       0.54439788       0.56859304       0.58878570 </v>
    <v>       0.55131246       0.64352181       0.36860600 </v>
    <v>       0.61801313       0.53972562       0.36910856 </v>
    <v>       0.65449938       0.42482995       0.38449804 </v>
    <v>       0.60270041       0.49016664       0.66687253 </v>
    <v>       0.58907328       0.47182300       0.47665986 </v>
    <v>       0.44109546       0.61974616       0.63065443 </v>
    <v>       0.51273820       0.56286160       0.71048854 </v>
    <v>       0.70442099       0.43540011       0.48751985 </v>
    <v>       0.38712745       0.68413493       0.55009426 </v>
    <v>       0.64737195       0.40701884       0.58205101 </v>
    <v>       0.57667533       0.37165683       0.66303916 </v>
    <v>       0.50561647       0.54583740       0.42965321 </v>
    <v>       0.44104632       0.61405394       0.35133710 </v>
    <v>       0.50101036       0.44889536       0.71724493 </v>
    <v>       0.52035700       0.54452816       0.30032570 </v>
    <v>       0.51476993       0.45166095       0.58996368 </v>
    <v>       0.39114142       0.61185813       0.45874083 </v>
    <v>       0.44832666       0.53510074       0.53359860 </v>
    <v>       0.34328648       0.57189658       0.57492351 </v>
    <v>       0.54327504       0.44663966       0.35832149 </v>
    <v>       0.41658847       0.50971051       0.65054590 </v>
    <v>       0.55939141       0.35333578       0.52757804 </v>
    <v>       0.42106780       0.47920790       0.37596181 </v>
    <v>       0.48022283       0.43000524       0.46867477 </v>
    <v>       0.47580375       0.33679526       0.60421981 </v>
    <v>       0.48563631       0.33171056       0.72715059 </v>
    <v>       0.39934920       0.53558864       0.27357700 </v>
    <v>       0.56020853       0.34476008       0.41034956 </v>
    <v>       0.40080917       0.39786305       0.67000711 </v>
    <v>       0.33325099       0.55705134       0.37106633 </v>
    <v>       0.46545146       0.43854349       0.27127464 </v>
    <v>       0.34057053       0.50216157       0.47851798 </v>
    <v>       0.39631343       0.42592564       0.55718163 </v>
    <v>       0.45510239       0.36351609       0.36314420 </v>
    <v>       0.36958353       0.39184899       0.44443014 </v>
   </varray>
  </structure>
  <varray name="forces" >
   <v>       0.05329895       0.15132825       0.17555751 </v>
   <v>       0.23695632       0.20306655       0.18204518 </v>
   <v>       0.16866638       0.24513928       0.10862187 </v>
   <v>       0.06210564      -0.12004939      -0.35230047 </v>
   <v>      -0.05329198       0.03113327      -0.24879099 </v>
   <v>       0.19287619       0.12889916       0.21281417 </v>
   <v>      -0.16091161       0.18989632      -0.16416755 </v>
   <v>       0.22815276       0.02664542       0.16389887 </v>
   <v>      -0.28180777       0.28739537      -0.15126517 </v>
   <v>       0.32063599       0.09986479       0.17451127 </v>
   <v>       0.15356425      -0.17465601       0.20680301 </v>
   <v>       0.22137980      -0.00290295       0.20074966 </v>
   <v>       0.09205488      -0.06497902      -0.22105913 </v>
   <v>      -0.12040958      -0.07652680       0.05446412 </v>
   <v>       0.22270822      -0.31256501       0.03535739 </v>
   <v>       0.10573536       0.38114712       0.01243278 </v>
   <v>       0.14601995      -0.21122227      -0.01040038 </v>
   <v>       0.22384460      -0.11386326       0.08249375 </v>
   <v>      -0.05745747       0.21038346      -0.06244204 </v>
   <v>      -0.04084937       0.24862799       0.04671021 </v>
   <v>      -0.34795854      -0.27500340       0.17710637 </v>
   <v>       0.03546441       0.20994684      -0.01942589 </v>
   <v>      -0.43863804      -0.01122820       0.08615318 </v>
   <v>      -0.10339478      -0.27773746       0.21900574 </v>
   <v>      -0.33185802       0.15662817      -0.22404147 </v>
   <v>       0.11944254      -0.21120459      -0.16688574 </v>
   <v>      -0.20716196      -0.19877219      -0.10198436 </v>
   <v>      -0.26991174      -0.16765266      -0.13583613 </v>
   <v>       0.02139888       0.13200632      -0.06329186 </v>
   <v>      -0.10654230      -0.15732882       0.12729748 </v>
   <v>       0.11055222      -0.03185689       0.00211660 </v>
   <v>       0.04488946       0.26345231      -0.16068425 </v>
   <v>      -0.12856485       0.02579416       0.05456465 </v>
   <v>      -0.11505112      -0.26727552       0.06159479 </v>
   <v>      -0.19087562      -0.03626321       0.16640076 </v>
   <v>      -0.01097154      -0.02666968      -0.04790492 </v>
   <v>       0.10936706       0.00564558      -0.30221963 </v>
   <v>       0.27681569       0.09737822       0.24049258 </v>
   <v>      -0.03587191      -0.28016616       0.37275229 </v>
   <v>      -0.19133290       0.14851680      -0.05354984 </v>
   <v>      -0.09263169      -0.05905895      -0.39186805 </v>
   <v>       0.30432239      -0.04618524      -0.17771635 </v>
   <v>       0.03141280      -0.01471050      -0.04909827 </v>
   <v>      -0.08673855      -0.04009765      -0.06630060 </v>
   <v>      -0.10943342      -0.06491955       0.00728884 </v>
  </varray>
  <varray name="stress" >
   <v>      -0.99663861       0.00240181       0.34495832 </v>
   <v>       0.00240181      -0.86343954      -0.23016042 </v>
   <v>       0.34495832      -0.23016041      -1.17720891 </v>
  </varray>
  <energy>
   <i name="e_fr_energy">    -95.67867972 </i>
   <i name="e_wo_entrp">    -95.67867972 </i>
   <i name="e_0_energy">      0.00000000 </i>
  </energy>
  <time name="totalsc">  193.90  210.36</time>
 </calculation>
 <calculation>
  <scstep>
   <time name="dav">    5.47    5.48</time>
   <time name="total">    5.85    6.52</time>
   <energy>
    <i name="alphaZ">    134.64643735 </i>
    <i name="ewald"> 128978.75101356 </i>
    <i name="hartreedc">-173748.53411391 </i>
    <i name="XCdc">   -508.26631822 </i>
    <i name="pawpsdc">  48896.90957744 </i>
    <i name="pawaedc"> -46908.39632697 </i>
    <i name="eentropy">      0.00000000 </i>
    <i name="bandstr">  -3614.76592414 </i>
    <i name="atom">  46673.93835389 </i>
    <i name="e_fr_energy">    -95.71730100 </i>
    <i name="e_wo_entrp">    -95.71730100 </i>
    <i name="e_0_energy">    -95.71730100 </i>
   </energy>
  </scstep>
  <scstep>
   <time name="dav">    5.77    5.77</time>
   <time name="total">    6.18    6.19</time>
   <energy>
    <i name="e_fr_energy">    -95.71856479 </i>
    <i name="e_wo_entrp">    -95.71856479 </i>
    <i name="e_0_energy">    -95.71856479 </i>
   </energy>
  </scstep>
  <scstep>
   <time name="dav">    3.95    3.96</time>
   <time name="total">    4.18    5.33</time>
   <energy>
    <i name="alphaZ">    134.64643735 </i>
    <i name="ewald"> 128978.75101356 </i>
    <i name="hartreedc">-173748.93408325 </i>
    <i name="XCdc">   -508.25857661 </i>
    <i name="pawpsdc">  48892.26630456 </i>
    <i name="pawaedc"> -46903.67640786 </i>
    <i name="eentropy">      0.00000000 </i>
    <i name="bandstr">  -3614.45158620 </i>
    <i name="atom">  46673.93835389 </i>
    <i name="e_fr_energy">    -95.71854455 </i>
    <i name="e_wo_entrp">    -95.71854455 </i>
    <i name="e_0_energy">    -95.71854455 </i>
   </energy>
  </scstep>
  <structure>
   <crystal>
    <varray name="basis" >
     <v>      23.38737327       0.00000000       0.00000000 </v>
     <v>       0.00000000      23.38737327       0.00000000 </v>
     <v>       0.00000000       0.00000000      23.38737327 </v>
    </varray>
    <i name="volume">  12792.17351433 </i>
    <varray name="rec_basis" >
     <v>       0.04275812       0.00000000       0.00000000 </v>
     <v>       0.00000000       0.04275812       0.00000000 </v>
     <v>       0.00000000       0.00000000       0.04275812 </v>
    </varray>
   </crystal>
   <varray name="positions" >
    <v>       0.59261095       0.67902173       0.56472495 </v>
    <v>       0.69637655       0.63011406       0.54157027 </v>
    <v>       0.54406909       0.66696848       0.67663600 </v>
    <v>       0.70481822       0.54747049       0.45636085 </v>
    <v>       0.64089005       0.60183090       0.65565148 </v>
    <v>       0.60142338       0.60175850       0.47193733 </v>
    <v>       0.48798587       0.72654291       0.59500007 </v>
    <v>       0.65407433       0.52297291       0.56265835 </v>
    <v>       0.49617848       0.64547243       0.50337053 </v>
    <v>       0.54453016       0.56863424       0.58885770 </v>
    <v>       0.55137581       0.64344976       0.36869132 </v>
    <v>       0.61810447       0.53972443       0.36919138 </v>
    <v>       0.65453736       0.42480314       0.38440684 </v>
    <v>       0.60265074       0.49013507       0.66689500 </v>
    <v>       0.58916516       0.47169405       0.47667445 </v>
    <v>       0.44113908       0.61990340       0.63065956 </v>
    <v>       0.51279844       0.56277446       0.71048425 </v>
    <v>       0.70451334       0.43535314       0.48755389 </v>
    <v>       0.38710374       0.68422172       0.55006850 </v>
    <v>       0.64735510       0.40712141       0.58207028 </v>
    <v>       0.57653178       0.37154338       0.66311223 </v>
    <v>       0.50563110       0.54592402       0.42964519 </v>
    <v>       0.44086536       0.61404931       0.35137264 </v>
    <v>       0.50096770       0.44878078       0.71733528 </v>
    <v>       0.52022009       0.54459278       0.30023327 </v>
    <v>       0.51481920       0.45157382       0.58989483 </v>
    <v>       0.39105595       0.61177612       0.45869875 </v>
    <v>       0.44821531       0.53503157       0.53354256 </v>
    <v>       0.34329531       0.57195104       0.57489740 </v>
    <v>       0.54323109       0.44657475       0.35837401 </v>
    <v>       0.41663408       0.50969736       0.65054678 </v>
    <v>       0.55940993       0.35344447       0.52751175 </v>
    <v>       0.42101476       0.47921854       0.37598432 </v>
    <v>       0.48017537       0.42989498       0.46870018 </v>
    <v>       0.47572500       0.33678030       0.60428845 </v>
    <v>       0.48563179       0.33169956       0.72713083 </v>
    <v>       0.39939432       0.53559097       0.27345232 </v>
    <v>       0.56032273       0.34480025       0.41044878 </v>
    <v>       0.40079437       0.39774746       0.67016089 </v>
    <v>       0.33317205       0.55711261       0.37104424 </v>
    <v>       0.46541324       0.43851912       0.27111297 </v>
    <v>       0.34069608       0.50214252       0.47844467 </v>
    <v>       0.39632639       0.42591957       0.55716138 </v>
    <v>       0.45506660       0.36349955       0.36311685 </v>
    <v>       0.36953838       0.39182221       0.44443315 </v>
   </varray>
  </structure>
  <varray name="forces" >
   <v>       0.04487837       0.14592568       0.16449487 </v>
   <v>       0.22640598       0.18652204       0.16878859 </v>
   <v>       0.15281631       0.23056189       0.10462821 </v>
   <v>       0.05840587      -0.11260748      -0.32308381 </v>
   <v>      -0.04636701       0.03170334      -0.23363454 </v>
   <v>       0.18046823       0.12233573       0.21449306 </v>
   <v>      -0.14532769       0.18482544      -0.15486464 </v>
   <v>       0.22514969       0.03134469       0.14461071 </v>
   <v>      -0.25884136       0.26727453      -0.14184318 </v>
   <v>       0.27532174       0.09052355       0.14946975 </v>
   <v>       0.13364882      -0.17266566       0.19643388 </v>
   <v>       0.19432439      -0.00815286       0.18560888 </v>
   <v>       0.09323710      -0.05989865      -0.21123957 </v>
   <v>      -0.11725994      -0.07938178       0.05376439 </v>
   <v>       0.20786554      -0.29781400       0.03091532 </v>
   <v>       0.10367402       0.34683400       0.01238881 </v>
   <v>       0.13909787      -0.19354158      -0.01717527 </v>
   <v>       0.21552683      -0.10722959       0.07234807 </v>
   <v>      -0.05974925       0.20049253      -0.06850565 </v>
   <v>      -0.05296747       0.23288386       0.05952914 </v>
   <v>      -0.31339420      -0.25955282       0.15351483 </v>
   <v>       0.04088317       0.19026242      -0.01389282 </v>
   <v>      -0.40490909      -0.00820150       0.08032780 </v>
   <v>      -0.09924170      -0.25811095       0.21167449 </v>
   <v>      -0.31019100       0.13972340      -0.19703169 </v>
   <v>       0.11406872      -0.19262162      -0.15950145 </v>
   <v>      -0.20065587      -0.18109249      -0.08482458 </v>
   <v>      -0.23088815      -0.15052746      -0.11679830 </v>
   <v>       0.02514447       0.12962658      -0.06073114 </v>
   <v>      -0.10969178      -0.12810208       0.11082553 </v>
   <v>       0.11354491      -0.02801117      -0.00130191 </v>
   <v>       0.03605410       0.24860166      -0.13650958 </v>
   <v>      -0.11913623       0.02611551       0.04428913 </v>
   <v>      -0.10398971      -0.24873290       0.05133806 </v>
   <v>      -0.17647935      -0.03535843       0.14717107 </v>
   <v>      -0.01710343      -0.04005566      -0.03511332 </v>
   <v>       0.10110370       0.00632508      -0.28727386 </v>
   <v>       0.26316534       0.09236573       0.22321582 </v>
   <v>      -0.04109476      -0.25419022       0.34923998 </v>
   <v>      -0.18650489       0.13702566      -0.06300227 </v>
   <v>      -0.08529526      -0.05698437      -0.36439390 </v>
   <v>       0.28885408      -0.04600843      -0.17059171 </v>
   <v>       0.02871948      -0.02056807      -0.02899742 </v>
   <v>      -0.07601077      -0.03541243      -0.06349991 </v>
   <v>      -0.10725983      -0.06645113       0.00474010 </v>
  </varray>
  <varray name="stress" >
   <v>      -1.03945476      -0.00172054       0.33579965 </v>
   <v>      -0.00172056      -0.90485307      -0.22509281 </v>
   <v>       0.33579965      -0.22509281      -1.21611533 </v>
  </varray>
  <energy>
   <i name="e_fr_energy">    -95.71854455 </i>
   <i name="e_wo_entrp">    -95.71854455 </i>
   <i name="e_0_energy">      0.00000000 </i>
  </energy>
  <time name="totalsc">   26.55   28.46</time>
 </calculation>
 <calculation>
  <scstep>
   <time name="dav">    5.50    5.51</time>
   <time name="total">    5.87   12.20</time>
   <energy>
    <i name="alphaZ">    134.64643735 </i>
    <i name="ewald"> 128784.76027494 </i>
    <i name="hartreedc">-173556.02408012 </i>
    <i name="XCdc">   -508.42533572 </i>
    <i name="pawpsdc">  48888.65522686 </i>
    <i name="pawaedc"> -46900.01288334 </i>
    <i name="eentropy">      0.00000000 </i>
    <i name="bandstr">  -3613.35240364 </i>
    <i name="atom">  46673.93835389 </i>
    <i name="e_fr_energy">    -95.81440978 </i>
    <i name="e_wo_entrp">    -95.81440978 </i>
    <i name="e_0_energy">    -95.81440978 </i>
   </energy>
  </scstep>
  <scstep>
   <time name="dav">    5.68    5.69</time>
   <time name="total">    6.08    6.08</time>
   <energy>
    <i name="e_fr_energy">    -95.82567532 </i>
    <i name="e_wo_entrp">    -95.82567532 </i>
    <i name="e_0_energy">    -95.82567532 </i>
   </energy>
  </scstep>
  <scstep>
   <time name="dav">    5.74    5.74</time>
   <time name="total">    6.10    6.11</time>
   <energy>
    <i name="e_fr_energy">    -95.82546705 </i>
    <i name="e_wo_entrp">    -95.82546705 </i>
    <i name="e_0_energy">    -95.82546705 </i>
   </energy>
  </scstep>
  <scstep>
   <time name="dav">    5.70    5.70</time>
   <time name="total">    6.06    6.14</time>
   <energy>
    <i name="e_fr_energy">    -95.82523311 </i>
    <i name="e_wo_entrp">    -95.82523311 </i>
    <i name="e_0_energy">    -95.82523311 </i>
   </energy>
  </scstep>
  <scstep>
   <time name="dav">    3.99    4.00</time>
   <time name="total">    4.22    4.23</time>
   <energy>
    <i name="alphaZ">    134.64643735 </i>
    <i name="ewald"> 128784.76027494 </i>
    <i name="hartreedc">-173557.73944564 </i>
    <i name="XCdc">   -508.39432330 </i>
    <i name="pawpsdc">  48863.01066051 </i>
    <i name="pawaedc"> -46873.96267741 </i>
    <i name="eentropy">      0.00000000 </i>
    <i name="bandstr">  -3612.08451914 </i>
    <i name="atom">  46673.93835389 </i>
    <i name="e_fr_energy">    -95.82523879 </i>
    <i name="e_wo_entrp">    -95.82523879 </i>
    <i name="e_0_energy">    -95.82523879 </i>
   </energy>
  </scstep>
  <structure>
   <crystal>
    <varray name="basis" >
     <v>      23.38737327       0.00000000       0.00000000 </v>
     <v>       0.00000000      23.38737327       0.00000000 </v>
     <v>       0.00000000       0.00000000      23.38737327 </v>
    </varray>
    <i name="volume">  12792.17351433 </i>
    <varray name="rec_basis" >
     <v>       0.04275812       0.00000000       0.00000000 </v>
     <v>       0.00000000       0.04275812       0.00000000 </v>
     <v>       0.00000000       0.00000000       0.04275812 </v>
    </varray>
   </crystal>
   <varray name="positions" >
    <v>       0.59267691       0.67920902       0.56494223 </v>
    <v>       0.69666982       0.63036539       0.54179558 </v>
    <v>       0.54427784       0.66727188       0.67677044 </v>
    <v>       0.70489509       0.54732191       0.45592482 </v>
    <v>       0.64082409       0.60186943       0.65534356 </v>
    <v>       0.60166209       0.60191804       0.47220072 </v>
    <v>       0.48778672       0.72677793       0.59479689 </v>
    <v>       0.65435671       0.52300589       0.56286120 </v>
    <v>       0.49582970       0.64582813       0.50318331 </v>
    <v>       0.54492700       0.56875784       0.58907368 </v>
    <v>       0.55156587       0.64323359       0.36894727 </v>
    <v>       0.61837846       0.53972083       0.36943984 </v>
    <v>       0.65465129       0.42472272       0.38413325 </v>
    <v>       0.60250171       0.49004035       0.66696240 </v>
    <v>       0.58944080       0.47130720       0.47671821 </v>
    <v>       0.44126994       0.62037513       0.63067495 </v>
    <v>       0.51297917       0.56251304       0.71047138 </v>
    <v>       0.70479039       0.43521221       0.48765599 </v>
    <v>       0.38703263       0.68448211       0.54999121 </v>
    <v>       0.64730454       0.40742913       0.58212809 </v>
    <v>       0.57610113       0.37120302       0.66333142 </v>
    <v>       0.50567499       0.54618386       0.42962115 </v>
    <v>       0.44032247       0.61403541       0.35147927 </v>
    <v>       0.50083973       0.44843703       0.71760633 </v>
    <v>       0.51980936       0.54478663       0.29995598 </v>
    <v>       0.51496703       0.45131242       0.58968828 </v>
    <v>       0.39079956       0.61153011       0.45857253 </v>
    <v>       0.44788125       0.53482408       0.53337444 </v>
    <v>       0.34332179       0.57211442       0.57481906 </v>
    <v>       0.54309922       0.44638003       0.35853156 </v>
    <v>       0.41677091       0.50965794       0.65054940 </v>
    <v>       0.55946549       0.35377053       0.52731287 </v>
    <v>       0.42085564       0.47925046       0.37605185 </v>
    <v>       0.48003297       0.42956418       0.46877642 </v>
    <v>       0.47548876       0.33673542       0.60449440 </v>
    <v>       0.48561821       0.33166655       0.72707154 </v>
    <v>       0.39952968       0.53559795       0.27307827 </v>
    <v>       0.56066534       0.34492077       0.41074643 </v>
    <v>       0.40074997       0.39740071       0.67062223 </v>
    <v>       0.33293525       0.55729643       0.37097797 </v>
    <v>       0.46529860       0.43844603       0.27062797 </v>
    <v>       0.34107273       0.50208536       0.47822471 </v>
    <v>       0.39636526       0.42590137       0.55710061 </v>
    <v>       0.45495925       0.36344992       0.36303479 </v>
    <v>       0.36940294       0.39174186       0.44444217 </v>
   </varray>
  </structure>
  <varray name="forces" >
   <v>       0.02582504       0.14129175       0.14677022 </v>
   <v>       0.20949240       0.15348434       0.14597781 </v>
   <v>       0.11946984       0.20637518       0.09945053 </v>
   <v>       0.05272334      -0.10232348      -0.26581694 </v>
   <v>      -0.02888645       0.03767912      -0.20696124 </v>
   <v>       0.15749554       0.11165759       0.23616130 </v>
   <v>      -0.11247178       0.18486748      -0.14242167 </v>
   <v>       0.23029003       0.04635497       0.10279189 </v>
   <v>      -0.21550582       0.23019284      -0.12567283 </v>
   <v>       0.17197768       0.07169938       0.09349662 </v>
   <v>       0.09101420      -0.17719594       0.18288907 </v>
   <v>       0.13560466      -0.02244820       0.15878684 </v>
   <v>       0.10125588      -0.04948337      -0.19960557 </v>
   <v>      -0.11650197      -0.09210555       0.05557146 </v>
   <v>       0.18199792      -0.28167008       0.02108136 </v>
   <v>       0.10409644       0.27688129       0.01365778 </v>
   <v>       0.12812280      -0.16022305      -0.03529295 </v>
   <v>       0.21117802      -0.09507854       0.05033585 </v>
   <v>      -0.06928925       0.18704614      -0.09475192 </v>
   <v>      -0.08881736       0.20565487       0.09590937 </v>
   <v>      -0.23744515      -0.23519211       0.09922760 </v>
   <v>       0.05614650       0.15010383      -0.00115328 </v>
   <v>      -0.34506744      -0.00200680       0.06973409 </v>
   <v>      -0.09421120      -0.22018684       0.20556831 </v>
   <v>      -0.27500780       0.10368966      -0.13866023 </v>
   <v>       0.10899668      -0.15822650      -0.15058912 </v>
   <v>      -0.19564096      -0.14312721      -0.04218789 </v>
   <v>      -0.14123075      -0.11430171      -0.07328399 </v>
   <v>       0.03692820       0.13621532      -0.05773187 </v>
   <v>      -0.12462296      -0.05713724       0.07459299 </v>
   <v>       0.13090572      -0.01972704      -0.01002306 </v>
   <v>       0.01550763       0.22671700      -0.07974931 </v>
   <v>      -0.10232969       0.02888136       0.02184909 </v>
   <v>      -0.08048951      -0.21888767       0.02724714 </v>
   <v>      -0.15035878      -0.03497627       0.10874790 </v>
   <v>      -0.03656921      -0.07957938      -0.00360840 </v>
   <v>       0.08610434       0.00907330      -0.27670978 </v>
   <v>       0.24814716       0.08522758       0.19003846 </v>
   <v>      -0.05830756      -0.20102390       0.31096731 </v>
   <v>      -0.18547586       0.11478833      -0.09227165 </v>
   <v>      -0.07101703      -0.05539855      -0.31223702 </v>
   <v>       0.26446320      -0.04978742      -0.16353447 </v>
   <v>       0.02365169      -0.03842209       0.02288912 </v>
   <v>      -0.05335901      -0.02421410      -0.06011521 </v>
   <v>      -0.10878936      -0.07515828      -0.00136369 </v>
  </varray>
  <varray name="stress" >
   <v>      -1.14204988      -0.00988919       0.31434322 </v>
   <v>      -0.00988918      -1.00215956      -0.21286881 </v>
   <v>       0.31434322      -0.21286881      -1.30391004 </v>
  </varray>
  <energy>
   <i name="e_fr_energy">    -95.82523879 </i>
   <i name="e_wo_entrp">    -95.82523879 </i>
   <i name="e_0_energy">      0.00000000 </i>
  </energy>
  <time name="totalsc">   38.64   46.88</time>
 </calculation>
 <calculation>
  <scstep>
   <time name="dav">    5.43    5.44</time>
   <time name="total">    5.81    5.83</time>
   <energy>
    <i name="alphaZ">    134.64643735 </i>
    <i name="ewald"> 128399.01194183 </i>
    <i name="hartreedc">-173173.60784401 </i>
    <i name="XCdc">   -508.70565083 </i>
    <i name="pawpsdc">  48863.03537985 </i>
    <i name="pawaedc"> -46873.98814082 </i>
    <i name="eentropy">      0.00000000 </i>
    <i name="bandstr">  -3610.27130609 </i>
    <i name="atom">  46673.93835389 </i>
    <i name="e_fr_energy">    -95.94082885 </i>
    <i name="e_wo_entrp">    -95.94082885 </i>
    <i name="e_0_energy">    -95.94082885 </i>
   </energy>
  </scstep>
  <scstep>
   <time name="dav">    5.56    5.57</time>
   <time name="total">    5.93    5.94</time>
   <energy>
    <i name="e_fr_energy">    -95.98617426 </i>
    <i name="e_wo_entrp">    -95.98617426 </i>
    <i name="e_0_energy">    -95.98617426 </i>
   </energy>
  </scstep>
  <scstep>
   <time name="dav">    5.70    5.71</time>
   <time name="total">    6.07    6.11</time>
   <energy>
    <i name="e_fr_energy">    -95.98549886 </i>
    <i name="e_wo_entrp">    -95.98549886 </i>
    <i name="e_0_energy">    -95.98549886 </i>
   </energy>
  </scstep>
  <scstep>
   <time name="dav">    5.77    5.78</time>
   <time name="total">    6.15    6.16</time>
   <energy>
    <i name="e_fr_energy">    -95.98445517 </i>
    <i name="e_wo_entrp">    -95.98445517 </i>
    <i name="e_0_energy">    -95.98445517 </i>
   </energy>
  </scstep>
  <scstep>
   <time name="dav">    4.14    4.14</time>
   <time name="total">    4.36    4.39</time>
   <energy>
    <i name="alphaZ">    134.64643735 </i>
    <i name="ewald"> 128399.01194183 </i>
    <i name="hartreedc">-173176.91933929 </i>
    <i name="XCdc">   -508.64822125 </i>
    <i name="pawpsdc">  48819.31025911 </i>
    <i name="pawaedc"> -46829.54453308 </i>
    <i name="eentropy">      0.00000000 </i>
    <i name="bandstr">  -3607.77938570 </i>
    <i name="atom">  46673.93835389 </i>
    <i name="e_fr_energy">    -95.98448714 </i>
    <i name="e_wo_entrp">    -95.98448714 </i>
    <i name="e_0_energy">    -95.98448714 </i>
   </energy>
  </scstep>
  <structure>
   <crystal>
    <varray name="basis" >
     <v>      23.38737327       0.00000000       0.00000000 </v>
     <v>       0.00000000      23.38737327       0.00000000 </v>
     <v>       0.00000000       0.00000000      23.38737327 </v>
    </varray>
    <i name="volume">  12792.17351433 </i>
    <varray name="rec_basis" >
     <v>       0.04275812       0.00000000       0.00000000 </v>
     <v>       0.00000000       0.04275812       0.00000000 </v>
     <v>       0.00000000       0.00000000       0.04275812 </v>
    </varray>
   </crystal>
   <varray name="positions" >
    <v>       0.59280885       0.67958361       0.56537679 </v>
    <v>       0.69725636       0.63086804       0.54224619 </v>
    <v>       0.54469534       0.66787868       0.67703931 </v>
    <v>       0.70504882       0.54702475       0.45505277 </v>
    <v>       0.64069218       0.60194650       0.65472773 </v>
    <v>       0.60213952       0.60223710       0.47272750 </v>
    <v>       0.48738841       0.72724799       0.59439052 </v>
    <v>       0.65492146       0.52307184       0.56326690 </v>
    <v>       0.49513213       0.64653953       0.50280888 </v>
    <v>       0.54572067       0.56900504       0.58950565 </v>
    <v>       0.55194599       0.64280126       0.36945917 </v>
    <v>       0.61892644       0.53971365       0.36993676 </v>
    <v>       0.65487916       0.42456187       0.38358606 </v>
    <v>       0.60220366       0.48985092       0.66709722 </v>
    <v>       0.58999207       0.47053351       0.47680573 </v>
    <v>       0.44153167       0.62131859       0.63070572 </v>
    <v>       0.51334061       0.56199020       0.71044564 </v>
    <v>       0.70534447       0.43493037       0.48786019 </v>
    <v>       0.38689041       0.68500287       0.54983665 </v>
    <v>       0.64720343       0.40804456       0.58224371 </v>
    <v>       0.57523982       0.37052230       0.66376982 </v>
    <v>       0.50576277       0.54670355       0.42957307 </v>
    <v>       0.43923670       0.61400762       0.35169253 </v>
    <v>       0.50058380       0.44774954       0.71814844 </v>
    <v>       0.51898791       0.54517434       0.29940141 </v>
    <v>       0.51526269       0.45078962       0.58927519 </v>
    <v>       0.39028677       0.61103809       0.45832009 </v>
    <v>       0.44721313       0.53440908       0.53303820 </v>
    <v>       0.34337476       0.57244117       0.57466240 </v>
    <v>       0.54283550       0.44599059       0.35884666 </v>
    <v>       0.41704456       0.50957908       0.65055464 </v>
    <v>       0.55957661       0.35442266       0.52691513 </v>
    <v>       0.42053740       0.47931431       0.37618691 </v>
    <v>       0.47974818       0.42890259       0.46892888 </v>
    <v>       0.47501628       0.33664565       0.60490630 </v>
    <v>       0.48559105       0.33160053       0.72695296 </v>
    <v>       0.39980040       0.53561193       0.27233019 </v>
    <v>       0.56135055       0.34516181       0.41134172 </v>
    <v>       0.40066117       0.39670721       0.67154492 </v>
    <v>       0.33246164       0.55766405       0.37084541 </v>
    <v>       0.46506931       0.43829984       0.26965798 </v>
    <v>       0.34182602       0.50197103       0.47778481 </v>
    <v>       0.39644302       0.42586495       0.55697908 </v>
    <v>       0.45474455       0.36335067       0.36287068 </v>
    <v>       0.36913206       0.39158116       0.44446021 </v>
   </varray>
  </structure>
  <varray name="forces" >
   <v>      -0.01125046       0.12942804       0.10435765 </v>
   <v>       0.16223939       0.08239074       0.09557086 </v>
   <v>       0.05115891       0.15443266       0.08324971 </v>
   <v>       0.04451354      -0.08175802      -0.14089629 </v>
   <v>       0.01531411       0.05115154      -0.13557678 </v>
   <v>       0.11060398       0.08531847       0.26818927 </v>
   <v>      -0.04235244       0.18672770      -0.12895450 </v>
   <v>       0.23475057       0.07433894       0.01254099 </v>
   <v>      -0.12941470       0.14895509      -0.09076341 </v>
   <v>      -0.03466295       0.03193953      -0.01777091 </v>
   <v>       0.00683797      -0.17361726       0.14524069 </v>
   <v>       0.01212590      -0.05108528       0.09975173 </v>
   <v>       0.11269103      -0.02725243      -0.17261172 </v>
   <v>      -0.10830228      -0.11686403       0.05666057 </v>
   <v>       0.12937133      -0.23346160      -0.00118666 </v>
   <v>       0.10340003       0.13406243       0.01613741 </v>
   <v>       0.09904536      -0.09150700      -0.06732279 </v>
   <v>       0.19148864      -0.06755987       0.00574462 </v>
   <v>      -0.08804847       0.14896896      -0.13958029 </v>
   <v>      -0.15270985       0.13748017       0.16097978 </v>
   <v>      -0.06727270      -0.16633410      -0.01848423 </v>
   <v>       0.08185830       0.06521920       0.02402304 </v>
   <v>      -0.22903945       0.00844362       0.04043129 </v>
   <v>      -0.08065399      -0.12610441       0.18322782 </v>
   <v>      -0.19948408       0.03326248      -0.02377170 </v>
   <v>       0.09505853      -0.08432785      -0.12341634 </v>
   <v>      -0.17480952      -0.05762471       0.04834862 </v>
   <v>       0.04274571      -0.04030563       0.01144320 </v>
   <v>       0.05852573       0.15457441      -0.04857258 </v>
   <v>      -0.14707310       0.08179894       0.00265190 </v>
   <v>       0.15598833      -0.00458466      -0.02744636 </v>
   <v>      -0.01954435       0.16177608       0.04591434 </v>
   <v>      -0.06332814       0.03262689      -0.02494156 </v>
   <v>      -0.03400644      -0.15622090      -0.02354316 </v>
   <v>      -0.09793815      -0.03323059       0.03324444 </v>
   <v>      -0.07929691      -0.16645410       0.06380679 </v>
   <v>       0.04827246       0.01451550      -0.23431517 </v>
   <v>       0.22620834       0.06510167       0.10517896 </v>
   <v>      -0.09487754      -0.09240493       0.23920336 </v>
   <v>      -0.18285989       0.06312169      -0.14742532 </v>
   <v>      -0.03805229      -0.05053346      -0.19042971 </v>
   <v>       0.19686376      -0.05889553      -0.14621603 </v>
   <v>       0.01074916      -0.07335434       0.12364748 </v>
   <v>      -0.00792675      -0.00098508      -0.05186790 </v>
   <v>      -0.10690663      -0.09116895      -0.01445112 </v>
  </varray>
  <varray name="stress" >
   <v>      -1.32707475      -0.02308236       0.27356749 </v>
   <v>      -0.02308237      -1.18489977      -0.18814918 </v>
   <v>       0.27356749      -0.18814918      -1.46546476 </v>
  </varray>
  <energy>
   <i name="e_fr_energy">    -95.98448714 </i>
   <i name="e_wo_entrp">    -95.98448714 </i>
   <i name="e_0_energy">      0.00000000 </i>
  </energy>
  <time name="totalsc">   38.63   40.14</time>
 </calculation>
 <calculation>
  <scstep>
   <time name="dav">    5.40    5.41</time>
   <time name="total">    5.79    5.80</time>
   <energy>
    <i name="alphaZ">    134.64643735 </i>
    <i name="ewald"> 127636.33263701 </i>
    <i name="hartreedc">-172416.81413884 </i>
    <i name="XCdc">   -509.17043941 </i>
    <i name="pawpsdc">  48819.14835275 </i>
    <i name="pawaedc"> -46829.38126838 </i>
    <i name="eentropy">      0.00000000 </i>
    <i name="bandstr">  -3604.62276667 </i>
    <i name="atom">  46673.93835389 </i>
    <i name="e_fr_energy">    -95.92283230 </i>
    <i name="e_wo_entrp">    -95.92283230 </i>
    <i name="e_0_energy">    -95.92283230 </i>
   </energy>
  </scstep>
  <scstep>
   <time name="dav">    5.56    5.57</time>
   <time name="total">    5.93    5.94</time>
   <energy>
    <i name="e_fr_energy">    -96.10703799 </i>
    <i name="e_wo_entrp">    -96.10703799 </i>
    <i name="e_0_energy">    -96.10703799 </i>
   </energy>
  </scstep>
  <scstep>
   <time name="dav">    5.67    5.67</time>
   <time name="total">    6.04    6.04</time>
   <energy>
    <i name="e_fr_energy">    -96.10463063 </i>
    <i name="e_wo_entrp">    -96.10463063 </i>
    <i name="e_0_energy">    -96.10463063 </i>
   </energy>
  </scstep>
  <scstep>
   <time name="dav">    5.72    5.73</time>
   <time name="total">    6.10    6.11</time>
   <energy>
    <i name="e_fr_energy">    -96.10024011 </i>
    <i name="e_wo_entrp">    -96.10024011 </i>
    <i name="e_0_energy">    -96.10024011 </i>
   </energy>
  </scstep>
  <scstep>
   <time name="dav">    5.82    5.83</time>
   <time name="total">    6.20    6.47</time>
   <energy>
    <i name="e_fr_energy">    -96.10036885 </i>
    <i name="e_wo_entrp">    -96.10036885 </i>
    <i name="e_0_energy">    -96.10036885 </i>
   </energy>
  </scstep>
  <scstep>
   <time name="dav">    4.14    4.14</time>
   <time name="total">    4.36    4.37</time>
   <energy>
    <i name="alphaZ">    134.64643735 </i>
    <i name="ewald"> 127636.33263701 </i>
    <i name="hartreedc">-172422.68310561 </i>
    <i name="XCdc">   -509.06754613 </i>
    <i name="pawpsdc">  48755.12590267 </i>
    <i name="pawaedc"> -46764.20888444 </i>
    <i name="eentropy">      0.00000000 </i>
    <i name="bandstr">  -3600.18408547 </i>
    <i name="atom">  46673.93835389 </i>
    <i name="e_fr_energy">    -96.10029073 </i>
    <i name="e_wo_entrp">    -96.10029073 </i>
    <i name="e_0_energy">    -96.10029073 </i>
   </energy>
  </scstep>
  <structure>
   <crystal>
    <varray name="basis" >
     <v>      23.38737327       0.00000000       0.00000000 </v>
     <v>       0.00000000      23.38737327       0.00000000 </v>
     <v>       0.00000000       0.00000000      23.38737327 </v>
    </varray>
    <i name="volume">  12792.17351433 </i>
    <varray name="rec_basis" >
     <v>       0.04275812       0.00000000       0.00000000 </v>
     <v>       0.00000000       0.04275812       0.00000000 </v>
     <v>       0.00000000       0.00000000       0.04275812 </v>
    </varray>
   </crystal>
   <varray name="positions" >
    <v>       0.59307271       0.68033278       0.56624591 </v>
    <v>       0.69842945       0.63187335       0.54314743 </v>
    <v>       0.54553035       0.66909227       0.67757706 </v>
    <v>       0.70535628       0.54643043       0.45330865 </v>
    <v>       0.64042835       0.60210063       0.65349605 </v>
    <v>       0.60309438       0.60287524       0.47378107 </v>
    <v>       0.48659179       0.72818810       0.59357779 </v>
    <v>       0.65605096       0.52320376       0.56407831 </v>
    <v>       0.49373701       0.64796231       0.50206002 </v>
    <v>       0.54730803       0.56949943       0.59036960 </v>
    <v>       0.55270623       0.64193661       0.37048298 </v>
    <v>       0.62002241       0.53969928       0.37093060 </v>
    <v>       0.65533489       0.42424019       0.38249167 </v>
    <v>       0.60160756       0.48947207       0.66736685 </v>
    <v>       0.59109462       0.46898611       0.47698077 </v>
    <v>       0.44205513       0.62320551       0.63076727 </v>
    <v>       0.51406350       0.56094452       0.71039415 </v>
    <v>       0.70645265       0.43436667       0.48826858 </v>
    <v>       0.38660595       0.68604440       0.54952752 </v>
    <v>       0.64700120       0.40927543       0.58247496 </v>
    <v>       0.57351720       0.36916086       0.66464661 </v>
    <v>       0.50593835       0.54774292       0.42947689 </v>
    <v>       0.43706517       0.61395203       0.35211904 </v>
    <v>       0.50007193       0.44637457       0.71923266 </v>
    <v>       0.51734500       0.54594974       0.29829226 </v>
    <v>       0.51585401       0.44974403       0.58844900 </v>
    <v>       0.38926118       0.61005404       0.45781520 </v>
    <v>       0.44587690       0.53357909       0.53236572 </v>
    <v>       0.34348070       0.57309469       0.57434906 </v>
    <v>       0.54230804       0.44521172       0.35947687 </v>
    <v>       0.41759186       0.50942137       0.65056511 </v>
    <v>       0.55979884       0.35572692       0.52611964 </v>
    <v>       0.41990092       0.47944201       0.37645704 </v>
    <v>       0.47917861       0.42757941       0.46923382 </v>
    <v>       0.47407133       0.33646613       0.60573009 </v>
    <v>       0.48553673       0.33146850       0.72671580 </v>
    <v>       0.40034184       0.53563988       0.27083401 </v>
    <v>       0.56272096       0.34564390       0.41253231 </v>
    <v>       0.40048359       0.39532021       0.67339028 </v>
    <v>       0.33151442       0.55839931       0.37058031 </v>
    <v>       0.46461072       0.43800746       0.26771798 </v>
    <v>       0.34333261       0.50174239       0.47690500 </v>
    <v>       0.39659853       0.42579213       0.55673601 </v>
    <v>       0.45431514       0.36315216       0.36254245 </v>
    <v>       0.36859030       0.39125977       0.44449629 </v>
   </varray>
  </structure>
  <varray name="forces" >
   <v>      -0.07188074       0.11381893       0.01976214 </v>
   <v>       0.07337182      -0.03262885       0.01398238 </v>
   <v>      -0.06627929       0.06587248       0.04840370 </v>
   <v>       0.05786821      -0.05276986       0.09413376 </v>
   <v>       0.13405918       0.09099620       0.03937421 </v>
   <v>       0.03617289       0.03328556       0.29817335 </v>
   <v>       0.09486085       0.19960902      -0.08448382 </v>
   <v>       0.25067128       0.12886654      -0.16701249 </v>
   <v>      -0.00539869       0.01169511      -0.03894218 </v>
   <v>      -0.41630879      -0.04611936      -0.22490325 </v>
   <v>      -0.13163283      -0.13610095       0.06629471 </v>
   <v>      -0.22058423      -0.10685710      -0.01156461 </v>
   <v>       0.12674698       0.01757155      -0.10531994 </v>
   <v>      -0.08117440      -0.16860641       0.05321641 </v>
   <v>       0.04160406      -0.11242281      -0.04756447 </v>
   <v>       0.10507848      -0.11407017       0.01846056 </v>
   <v>       0.03711329       0.03308802      -0.11676646 </v>
   <v>       0.15009216      -0.00981352      -0.07690046 </v>
   <v>      -0.12533897       0.06228718      -0.20776082 </v>
   <v>      -0.25282394      -0.01164154       0.27419819 </v>
   <v>       0.27806802       0.00351103      -0.25486260 </v>
   <v>       0.11554770      -0.08942445       0.06770538 </v>
   <v>      -0.02939503       0.01929372      -0.03284755 </v>
   <v>      -0.05172280       0.09061640       0.12736816 </v>
   <v>      -0.07949223      -0.08213205       0.17105577 </v>
   <v>       0.06466919       0.05405520      -0.05501701 </v>
   <v>      -0.12249880       0.13025521       0.23099161 </v>
   <v>       0.38398350       0.08981643       0.15824890 </v>
   <v>       0.09739777       0.16015708      -0.02952813 </v>
   <v>      -0.17633637       0.32372876      -0.11984981 </v>
   <v>       0.20052535       0.01766927      -0.06334549 </v>
   <v>      -0.06314055       0.00725456       0.30874733 </v>
   <v>       0.01604451       0.03725939      -0.11436404 </v>
   <v>       0.04580507      -0.07795444      -0.12638557 </v>
   <v>      -0.02084777      -0.03076977      -0.11584869 </v>
   <v>      -0.18102885      -0.36834815       0.23347796 </v>
   <v>      -0.03628225       0.02759464      -0.15744264 </v>
   <v>       0.16766078       0.02239875      -0.08388891 </v>
   <v>      -0.17101508       0.09094690       0.12032961 </v>
   <v>      -0.18687360      -0.04536714      -0.24797714 </v>
   <v>       0.02714479      -0.03837293       0.04043796 </v>
   <v>       0.03300373      -0.09002833      -0.11575938 </v>
   <v>      -0.01807421      -0.14141898       0.29997782 </v>
   <v>       0.06868324       0.04469121      -0.04268783 </v>
   <v>      -0.09804344      -0.12149236      -0.04331661 </v>
  </varray>
  <varray name="stress" >
   <v>      -1.57058224      -0.03174645       0.20689210 </v>
   <v>      -0.03174645      -1.45629369      -0.14252681 </v>
   <v>       0.20689210      -0.14252681      -1.68538620 </v>
  </varray>
  <energy>
   <i name="e_fr_energy">    -96.10029073 </i>
   <i name="e_wo_entrp">    -96.10029073 </i>
   <i name="e_0_energy">      0.00000000 </i>
  </energy>
  <time name="totalsc">   44.71   45.09</time>
 </calculation>
 <calculation>
  <scstep>
   <time name="dav">    5.39    5.40</time>
   <time name="total">    5.77    5.79</time>
   <energy>
    <i name="alphaZ">    134.64643735 </i>
    <i name="ewald"> 127324.04344884 </i>
    <i name="hartreedc">-172112.02092420 </i>
    <i name="XCdc">   -509.37399350 </i>
    <i name="pawpsdc">  48754.49973793 </i>
    <i name="pawaedc"> -46763.57807890 </i>
    <i name="eentropy">      0.00000000 </i>
    <i name="bandstr">  -3598.32999652 </i>
    <i name="atom">  46673.93835389 </i>
    <i name="e_fr_energy">    -96.17501510 </i>
    <i name="e_wo_entrp">    -96.17501510 </i>
    <i name="e_0_energy">    -96.17501510 </i>
   </energy>
  </scstep>
  <scstep>
   <time name="dav">    5.66    5.67</time>
   <time name="total">    6.04    6.06</time>
   <energy>
    <i name="e_fr_energy">    -96.20749176 </i>
    <i name="e_wo_entrp">    -96.20749176 </i>
    <i name="e_0_energy">    -96.20749176 </i>
   </energy>
  </scstep>
  <scstep>
   <time name="dav">    5.72    5.73</time>
   <time name="total">    6.14    6.16</time>
   <energy>
    <i name="e_fr_energy">    -96.20712443 </i>
    <i name="e_wo_entrp">    -96.20712443 </i>
    <i name="e_0_energy">    -96.20712443 </i>
   </energy>
  </scstep>
  <scstep>
   <time name="dav">    5.61    5.62</time>
   <time name="total">    6.00    6.12</time>
   <energy>
    <i name="e_fr_energy">    -96.20608713 </i>
    <i name="e_wo_entrp">    -96.20608713 </i>
    <i name="e_0_energy">    -96.20608713 </i>
   </energy>
  </scstep>
  <scstep>
   <time name="dav">    5.69    5.70</time>
   <time name="total">    5.93    6.32</time>
   <energy>
    <i name="alphaZ">    134.64643735 </i>
    <i name="ewald"> 127324.04344884 </i>
    <i name="hartreedc">-172115.42207864 </i>
    <i name="XCdc">   -509.31276452 </i>
    <i name="pawpsdc">  48711.32450143 </i>
    <i name="pawaedc"> -46719.70402134 </i>
    <i name="eentropy">      0.00000000 </i>
    <i name="bandstr">  -3595.71998398 </i>
    <i name="atom">  46673.93835389 </i>
    <i name="e_fr_energy">    -96.20610696 </i>
    <i name="e_wo_entrp">    -96.20610696 </i>
    <i name="e_0_energy">    -96.20610696 </i>
   </energy>
  </scstep>
  <structure>
   <crystal>
    <varray name="basis" >
     <v>      23.38737327       0.00000000       0.00000000 </v>
     <v>       0.00000000      23.38737327       0.00000000 </v>
     <v>       0.00000000       0.00000000      23.38737327 </v>
    </varray>
    <i name="volume">  12792.17351433 </i>
    <varray name="rec_basis" >
     <v>       0.04275812       0.00000000       0.00000000 </v>
     <v>       0.00000000       0.04275812       0.00000000 </v>
     <v>       0.00000000       0.00000000       0.04275812 </v>
    </varray>
   </crystal>
   <varray name="positions" >
    <v>       0.59299025       0.68078065       0.56652463 </v>
    <v>       0.69890582       0.63207670       0.54342248 </v>
    <v>       0.54561521       0.66956357       0.67782712 </v>
    <v>       0.70556403       0.54615562       0.45303636 </v>
    <v>       0.64064421       0.60233775       0.65324562 </v>
    <v>       0.60343162       0.60312016       0.47470720 </v>
    <v>       0.48657869       0.72887193       0.59317556 </v>
    <v>       0.65689584       0.52351608       0.56394064 </v>
    <v>       0.49334608       0.64837427       0.50177286 </v>
    <v>       0.54684654       0.56953492       0.59012203 </v>
    <v>       0.55263056       0.64140952       0.37090358 </v>
    <v>       0.61984720       0.53946613       0.37117602 </v>
    <v>       0.65573071       0.42419041       0.38196816 </v>
    <v>       0.60127133       0.48900735       0.66755433 </v>
    <v>       0.59148366       0.46832418       0.47692633 </v>
    <v>       0.44242288       0.62347387       0.63082361 </v>
    <v>       0.51433968       0.56073117       0.71012965 </v>
    <v>       0.70707596       0.43419235       0.48821466 </v>
    <v>       0.38625972       0.68646123       0.54899776 </v>
    <v>       0.64640383       0.40958514       0.58312607 </v>
    <v>       0.57364534       0.36879820       0.66433826 </v>
    <v>       0.50623397       0.54783369       0.42959599 </v>
    <v>       0.43641165       0.61397831       0.35216454 </v>
    <v>       0.49982179       0.44619510       0.71980071 </v>
    <v>       0.51672775       0.54598439       0.29835764 </v>
    <v>       0.51615352       0.44957568       0.58810632 </v>
    <v>       0.38871953       0.61006590       0.45817346 </v>
    <v>       0.44633732       0.53354610       0.53252236 </v>
    <v>       0.34371845       0.57361596       0.57420052 </v>
    <v>       0.54178634       0.44569442       0.35939111 </v>
    <v>       0.41817086       0.50941639       0.65043207 </v>
    <v>       0.55972381       0.35609712       0.52656569 </v>
    <v>       0.41976228       0.47955666       0.37628515 </v>
    <v>       0.47912200       0.42705239       0.46904560 </v>
    <v>       0.47376966       0.33635130       0.60570555 </v>
    <v>       0.48513361       0.33064239       0.72715219 </v>
    <v>       0.40041122       0.53570668       0.27008943 </v>
    <v>       0.56345326       0.34582303       0.41267608 </v>
    <v>       0.40006842       0.39513818       0.67415018 </v>
    <v>       0.33085597       0.55850190       0.36997624 </v>
    <v>       0.46454426       0.43784564       0.26727723 </v>
    <v>       0.34381307       0.50148708       0.47641744 </v>
    <v>       0.39660205       0.42546894       0.55731345 </v>
    <v>       0.45434572       0.36319406       0.36236162 </v>
    <v>       0.36823266       0.39091175       0.44441318 </v>
   </varray>
  </structure>
  <varray name="forces" >
   <v>      -0.06513222       0.08744751       0.01616875 </v>
   <v>       0.05129251      -0.01945117       0.00579308 </v>
   <v>      -0.07420780       0.04290538       0.02170689 </v>
   <v>       0.05237964      -0.03337382       0.10658928 </v>
   <v>       0.06854202       0.04793730       0.02826137 </v>
   <v>       0.01284689      -0.00809539       0.23394660 </v>
   <v>       0.07860247       0.16241326      -0.08118469 </v>
   <v>       0.17530873       0.08138333      -0.13265281 </v>
   <v>       0.02340904       0.00218462      -0.03305562 </v>
   <v>      -0.29240691      -0.03867252      -0.18855553 </v>
   <v>      -0.13902114      -0.09481566       0.06436861 </v>
   <v>      -0.21419495      -0.09395589       0.00532225 </v>
   <v>       0.08129944       0.03481351      -0.08012446 </v>
   <v>      -0.04752305      -0.09232526       0.01354082 </v>
   <v>       0.04371019      -0.08158345      -0.04773163 </v>
   <v>       0.06964906      -0.07789668      -0.02354080 </v>
   <v>       0.03468754       0.06443221      -0.10940351 </v>
   <v>       0.08536074      -0.01992434      -0.02440319 </v>
   <v>      -0.07611023       0.05442940      -0.16050204 </v>
   <v>      -0.13611384       0.05100140       0.16007299 </v>
   <v>       0.13720571      -0.02755711      -0.14943106 </v>
   <v>       0.09456887      -0.11308195       0.08794923 </v>
   <v>      -0.01123249      -0.00149780      -0.00397731 </v>
   <v>      -0.03467894       0.02616400       0.08960076 </v>
   <v>      -0.07841960      -0.06854043       0.16781956 </v>
   <v>       0.04431257       0.06811568      -0.02292677 </v>
   <v>      -0.11909411       0.09387688       0.16366734 </v>
   <v>       0.30455000       0.06840067       0.11740544 </v>
   <v>       0.11745367       0.12939011      -0.04710097 </v>
   <v>      -0.10431266       0.23636092      -0.07935447 </v>
   <v>       0.18890731      -0.00179262      -0.06732031 </v>
   <v>      -0.06125422      -0.06224398       0.25143365 </v>
   <v>       0.01040582       0.04898011      -0.11525032 </v>
   <v>       0.01777962      -0.05905227      -0.11496843 </v>
   <v>      -0.03919703      -0.00581984      -0.06807785 </v>
   <v>      -0.12418014      -0.27103979       0.16886940 </v>
   <v>      -0.05186050       0.02725328      -0.11997180 </v>
   <v>       0.13319179       0.07496752      -0.08859344 </v>
   <v>      -0.11803596       0.09188585       0.10170332 </v>
   <v>      -0.12561946      -0.05337762      -0.21317037 </v>
[...]
       <r>     0.5564     0.0000   290.0000 </r>
       <r>     0.5971     0.0000   291.0000 </r>
       <r>     0.6379     0.0000   291.0000 </r>
       <r>     0.6786     0.0000   293.0000 </r>
       <r>     0.7194     0.0000   294.0000 </r>
       <r>     0.7601     0.0000   295.0000 </r>
       <r>     0.8009     0.0000   295.0000 </r>
       <r>     0.8416     0.0000   297.0000 </r>
       <r>     0.8824     0.0000   298.0000 </r>
       <r>     0.9231     0.0000   299.0000 </r>
       <r>     0.9638     0.0000   301.0000 </r>
       <r>     1.0046     0.0000   304.0000 </r>
       <r>     1.0453     0.0000   305.0000 </r>
       <r>     1.0861     0.0000   308.0000 </r>
       <r>     1.1268     0.0000   310.0000 </r>
       <r>     1.1676     0.0000   311.0000 </r>
       <r>     1.2083     0.0000   312.0000 </r>
       <r>     1.2491     0.0000   314.0000 </r>
       <r>     1.2898     0.0000   316.0000 </r>
       <r>     1.3306     0.0000   318.0000 </r>
       <r>     1.3713     0.0000   320.0000 </r>
       <r>     1.4121     0.0000   320.0000 </r>
       <r>     1.4528     0.0000   320.0000 </r>
       <r>     1.4936     0.0000   320.0000 </r>
       <r>     1.5343     0.0000   320.0000 </r>
       <r>     1.5751     0.0000   320.0000 </r>
       <r>     1.6158     0.0000   320.0000 </r>
       <r>     1.6566     0.0000   320.0000 </r>
       <r>     1.6973     0.0000   320.0000 </r>
       <r>     1.7381     0.0000   320.0000 </r>
       <r>     1.7788     0.0000   320.0000 </r>
       <r>     1.8196     0.0000   320.0000 </r>
       <r>     1.8603     0.0000   320.0000 </r>
       <r>     1.9011     0.0000   320.0000 </r>
      </set>
      <set comment="spin 2">
       <r>   -10.3234     0.0000     0.0000 </r>
       <r>   -10.2826     0.0000     0.0000 </r>
       <r>   -10.2419     0.0000     0.0000 </r>
       <r>   -10.2011     0.0000     0.0000 </r>
       <r>   -10.1604     0.0000     0.0000 </r>
       <r>   -10.1196     0.0000     0.0000 </r>
       <r>   -10.0789     0.0000     0.0000 </r>
       <r>   -10.0382     0.0000     0.0000 </r>
       <r>    -9.9974     0.0000     0.0000 </r>
       <r>    -9.9567     0.0000     0.0000 </r>
       <r>    -9.9159     0.0000     0.0000 </r>
       <r>    -9.8752     0.0000     0.0000 </r>
       <r>    -9.8344     0.0000     0.0000 </r>
       <r>    -9.7937     0.0000     0.0000 </r>
       <r>    -9.7529     0.0000     0.0000 </r>
       <r>    -9.7122     0.0000     1.0000 </r>
       <r>    -9.6714     0.0000     1.0000 </r>
       <r>    -9.6307     0.0000     1.0000 </r>
       <r>    -9.5899     0.0000     1.0000 </r>
       <r>    -9.5492     0.0000     1.0000 </r>
       <r>    -9.5084     0.0000     1.0000 </r>
       <r>    -9.4677     0.0000     1.0000 </r>
       <r>    -9.4269     0.0000     1.0000 </r>
       <r>    -9.3862     0.0000     1.0000 </r>
       <r>    -9.3454     0.0000     1.0000 </r>
       <r>    -9.3047     0.0000     1.0000 </r>
       <r>    -9.2639     0.0000     1.0000 </r>
       <r>    -9.2232     0.0000     1.0000 </r>
       <r>    -9.1824     0.0000     2.0000 </r>
       <r>    -9.1417     0.0000     3.0000 </r>
       <r>    -9.1009     0.0000     4.0000 </r>
       <r>    -9.0602     0.0000     6.0000 </r>
       <r>    -9.0194     0.0000     8.0000 </r>
       <r>    -8.9787     0.0000     9.0000 </r>
       <r>    -8.9380     0.0000    11.0000 </r>
       <r>    -8.8972     0.0000    13.0000 </r>
       <r>    -8.8565     0.0000    15.0000 </r>
       <r>    -8.8157     0.0000    16.0000 </r>
       <r>    -8.7750     0.0000    18.0000 </r>
       <r>    -8.7342     0.0000    21.0000 </r>
       <r>    -8.6935     2.7237    22.1110 </r>
       <r>    -8.6527     0.0000    25.0000 </r>
       <r>    -8.6120     0.0000    27.0000 </r>
       <r>    -8.5712     0.0000    30.0000 </r>
       <r>    -8.5305     0.0000    34.0000 </r>
       <r>    -8.4897     0.0000    36.0000 </r>
       <r>    -8.4490    24.5326    38.9997 </r>
       <r>    -8.4082     0.0000    41.0000 </r>
       <r>    -8.3675     0.0000    43.0000 </r>
       <r>    -8.3267     0.0000    46.0000 </r>
       <r>    -8.2860     0.0000    48.0000 </r>
       <r>    -8.2452     0.0000    51.0000 </r>
       <r>    -8.2045     0.0000    54.0000 </r>
       <r>    -8.1637     0.0000    57.0000 </r>
       <r>    -8.1230     0.0000    59.0000 </r>
       <r>    -8.0822     0.0000    62.0000 </r>
       <r>    -8.0415     0.0000    65.0000 </r>
       <r>    -8.0007     0.0000    68.0000 </r>
       <r>    -7.9600     0.0000    71.0000 </r>
       <r>    -7.9192     0.0000    74.0000 </r>
       <r>    -7.8785     0.0000    77.0000 </r>
       <r>    -7.8378     0.0000    80.0000 </r>
       <r>    -7.7970     0.0000    83.0000 </r>
       <r>    -7.7563     0.0000    86.0000 </r>
       <r>    -7.7155     0.0000    88.0000 </r>
       <r>    -7.6748    24.5392    91.9999 </r>
       <r>    -7.6340     0.0000    94.0000 </r>
       <r>    -7.5933     0.0000    97.0000 </r>
       <r>    -7.5525     0.0000   100.0000 </r>
       <r>    -7.5118    24.5164   103.9990 </r>
       <r>    -7.4710     0.0000   107.0000 </r>
       <r>    -7.4303     0.0000   109.0000 </r>
       <r>    -7.3895     0.0000   114.0000 </r>
       <r>    -7.3488     0.0000   116.0000 </r>
       <r>    -7.3080     0.0000   119.0000 </r>
       <r>    -7.2673     0.0000   123.0000 </r>
       <r>    -7.2265     0.0000   125.0000 </r>
       <r>    -7.1858     0.0000   128.0000 </r>
       <r>    -7.1450     0.0000   131.0000 </r>
       <r>    -7.1043     0.0000   136.0000 </r>
       <r>    -7.0635     0.0000   138.0000 </r>
       <r>    -7.0228     0.0000   142.0000 </r>
       <r>    -6.9820     0.0014   144.0001 </r>
       <r>    -6.9413     0.0000   147.0000 </r>
       <r>    -6.9005     0.0000   150.0000 </r>
       <r>    -6.8598     0.0000   154.0000 </r>
       <r>    -6.8190     0.0000   159.0000 </r>
       <r>    -6.7783     0.0000   163.0000 </r>
       <r>    -6.7376     0.0000   168.0000 </r>
       <r>    -6.6968     0.0000   173.0000 </r>
       <r>    -6.6561     0.0000   178.0000 </r>
       <r>    -6.6153     0.0000   182.0000 </r>
       <r>    -6.5746     0.0000   187.0000 </r>
       <r>    -6.5338     0.0000   191.0000 </r>
       <r>    -6.4931     0.0000   195.0000 </r>
       <r>    -6.4523     0.0000   200.0000 </r>
       <r>    -6.4116     0.0000   204.0000 </r>
       <r>    -6.3708     0.0952   209.0039 </r>
       <r>    -6.3301     0.0000   213.0000 </r>
       <r>    -6.2893     0.0000   217.0000 </r>
       <r>    -6.2486     0.0000   220.0000 </r>
       <r>    -6.2078     0.0000   222.0000 </r>
       <r>    -6.1671     0.0000   225.0000 </r>
       <r>    -6.1263     0.0000   227.0000 </r>
       <r>    -6.0856     0.0000   229.0000 </r>
       <r>    -6.0448     0.0000   231.0000 </r>
       <r>    -6.0041     0.0000   231.0000 </r>
       <r>    -5.9633     0.0000   231.0000 </r>
       <r>    -5.9226     0.0000   232.0000 </r>
       <r>    -5.8818     0.0000   232.0000 </r>
       <r>    -5.8411     0.0000   232.0000 </r>
       <r>    -5.8003     0.0000   233.0000 </r>
       <r>    -5.7596     0.0000   233.0000 </r>
       <r>    -5.7188     0.0000   234.0000 </r>
       <r>    -5.6781     0.0000   234.0000 </r>
       <r>    -5.6374     0.0000   234.0000 </r>
       <r>    -5.5966     0.0000   235.0000 </r>
       <r>    -5.5559     0.0000   235.0000 </r>
       <r>    -5.5151     0.0000   235.0000 </r>
       <r>    -5.4744     0.0000   235.0000 </r>
       <r>    -5.4336     0.0000   235.0000 </r>
       <r>    -5.3929     0.0000   235.0000 </r>
       <r>    -5.3521     0.0000   235.0000 </r>
       <r>    -5.3114     0.0000   235.0000 </r>
       <r>    -5.2706     0.0000   235.0000 </r>
       <r>    -5.2299     0.0000   235.0000 </r>
       <r>    -5.1891     0.0000   235.0000 </r>
       <r>    -5.1484     0.0000   235.0000 </r>
       <r>    -5.1076     0.0000   235.0000 </r>
       <r>    -5.0669     0.0000   236.0000 </r>
       <r>    -5.0261     0.0000   236.0000 </r>
       <r>    -4.9854     0.0000   236.0000 </r>
       <r>    -4.9446     0.0000   237.0000 </r>
       <r>    -4.9039     0.0000   237.0000 </r>
       <r>    -4.8631     0.0000   237.0000 </r>
       <r>    -4.8224     0.0000   237.0000 </r>
       <r>    -4.7816     0.0000   237.0000 </r>
       <r>    -4.7409     0.0000   238.0000 </r>
       <r>    -4.7001     0.0000   238.0000 </r>
       <r>    -4.6594     0.0000   238.0000 </r>
       <r>    -4.6186     0.0000   239.0000 </r>
       <r>    -4.5779     0.0000   239.0000 </r>
       <r>    -4.5372     0.0000   240.0000 </r>
       <r>    -4.4964     0.0000   240.0000 </r>
       <r>    -4.4557     0.0000   240.0000 </r>
       <r>    -4.4149     0.0000   241.0000 </r>
       <r>    -4.3742     0.0000   241.0000 </r>
       <r>    -4.3334     0.0000   241.0000 </r>
       <r>    -4.2927     0.0000   241.0000 </r>
       <r>    -4.2519     0.0000   241.0000 </r>
       <r>    -4.2112     0.0000   241.0000 </r>
       <r>    -4.1704     0.0000   241.0000 </r>
       <r>    -4.1297     0.0000   242.0000 </r>
       <r>    -4.0889     0.0000   242.0000 </r>
       <r>    -4.0482     0.0000   243.0000 </r>
       <r>    -4.0074     0.0000   243.0000 </r>
       <r>    -3.9667     0.0000   243.0000 </r>
       <r>    -3.9259     0.0000   244.0000 </r>
       <r>    -3.8852     0.0000   244.0000 </r>
       <r>    -3.8444     0.0000   244.0000 </r>
       <r>    -3.8037     0.0000   244.0000 </r>
       <r>    -3.7629     0.0000   245.0000 </r>
       <r>    -3.7222     0.0000   245.0000 </r>
       <r>    -3.6814     0.0000   245.0000 </r>
       <r>    -3.6407     0.0000   245.0000 </r>
       <r>    -3.5999     0.0000   245.0000 </r>
       <r>    -3.5592     0.0000   245.0000 </r>
       <r>    -3.5184     0.0000   246.0000 </r>
       <r>    -3.4777     0.0000   246.0000 </r>
       <r>    -3.4370     0.0000   246.0000 </r>
       <r>    -3.3962     0.0000   246.0000 </r>
       <r>    -3.3555     0.0000   247.0000 </r>
       <r>    -3.3147     0.0000   247.0000 </r>
       <r>    -3.2740     0.0000   247.0000 </r>
       <r>    -3.2332     0.0000   247.0000 </r>
       <r>    -3.1925     0.0000   248.0000 </r>
       <r>    -3.1517     0.0000   248.0000 </r>
       <r>    -3.1110     0.0000   248.0000 </r>
       <r>    -3.0702     0.0000   248.0000 </r>
       <r>    -3.0295     0.0000   249.0000 </r>
       <r>    -2.9887     0.0000   249.0000 </r>
       <r>    -2.9480     0.0000   249.0000 </r>
       <r>    -2.9072     0.0000   250.0000 </r>
       <r>    -2.8665     0.0000   250.0000 </r>
       <r>    -2.8257     0.0000   251.0000 </r>
       <r>    -2.7850     0.0000   251.0000 </r>
       <r>    -2.7442     0.0000   252.0000 </r>
       <r>    -2.7035     0.0000   252.0000 </r>
       <r>    -2.6627     0.0000   253.0000 </r>
       <r>    -2.6220     0.0000   253.0000 </r>
       <r>    -2.5812     0.0000   253.0000 </r>
       <r>    -2.5405     0.0000   254.0000 </r>
       <r>    -2.4997     0.0000   255.0000 </r>
       <r>    -2.4590     0.0000   255.0000 </r>
       <r>    -2.4182     0.0000   255.0000 </r>
       <r>    -2.3775     0.0000   256.0000 </r>
       <r>    -2.3368     0.0000   256.0000 </r>
       <r>    -2.2960     0.0000   257.0000 </r>
       <r>    -2.2553     0.0000   257.0000 </r>
       <r>    -2.2145     0.0000   257.0000 </r>
       <r>    -2.1738     0.0000   258.0000 </r>
       <r>    -2.1330     0.0000   258.0000 </r>
       <r>    -2.0923     0.0000   259.0000 </r>
       <r>    -2.0515     0.0000   259.0000 </r>
       <r>    -2.0108     0.0000   259.0000 </r>
       <r>    -1.9700     0.0000   260.0000 </r>
       <r>    -1.9293     0.0000   260.0000 </r>
       <r>    -1.8885     0.0000   261.0000 </r>
       <r>    -1.8478     0.0000   261.0000 </r>
       <r>    -1.8070     0.0000   261.0000 </r>
       <r>    -1.7663     0.0000   261.0000 </r>
       <r>    -1.7255     0.0000   261.0000 </r>
       <r>    -1.6848     0.0000   262.0000 </r>
       <r>    -1.6440     0.0000   263.0000 </r>
       <r>    -1.6033     0.0000   263.0000 </r>
       <r>    -1.5625     0.0000   263.0000 </r>
       <r>    -1.5218     0.0000   263.0000 </r>
       <r>    -1.4810     0.0000   264.0000 </r>
       <r>    -1.4403     0.0000   264.0000 </r>
       <r>    -1.3995     0.0000   265.0000 </r>
       <r>    -1.3588     0.0000   265.0000 </r>
       <r>    -1.3180     0.0000   265.0000 </r>
       <r>    -1.2773     0.0000   266.0000 </r>
       <r>    -1.2366     0.0000   267.0000 </r>
       <r>    -1.1958     0.0000   267.0000 </r>
       <r>    -1.1551    24.5410   268.0000 </r>
       <r>    -1.1143     0.0000   268.0000 </r>
       <r>    -1.0736     0.0000   268.0000 </r>
       <r>    -1.0328     0.0000   269.0000 </r>
       <r>    -0.9921     0.0000   270.0000 </r>
       <r>    -0.9513     0.0000   271.0000 </r>
       <r>    -0.9106     0.0000   271.0000 </r>
       <r>    -0.8698     0.0000   271.0000 </r>
       <r>    -0.8291     0.0000   273.0000 </r>
       <r>    -0.7883     0.0000   273.0000 </r>
       <r>    -0.7476     0.0000   273.0000 </r>
       <r>    -0.7068    24.5410   275.0000 </r>
       <r>    -0.6661     0.0000   275.0000 </r>
       <r>    -0.6253     0.0000   275.0000 </r>
       <r>    -0.5846     0.0000   276.0000 </r>
       <r>    -0.5438     0.0000   277.0000 </r>
       <r>    -0.5031     0.0000   277.0000 </r>
       <r>    -0.4623     0.0000   278.0000 </r>
       <r>    -0.4216     0.0000   278.0000 </r>
       <r>    -0.3808     0.0000   278.0000 </r>
       <r>    -0.3401     0.0000   278.0000 </r>
       <r>    -0.2993     0.0000   279.0000 </r>
       <r>    -0.2586     0.0000   279.0000 </r>
       <r>    -0.2178     0.0000   280.0000 </r>
       <r>    -0.1771     0.0000   281.0000 </r>
       <r>    -0.1364     0.0000   281.0000 </r>
       <r>    -0.0956     0.0000   282.0000 </r>
       <r>    -0.0549     0.0000   283.0000 </r>
       <r>    -0.0141     0.0000   283.0000 </r>
       <r>     0.0266     0.0000   285.0000 </r>
       <r>     0.0674     0.0000   285.0000 </r>
       <r>     0.1081     0.0000   285.0000 </r>
       <r>     0.1489     0.0000   285.0000 </r>
       <r>     0.1896     0.0000   285.0000 </r>
       <r>     0.2304     0.0000   286.0000 </r>
       <r>     0.2711     0.0000   286.0000 </r>
       <r>     0.3119     0.0000   287.0000 </r>
       <r>     0.3526     0.0000   288.0000 </r>
       <r>     0.3934     0.0000   288.0000 </r>
       <r>     0.4341     0.0000   288.0000 </r>
       <r>     0.4749     0.0000   289.0000 </r>
       <r>     0.5156     0.0000   289.0000 </r>
       <r>     0.5564     0.0000   290.0000 </r>
       <r>     0.5971     0.0000   290.0000 </r>
       <r>     0.6379     0.0000   291.0000 </r>
       <r>     0.6786     0.0000   292.0000 </r>
       <r>     0.7194     0.0000   293.0000 </r>
       <r>     0.7601     0.0000   294.0000 </r>
       <r>     0.8009     0.0000   295.0000 </r>
       <r>     0.8416     0.0000   296.0000 </r>
       <r>     0.8824    24.5410   298.0000 </r>
       <r>     0.9231     0.0000   299.0000 </r>
       <r>     0.9638     0.0000   301.0000 </r>
       <r>     1.0046     0.0000   303.0000 </r>
       <r>     1.0453     0.0000   305.0000 </r>
       <r>     1.0861     0.0000   307.0000 </r>
       <r>     1.1268     0.0000   309.0000 </r>
       <r>     1.1676     0.0000   311.0000 </r>
       <r>     1.2083     0.0000   311.0000 </r>
       <r>     1.2491     0.0000   314.0000 </r>
       <r>     1.2898     0.0000   315.0000 </r>
       <r>     1.3306     0.0000   318.0000 </r>
       <r>     1.3713     0.0000   320.0000 </r>
       <r>     1.4121     0.0000   320.0000 </r>
       <r>     1.4528     0.0000   320.0000 </r>
       <r>     1.4936     0.0000   320.0000 </r>
       <r>     1.5343     0.0000   320.0000 </r>
       <r>     1.5751     0.0000   320.0000 </r>
       <r>     1.6158     0.0000   320.0000 </r>
       <r>     1.6566     0.0000   320.0000 </r>
       <r>     1.6973     0.0000   320.0000 </r>
       <r>     1.7381     0.0000   320.0000 </r>
       <r>     1.7788     0.0000   320.0000 </r>
       <r>     1.8196     0.0000   320.0000 </r>
       <r>     1.8603     0.0000   320.0000 </r>
       <r>     1.9011     0.0000   320.0000 </r>
      </set>
     </set>
    </array>
   </total>
  </dos>
 </calculation>
 <structure name="finalpos" >
  <crystal>
   <varray name="basis" >
    <v>      23.38737327       0.00000000       0.00000000 </v>
    <v>       0.00000000      23.38737327       0.00000000 </v>
    <v>       0.00000000       0.00000000      23.38737327 </v>
   </varray>
   <i name="volume">  12792.17351433 </i>
   <varray name="rec_basis" >
    <v>       0.04275812       0.00000000       0.00000000 </v>
    <v>       0.00000000       0.04275812       0.00000000 </v>
    <v>       0.00000000       0.00000000       0.04275812 </v>
   </varray>
  </crystal>
  <varray name="positions" >
   <v>       0.58816289       0.67686392       0.57044532 </v>
   <v>       0.69601312       0.62609800       0.54705303 </v>
   <v>       0.54496809       0.67777958       0.68181345 </v>
   <v>       0.70272613       0.54493538       0.45450277 </v>
   <v>       0.63244424       0.59740023       0.65268765 </v>
   <v>       0.60530731       0.61610643       0.46989624 </v>
   <v>       0.48794090       0.73554197       0.59040238 </v>
   <v>       0.67505326       0.51288253       0.57037127 </v>
   <v>       0.49169426       0.65279807       0.49603514 </v>
   <v>       0.55656350       0.55612790       0.56886720 </v>
   <v>       0.53545543       0.64684691       0.37539457 </v>
   <v>       0.61283669       0.55165896       0.36935714 </v>
   <v>       0.66916261       0.44651641       0.37813163 </v>
   <v>       0.60208970       0.47816697       0.65956134 </v>
   <v>       0.59792998       0.48470896       0.47676231 </v>
   <v>       0.45829662       0.62300014       0.61446807 </v>
   <v>       0.52466613       0.56188473       0.69703239 </v>
   <v>       0.70867984       0.42927249       0.48815596 </v>
   <v>       0.38783900       0.69040692       0.54489618 </v>
   <v>       0.62411990       0.40209893       0.56618448 </v>
   <v>       0.56375621       0.35806105       0.66069947 </v>
   <v>       0.50549003       0.54815592       0.43047619 </v>
   <v>       0.42610767       0.61077166       0.35095381 </v>
   <v>       0.50134239       0.44683149       0.71901575 </v>
   <v>       0.51058821       0.54372695       0.30301712 </v>
   <v>       0.51009779       0.44193853       0.58995501 </v>
   <v>       0.38132538       0.60999999       0.45804839 </v>
   <v>       0.44873415       0.53046202       0.53035045 </v>
   <v>       0.35004006       0.57707478       0.57123661 </v>
   <v>       0.55029199       0.44576498       0.36238100 </v>
   <v>       0.42415643       0.51351040       0.64718515 </v>
   <v>       0.53138241       0.33506183       0.53479265 </v>
   <v>       0.42213367       0.47742767       0.37348278 </v>
   <v>       0.48739351       0.42946660       0.46913351 </v>
   <v>       0.45258649       0.33383241       0.62072448 </v>
   <v>       0.47627531       0.33276576       0.73802129 </v>
   <v>       0.39773421       0.53094739       0.26607466 </v>
   <v>       0.60104666       0.37012583       0.44529617 </v>
   <v>       0.39136919       0.40773694       0.68663636 </v>
   <v>       0.32545614       0.55186792       0.36690047 </v>
   <v>       0.46740010       0.43428323       0.27033674 </v>
   <v>       0.34908291       0.49702448       0.47272999 </v>
   <v>       0.39351125       0.42366007       0.56136804 </v>
   <v>       0.46734762       0.36198257       0.36698213 </v>
   <v>       0.37924893       0.38607838       0.44628997 </v>
  </varray>
 </structure>
</modeling>
