 vasp.5.3.5 31Mar14 (build Feb 01 2018 12:10:03) gamma-only                     
  
 executed on             LinuxIFC date 2019.03.21  17:36:16
 running on   32 total cores
 distrk:  each k-point on   32 cores,    1 groups
 distr:  one band on NCORES_PER_BAND=   8 cores,    4 groups


--------------------------------------------------------------------------------------------------------


 INCAR:
 POTCAR:    PAW_PBE Ag 02Apr2005                  
 POTCAR:    PAW_PBE Ag 02Apr2005                  
   VRHFIN =Ag : s1 d10                                                          
   LEXCH  = PE                                                                  
   EATOM  =  1037.2675 eV,   76.2370 Ry                                         
                                                                                
   TITEL  = PAW_PBE Ag 02Apr2005                                                
   LULTRA =        F    use ultrasoft PP ?                                      
   IUNSCR =        1    unscreen: 0-lin 1-nonlin 2-no                           
   RPACOR =    2.000    partial core radius                                     
   POMASS =  107.868; ZVAL   =   11.000    mass and valenz                      
   RCORE  =    2.500    outmost cutoff radius                                   
   RWIGS  =    2.840; RWIGS  =    1.503    wigner-seitz radius (au A)           
   ENMAX  =  249.844; ENMIN  =  187.383 eV                                      
   ICORE  =        3    local potential                                         
   LCOR   =        T    correct aug charges                                     
   LPAW   =        T    paw PP                                                  
   EAUG   =  412.496                                                            
   DEXC   =    0.000                                                            
   RMAX   =    2.560    core radius for proj-oper                               
   RAUG   =    1.300    factor for augmentation sphere                          
   RDEP   =    2.576    radius for radial grids                                 
   RDEPT  =    2.072    core radius for aug-charge                              
                                                                                
   Atomic configuration                                                         
   12 entries                                                                   
     n  l   j            E        occ.                                          
     1  0  0.50    -25324.9161   2.0000                                         
     2  0  0.50     -3728.5341   2.0000                                         
     2  1  1.50     -3344.0404   6.0000                                         
     3  0  0.50      -683.5581   2.0000                                         
     3  1  1.50      -557.3225   6.0000                                         
     3  2  2.50      -358.3853  10.0000                                         
     4  0  0.50       -95.0341   2.0000                                         
     4  1  1.50       -58.5511   6.0000                                         
     4  2  2.50        -7.4440  10.0000                                         
     5  0  0.50        -4.4045   1.0000                                         
     5  1  0.50        -1.3606   0.0000                                         
     4  3  2.50        -1.3606   0.0000                                         
   Description                                                                  
     l       E           TYP  RCUT    TYP  RCUT                                 
     2     -7.4439781     23  2.400                                             
     2     -8.8045607     23  2.400                                             
     0     -4.4044681     23  2.400                                             
     0      1.9520038     23  2.400                                             
     1     -1.3605826     23  2.500                                             
     1     27.2116520     23  2.500                                             
     3     -4.0817478     23  2.400                                             
  local pseudopotential read in
  partial core-charges read in
  partial kinetic energy density read in
  atomic valenz-charges read in
  non local Contribution for L=           2  read in
    real space projection operators read in
  non local Contribution for L=           2  read in
    real space projection operators read in
  non local Contribution for L=           0  read in
    real space projection operators read in
  non local Contribution for L=           0  read in
    real space projection operators read in
  non local Contribution for L=           1  read in
    real space projection operators read in
  non local Contribution for L=           1  read in
    real space projection operators read in
    PAW grid and wavefunctions read in
 
   number of l-projection  operators is LMAX  =           6
   number of lm-projection operators is LMMAX =          18
 
  PAW_PBE Ag 02Apr2005                  :
 energy of atom  1       EATOM=-1037.2675
 kinetic energy error for atom=    0.0689 (will be added to EATOM!!)
 
 
 POSCAR: Pt14, -61.76096382 <s> Ag </s>          
  positions in direct lattice
  No initial velocities read in
 exchange correlation table for  LEXCH =        8
   RHO(1)=    0.500       N(1)  =     2000
   RHO(2)=  100.500       N(2)  =     4000
 


--------------------------------------------------------------------------------------------------------


 ion  position               nearest neighbor table
   1  0.667  0.620  0.593-   5 2.68   3 2.68   4 2.72
   2  0.431  0.550  0.682-   3 2.63   7 2.65   6 2.66
   3  0.543  0.616  0.651-   2 2.63   4 2.65   1 2.68   6 2.69
   4  0.578  0.518  0.565-   5 2.60   3 2.65  10 2.66   9 2.70   1 2.72   7 2.76   6 3.28
   5  0.607  0.608  0.472-   4 2.60   1 2.68  11 2.72   9 2.76
   6  0.440  0.611  0.562-   8 2.56  10 2.65   2 2.66   3 2.69   4 3.28
   7  0.480  0.437  0.625-  12 2.58  10 2.64   2 2.65   4 2.76
   8  0.421  0.650  0.439-   6 2.56  11 2.59  10 3.46
   9  0.607  0.471  0.438-  13 2.66   4 2.70   5 2.76  11 2.78  14 2.79  10 3.19
  10  0.459  0.491  0.504-  13 2.63   7 2.64  11 2.65   6 2.65   4 2.66   9 3.19   8 3.46
  11  0.503  0.557  0.395-   8 2.59  10 2.65  14 2.65   5 2.72   9 2.78
  12  0.501  0.321  0.567-  13 2.56   7 2.58
  13  0.509  0.378  0.450-  12 2.56  10 2.63   9 2.66  14 2.66
  14  0.520  0.440  0.330-  11 2.65  13 2.66   9 2.79
 
  LATTYP: Found a simple cubic cell.
 ALAT       =    19.6208766123
  
  Lattice vectors:
  
 A1 = (  19.6208766123,   0.0000000000,   0.0000000000)
 A2 = (   0.0000000000,  19.6208766123,   0.0000000000)
 A3 = (   0.0000000000,   0.0000000000,  19.6208766123)


Analysis of symmetry for initial positions (statically):
=====================================================================
 Subroutine PRICEL returns:
 Original cell was already a primitive cell.
 

 Routine SETGRP: Setting up the symmetry group for a 
 simple cubic supercell.


 Subroutine GETGRP returns: Found  1 space group operations
 (whereof  1 operations were pure point group operations)
 out of a pool of 48 trial point group operations.


The static configuration has the point symmetry C_1 .


Analysis of symmetry for dynamics (positions and initial velocities):
=====================================================================
 Subroutine PRICEL returns:
 Original cell was already a primitive cell.
 

 Routine SETGRP: Setting up the symmetry group for a 
 simple cubic supercell.


 Subroutine GETGRP returns: Found  1 space group operations
 (whereof  1 operations were pure point group operations)
 out of a pool of 48 trial point group operations.


The dynamic configuration has the point symmetry C_1 .


Analysis of magnetic symmetry:
=====================================================================
 Subroutine PRICEL returns:
 Original cell was already a primitive cell.
 

 Subroutine MAGSYM returns: Found  1 space group operations
 (whereof  1 operations were pure point group operations)
 out of a pool of  1 trial space group operations
 (whereof  1 operations were pure point group operations)
 and found also     1 'primitive' translations


The magnetic configuration has the point symmetry C_1 .
 
 
 KPOINTS: Gamma-point only                        
  k-points in reciprocal lattice
Space group operators:
 irot       det(A)        alpha          n_x          n_y          n_z        tau_x        tau_y        tau_z
    1     1.000000     0.000000     1.000000     0.000000     0.000000     0.000000     0.000000     0.000000


--------------------------------------------------------------------------------------------------------




 Dimension of arrays:
   k-points           NKPTS =      1   k-points in BZ     NKDIM =      1   number of bands    NBANDS=    100
   number of dos      NEDOS =    301   number of ions     NIONS =     14
   non local maximal  LDIM  =      6   non local SUM 2l+1 LMDIM =     18
   total plane-waves  NPLWV = 512000
   max r-space proj   IRMAX =      1   max aug-charges    IRDMAX=   3532
   dimension x,y,z NGX =    80 NGY =   80 NGZ =   80
   dimension x,y,z NGXF=   160 NGYF=  160 NGZF=  160
   support grid    NGXF=   160 NGYF=  160 NGZF=  160
   ions per type =              14
 NGX,Y,Z   is equivalent  to a cutoff of   6.78,  6.78,  6.78 a.u.
 NGXF,Y,Z  is equivalent  to a cutoff of  13.56, 13.56, 13.56 a.u.


 I would recommend the setting:
   dimension x,y,z NGX =    76 NGY =   76 NGZ =   76
 SYSTEM =  unknown system                          
 POSCAR =  Pt14, -61.76096382 <s> Ag </s>          

 Startparameter for this run:
   NWRITE =      2    write-flag & timer
   PREC   = normal    normal or accurate (medium, high low for compatibility)
   ISTART =      0    job   : 0-new  1-cont  2-samecut
   ICHARG =      2    charge: 1-file 2-atom 10-const
   ISPIN  =      2    spin polarized calculation?
   LNONCOLLINEAR =      F non collinear calculations
   LSORBIT =      F    spin-orbit coupling
   INIWAV =      1    electr: 0-lowe 1-rand  2-diag
   LASPH  =      F    aspherical Exc in radial PAW
   METAGGA=      F    non-selfconsistent MetaGGA calc.

 Electronic Relaxation 1
   ENCUT  =  249.8 eV  18.36 Ry    4.29 a.u.  25.29 25.29 25.29*2*pi/ulx,y,z
   ENINI  =  249.8     initial cutoff
   ENAUG  =  412.5 eV  augmentation charge cutoff
   NELM   =     60;   NELMIN=  2; NELMDL= -5     # of ELM steps 
   EDIFF  = 0.1E-03   stopping-criterion for ELM
   LREAL  =      F    real-space projection
   NLSPLINE    = F    spline interpolate recip. space projectors
   LCOMPAT=      F    compatible to vasp.4.4
   GGA_COMPAT  = T    GGA compatible to vasp.4.4-vasp.4.6
   LMAXPAW     = -100 max onsite density
   LMAXMIX     =    2 max onsite mixed and CHGCAR
   VOSKOWN=      0    Vosko Wilk Nusair interpolation
   ROPT   =    0.00000
 Ionic relaxation
   EDIFFG = 0.1E-02   stopping-criterion for IOM
   NSW    =   1000    number of steps for IOM
   NBLOCK =      1;   KBLOCK =   1000    inner block; outer block 
   IBRION =      2    ionic relax: 0-MD 1-quasi-New 2-CG
   NFREE  =      1    steps in history (QN), initial steepest desc. (CG)
   ISIF   =      2    stress and relaxation
   IWAVPR =     11    prediction:  0-non 1-charg 2-wave 3-comb
   ISYM   =      2    0-nonsym 1-usesym 2-fastsym
   LCORR  =      T    Harris-Foulkes like correction to forces

   POTIM  = 0.1000    time-step for ionic-motion
   TEIN   =    0.0    initial temperature
   TEBEG  =    0.0;   TEEND  =   0.0 temperature during run
   SMASS  =  -3.00    Nose mass-parameter (am)
   estimated Nose-frequenzy (Omega)   =  0.10E-29 period in steps =****** mass=  -0.880E-26a.u.
   SCALEE = 1.0000    scale energy and forces
   NPACO  =    256;   APACO  = 16.0  distance and # of slots for P.C.
   PSTRESS=    0.0 pullay stress

  Mass of Ions in am
   POMASS = 107.87
  Ionic Valenz
   ZVAL   =  11.00
  Atomic Wigner-Seitz radii
   RWIGS  =  -1.00
  virtual crystal weights 
   VCA    =   1.00
   NELECT =     154.0000    total number of electrons
   NUPDOWN=      -1.0000    fix difference up-down

 DOS related values:
   EMIN   =  10.00;   EMAX   =-10.00  energy-range for DOS
   EFERMI =   0.00
   ISMEAR =     0;   SIGMA  =   0.00  broadening in eV -4-tet -1-fermi 0-gaus

 Electronic relaxation 2 (details)
   IALGO  =     38    algorithm
   LDIAG  =      T    sub-space diagonalisation (order eigenvalues)
   LSUBROT=      F    optimize rotation matrix (better conditioning)
   TURBO    =      0    0=normal 1=particle mesh
   IRESTART =      0    0=no restart 2=restart with 2 vectors
   NREBOOT  =      0    no. of reboots
   NMIN     =      0    reboot dimension
   EREF     =   0.00    reference energy to select bands
   IMIX   =      4    mixing-type and parameters
     AMIX     =   0.40;   BMIX     =  1.00
     AMIX_MAG =   1.60;   BMIX_MAG =  1.00
     AMIN     =   0.10
     WC   =   100.;   INIMIX=   1;  MIXPRE=   1;  MAXMIX= -45

 Intra band minimization:
   WEIMIN = 0.0010     energy-eigenvalue tresh-hold
   EBREAK =  0.25E-06  absolut break condition
   DEPER  =   0.30     relativ break condition  

   TIME   =   0.40     timestep for ELM

  volume/ion in A,a.u.               =     539.54      3641.03
  Fermi-wavevector in a.u.,A,eV,Ry     =   0.447229  0.845140  2.721353  0.200014
  Thomas-Fermi vector in A             =   1.425998
 
 Write flags
   LWAVE  =      F    write WAVECAR
   LCHARG =      F    write CHGCAR
   LVTOT  =      F    write LOCPOT, total local potential
   LVHAR  =      F    write LOCPOT, Hartree potential only
   LELF   =      F    write electronic localiz. function (ELF)
   LORBIT =      0    0 simple, 1 ext, 2 COOP (PROOUT)


 Dipole corrections
   LMONO  =      F    monopole corrections only (constant potential shift)
   LDIPOL =      F    correct potential (dipole corrections)
   IDIPOL =      0    1-x, 2-y, 3-z, 4-all directions 
   EPSILON=  1.0000000 bulk dielectric constant

 Exchange correlation treatment:
   GGA     =    PE    GGA type
   LEXCH   =     8    internal setting for exchange type
   VOSKOWN=      0    Vosko Wilk Nusair interpolation
   LHFCALC =     F    Hartree Fock is set to
   LHFONE  =     F    Hartree Fock one center treatment
   AEXX    =    0.0000 exact exchange contribution

 Linear response parameters
   LEPSILON=     F    determine dielectric tensor
   LRPA    =     F    only Hartree local field effects (RPA)
   LNABLA  =     F    use nabla operator in PAW spheres
   LVEL    =     F    velocity operator in full k-point grid
   LINTERFAST=   F  fast interpolation
   KINTER  =     0    interpolate to denser k-point grid
   CSHIFT  =0.1000    complex shift for real part using Kramers Kronig
   OMEGAMAX=  -1.0    maximum frequency
   DEG_THRESHOLD= 0.2000000E-02 threshold for treating states as degnerate
   RTIME   =    0.100 relaxation time in fs

 Orbital magnetization related:
   ORBITALMAG=     F  switch on orbital magnetization
   LCHIMAG   =     F  perturbation theory with respect to B field
   DQ        =  0.001000  dq finite difference perturbation B field



--------------------------------------------------------------------------------------------------------


 conjugate gradient relaxation of ions
 charge density and potential will be updated during run
 spin polarized calculation
 Variant of blocked Davidson
 Davidson routine will perform the subspace rotation
 perform sub-space diagonalisation
    after iterative eigenvector-optimisation
 modified Broyden-mixing scheme, WC =      100.0
 initial mixing is a Kerker type mixing with AMIX =  0.4000 and BMIX =      1.0000
 Hartree-type preconditioning will be used
 using additional bands           23
 reciprocal scheme for non local part
 use partial core corrections
 calculate Harris-corrections to forces 
   (improved forces if not selfconsistent)
 use gradient corrections 
 use of overlap-Matrix (Vanderbilt PP)
 Gauss-broadening in eV      SIGMA  =   0.00


--------------------------------------------------------------------------------------------------------


  energy-cutoff  :      249.84
  volume of cell :     7553.62
      direct lattice vectors                 reciprocal lattice vectors
    19.620876612  0.000000000  0.000000000     0.050966122  0.000000000  0.000000000
     0.000000000 19.620876612  0.000000000     0.000000000  0.050966122  0.000000000
     0.000000000  0.000000000 19.620876612     0.000000000  0.000000000  0.050966122

  length of vectors
    19.620876612 19.620876612 19.620876612     0.050966122  0.050966122  0.050966122


 
 k-points in units of 2pi/SCALE and weight: Gamma-point only                        
   0.00000000  0.00000000  0.00000000       1.000
 
 k-points in reciprocal lattice and weights: Gamma-point only                        
   0.00000000  0.00000000  0.00000000       1.000
 
 position of ions in fractional coordinates (direct lattice) 
   0.66694555  0.62037048  0.59345113
   0.43093066  0.54974014  0.68217601
   0.54343905  0.61584654  0.65105801
   0.57792598  0.51779190  0.56450324
   0.60693097  0.60766465  0.47168579
   0.43952776  0.61127546  0.56157200
   0.47976503  0.43722369  0.62525729
   0.42089393  0.65041436  0.43868972
   0.60685581  0.47099216  0.43809697
   0.45949793  0.49096554  0.50371969
   0.50318340  0.55737291  0.39471455
   0.50055712  0.32118006  0.56710597
   0.50862647  0.37827477  0.44979212
   0.52029538  0.44037052  0.32958805
 
 position of ions in cartesian coordinates  (Angst):
  13.08605633 12.17221270 11.64403133
   8.45523727 10.78638347 13.38489128
  10.66275063 12.08344890 12.77432880
  11.33941430 10.15953097 11.07604846
  11.90851758 11.92291309  9.25488866
   8.62391997 11.99376037 11.01853497
   9.41341043  8.57871200 12.26809608
   8.25830795 12.76169993  8.60747693
  11.90704293  9.24127903  8.59584667
   9.01575210  9.63317430  9.88342186
   9.87289937 10.93614513  7.74464551
   9.82136951  6.30183428 11.12711621
   9.97969724  7.42208260  8.82531578
  10.20865145  8.64045554  6.46680646
 


--------------------------------------------------------------------------------------------------------


 use parallel FFT for wavefunctions z direction half grid
 k-point  1 :   0.0000 0.0000 0.0000  plane waves:   33846

 maximum and minimum number of plane-waves per node :      4237     4222

 maximum number of plane-waves:     33846
 maximum index in each direction: 
   IXMAX=   25   IYMAX=   25   IZMAX=   25
   IXMIN=  -25   IYMIN=  -25   IZMIN=    0

 WARNING: aliasing errors must be expected set NGX to 102 to avoid them
 WARNING: aliasing errors must be expected set NGY to 102 to avoid them
 WARNING: aliasing errors must be expected set NGZ to 102 to avoid them
 aliasing errors are usually negligible using standard VASP settings
 and one can safely disregard these warnings

 parallel 3D FFT for wavefunctions:
    minimum data exchange during FFTs selected (reduces bandwidth)
 parallel 3D FFT for charge:
    minimum data exchange during FFTs selected (reduces bandwidth)


 total amount of memory used by VASP on root node    55201. kBytes
========================================================================

   base      :      30000. kBytes
   nonl-proj :       1555. kBytes
   fftplans  :       5768. kBytes
   grid      :      14451. kBytes
   one-center:         31. kBytes
   wavefun   :       3396. kBytes
 
     INWAV:  cpu time    0.00: real time    0.00
 Broyden mixing: mesh for mixing (old mesh)
   NGX = 51   NGY = 51   NGZ = 51
  (NGX  =160   NGY  =160   NGZ  =160)
  gives a total of 132651 points

 initial charge density was supplied:
 charge density of overlapping atoms calculated
 number of electron     154.0000000 magnetization      14.0000000
 keeping initial charge density in first step


--------------------------------------------------------------------------------------------------------


 Maximum index for augmentation-charges          261 (set IRDMAX)


--------------------------------------------------------------------------------------------------------


 First call to EWALD:  gamma=   0.090
 Maximum number of real-space cells 3x 3x 3
 Maximum number of reciprocal cells 3x 3x 3

 FEWALD executed in parallel
    FEWALD:  cpu time    0.00: real time    0.00


----------------------------------------- Iteration    1(   1)  ---------------------------------------


    POTLOK:  cpu time    0.24: real time    0.24
    SETDIJ:  cpu time    0.01: real time    0.01
     EDDAV:  cpu time    1.00: real time    1.00
       DOS:  cpu time    0.00: real time    0.00
    --------------------------------------------
      LOOP:  cpu time    1.24: real time    1.27

 eigenvalue-minimisations  :   400
 total energy-change (2. order) : 0.1374956E+04  (-0.2469328E+04)
 number of electron     154.0000000 magnetization      14.0000000
 augmentation part      154.0000000 magnetization      14.0000000

 Free energy of the ion-electron system (eV)
  ---------------------------------------------------
  alpha Z        PSCENC =        22.07064535
  Ewald energy   TEWEN  =     17418.77078043
  -Hartree energ DENC   =    -31306.59823122
  -exchange      EXHF   =         0.00000000
  -V(xc)+E(xc)   XCENC  =      -155.59918538
  PAW double counting   =     14047.21049297   -13401.70452430
  entropy T*S    EENTRO =         0.00000000
  eigenvalues    EBANDS =       230.02549920
  atomic energy  EATOM  =     14520.78082121
  ---------------------------------------------------
  free energy    TOTEN  =      1374.95629827 eV

  energy without entropy =     1374.95629827  energy(sigma->0) =     1374.95629827


--------------------------------------------------------------------------------------------------------




----------------------------------------- Iteration    1(   2)  ---------------------------------------


     EDDAV:  cpu time    1.65: real time    1.66
       DOS:  cpu time    0.00: real time    0.00
    --------------------------------------------
      LOOP:  cpu time    1.66: real time    1.66

 eigenvalue-minimisations  :   736
 total energy-change (2. order) :-0.9260413E+03  (-0.8225652E+03)
 number of electron     154.0000000 magnetization      14.0000000
 augmentation part      154.0000000 magnetization      14.0000000

 Free energy of the ion-electron system (eV)
  ---------------------------------------------------
  alpha Z        PSCENC =        22.07064535
  Ewald energy   TEWEN  =     17418.77078043
  -Hartree energ DENC   =    -31306.59823122
  -exchange      EXHF   =         0.00000000
  -V(xc)+E(xc)   XCENC  =      -155.59918538
  PAW double counting   =     14047.21049297   -13401.70452430
  entropy T*S    EENTRO =         0.00000000
  eigenvalues    EBANDS =      -696.01583687
  atomic energy  EATOM  =     14520.78082121
  ---------------------------------------------------
  free energy    TOTEN  =       448.91496220 eV

  energy without entropy =      448.91496220  energy(sigma->0) =      448.91496220


--------------------------------------------------------------------------------------------------------




----------------------------------------- Iteration    1(   3)  ---------------------------------------


     EDDAV:  cpu time    1.31: real time    1.31
       DOS:  cpu time    0.00: real time    0.00
    --------------------------------------------
      LOOP:  cpu time    1.31: real time    1.40

 eigenvalue-minimisations  :   552
 total energy-change (2. order) :-0.4321537E+03  (-0.3960175E+03)
 number of electron     154.0000000 magnetization      14.0000000
 augmentation part      154.0000000 magnetization      14.0000000

 Free energy of the ion-electron system (eV)
  ---------------------------------------------------
  alpha Z        PSCENC =        22.07064535
  Ewald energy   TEWEN  =     17418.77078043
  -Hartree energ DENC   =    -31306.59823122
  -exchange      EXHF   =         0.00000000
  -V(xc)+E(xc)   XCENC  =      -155.59918538
  PAW double counting   =     14047.21049297   -13401.70452430
  entropy T*S    EENTRO =         0.00000000
  eigenvalues    EBANDS =     -1128.16949902
  atomic energy  EATOM  =     14520.78082121
  ---------------------------------------------------
  free energy    TOTEN  =        16.76130005 eV

  energy without entropy =       16.76130005  energy(sigma->0) =       16.76130005


--------------------------------------------------------------------------------------------------------




----------------------------------------- Iteration    1(   4)  ---------------------------------------


     EDDAV:  cpu time    1.12: real time    1.12
       DOS:  cpu time    0.00: real time    0.00
    --------------------------------------------
      LOOP:  cpu time    1.12: real time    1.22

 eigenvalue-minimisations  :   456
 total energy-change (2. order) :-0.3983525E+02  (-0.3898532E+02)
 number of electron     154.0000000 magnetization      14.0000000
 augmentation part      154.0000000 magnetization      14.0000000

 Free energy of the ion-electron system (eV)
  ---------------------------------------------------
  alpha Z        PSCENC =        22.07064535
  Ewald energy   TEWEN  =     17418.77078043
  -Hartree energ DENC   =    -31306.59823122
  -exchange      EXHF   =         0.00000000
  -V(xc)+E(xc)   XCENC  =      -155.59918538
  PAW double counting   =     14047.21049297   -13401.70452430
  entropy T*S    EENTRO =         0.00000000
  eigenvalues    EBANDS =     -1168.00475156
  atomic energy  EATOM  =     14520.78082121
  ---------------------------------------------------
  free energy    TOTEN  =       -23.07395250 eV

  energy without entropy =      -23.07395250  energy(sigma->0) =      -23.07395250


--------------------------------------------------------------------------------------------------------




----------------------------------------- Iteration    1(   5)  ---------------------------------------


     EDDAV:  cpu time    1.10: real time    1.10
       DOS:  cpu time    0.00: real time    0.00
    CHARGE:  cpu time    0.06: real time    0.06
    MIXING:  cpu time    0.01: real time    0.01
    --------------------------------------------
      LOOP:  cpu time    1.18: real time    1.27

 eigenvalue-minimisations  :   448
 total energy-change (2. order) :-0.7811342E+00  (-0.7795753E+00)
 number of electron     154.0000149 magnetization      12.2142237
 augmentation part       72.6751082 magnetization      10.5787047

 Broyden mixing:
  rms(total) = 0.21148E+01    rms(broyden)= 0.21144E+01
  rms(prec ) = 0.21542E+01
  weight for this iteration     100.00

 Free energy of the ion-electron system (eV)
  ---------------------------------------------------
  alpha Z        PSCENC =        22.07064535
  Ewald energy   TEWEN  =     17418.77078043
  -Hartree energ DENC   =    -31306.59823122
  -exchange      EXHF   =         0.00000000
  -V(xc)+E(xc)   XCENC  =      -155.59918538
  PAW double counting   =     14047.21049297   -13401.70452430
  entropy T*S    EENTRO =         0.00000000
  eigenvalues    EBANDS =     -1168.78588574
  atomic energy  EATOM  =     14520.78082121
  ---------------------------------------------------
  free energy    TOTEN  =       -23.85508668 eV

  energy without entropy =      -23.85508668  energy(sigma->0) =      -23.85508668


--------------------------------------------------------------------------------------------------------




----------------------------------------- Iteration    1(   6)  ---------------------------------------


    POTLOK:  cpu time    0.22: real time    0.22
    SETDIJ:  cpu time    0.01: real time    0.01
     EDDAV:  cpu time    1.04: real time    1.04
       DOS:  cpu time    0.00: real time    0.00
    CHARGE:  cpu time    0.06: real time    0.06
    MIXING:  cpu time    0.01: real time    0.01
    --------------------------------------------
      LOOP:  cpu time    1.34: real time    1.43

 eigenvalue-minimisations  :   408
 total energy-change (2. order) : 0.1801611E+02  (-0.5361716E+01)
 number of electron     154.0000154 magnetization      11.0571844
 augmentation part       74.0816251 magnetization       6.0947100

 Broyden mixing:
  rms(total) = 0.10552E+01    rms(broyden)= 0.10551E+01
  rms(prec ) = 0.10728E+01
  weight for this iteration     100.00

 eigenvalues of (default mixing * dielectric matrix)
  average eigenvalue GAMMA=   0.8527
  0.8527

 Free energy of the ion-electron system (eV)
  ---------------------------------------------------
  alpha Z        PSCENC =        22.07064535
  Ewald energy   TEWEN  =     17418.77078043
  -Hartree energ DENC   =    -31260.43510102
  -exchange      EXHF   =         0.00000000
  -V(xc)+E(xc)   XCENC  =      -146.47114708
  PAW double counting   =     14540.44558764   -13905.24316489
  entropy T*S    EENTRO =         0.00000000
  eigenvalues    EBANDS =     -1195.75739818
  atomic energy  EATOM  =     14520.78082121
  ---------------------------------------------------
  free energy    TOTEN  =        -5.83897654 eV

  energy without entropy =       -5.83897654  energy(sigma->0) =       -5.83897654


--------------------------------------------------------------------------------------------------------




----------------------------------------- Iteration    1(   7)  ---------------------------------------


    POTLOK:  cpu time    0.23: real time    0.22
    SETDIJ:  cpu time    0.00: real time    0.01
     EDDAV:  cpu time    1.08: real time    1.08
       DOS:  cpu time    0.00: real time    0.00
    CHARGE:  cpu time    0.06: real time    0.06
    MIXING:  cpu time    0.01: real time    0.01
    --------------------------------------------
      LOOP:  cpu time    1.38: real time    1.47

 eigenvalue-minimisations  :   432
 total energy-change (2. order) : 0.3893147E+01  (-0.2990207E+00)
 number of electron     154.0000154 magnetization       9.4938229
 augmentation part       74.0362605 magnetization       4.6997609

 Broyden mixing:
  rms(total) = 0.60067E+00    rms(broyden)= 0.60066E+00
  rms(prec ) = 0.60969E+00
  weight for this iteration     100.00

 eigenvalues of (default mixing * dielectric matrix)
  average eigenvalue GAMMA=   0.9598
  0.7313  1.1884

 Free energy of the ion-electron system (eV)
  ---------------------------------------------------
  alpha Z        PSCENC =        22.07064535
  Ewald energy   TEWEN  =     17418.77078043
  -Hartree energ DENC   =    -31287.98610606
  -exchange      EXHF   =         0.00000000
  -V(xc)+E(xc)   XCENC  =      -142.81658298
  PAW double counting   =     14833.76872454   -14205.01890483
  entropy T*S    EENTRO =         0.00000000
  eigenvalues    EBANDS =     -1161.51520732
  atomic energy  EATOM  =     14520.78082121
  ---------------------------------------------------
  free energy    TOTEN  =        -1.94582966 eV

  energy without entropy =       -1.94582966  energy(sigma->0) =       -1.94582966


--------------------------------------------------------------------------------------------------------




----------------------------------------- Iteration    1(   8)  ---------------------------------------


    POTLOK:  cpu time    0.22: real time    0.22
    SETDIJ:  cpu time    0.01: real time    0.01
     EDDAV:  cpu time    1.10: real time    1.11
       DOS:  cpu time    0.00: real time    0.00
    CHARGE:  cpu time    0.06: real time    0.06
    MIXING:  cpu time    0.01: real time    0.01
    --------------------------------------------
      LOOP:  cpu time    1.40: real time    1.45

 eigenvalue-minimisations  :   444
 total energy-change (2. order) :-0.3289298E+01  (-0.1551157E+00)
 number of electron     154.0000154 magnetization       8.3565921
 augmentation part       73.9139562 magnetization       3.7050017

 Broyden mixing:
  rms(total) = 0.29375E+00    rms(broyden)= 0.29374E+00
  rms(prec ) = 0.29740E+00
  weight for this iteration     100.00

 eigenvalues of (default mixing * dielectric matrix)
  average eigenvalue GAMMA=   1.2076
  2.0907  0.9146  0.6173

 Free energy of the ion-electron system (eV)
  ---------------------------------------------------
  alpha Z        PSCENC =        22.07064535
  Ewald energy   TEWEN  =     17418.77078043
  -Hartree energ DENC   =    -31315.42539711
  -exchange      EXHF   =         0.00000000
  -V(xc)+E(xc)   XCENC  =      -144.98827311
  PAW double counting   =     15134.06257837   -14511.31454137
  entropy T*S    EENTRO =         0.00000000
  eigenvalues    EBANDS =     -1129.19174103
  atomic energy  EATOM  =     14520.78082121
  ---------------------------------------------------
  free energy    TOTEN  =        -5.23512726 eV

  energy without entropy =       -5.23512726  energy(sigma->0) =       -5.23512726


--------------------------------------------------------------------------------------------------------




----------------------------------------- Iteration    1(   9)  ---------------------------------------


    POTLOK:  cpu time    0.23: real time    0.23
    SETDIJ:  cpu time    0.01: real time    0.01
     EDDAV:  cpu time    1.13: real time    1.13
       DOS:  cpu time    0.00: real time    0.00
    CHARGE:  cpu time    0.06: real time    0.06
    MIXING:  cpu time    0.01: real time    0.01
    --------------------------------------------
      LOOP:  cpu time    1.44: real time    1.44

 eigenvalue-minimisations  :   456
 total energy-change (2. order) :-0.3718030E+01  (-0.1040380E+00)
 number of electron     154.0000152 magnetization       8.3300023
 augmentation part       73.8975445 magnetization       5.7550411

 Broyden mixing:
  rms(total) = 0.26365E+00    rms(broyden)= 0.26352E+00
  rms(prec ) = 0.27770E+00
  weight for this iteration     100.00

 eigenvalues of (default mixing * dielectric matrix)
  average eigenvalue GAMMA=   0.9411
  2.1103  0.9130  0.6133  0.1278

 Free energy of the ion-electron system (eV)
  ---------------------------------------------------
  alpha Z        PSCENC =        22.07064535
  Ewald energy   TEWEN  =     17418.77078043
  -Hartree energ DENC   =    -31322.68078000
  -exchange      EXHF   =         0.00000000
  -V(xc)+E(xc)   XCENC  =      -147.78744938
  PAW double counting   =     15259.63802323   -14639.27035654
  entropy T*S    EENTRO =         0.00000000
  eigenvalues    EBANDS =     -1120.47484123
  atomic energy  EATOM  =     14520.78082121
  ---------------------------------------------------
  free energy    TOTEN  =        -8.95315693 eV

  energy without entropy =       -8.95315693  energy(sigma->0) =       -8.95315693


--------------------------------------------------------------------------------------------------------




----------------------------------------- Iteration    1(  10)  ---------------------------------------


    POTLOK:  cpu time    0.23: real time    0.23
    SETDIJ:  cpu time    0.01: real time    0.01
     EDDAV:  cpu time    1.11: real time    1.11
       DOS:  cpu time    0.00: real time    0.00
    CHARGE:  cpu time    0.06: real time    0.06
    MIXING:  cpu time    0.01: real time    0.01
    --------------------------------------------
      LOOP:  cpu time    1.42: real time    1.42

 eigenvalue-minimisations  :   448
 total energy-change (2. order) : 0.8495722E-01  (-0.1886790E-02)
 number of electron     154.0000152 magnetization       8.2746537
 augmentation part       73.8889059 magnetization       5.7102459

 Broyden mixing:
  rms(total) = 0.26016E+00    rms(broyden)= 0.26015E+00
  rms(prec ) = 0.27422E+00
  weight for this iteration     100.00

 eigenvalues of (default mixing * dielectric matrix)
  average eigenvalue GAMMA=   0.7888
  2.1014  0.9146  0.6125  0.1578  0.1578

 Free energy of the ion-electron system (eV)
  ---------------------------------------------------
  alpha Z        PSCENC =        22.07064535
  Ewald energy   TEWEN  =     17418.77078043
  -Hartree energ DENC   =    -31322.83505596
  -exchange      EXHF   =         0.00000000
  -V(xc)+E(xc)   XCENC  =      -147.69004706
  PAW double counting   =     15260.78520040   -14640.44178194
  entropy T*S    EENTRO =        -0.00000000
  eigenvalues    EBANDS =     -1120.30876214
  atomic energy  EATOM  =     14520.78082121
  ---------------------------------------------------
  free energy    TOTEN  =        -8.86819971 eV

  energy without entropy =       -8.86819971  energy(sigma->0) =       -8.86819971


--------------------------------------------------------------------------------------------------------




----------------------------------------- Iteration    1(  11)  ---------------------------------------


    POTLOK:  cpu time    0.23: real time    0.23
    SETDIJ:  cpu time    0.00: real time    0.01
     EDDAV:  cpu time    1.10: real time    1.10
       DOS:  cpu time    0.00: real time    0.00
    CHARGE:  cpu time    0.06: real time    0.06
    MIXING:  cpu time    0.01: real time    0.01
    --------------------------------------------
      LOOP:  cpu time    1.40: real time    1.41

 eigenvalue-minimisations  :   440
 total energy-change (2. order) :-0.9255606E-01  (-0.4826326E-03)
 number of electron     154.0000152 magnetization       6.8264481
 augmentation part       73.8945906 magnetization       4.2711668

 Broyden mixing:
  rms(total) = 0.25617E+00    rms(broyden)= 0.25616E+00
  rms(prec ) = 0.26963E+00
  weight for this iteration     100.00

 eigenvalues of (default mixing * dielectric matrix)
  average eigenvalue GAMMA=   0.9769
  2.0454  0.9082  0.9082  0.9842  0.6431  0.3722

 Free energy of the ion-electron system (eV)
  ---------------------------------------------------
  alpha Z        PSCENC =        22.07064535
  Ewald energy   TEWEN  =     17418.77078043
  -Hartree energ DENC   =    -31322.39777355
  -exchange      EXHF   =         0.00000000
  -V(xc)+E(xc)   XCENC  =      -147.75785153
  PAW double counting   =     15254.71960605   -14634.37093983
  entropy T*S    EENTRO =         0.00000000
  eigenvalues    EBANDS =     -1120.77604389
  atomic energy  EATOM  =     14520.78082121
  ---------------------------------------------------
  free energy    TOTEN  =        -8.96075576 eV

  energy without entropy =       -8.96075576  energy(sigma->0) =       -8.96075576


--------------------------------------------------------------------------------------------------------




----------------------------------------- Iteration    1(  12)  ---------------------------------------


    POTLOK:  cpu time    0.23: real time    0.23
    SETDIJ:  cpu time    0.01: real time    0.01
     EDDAV:  cpu time    1.02: real time    1.02
       DOS:  cpu time    0.00: real time    0.00
    CHARGE:  cpu time    0.06: real time    0.06
    MIXING:  cpu time    0.01: real time    0.01
    --------------------------------------------
      LOOP:  cpu time    1.33: real time    1.33

 eigenvalue-minimisations  :   400
 total energy-change (2. order) :-0.4001924E+01  (-0.1662574E+00)
 number of electron     154.0000152 magnetization       4.7583530
 augmentation part       73.9429491 magnetization       2.3783122

 Broyden mixing:
  rms(total) = 0.20037E+00    rms(broyden)= 0.20036E+00
  rms(prec ) = 0.20489E+00
  weight for this iteration     100.00

 eigenvalues of (default mixing * dielectric matrix)
  average eigenvalue GAMMA=   1.1452
  2.8237  1.4001  0.9427  0.9427  0.8054  0.6326  0.4689

 Free energy of the ion-electron system (eV)
  ---------------------------------------------------
  alpha Z        PSCENC =        22.07064535
  Ewald energy   TEWEN  =     17418.77078043
  -Hartree energ DENC   =    -31320.08119282
  -exchange      EXHF   =         0.00000000
  -V(xc)+E(xc)   XCENC  =      -150.78417173
  PAW double counting   =     15177.84104357   -14558.07874004
  entropy T*S    EENTRO =         0.00000000
  eigenvalues    EBANDS =     -1123.48186603
  atomic energy  EATOM  =     14520.78082121
  ---------------------------------------------------
  free energy    TOTEN  =       -12.96268007 eV

  energy without entropy =      -12.96268007  energy(sigma->0) =      -12.96268007


--------------------------------------------------------------------------------------------------------




----------------------------------------- Iteration    1(  13)  ---------------------------------------


    POTLOK:  cpu time    0.23: real time    0.23
    SETDIJ:  cpu time    0.00: real time    0.01
     EDDAV:  cpu time    1.08: real time    1.08
       DOS:  cpu time    0.00: real time    0.00
    CHARGE:  cpu time    0.06: real time    0.06
    MIXING:  cpu time    0.01: real time    0.01
    --------------------------------------------
      LOOP:  cpu time    1.39: real time    1.39

 eigenvalue-minimisations  :   432
 total energy-change (2. order) :-0.4827140E+01  (-0.2445682E+00)
 number of electron     154.0000152 magnetization       3.9846899
 augmentation part       73.9469326 magnetization       1.8033566

 Broyden mixing:
  rms(total) = 0.14631E+00    rms(broyden)= 0.14630E+00
  rms(prec ) = 0.14850E+00
  weight for this iteration     100.00

 eigenvalues of (default mixing * dielectric matrix)
  average eigenvalue GAMMA=   1.1759
  3.1459  1.4334  1.1093  1.1093  0.7397  0.7397  0.6810  0.4493

 Free energy of the ion-electron system (eV)
  ---------------------------------------------------
  alpha Z        PSCENC =        22.07064535
  Ewald energy   TEWEN  =     17418.77078043
  -Hartree energ DENC   =    -31323.20711763
  -exchange      EXHF   =         0.00000000
  -V(xc)+E(xc)   XCENC  =      -154.49819987
  PAW double counting   =     15162.88033791   -14544.03158820
  entropy T*S    EENTRO =         0.00000000
  eigenvalues    EBANDS =     -1120.55549921
  atomic energy  EATOM  =     14520.78082121
  ---------------------------------------------------
  free energy    TOTEN  =       -17.78982000 eV

  energy without entropy =      -17.78982000  energy(sigma->0) =      -17.78982000


--------------------------------------------------------------------------------------------------------




----------------------------------------- Iteration    1(  14)  ---------------------------------------


    POTLOK:  cpu time    0.23: real time    0.23
    SETDIJ:  cpu time    0.01: real time    0.01
     EDDAV:  cpu time    1.06: real time    1.06
       DOS:  cpu time    0.00: real time    0.00
    CHARGE:  cpu time    0.06: real time    0.06
    MIXING:  cpu time    0.01: real time    0.01
    --------------------------------------------
      LOOP:  cpu time    1.36: real time    1.37

 eigenvalue-minimisations  :   416
 total energy-change (2. order) :-0.2386923E+01  (-0.6386681E-01)
 number of electron     154.0000152 magnetization       3.0963633
 augmentation part       73.8890108 magnetization       0.9615147

 Broyden mixing:
  rms(total) = 0.72456E-01    rms(broyden)= 0.72451E-01
  rms(prec ) = 0.75380E-01
  weight for this iteration     100.00

 eigenvalues of (default mixing * dielectric matrix)
  average eigenvalue GAMMA=   1.3464
  3.7430  2.4030  1.2614  1.2614  0.8166  0.8166  0.4513  0.7313  0.6330

 Free energy of the ion-electron system (eV)
  ---------------------------------------------------
  alpha Z        PSCENC =        22.07064535
  Ewald energy   TEWEN  =     17418.77078043
  -Hartree energ DENC   =    -31324.68397499
  -exchange      EXHF   =         0.00000000
  -V(xc)+E(xc)   XCENC  =      -156.42139948
  PAW double counting   =     15204.76572445   -14585.59514763
  entropy T*S    EENTRO =         0.00000000
  eigenvalues    EBANDS =     -1119.86419188
  atomic energy  EATOM  =     14520.78082121
  ---------------------------------------------------
  free energy    TOTEN  =       -20.17674254 eV

  energy without entropy =      -20.17674254  energy(sigma->0) =      -20.17674254


--------------------------------------------------------------------------------------------------------




----------------------------------------- Iteration    1(  15)  ---------------------------------------


    POTLOK:  cpu time    0.23: real time    0.23
    SETDIJ:  cpu time    0.00: real time    0.01
     EDDAV:  cpu time    1.02: real time    1.02
       DOS:  cpu time    0.00: real time    0.00
    CHARGE:  cpu time    0.06: real time    0.06
    MIXING:  cpu time    0.01: real time    0.01
    --------------------------------------------
      LOOP:  cpu time    1.33: real time    1.33

 eigenvalue-minimisations  :   400
 total energy-change (2. order) :-0.1935566E+01  (-0.4622160E-01)
 number of electron     154.0000152 magnetization       2.6484004
 augmentation part       73.8988115 magnetization       0.5570809

 Broyden mixing:
  rms(total) = 0.35841E-01    rms(broyden)= 0.35834E-01
  rms(prec ) = 0.39268E-01
  weight for this iteration     100.00

 eigenvalues of (default mixing * dielectric matrix)
  average eigenvalue GAMMA=   1.4179
  4.6085  2.5881  1.2286  1.2286  1.0697  0.9320  0.4506  0.7195  0.7195  0.6337

 Free energy of the ion-electron system (eV)
  ---------------------------------------------------
  alpha Z        PSCENC =        22.07064535
  Ewald energy   TEWEN  =     17418.77078043
  -Hartree energ DENC   =    -31318.48505386
  -exchange      EXHF   =         0.00000000
  -V(xc)+E(xc)   XCENC  =      -158.22842464
  PAW double counting   =     15218.05925543   -14598.09833711
  entropy T*S    EENTRO =         0.00000000
  eigenvalues    EBANDS =     -1126.98199533
  atomic energy  EATOM  =     14520.78082121
  ---------------------------------------------------
  free energy    TOTEN  =       -22.11230852 eV

  energy without entropy =      -22.11230852  energy(sigma->0) =      -22.11230852


--------------------------------------------------------------------------------------------------------




----------------------------------------- Iteration    1(  16)  ---------------------------------------


    POTLOK:  cpu time    0.23: real time    0.23
    SETDIJ:  cpu time    0.00: real time    0.01
     EDDAV:  cpu time    1.07: real time    1.07
       DOS:  cpu time    0.00: real time    0.00
    CHARGE:  cpu time    0.06: real time    0.06
    MIXING:  cpu time    0.01: real time    0.01
    --------------------------------------------
      LOOP:  cpu time    1.38: real time    1.69

 eigenvalue-minimisations  :   424
 total energy-change (2. order) :-0.6984779E+00  (-0.1011434E-01)
 number of electron     154.0000152 magnetization       2.4099359
 augmentation part       73.9001619 magnetization       0.3342993

 Broyden mixing:
  rms(total) = 0.25308E-01    rms(broyden)= 0.25301E-01
  rms(prec ) = 0.28499E-01
  weight for this iteration     100.00

 eigenvalues of (default mixing * dielectric matrix)
  average eigenvalue GAMMA=   1.4530
  4.9600  2.6836  1.7374  1.1777  1.1777  0.9531  0.7755  0.7755  0.4506  0.6523
  0.6394

 Free energy of the ion-electron system (eV)
  ---------------------------------------------------
  alpha Z        PSCENC =        22.07064535
  Ewald energy   TEWEN  =     17418.77078043
  -Hartree energ DENC   =    -31313.20020708
  -exchange      EXHF   =         0.00000000
  -V(xc)+E(xc)   XCENC  =      -158.93919244
  PAW double counting   =     15226.82880770   -14606.63453661
  entropy T*S    EENTRO =         0.00000000
  eigenvalues    EBANDS =     -1132.48790493
  atomic energy  EATOM  =     14520.78082121
  ---------------------------------------------------
  free energy    TOTEN  =       -22.81078637 eV

  energy without entropy =      -22.81078637  energy(sigma->0) =      -22.81078637


--------------------------------------------------------------------------------------------------------




----------------------------------------- Iteration    1(  17)  ---------------------------------------


    POTLOK:  cpu time    0.23: real time    0.23
    SETDIJ:  cpu time    0.01: real time    0.01
     EDDAV:  cpu time    1.05: real time    1.05
       DOS:  cpu time    0.00: real time    0.00
    CHARGE:  cpu time    0.06: real time    0.06
    MIXING:  cpu time    0.01: real time    0.01
    --------------------------------------------
      LOOP:  cpu time    1.36: real time    1.36

 eigenvalue-minimisations  :   416
 total energy-change (2. order) :-0.4402403E+00  (-0.2953426E-02)
 number of electron     154.0000152 magnetization       2.2006247
 augmentation part       73.9027461 magnetization       0.1300521

 Broyden mixing:
  rms(total) = 0.20341E-01    rms(broyden)= 0.20336E-01
  rms(prec ) = 0.22285E-01
  weight for this iteration     100.00

 eigenvalues of (default mixing * dielectric matrix)
  average eigenvalue GAMMA=   1.5504
  5.5145  3.0735  2.2550  1.2450  1.2450  1.1735  0.4507  0.8129  0.8129  0.6990
  0.6990  0.6242

 Free energy of the ion-electron system (eV)
  ---------------------------------------------------
  alpha Z        PSCENC =        22.07064535
  Ewald energy   TEWEN  =     17418.77078043
  -Hartree energ DENC   =    -31307.55542527
  -exchange      EXHF   =         0.00000000
  -V(xc)+E(xc)   XCENC  =      -159.43618732
  PAW double counting   =     15223.24583509   -14602.98200625
  entropy T*S    EENTRO =         0.00000000
  eigenvalues    EBANDS =     -1138.14548992
  atomic energy  EATOM  =     14520.78082121
  ---------------------------------------------------
  free energy    TOTEN  =       -23.25102668 eV

  energy without entropy =      -23.25102668  energy(sigma->0) =      -23.25102668


--------------------------------------------------------------------------------------------------------




----------------------------------------- Iteration    1(  18)  ---------------------------------------


    POTLOK:  cpu time    0.23: real time    0.23
    SETDIJ:  cpu time    0.01: real time    0.01
     EDDAV:  cpu time    1.06: real time    1.06
       DOS:  cpu time    0.00: real time    0.00
    CHARGE:  cpu time    0.06: real time    0.06
    MIXING:  cpu time    0.01: real time    0.01
    --------------------------------------------
      LOOP:  cpu time    1.36: real time    1.37

 eigenvalue-minimisations  :   416
 total energy-change (2. order) :-0.2538891E+00  (-0.1121188E-02)
 number of electron     154.0000152 magnetization       2.0811334
 augmentation part       73.9143471 magnetization       0.0177017

 Broyden mixing:
  rms(total) = 0.80589E-02    rms(broyden)= 0.80555E-02
  rms(prec ) = 0.94715E-02
  weight for this iteration     100.00

 eigenvalues of (default mixing * dielectric matrix)
  average eigenvalue GAMMA=   1.5894
  6.0480  3.0184  2.7607  1.2211  1.2211  1.2572  1.1439  0.4507  0.7677  0.7677
  0.7326  0.6367  0.6367

 Free energy of the ion-electron system (eV)
  ---------------------------------------------------
  alpha Z        PSCENC =        22.07064535
  Ewald energy   TEWEN  =     17418.77078043
  -Hartree energ DENC   =    -31302.46871230
  -exchange      EXHF   =         0.00000000
  -V(xc)+E(xc)   XCENC  =      -159.75499037
  PAW double counting   =     15211.60353163   -14591.34558886
  entropy T*S    EENTRO =        -0.00000000
  eigenvalues    EBANDS =     -1143.16140289
  atomic energy  EATOM  =     14520.78082121
  ---------------------------------------------------
  free energy    TOTEN  =       -23.50491581 eV

  energy without entropy =      -23.50491581  energy(sigma->0) =      -23.50491581


--------------------------------------------------------------------------------------------------------




----------------------------------------- Iteration    1(  19)  ---------------------------------------


    POTLOK:  cpu time    0.23: real time    0.23
    SETDIJ:  cpu time    0.00: real time    0.01
     EDDAV:  cpu time    1.06: real time    1.06
       DOS:  cpu time    0.00: real time    0.00
    CHARGE:  cpu time    0.06: real time    0.06
    MIXING:  cpu time    0.01: real time    0.01
    --------------------------------------------
      LOOP:  cpu time    1.37: real time    1.39

 eigenvalue-minimisations  :   416
 total energy-change (2. order) :-0.5956703E-01  (-0.2926629E-03)
 number of electron     154.0000152 magnetization       2.0451392
 augmentation part       73.9172867 magnetization      -0.0135418

 Broyden mixing:
  rms(total) = 0.41258E-02    rms(broyden)= 0.41247E-02
  rms(prec ) = 0.55246E-02
  weight for this iteration     100.00

 eigenvalues of (default mixing * dielectric matrix)
  average eigenvalue GAMMA=   1.5915
  6.1059  3.4004  2.6151  1.2181  1.2181  1.4176  1.4176  0.4507  0.8612  0.7716
  0.7716  0.7721  0.6305  0.6305

 Free energy of the ion-electron system (eV)
  ---------------------------------------------------
  alpha Z        PSCENC =        22.07064535
  Ewald energy   TEWEN  =     17418.77078043
  -Hartree energ DENC   =    -31300.55765921
  -exchange      EXHF   =         0.00000000
  -V(xc)+E(xc)   XCENC  =      -159.83449846
  PAW double counting   =     15208.27916452   -14588.08688596
  entropy T*S    EENTRO =         0.00000000
  eigenvalues    EBANDS =     -1144.98685072
  atomic energy  EATOM  =     14520.78082121
  ---------------------------------------------------
  free energy    TOTEN  =       -23.56448283 eV

  energy without entropy =      -23.56448283  energy(sigma->0) =      -23.56448283


--------------------------------------------------------------------------------------------------------




----------------------------------------- Iteration    1(  20)  ---------------------------------------


    POTLOK:  cpu time    0.23: real time    0.23
    SETDIJ:  cpu time    0.00: real time    0.01
     EDDAV:  cpu time    0.92: real time    0.92
       DOS:  cpu time    0.00: real time    0.00
    CHARGE:  cpu time    0.06: real time    0.06
    MIXING:  cpu time    0.01: real time    0.01
    --------------------------------------------
      LOOP:  cpu time    1.23: real time    1.23

 eigenvalue-minimisations  :   340
 total energy-change (2. order) :-0.2344048E-01  (-0.1267915E-03)
 number of electron     154.0000152 magnetization       2.0089967
 augmentation part       73.9155647 magnetization      -0.0497883

 Broyden mixing:
  rms(total) = 0.30224E-02    rms(broyden)= 0.30221E-02
  rms(prec ) = 0.40157E-02
  weight for this iteration     100.00

 eigenvalues of (default mixing * dielectric matrix)
  average eigenvalue GAMMA=   1.6182
  6.3541  3.4262  2.4907  2.4907  1.2353  1.2353  1.1289  1.1289  0.4507  0.8662
  0.7574  0.7574  0.6274  0.6384  0.6849

 Free energy of the ion-electron system (eV)
  ---------------------------------------------------
  alpha Z        PSCENC =        22.07064535
  Ewald energy   TEWEN  =     17418.77078043
  -Hartree energ DENC   =    -31299.54016888
  -exchange      EXHF   =         0.00000000
  -V(xc)+E(xc)   XCENC  =      -159.86014366
  PAW double counting   =     15209.77877778   -14589.60160345
  entropy T*S    EENTRO =        -0.00000000
  eigenvalues    EBANDS =     -1145.98703208
  atomic energy  EATOM  =     14520.78082121
  ---------------------------------------------------
  free energy    TOTEN  =       -23.58792331 eV

  energy without entropy =      -23.58792331  energy(sigma->0) =      -23.58792331


--------------------------------------------------------------------------------------------------------




----------------------------------------- Iteration    1(  21)  ---------------------------------------


    POTLOK:  cpu time    0.23: real time    0.23
    SETDIJ:  cpu time    0.01: real time    0.01
     EDDAV:  cpu time    0.84: real time    0.84
       DOS:  cpu time    0.00: real time    0.00
    CHARGE:  cpu time    0.06: real time    0.06
    MIXING:  cpu time    0.01: real time    0.01
    --------------------------------------------
      LOOP:  cpu time    1.15: real time    1.15

 eigenvalue-minimisations  :   296
 total energy-change (2. order) :-0.8718494E-02  (-0.5947736E-04)
 number of electron     154.0000152 magnetization       1.9997774
 augmentation part       73.9167142 magnetization      -0.0582078

 Broyden mixing:
  rms(total) = 0.27319E-02    rms(broyden)= 0.27317E-02
  rms(prec ) = 0.33112E-02
  weight for this iteration     100.00

 eigenvalues of (default mixing * dielectric matrix)
  average eigenvalue GAMMA=   1.6431
  6.6396  3.2572  3.2572  2.4883  1.2251  1.2251  1.3020  1.3020  0.4507  0.9385
  0.7772  0.7772  0.6223  0.6223  0.7026  0.7026

 Free energy of the ion-electron system (eV)
  ---------------------------------------------------
  alpha Z        PSCENC =        22.07064535
  Ewald energy   TEWEN  =     17418.77078043
  -Hartree energ DENC   =    -31298.35017532
  -exchange      EXHF   =         0.00000000
  -V(xc)+E(xc)   XCENC  =      -159.87819559
  PAW double counting   =     15210.70196290   -14590.51988998
  entropy T*S    EENTRO =         0.00000000
  eigenvalues    EBANDS =     -1147.17259081
  atomic energy  EATOM  =     14520.78082121
  ---------------------------------------------------
  free energy    TOTEN  =       -23.59664181 eV

  energy without entropy =      -23.59664181  energy(sigma->0) =      -23.59664181


--------------------------------------------------------------------------------------------------------




----------------------------------------- Iteration    1(  22)  ---------------------------------------


    POTLOK:  cpu time    0.23: real time    0.23
    SETDIJ:  cpu time    0.01: real time    0.01
     EDDAV:  cpu time    0.84: real time    0.84
       DOS:  cpu time    0.00: real time    0.00
    CHARGE:  cpu time    0.06: real time    0.06
    MIXING:  cpu time    0.01: real time    0.01
    --------------------------------------------
      LOOP:  cpu time    1.15: real time    1.15

 eigenvalue-minimisations  :   296
 total energy-change (2. order) :-0.2313329E-03  (-0.2391497E-04)
 number of electron     154.0000152 magnetization       2.0082863
 augmentation part       73.9160662 magnetization      -0.0499627

 Broyden mixing:
  rms(total) = 0.10946E-02    rms(broyden)= 0.10944E-02
  rms(prec ) = 0.16931E-02
  weight for this iteration     100.00

 eigenvalues of (default mixing * dielectric matrix)
  average eigenvalue GAMMA=   1.6376
  6.6191  3.8114  2.8737  2.6327  1.6058  1.2222  1.2222  1.3308  0.9406  0.9406
  0.4507  0.7537  0.7537  0.7722  0.6179  0.6457  0.6457

 Free energy of the ion-electron system (eV)
  ---------------------------------------------------
  alpha Z        PSCENC =        22.07064535
  Ewald energy   TEWEN  =     17418.77078043
  -Hartree energ DENC   =    -31297.65786060
  -exchange      EXHF   =         0.00000000
  -V(xc)+E(xc)   XCENC  =      -159.88140942
  PAW double counting   =     15212.84376630   -14592.66189414
  entropy T*S    EENTRO =         0.00000000
  eigenvalues    EBANDS =     -1147.86172227
  atomic energy  EATOM  =     14520.78082121
  ---------------------------------------------------
  free energy    TOTEN  =       -23.59687314 eV

  energy without entropy =      -23.59687314  energy(sigma->0) =      -23.59687314


--------------------------------------------------------------------------------------------------------




----------------------------------------- Iteration    1(  23)  ---------------------------------------


    POTLOK:  cpu time    0.23: real time    0.23
    SETDIJ:  cpu time    0.00: real time    0.01
     EDDAV:  cpu time    0.79: real time    0.79
       DOS:  cpu time    0.00: real time    0.00
    CHARGE:  cpu time    0.06: real time    0.06
    MIXING:  cpu time    0.02: real time    0.01
    --------------------------------------------
      LOOP:  cpu time    1.10: real time    1.10

 eigenvalue-minimisations  :   268
 total energy-change (2. order) :-0.1424794E-02  (-0.1443239E-04)
 number of electron     154.0000152 magnetization       2.0064594
 augmentation part       73.9151593 magnetization      -0.0526079

 Broyden mixing:
  rms(total) = 0.11659E-02    rms(broyden)= 0.11658E-02
  rms(prec ) = 0.14742E-02
  weight for this iteration     100.00

 eigenvalues of (default mixing * dielectric matrix)
  average eigenvalue GAMMA=   1.6622
  6.5711  4.4653  2.7417  2.7417  2.0485  1.2263  1.2263  1.3806  1.0852  1.0852
  0.4507  0.7679  0.7679  0.7380  0.7380  0.6251  0.6299  0.6299

 Free energy of the ion-electron system (eV)
  ---------------------------------------------------
  alpha Z        PSCENC =        22.07064535
  Ewald energy   TEWEN  =     17418.77078043
  -Hartree energ DENC   =    -31297.05390948
  -exchange      EXHF   =         0.00000000
  -V(xc)+E(xc)   XCENC  =      -159.88434408
  PAW double counting   =     15214.31272622   -14594.12224580
  entropy T*S    EENTRO =         0.00000000
  eigenvalues    EBANDS =     -1148.47277177
  atomic energy  EATOM  =     14520.78082121
  ---------------------------------------------------
  free energy    TOTEN  =       -23.59829794 eV

  energy without entropy =      -23.59829794  energy(sigma->0) =      -23.59829794


--------------------------------------------------------------------------------------------------------




----------------------------------------- Iteration    1(  24)  ---------------------------------------


    POTLOK:  cpu time    0.23: real time    0.23
    SETDIJ:  cpu time    0.01: real time    0.01
     EDDAV:  cpu time    0.84: real time    0.84
       DOS:  cpu time    0.00: real time    0.00
    CHARGE:  cpu time    0.06: real time    0.06
    MIXING:  cpu time    0.01: real time    0.01
    --------------------------------------------
      LOOP:  cpu time    1.15: real time    1.16

 eigenvalue-minimisations  :   296
 total energy-change (2. order) :-0.1023709E-02  (-0.5869184E-05)
 number of electron     154.0000152 magnetization       2.0007321
 augmentation part       73.9158487 magnetization      -0.0581551

 Broyden mixing:
  rms(total) = 0.88439E-03    rms(broyden)= 0.88436E-03
  rms(prec ) = 0.10525E-02
  weight for this iteration     100.00

 eigenvalues of (default mixing * dielectric matrix)
  average eigenvalue GAMMA=   1.6948
  6.5646  4.8697  3.0675  2.5519  2.5519  1.6492  1.2234  1.2234  1.2605  0.4507
  0.9218  0.9218  0.8765  0.7491  0.7491  0.6681  0.6187  0.6413  0.6413

 Free energy of the ion-electron system (eV)
  ---------------------------------------------------
  alpha Z        PSCENC =        22.07064535
  Ewald energy   TEWEN  =     17418.77078043
  -Hartree energ DENC   =    -31296.50055602
  -exchange      EXHF   =         0.00000000
  -V(xc)+E(xc)   XCENC  =      -159.88996595
  PAW double counting   =     15213.95873359   -14593.76427118
  entropy T*S    EENTRO =         0.00000000
  eigenvalues    EBANDS =     -1149.02550907
  atomic energy  EATOM  =     14520.78082121
  ---------------------------------------------------
  free energy    TOTEN  =       -23.59932164 eV

  energy without entropy =      -23.59932164  energy(sigma->0) =      -23.59932164


--------------------------------------------------------------------------------------------------------




----------------------------------------- Iteration    1(  25)  ---------------------------------------


    POTLOK:  cpu time    0.23: real time    0.23
    SETDIJ:  cpu time    0.00: real time    0.01
     EDDAV:  cpu time    0.81: real time    0.81
       DOS:  cpu time    0.00: real time    0.00
    CHARGE:  cpu time    0.06: real time    0.06
    MIXING:  cpu time    0.01: real time    0.01
    --------------------------------------------
      LOOP:  cpu time    1.12: real time    1.12

 eigenvalue-minimisations  :   280
 total energy-change (2. order) :-0.7270813E-03  (-0.3051365E-05)
 number of electron     154.0000152 magnetization       2.0001849
 augmentation part       73.9165416 magnetization      -0.0582149

 Broyden mixing:
  rms(total) = 0.40667E-03    rms(broyden)= 0.40658E-03
  rms(prec ) = 0.52194E-03
  weight for this iteration     100.00

 eigenvalues of (default mixing * dielectric matrix)
  average eigenvalue GAMMA=   1.7146
  6.5387  5.4635  3.4365  2.5731  2.5731  1.6660  1.2231  1.2231  1.4221  0.9808
  0.9808  0.4507  0.7598  0.7598  0.8502  0.7852  0.7308  0.6311  0.6311  0.6120

 Free energy of the ion-electron system (eV)
  ---------------------------------------------------
  alpha Z        PSCENC =        22.07064535
  Ewald energy   TEWEN  =     17418.77078043
  -Hartree energ DENC   =    -31296.17470669
  -exchange      EXHF   =         0.00000000
  -V(xc)+E(xc)   XCENC  =      -159.89383568
  PAW double counting   =     15213.23330529   -14593.04461682
  entropy T*S    EENTRO =         0.00000000
  eigenvalues    EBANDS =     -1149.34244182
  atomic energy  EATOM  =     14520.78082121
  ---------------------------------------------------
  free energy    TOTEN  =       -23.60004873 eV

  energy without entropy =      -23.60004873  energy(sigma->0) =      -23.60004873


--------------------------------------------------------------------------------------------------------




----------------------------------------- Iteration    1(  26)  ---------------------------------------


    POTLOK:  cpu time    0.22: real time    0.23
    SETDIJ:  cpu time    0.01: real time    0.01
     EDDAV:  cpu time    0.79: real time    0.79
       DOS:  cpu time    0.00: real time    0.00
    CHARGE:  cpu time    0.06: real time    0.06
    MIXING:  cpu time    0.02: real time    0.02
    --------------------------------------------
      LOOP:  cpu time    1.10: real time    1.32

 eigenvalue-minimisations  :   272
 total energy-change (2. order) :-0.1409136E-03  (-0.6089005E-06)
 number of electron     154.0000152 magnetization       1.9997052
 augmentation part       73.9163862 magnetization      -0.0586999

 Broyden mixing:
  rms(total) = 0.26486E-03    rms(broyden)= 0.26482E-03
  rms(prec ) = 0.35151E-03
  weight for this iteration     100.00

 eigenvalues of (default mixing * dielectric matrix)
  average eigenvalue GAMMA=   1.7410
  6.4166  6.4166  3.5223  2.5503  2.5503  1.8808  1.5984  1.2237  1.2237  1.1144
  0.9878  0.9878  0.4507  0.7569  0.7569  0.7890  0.7890  0.6496  0.6496  0.6170
  0.6296

 Free energy of the ion-electron system (eV)
  ---------------------------------------------------
  alpha Z        PSCENC =        22.07064535
  Ewald energy   TEWEN  =     17418.77078043
  -Hartree energ DENC   =    -31296.11120383
  -exchange      EXHF   =         0.00000000
  -V(xc)+E(xc)   XCENC  =      -159.89381460
  PAW double counting   =     15213.25831977   -14593.07230269
  entropy T*S    EENTRO =         0.00000000
  eigenvalues    EBANDS =     -1149.40343528
  atomic energy  EATOM  =     14520.78082121
  ---------------------------------------------------
  free energy    TOTEN  =       -23.60018964 eV

  energy without entropy =      -23.60018964  energy(sigma->0) =      -23.60018964


--------------------------------------------------------------------------------------------------------




----------------------------------------- Iteration    1(  27)  ---------------------------------------


    POTLOK:  cpu time    0.23: real time    0.23
    SETDIJ:  cpu time    0.00: real time    0.01
     EDDAV:  cpu time    0.78: real time    0.78
       DOS:  cpu time    0.00: real time    0.00
    --------------------------------------------
      LOOP:  cpu time    1.02: real time    1.04

 eigenvalue-minimisations  :   264
 total energy-change (2. order) :-0.2711869E-04  (-0.3192927E-06)
 number of electron     154.0000152 magnetization       1.9997052
 augmentation part       73.9163862 magnetization      -0.0586999

 Free energy of the ion-electron system (eV)
  ---------------------------------------------------
  alpha Z        PSCENC =        22.07064535
  Ewald energy   TEWEN  =     17418.77078043
  -Hartree energ DENC   =    -31296.04112801
  -exchange      EXHF   =         0.00000000
  -V(xc)+E(xc)   XCENC  =      -159.89413124
  PAW double counting   =     15213.33228814   -14593.14528552
  entropy T*S    EENTRO =         0.00000000
  eigenvalues    EBANDS =     -1149.47420713
  atomic energy  EATOM  =     14520.78082121
  ---------------------------------------------------
  free energy    TOTEN  =       -23.60021676 eV

  energy without entropy =      -23.60021676  energy(sigma->0) =      -23.60021676


--------------------------------------------------------------------------------------------------------




 average (electrostatic) potential at core
  the test charge radii are     1.1249
  (the norm of the test charge is              1.0000)
       1 -82.3076       2 -82.4402       3 -82.3903       4 -82.6647       5 -82.3947
       6 -82.4735       7 -82.5161       8 -82.2907       9 -82.4144      10 -82.6081
      11 -82.5579      12 -82.0674      13 -82.3606      14 -82.2031
 
 
 
 E-fermi :  -3.5463     XC(G=0):  -0.8009     alpha+bet : -0.4254


 spin component 1

 k-point     1 :       0.0000    0.0000    0.0000
  band No.  band energies     occupation 
      1      -9.3738      1.00000
      2      -9.3022      1.00000
      3      -9.2546      1.00000
      4      -9.2265      1.00000
      5      -9.1381      1.00000
      6      -9.0973      1.00000
      7      -9.0446      1.00000
      8      -8.9613      1.00000
      9      -8.9390      1.00000
     10      -8.8498      1.00000
     11      -8.8133      1.00000
     12      -8.7636      1.00000
     13      -8.7282      1.00000
     14      -8.6932      1.00000
     15      -8.6677      1.00000
     16      -8.5550      1.00000
     17      -8.5300      1.00000
     18      -8.5258      1.00000
     19      -8.3911      1.00000
     20      -8.3023      1.00000
     21      -8.2869      1.00000
     22      -8.1700      1.00000
     23      -8.1245      1.00000
     24      -8.0365      1.00000
     25      -7.9892      1.00000
     26      -7.9452      1.00000
     27      -7.9087      1.00000
     28      -7.7922      1.00000
     29      -7.7561      1.00000
     30      -7.7465      1.00000
     31      -7.6903      1.00000
     32      -7.6340      1.00000
     33      -7.6201      1.00000
     34      -7.5809      1.00000
     35      -7.5419      1.00000
     36      -7.5369      1.00000
     37      -7.5240      1.00000
     38      -7.4861      1.00000
     39      -7.4603      1.00000
     40      -7.4027      1.00000
     41      -7.3810      1.00000
     42      -7.3535      1.00000
     43      -7.2910      1.00000
     44      -7.2767      1.00000
     45      -7.2279      1.00000
     46      -7.1988      1.00000
     47      -7.1883      1.00000
     48      -7.1429      1.00000
     49      -7.1062      1.00000
     50      -7.0717      1.00000
     51      -7.0575      1.00000
     52      -7.0396      1.00000
     53      -6.9927      1.00000
     54      -6.9728      1.00000
     55      -6.9512      1.00000
     56      -6.9293      1.00000
     57      -6.9105      1.00000
     58      -6.8915      1.00000
     59      -6.8421      1.00000
     60      -6.7967      1.00000
     61      -6.7623      1.00000
     62      -6.7309      1.00000
     63      -6.7028      1.00000
     64      -6.6868      1.00000
     65      -6.6174      1.00000
     66      -6.5637      1.00000
     67      -6.4954      1.00000
     68      -6.4759      1.00000
     69      -6.3999      1.00000
     70      -6.3800      1.00000
     71      -6.2326      1.00000
     72      -6.0676      1.00000
     73      -5.9886      1.00000
     74      -5.5752      1.00000
     75      -4.8668      1.00000
     76      -4.1365      1.00000
     77      -3.7399      1.00000
     78      -3.5541      1.00000
     79      -3.1455      0.00000
     80      -3.0031      0.00000
     81      -2.5853      0.00000
     82      -2.2479      0.00000
     83      -2.0055      0.00000
     84      -1.7137      0.00000
     85      -1.6133      0.00000
     86      -1.3653      0.00000
     87      -1.0527      0.00000
     88      -0.9590      0.00000
     89      -0.7751      0.00000
     90      -0.6356      0.00000
     91      -0.5042      0.00000
     92      -0.2086      0.00000
     93      -0.1313      0.00000
     94      -0.0040      0.00000
     95       0.2654      0.00000
     96       0.3920      0.00000
     97       0.4712      0.00000
     98       0.5365      0.00000
     99       0.5654      0.00000
    100       0.6559      0.00000

 spin component 2

 k-point     1 :       0.0000    0.0000    0.0000
  band No.  band energies     occupation 
      1      -9.3235      1.00000
      2      -9.2668      1.00000
      3      -9.2145      1.00000
      4      -9.1798      1.00000
      5      -9.0874      1.00000
      6      -9.0536      1.00000
      7      -9.0044      1.00000
      8      -8.9201      1.00000
      9      -8.8901      1.00000
     10      -8.8075      1.00000
     11      -8.7754      1.00000
     12      -8.7187      1.00000
     13      -8.6833      1.00000
     14      -8.6482      1.00000
     15      -8.6294      1.00000
     16      -8.5187      1.00000
     17      -8.4902      1.00000
     18      -8.4880      1.00000
     19      -8.3513      1.00000
     20      -8.2617      1.00000
     21      -8.2459      1.00000
     22      -8.1305      1.00000
     23      -8.0847      1.00000
     24      -7.9952      1.00000
     25      -7.9553      1.00000
     26      -7.9071      1.00000
     27      -7.8721      1.00000
     28      -7.7469      1.00000
     29      -7.7196      1.00000
     30      -7.7141      1.00000
     31      -7.6414      1.00000
     32      -7.5981      1.00000
     33      -7.5784      1.00000
     34      -7.5393      1.00000
     35      -7.5041      1.00000
     36      -7.4979      1.00000
     37      -7.4797      1.00000
     38      -7.4504      1.00000
     39      -7.4253      1.00000
     40      -7.3653      1.00000
     41      -7.3464      1.00000
     42      -7.3177      1.00000
     43      -7.2535      1.00000
     44      -7.2367      1.00000
     45      -7.1917      1.00000
     46      -7.1664      1.00000
     47      -7.1456      1.00000
     48      -7.1084      1.00000
     49      -7.0726      1.00000
     50      -7.0475      1.00000
     51      -7.0200      1.00000
     52      -7.0089      1.00000
     53      -6.9644      1.00000
     54      -6.9348      1.00000
     55      -6.9112      1.00000
     56      -6.8969      1.00000
     57      -6.8773      1.00000
     58      -6.8581      1.00000
     59      -6.8063      1.00000
     60      -6.7639      1.00000
     61      -6.7291      1.00000
     62      -6.6986      1.00000
     63      -6.6673      1.00000
     64      -6.6540      1.00000
     65      -6.5862      1.00000
     66      -6.5242      1.00000
     67      -6.4626      1.00000
     68      -6.4426      1.00000
     69      -6.3451      1.00000
     70      -6.3011      1.00000
     71      -6.2009      1.00000
     72      -6.0054      1.00000
     73      -5.8892      1.00000
     74      -5.4919      1.00000
     75      -4.7620      1.00000
     76      -4.0338      1.00000
     77      -3.4913      0.00000
     78      -3.3501      0.00000
     79      -3.0430      0.00000
     80      -2.8961      0.00000
     81      -2.4499      0.00000
     82      -2.1079      0.00000
     83      -1.8818      0.00000
     84      -1.5240      0.00000
     85      -1.4161      0.00000
     86      -1.2599      0.00000
     87      -0.9044      0.00000
     88      -0.8119      0.00000
     89      -0.6632      0.00000
     90      -0.4977      0.00000
     91      -0.3869      0.00000
     92      -0.0664      0.00000
     93       0.0107      0.00000
     94       0.1238      0.00000
     95       0.3244      0.00000
     96       0.5036      0.00000
     97       0.5704      0.00000
     98       0.6223      0.00000
     99       0.6433      0.00000
    100       0.6939      0.00000


--------------------------------------------------------------------------------------------------------


 soft charge-density along one line, spin component           1
         0         1         2         3         4         5         6         7         8         9
 total charge-density along one line
 
 soft charge-density along one line, spin component           2
         0         1         2         3         4         5         6         7         8         9
 total charge-density along one line
 
 pseudopotential strength for first ion, spin component:           1
-10.375  -0.003   0.015   0.000   0.002 -10.347  -0.003   0.014
 -0.003 -10.362   0.002  -0.010  -0.001  -0.003 -10.335   0.002
  0.015   0.002 -10.381  -0.007   0.010   0.014   0.002 -10.353
  0.000  -0.010  -0.007 -10.390   0.002   0.000  -0.009  -0.007
  0.002  -0.001   0.010   0.002 -10.375   0.002  -0.001   0.010
-10.347  -0.003   0.014   0.000   0.002 -10.295  -0.003   0.014
 -0.003 -10.335   0.002  -0.009  -0.001  -0.003 -10.283   0.002
  0.014   0.002 -10.353  -0.007   0.010   0.014   0.002 -10.301
  0.000  -0.009  -0.007 -10.362   0.002   0.000  -0.009  -0.007
  0.002  -0.001   0.010   0.002 -10.347   0.002  -0.001   0.010
  0.006   0.000   0.001   0.000   0.006   0.006   0.000   0.001
  0.010   0.001   0.002   0.000   0.009   0.010   0.001   0.001
  0.034  -0.004  -0.004  -0.000  -0.008   0.033  -0.003  -0.004
 -0.000   0.007  -0.005   0.033   0.000  -0.000   0.007  -0.005
  0.006  -0.000  -0.020  -0.003   0.034   0.006  -0.000  -0.019
  0.041  -0.005  -0.005  -0.000  -0.009   0.040  -0.005  -0.004
 -0.000   0.009  -0.007   0.040   0.000  -0.000   0.008  -0.007
  0.007  -0.000  -0.024  -0.005   0.041   0.007  -0.000  -0.023
 pseudopotential strength for first ion, spin component:           2
-10.374  -0.004   0.014  -0.000   0.002 -10.347  -0.003   0.014
 -0.004 -10.361   0.002  -0.009  -0.001  -0.003 -10.334   0.002
  0.014   0.002 -10.379  -0.006   0.010   0.014   0.002 -10.351
 -0.000  -0.009  -0.006 -10.389   0.001  -0.000  -0.009  -0.006
  0.002  -0.001   0.010   0.001 -10.375   0.002  -0.001   0.009
-10.347  -0.003   0.014  -0.000   0.002 -10.295  -0.003   0.013
 -0.003 -10.334   0.002  -0.009  -0.001  -0.003 -10.283   0.002
  0.014   0.002 -10.351  -0.006   0.009   0.013   0.002 -10.299
 -0.000  -0.009  -0.006 -10.360   0.001  -0.000  -0.008  -0.006
  0.002  -0.001   0.009   0.001 -10.347   0.002  -0.001   0.009
  0.005   0.001   0.001   0.001   0.005   0.005   0.001   0.001
  0.009   0.001   0.002   0.001   0.009   0.009   0.001   0.001
  0.035  -0.004  -0.004  -0.000  -0.008   0.033  -0.004  -0.004
 -0.000   0.008  -0.005   0.034   0.000  -0.000   0.007  -0.005
  0.007  -0.000  -0.020  -0.004   0.034   0.006  -0.000  -0.019
  0.042  -0.005  -0.005  -0.001  -0.009   0.040  -0.005  -0.005
 -0.001   0.009  -0.007   0.041   0.000  -0.001   0.008  -0.007
  0.008  -0.001  -0.024  -0.005   0.041   0.007  -0.001  -0.023
 total augmentation occupancy for first ion, spin component:           1
  2.570   0.083  -0.049   0.083   0.076  -0.588  -0.100   0.116  -0.099  -0.046  -0.462   0.111   0.087   0.036   0.085   0.015
  0.083   2.455   0.085   0.174  -0.046  -0.100  -0.404  -0.070  -0.189   0.054  -0.139   0.037   0.046   0.070   0.019  -0.004
 -0.049   0.085   2.488   0.095  -0.111   0.116  -0.070  -0.558  -0.160   0.120  -0.027   0.004  -0.011   0.084  -0.033  -0.001
  0.083   0.174   0.095   2.634  -0.031  -0.100  -0.188  -0.160  -0.730   0.074  -0.002   0.047   0.037   0.134   0.015  -0.002
  0.076  -0.046  -0.111  -0.031   2.526  -0.046   0.053   0.121   0.075  -0.542  -0.462   0.084  -0.011  -0.028   0.095  -0.004
 -0.588  -0.100   0.116  -0.100  -0.046   0.587   0.116  -0.173   0.115   0.021   0.399  -0.090  -0.124  -0.034  -0.094   0.008
 -0.100  -0.404  -0.070  -0.188   0.053   0.116   0.341   0.059   0.202  -0.060   0.135  -0.040  -0.049  -0.069  -0.021   0.003
  0.116  -0.070  -0.558  -0.160   0.121  -0.173   0.059   0.598   0.214  -0.129   0.037  -0.007   0.026  -0.104   0.051  -0.002
 -0.099  -0.189  -0.160  -0.730   0.075   0.115   0.202   0.214   0.795  -0.112   0.014  -0.042  -0.036  -0.179  -0.006   0.002
[...]
     85      -1.3152      0.00000
     86      -1.0485      0.00000
     87      -0.9569      0.00000
     88      -0.8521      0.00000
     89      -0.6474      0.00000
     90      -0.5898      0.00000
     91      -0.4287      0.00000
     92      -0.3787      0.00000
     93      -0.2386      0.00000
     94       0.0341      0.00000
     95       0.3096      0.00000
     96       0.3575      0.00000
     97       0.4766      0.00000
     98       0.5398      0.00000
     99       0.6330      0.00000
    100       0.6454      0.00000

 spin component 2

 k-point     1 :       0.0000    0.0000    0.0000
  band No.  band energies     occupation 
      1      -9.2079      1.00000
      2      -9.0549      1.00000
      3      -9.0071      1.00000
      4      -8.9514      1.00000
      5      -8.8980      1.00000
      6      -8.8497      1.00000
      7      -8.7508      1.00000
      8      -8.7123      1.00000
      9      -8.6909      1.00000
     10      -8.6420      1.00000
     11      -8.5389      1.00000
     12      -8.4506      1.00000
     13      -8.4277      1.00000
     14      -8.3319      1.00000
     15      -8.3201      1.00000
     16      -8.2946      1.00000
     17      -8.2088      1.00000
     18      -8.1761      1.00000
     19      -8.1193      1.00000
     20      -8.0820      1.00000
     21      -8.0662      1.00000
     22      -8.0219      1.00000
     23      -7.9354      1.00000
     24      -7.9045      1.00000
     25      -7.8541      1.00000
     26      -7.8086      1.00000
     27      -7.7873      1.00000
     28      -7.7298      1.00000
     29      -7.6980      1.00000
     30      -7.6495      1.00000
     31      -7.5639      1.00000
     32      -7.4935      1.00000
     33      -7.4516      1.00000
     34      -7.3933      1.00000
     35      -7.3663      1.00000
     36      -7.3460      1.00000
     37      -7.3024      1.00000
     38      -7.2863      1.00000
     39      -7.2401      1.00000
     40      -7.2005      1.00000
     41      -7.1865      1.00000
     42      -7.1725      1.00000
     43      -7.1423      1.00000
     44      -7.1122      1.00000
     45      -7.0753      1.00000
     46      -7.0666      1.00000
     47      -7.0387      1.00000
     48      -7.0334      1.00000
     49      -6.9981      1.00000
     50      -6.9891      1.00000
     51      -6.9718      1.00000
     52      -6.9472      1.00000
     53      -6.9109      1.00000
     54      -6.8874      1.00000
     55      -6.8631      1.00000
     56      -6.8267      1.00000
     57      -6.7866      1.00000
     58      -6.7532      1.00000
     59      -6.7263      1.00000
     60      -6.6826      1.00000
     61      -6.6514      1.00000
     62      -6.6367      1.00000
     63      -6.6210      1.00000
     64      -6.6004      1.00000
     65      -6.5603      1.00000
     66      -6.5256      1.00000
     67      -6.5176      1.00000
     68      -6.4885      1.00000
     69      -6.4076      1.00000
     70      -6.3753      1.00000
     71      -6.2875      1.00000
     72      -6.2065      1.00000
     73      -5.8108      1.00000
     74      -5.0172      1.00000
     75      -4.6590      1.00000
     76      -4.3979      1.00000
     77      -3.9626      1.00000
     78      -3.0896      0.00000
     79      -2.8279      0.00000
     80      -2.6371      0.00000
     81      -2.4950      0.00000
     82      -2.3430      0.00000
     83      -2.1229      0.00000
     84      -1.7416      0.00000
     85      -1.3152      0.00000
     86      -1.0485      0.00000
     87      -0.9569      0.00000
     88      -0.8521      0.00000
     89      -0.6474      0.00000
     90      -0.5898      0.00000
     91      -0.4287      0.00000
     92      -0.3787      0.00000
     93      -0.2386      0.00000
     94       0.0341      0.00000
     95       0.3096      0.00000
     96       0.3575      0.00000
     97       0.4766      0.00000
     98       0.5398      0.00000
     99       0.6330      0.00000
    100       0.6454      0.00000


--------------------------------------------------------------------------------------------------------


 soft charge-density along one line, spin component           1
         0         1         2         3         4         5         6         7         8         9
 total charge-density along one line
 
 soft charge-density along one line, spin component           2
         0         1         2         3         4         5         6         7         8         9
 total charge-density along one line
 
 pseudopotential strength for first ion, spin component:           1
-10.358  -0.000   0.012  -0.001   0.002 -10.331  -0.000   0.011
 -0.000 -10.360  -0.003  -0.013  -0.002  -0.000 -10.333  -0.003
  0.012  -0.003 -10.363  -0.002  -0.004   0.011  -0.003 -10.336
 -0.001  -0.013  -0.002 -10.367   0.002  -0.001  -0.012  -0.002
  0.002  -0.002  -0.004   0.002 -10.361   0.001  -0.001  -0.003
-10.331  -0.000   0.011  -0.001   0.001 -10.280  -0.000   0.011
 -0.000 -10.333  -0.003  -0.012  -0.001  -0.000 -10.282  -0.003
  0.011  -0.003 -10.336  -0.002  -0.003   0.011  -0.003 -10.284
 -0.001  -0.012  -0.002 -10.340   0.002  -0.001  -0.012  -0.002
  0.001  -0.001  -0.003   0.002 -10.334   0.001  -0.001  -0.003
  0.006   0.001   0.001  -0.001  -0.000   0.006   0.001   0.001
  0.010   0.002   0.002  -0.002  -0.000   0.009   0.002   0.002
  0.028   0.001  -0.012  -0.000  -0.022   0.027   0.001  -0.012
 -0.000   0.021   0.001   0.028   0.000  -0.000   0.021   0.001
  0.021  -0.000  -0.017   0.001   0.029   0.020  -0.000  -0.016
  0.034   0.001  -0.015  -0.000  -0.027   0.033   0.001  -0.015
 -0.000   0.026   0.001   0.034   0.000  -0.000   0.025   0.001
  0.026  -0.000  -0.020   0.002   0.035   0.025  -0.000  -0.019
 pseudopotential strength for first ion, spin component:           2
-10.358  -0.000   0.012  -0.001   0.002 -10.331  -0.000   0.011
 -0.000 -10.360  -0.003  -0.013  -0.002  -0.000 -10.333  -0.003
  0.012  -0.003 -10.363  -0.002  -0.004   0.011  -0.003 -10.336
 -0.001  -0.013  -0.002 -10.367   0.002  -0.001  -0.012  -0.002
  0.002  -0.002  -0.004   0.002 -10.361   0.001  -0.001  -0.003
-10.331  -0.000   0.011  -0.001   0.001 -10.280  -0.000   0.011
 -0.000 -10.333  -0.003  -0.012  -0.001  -0.000 -10.282  -0.003
  0.011  -0.003 -10.336  -0.002  -0.003   0.011  -0.003 -10.284
 -0.001  -0.012  -0.002 -10.340   0.002  -0.001  -0.012  -0.002
  0.001  -0.001  -0.003   0.002 -10.334   0.001  -0.001  -0.003
  0.006   0.001   0.001  -0.001  -0.000   0.006   0.001   0.001
  0.010   0.002   0.002  -0.002  -0.000   0.009   0.002   0.002
  0.028   0.001  -0.012  -0.000  -0.022   0.027   0.001  -0.012
 -0.000   0.021   0.001   0.028   0.000  -0.000   0.021   0.001
  0.021  -0.000  -0.017   0.001   0.029   0.020  -0.000  -0.016
  0.034   0.001  -0.015  -0.000  -0.027   0.033   0.001  -0.015
 -0.000   0.026   0.001   0.034   0.000  -0.000   0.025   0.001
  0.026  -0.000  -0.020   0.002   0.035   0.025  -0.000  -0.019
 total augmentation occupancy for first ion, spin component:           1
  2.516   0.009  -0.091  -0.038  -0.012  -0.493  -0.009   0.118   0.019   0.032  -0.507   0.115   0.085  -0.002   0.076   0.010
  0.009   2.458  -0.009   0.175  -0.117  -0.010  -0.449  -0.031  -0.235   0.097  -0.151   0.015   0.031   0.081  -0.008  -0.001
 -0.091  -0.009   2.376  -0.007  -0.024   0.118  -0.031  -0.387  -0.019  -0.021  -0.059  -0.009  -0.025   0.017  -0.014  -0.005
 -0.038   0.175  -0.007   2.501  -0.081   0.019  -0.235  -0.019  -0.582   0.116   0.142  -0.017   0.009   0.107  -0.036  -0.000
 -0.012  -0.117  -0.024  -0.081   2.441   0.032   0.097  -0.021   0.116  -0.468   0.001  -0.003  -0.053  -0.044   0.038  -0.010
 -0.493  -0.010   0.118   0.019   0.032   0.457   0.010  -0.142  -0.004  -0.048   0.436  -0.093  -0.109  -0.003  -0.093   0.008
 -0.009  -0.449  -0.031  -0.235   0.097   0.010   0.425   0.064   0.287  -0.082   0.134  -0.016  -0.026  -0.104   0.003   0.001
  0.118  -0.031  -0.387  -0.019  -0.021  -0.142   0.064   0.378   0.040   0.058   0.056   0.006   0.038  -0.026   0.020  -0.003
  0.019  -0.235  -0.019  -0.582   0.116  -0.004   0.287   0.040   0.634  -0.146  -0.126   0.018  -0.011  -0.149   0.041   0.000
  0.032   0.097  -0.021   0.116  -0.468  -0.048  -0.082   0.058  -0.146   0.472  -0.002   0.003   0.079   0.042  -0.064  -0.005
 -0.507  -0.151  -0.059   0.142   0.001   0.436   0.134   0.056  -0.126  -0.002   1.742  -0.185  -0.160  -0.005  -0.193   0.014
  0.115   0.015  -0.009  -0.017  -0.003  -0.093  -0.016   0.006   0.018   0.003  -0.185   0.033   0.029   0.001   0.030  -0.002
  0.085   0.031  -0.025   0.009  -0.053  -0.109  -0.026   0.038  -0.011   0.079  -0.160   0.029   0.044   0.009   0.017  -0.004
 -0.002   0.081   0.017   0.107  -0.044  -0.003  -0.104  -0.026  -0.149   0.042  -0.005   0.001   0.009   0.048  -0.009  -0.000
  0.076  -0.008  -0.014  -0.036   0.038  -0.093   0.003   0.020   0.041  -0.064  -0.193   0.030   0.017  -0.009   0.042  -0.002
  0.010  -0.001  -0.005  -0.000  -0.010   0.008   0.001  -0.003   0.000  -0.005   0.014  -0.002  -0.004  -0.000  -0.002   0.001
 -0.000   0.008  -0.001   0.011   0.002   0.000   0.006   0.002   0.009  -0.002   0.001  -0.000  -0.000  -0.003   0.000   0.000
  0.006  -0.000  -0.009   0.003   0.016   0.007   0.000  -0.001  -0.003   0.003   0.017  -0.002  -0.002   0.000  -0.004   0.000
 total augmentation occupancy for first ion, spin component:           2
 -0.000  -0.000  -0.000   0.000   0.000   0.000   0.000   0.000  -0.000  -0.000   0.000  -0.000   0.000  -0.000  -0.000  -0.000
 -0.000   0.000   0.000  -0.000   0.000   0.000  -0.000  -0.000   0.000  -0.000   0.000  -0.000   0.000  -0.000   0.000  -0.000
 -0.000   0.000  -0.000   0.000   0.000   0.000  -0.000   0.000  -0.000  -0.000  -0.000   0.000  -0.000  -0.000   0.000   0.000
  0.000  -0.000   0.000   0.000   0.000  -0.000   0.000  -0.000  -0.000  -0.000   0.000  -0.000  -0.000   0.000   0.000   0.000
  0.000   0.000   0.000   0.000   0.000  -0.000  -0.000  -0.000  -0.000  -0.000  -0.000   0.000  -0.000   0.000  -0.000   0.000
  0.000   0.000   0.000  -0.000  -0.000   0.000  -0.000  -0.000   0.000  -0.000  -0.000   0.000  -0.000   0.000  -0.000   0.000
  0.000  -0.000  -0.000   0.000  -0.000  -0.000   0.000   0.000  -0.000   0.000  -0.000   0.000  -0.000   0.000  -0.000   0.000
  0.000  -0.000   0.000  -0.000  -0.000  -0.000   0.000  -0.000  -0.000   0.000   0.000  -0.000   0.000   0.000  -0.000  -0.000
 -0.000   0.000  -0.000  -0.000  -0.000   0.000  -0.000  -0.000  -0.000   0.000  -0.000   0.000   0.000   0.000  -0.000  -0.000
 -0.000  -0.000  -0.000  -0.000  -0.000  -0.000   0.000   0.000   0.000   0.000  -0.000   0.000  -0.000  -0.000   0.000   0.000
  0.000   0.000  -0.000   0.000  -0.000  -0.000  -0.000   0.000  -0.000  -0.000   0.000  -0.000  -0.000   0.000   0.000   0.000
 -0.000  -0.000   0.000  -0.000   0.000   0.000   0.000  -0.000   0.000   0.000  -0.000  -0.000   0.000  -0.000  -0.000  -0.000
  0.000   0.000  -0.000  -0.000  -0.000  -0.000  -0.000   0.000   0.000  -0.000  -0.000   0.000  -0.000  -0.000   0.000   0.000
 -0.000  -0.000  -0.000   0.000   0.000   0.000   0.000   0.000   0.000  -0.000   0.000  -0.000  -0.000   0.000  -0.000  -0.000
 -0.000   0.000   0.000   0.000  -0.000  -0.000  -0.000  -0.000  -0.000   0.000   0.000  -0.000   0.000  -0.000   0.000  -0.000
 -0.000  -0.000   0.000   0.000   0.000   0.000   0.000  -0.000  -0.000   0.000   0.000  -0.000   0.000  -0.000  -0.000  -0.000
 -0.000   0.000   0.000  -0.000  -0.000  -0.000  -0.000  -0.000  -0.000   0.000  -0.000  -0.000   0.000   0.000   0.000  -0.000
  0.000  -0.000  -0.000  -0.000   0.000  -0.000   0.000   0.000  -0.000  -0.000   0.000  -0.000  -0.000   0.000  -0.000   0.000


------------------------ aborting loop because EDIFF is reached ----------------------------------------


    CHARGE:  cpu time    0.06: real time    0.06
    FORLOC:  cpu time    0.01: real time    0.01
    FORNL :  cpu time    0.46: real time    0.46
    STRESS:  cpu time    0.57: real time    0.57
    FORCOR:  cpu time    0.22: real time    0.23
    FORHAR:  cpu time    0.03: real time    0.03
    MIXING:  cpu time    0.01: real time    0.01
    OFIELD:  cpu time    0.00: real time    0.00

  FORCE on cell =-STRESS in cart. coord.  units (eV):
  Direction    XX          YY          ZZ          XY          YZ          ZX
  --------------------------------------------------------------------------------------
  Alpha Z    22.07065    22.07065    22.07065
  Ewald    -116.37472  8329.14014  8781.60082  2148.62834   790.63721   111.11666
  Hartree  5189.98610 12663.22266 13043.64932  1877.69780   693.20099   137.34203
  E(xc)    -813.21495  -810.60468  -810.45827     0.69663     0.18447    -0.18566
  Local   -7349.91163-23251.15488-24085.37948 -4023.16474 -1480.10833  -248.17533
  n-local  -155.74822  -156.17159  -154.95698     0.34906    -0.47031     0.01422
  augment  1288.98996  1283.33224  1283.21302    -1.22705    -0.95015    -0.11710
  Kinetic  1929.09270  1915.02518  1915.35309    -2.96240    -2.49866    -0.04613
  Fock        0.00000     0.00000     0.00000     0.00000     0.00000     0.00000
  -------------------------------------------------------------------------------------
  Total      -5.11012    -5.14028    -4.90785     0.01764    -0.00479    -0.05131
  in kB      -1.08389    -1.09029    -1.04099     0.00374    -0.00102    -0.01088
  external pressure =       -1.07 kB  Pullay stress =        0.00 kB


 VOLUME and BASIS-vectors are now :
 -----------------------------------------------------------------------------
  energy-cutoff  :      249.84
  volume of cell :     7553.62
      direct lattice vectors                 reciprocal lattice vectors
    19.620876612  0.000000000  0.000000000     0.050966122  0.000000000  0.000000000
     0.000000000 19.620876612  0.000000000     0.000000000  0.050966122  0.000000000
     0.000000000  0.000000000 19.620876612     0.000000000  0.000000000  0.050966122

  length of vectors
    19.620876612 19.620876612 19.620876612     0.050966122  0.050966122  0.050966122


 FORCES acting on ions
    electron-ion (+dipol)            ewald-force                    non-local-force                 convergence-correction
 -----------------------------------------------------------------------------------------------
   -.696E+03 -.659E+03 -.176E+03   0.691E+03 0.655E+03 0.176E+03   0.526E+01 0.406E+01 0.155E+00   0.281E-01 -.383E-01 0.743E-04
   0.237E+03 0.196E+03 -.952E+03   -.235E+03 -.194E+03 0.947E+03   -.191E+01 -.214E+01 0.521E+01   -.342E-02 0.214E-01 0.105E-01
   0.483E+02 -.663E+03 -.729E+03   -.469E+02 0.659E+03 0.727E+03   -.135E+01 0.378E+01 0.302E+01   0.235E-02 0.262E-02 -.376E-01
   -.764E+03 0.167E+03 -.468E+03   0.762E+03 -.167E+03 0.464E+03   0.262E+01 -.238E+00 0.338E+01   0.275E-01 -.674E-02 0.233E-01
   -.516E+03 -.630E+03 0.325E+03   0.515E+03 0.628E+03 -.325E+03   0.304E+00 0.173E+01 -.509E+00   -.610E-02 0.890E-02 0.233E-01
   0.754E+03 -.396E+03 -.314E+03   -.753E+03 0.394E+03 0.311E+03   -.126E+01 0.158E+01 0.247E+01   -.400E-01 0.744E-02 -.487E-02
   0.161E+03 0.535E+03 -.469E+03   -.160E+03 -.535E+03 0.469E+03   -.744E+00 0.333E+00 0.157E+00   -.681E-03 -.303E-01 -.878E-03
   0.618E+03 -.775E+03 0.371E+03   -.614E+03 0.770E+03 -.369E+03   -.374E+01 0.510E+01 -.192E+01   -.284E-01 -.419E-02 0.325E-02
   -.826E+03 0.429E+03 0.248E+03   0.823E+03 -.426E+03 -.246E+03   0.287E+01 -.267E+01 -.212E+01   -.317E-02 0.185E-01 0.544E-02
   0.784E+03 0.104E+03 0.364E+03   -.782E+03 -.104E+03 -.362E+03   -.183E+01 0.406E-01 -.202E+01   0.189E-01 -.348E-02 0.564E-04
   -.194E+03 -.354E+03 0.928E+03   0.193E+03 0.353E+03 -.925E+03   0.818E+00 0.792E+00 -.381E+01   -.373E-02 0.213E-01 0.258E-03
   0.200E+03 0.750E+03 -.343E+03   -.199E+03 -.744E+03 0.339E+03   -.139E+01 -.574E+01 0.368E+01   0.972E-02 -.885E-03 -.115E-01
   0.247E+03 0.827E+03 0.321E+03   -.247E+03 -.823E+03 -.319E+03   -.454E+00 -.335E+01 -.243E+01   -.178E-01 -.772E-02 0.485E-02
   -.544E+02 0.470E+03 0.893E+03   0.536E+02 -.468E+03 -.887E+03   0.778E+00 -.250E+01 -.566E+01   0.171E-01 0.886E-02 -.987E-02
 -----------------------------------------------------------------------------------------------
   0.317E-02 -.794E+00 0.434E+00   -.334E-12 0.341E-12 -.909E-12   -.150E-02 0.780E+00 -.397E+00   0.469E-03 -.254E-02 0.633E-02
 
 
 POSITION                                       TOTAL-FORCE (eV/Angst)
 -----------------------------------------------------------------------------------
     12.60265     13.14181     11.48619        -0.037621      0.024214     -0.004381
      9.66554     10.06140     13.66335         0.005408     -0.004742      0.004633
     10.49679     12.63638     13.12675         0.000026     -0.016615      0.032154
     11.63506     10.51469     11.66851         0.011676      0.002069      0.002987
     11.28508     12.00382      9.37627         0.028625     -0.004975     -0.021230
      8.96118     11.31731     11.15711         0.005505      0.009793     -0.008631
      9.70591      8.52428     11.37260        -0.007365     -0.001522      0.000527
      8.71606     12.57821      8.62334         0.008328      0.010559     -0.001683
     11.50800      9.21562      9.17573        -0.012681      0.001798     -0.010670
      8.85109      9.85975      8.81983         0.005727      0.002868      0.005487
     10.54005     11.26172      6.85472         0.006320     -0.016673     -0.008295
      9.05526      5.91126     11.48825        -0.003417      0.012892      0.001090
      9.35149      7.10397      9.05589         0.004195     -0.011946      0.018507
     10.17888      8.50340      6.80290        -0.014727     -0.007720     -0.010494
 -----------------------------------------------------------------------------------
    total drift:                                0.002143     -0.016592      0.043995


--------------------------------------------------------------------------------------------------------



  FREE ENERGIE OF THE ION-ELECTRON SYSTEM (eV)
  ---------------------------------------------------
  free  energy   TOTEN  =       -26.04184011 eV

  energy  without entropy=      -26.04184011  energy(sigma->0) =      -26.04184011
 
 d Force =-0.2238132E-04[-0.272E-03, 0.228E-03]  d Energy =-0.1255868E-03 0.103E-03
 d Force = 0.2491437E+01[ 0.249E+01, 0.249E+01]  d Ewald  = 0.2491436E+01 0.100E-05


--------------------------------------------------------------------------------------------------------


    POTLOK:  cpu time    0.24: real time    0.24


--------------------------------------------------------------------------------------------------------




--------------------------------------------------------------------------------------------------------


  
 reached required accuracy - stopping structural energy minimisation
     LOOP+:  cpu time    5.25: real time    5.29
    4ORBIT:  cpu time    0.00: real time    0.00

 total amount of memory used by VASP on root node    55201. kBytes
========================================================================

   base      :      30000. kBytes
   nonl-proj :       1555. kBytes
   fftplans  :       5768. kBytes
   grid      :      14451. kBytes
   one-center:         31. kBytes
   wavefun   :       3396. kBytes
 
  
  
 General timing and accounting informations for this job:
 ========================================================
  
                  Total CPU time used (sec):      874.983
                            User time (sec):      862.042
                          System time (sec):       12.941
                         Elapsed time (sec):      926.999
  
                   Maximum memory used (kb):       63276.
                   Average memory used (kb):           0.
  
                          Minor page faults:      2460413
                          Major page faults:            0
                 Voluntary context switches:        16028
