   46   46 1000    2
  0.2611725E+03  0.2290314E-08  0.2290314E-08  0.2290314E-08  0.1000000E-15
  1.000000000000000E-004
  CAR 
 unknown system                          
    506      1    328
 
  0.0000000E+00  0.0000000E+00  0.0000000E+00  0.1000000E+01
    1       -9.687615     -9.687615
    2       -9.178880     -9.178880
    3       -9.056944     -9.056944
    4       -9.040102     -9.040102
    5       -8.994628     -8.994628
    6       -8.970240     -8.970240
    7       -8.943220     -8.943220
    8       -8.925317     -8.925317
    9       -8.905079     -8.905079
   10       -8.880416     -8.880416
   11       -8.867366     -8.867366
   12       -8.831790     -8.831790
   13       -8.827830     -8.827830
   14       -8.808499     -8.808499
   15       -8.791811     -8.791811
   16       -8.779478     -8.779478
   17       -8.752878     -8.752878
   18       -8.735072     -8.735072
   19       -8.718613     -8.718613
   20       -8.695384     -8.695384
   21       -8.675731     -8.675731
   22       -8.654999     -8.654999
   23       -8.650902     -8.650902
   24       -8.631955     -8.631955
   25       -8.602319     -8.602319
   26       -8.595303     -8.595303
   27       -8.582431     -8.582431
   28       -8.550451     -8.550451
   29       -8.544179     -8.544179
   30       -8.527500     -8.527500
   31       -8.521788     -8.521788
   32       -8.507884     -8.507884
   33       -8.475568     -8.475568
   34       -8.456288     -8.456288
   35       -8.450441     -8.450441
   36       -8.437165     -8.437165
   37       -8.425878     -8.425878
   38       -8.409964     -8.409964
   39       -8.401771     -8.401771
   40       -8.387405     -8.387405
   41       -8.379402     -8.379402
   42       -8.365554     -8.365554
   43       -8.358506     -8.358506
   44       -8.345265     -8.345265
   45       -8.320872     -8.320872
   46       -8.314039     -8.314039
   47       -8.287229     -8.287229
   48       -8.266584     -8.266584
   49       -8.234128     -8.234128
   50       -8.227737     -8.227737
   51       -8.222399     -8.222399
   52       -8.214655     -8.214655
   53       -8.188020     -8.188020
   54       -8.180420     -8.180420
   55       -8.168519     -8.168519
   56       -8.153182     -8.153182
   57       -8.117483     -8.117483
   58       -8.112566     -8.112566
   59       -8.093756     -8.093756
   60       -8.080781     -8.080781
   61       -8.071259     -8.071259
   62       -8.062317     -8.062317
   63       -8.050285     -8.050285
   64       -8.040498     -8.040498
   65       -8.021836     -8.021836
   66       -8.009888     -8.009888
   67       -7.990437     -7.990437
   68       -7.983031     -7.983031
   69       -7.965745     -7.965745
   70       -7.944670     -7.944670
   71       -7.932170     -7.932170
   72       -7.918220     -7.918220
   73       -7.901431     -7.901431
   74       -7.887037     -7.887037
   75       -7.868161     -7.868161
   76       -7.862925     -7.862925
   77       -7.852100     -7.852100
   78       -7.847599     -7.847599
   79       -7.822126     -7.822126
   80       -7.809841     -7.809841
   81       -7.789602     -7.789602
   82       -7.767196     -7.767196
   83       -7.760451     -7.760451
   84       -7.734697     -7.734697
   85       -7.726500     -7.726500
   86       -7.708404     -7.708404
   87       -7.700888     -7.700888
   88       -7.689749     -7.689749
   89       -7.675806     -7.675806
   90       -7.654729     -7.654729
   91       -7.637417     -7.637417
   92       -7.620953     -7.620953
   93       -7.608415     -7.608415
   94       -7.598818     -7.598818
   95       -7.588904     -7.588904
   96       -7.582428     -7.582428
   97       -7.564359     -7.564359
   98       -7.541007     -7.541007
   99       -7.537551     -7.537551
  100       -7.519830     -7.519830
  101       -7.517947     -7.517947
  102       -7.503503     -7.503503
  103       -7.475017     -7.475017
  104       -7.459529     -7.459529
  105       -7.453242     -7.453242
  106       -7.447449     -7.447449
  107       -7.437235     -7.437235
  108       -7.425516     -7.425516
  109       -7.409282     -7.409282
  110       -7.385153     -7.385153
  111       -7.379518     -7.379518
  112       -7.370015     -7.370015
  113       -7.352227     -7.352227
  114       -7.345920     -7.345920
  115       -7.317369     -7.317369
  116       -7.309441     -7.309441
  117       -7.291999     -7.291999
  118       -7.284284     -7.284284
  119       -7.270086     -7.270086
  120       -7.264923     -7.264923
  121       -7.251862     -7.251862
  122       -7.245828     -7.245828
  123       -7.231417     -7.231417
  124       -7.228706     -7.228706
  125       -7.209573     -7.209573
  126       -7.199581     -7.199581
  127       -7.180025     -7.180025
  128       -7.162250     -7.162250
  129       -7.145832     -7.145832
  130       -7.129032     -7.129032
  131       -7.124472     -7.124472
  132       -7.102841     -7.102841
  133       -7.091940     -7.091940
  134       -7.066002     -7.066002
  135       -7.059135     -7.059135
  136       -7.047840     -7.047840
  137       -7.036477     -7.036477
  138       -7.027040     -7.027040
  139       -7.010283     -7.010283
  140       -7.005374     -7.005374
  141       -6.994204     -6.994204
  142       -6.973661     -6.973661
  143       -6.959073     -6.959074
  144       -6.955779     -6.955779
  145       -6.946528     -6.946528
  146       -6.937964     -6.937964
  147       -6.923001     -6.923001
  148       -6.905385     -6.905385
  149       -6.897509     -6.897509
  150       -6.885619     -6.885619
  151       -6.878575     -6.878575
  152       -6.874498     -6.874498
  153       -6.865390     -6.865390
  154       -6.854073     -6.854073
  155       -6.848786     -6.848786
  156       -6.832935     -6.832935
  157       -6.822457     -6.822457
  158       -6.818931     -6.818931
  159       -6.808907     -6.808907
  160       -6.798921     -6.798921
  161       -6.784485     -6.784485
  162       -6.777604     -6.777604
  163       -6.764774     -6.764774
  164       -6.752317     -6.752317
  165       -6.744612     -6.744612
  166       -6.737962     -6.737962
  167       -6.726133     -6.726133
  168       -6.721035     -6.721035
  169       -6.714148     -6.714148
  170       -6.705071     -6.705071
  171       -6.691925     -6.691925
  172       -6.689813     -6.689813
  173       -6.683770     -6.683770
  174       -6.650490     -6.650490
  175       -6.645981     -6.645981
  176       -6.643449     -6.643449
  177       -6.633385     -6.633385
  178       -6.631629     -6.631629
  179       -6.624672     -6.624672
  180       -6.620740     -6.620740
  181       -6.603143     -6.603143
  182       -6.589810     -6.589810
  183       -6.586803     -6.586803
  184       -6.568328     -6.568328
  185       -6.562298     -6.562298
  186       -6.557595     -6.557595
  187       -6.545044     -6.545044
  188       -6.539003     -6.539003
  189       -6.527720     -6.527720
  190       -6.516974     -6.516974
  191       -6.512562     -6.512562
  192       -6.509829     -6.509829
  193       -6.494434     -6.494434
  194       -6.492111     -6.492111
  195       -6.485541     -6.485541
  196       -6.482323     -6.482323
  197       -6.473116     -6.473116
  198       -6.466526     -6.466526
  199       -6.461724     -6.461724
  200       -6.448176     -6.448176
  201       -6.438176     -6.438176
  202       -6.435193     -6.435193
  203       -6.421545     -6.421545
  204       -6.406197     -6.406197
  205       -6.398472     -6.398472
  206       -6.390381     -6.390381
  207       -6.376184     -6.376184
  208       -6.363276     -6.363276
  209       -6.354064     -6.354064
  210       -6.343898     -6.343898
  211       -6.331294     -6.331294
  212       -6.324968     -6.324968
  213       -6.316268     -6.316268
  214       -6.303271     -6.303271
  215       -6.294177     -6.294177
  216       -6.287693     -6.287693
  217       -6.285969     -6.285969
  218       -6.275188     -6.275188
  219       -6.269276     -6.269276
  220       -6.249332     -6.249332
  221       -6.247849     -6.247849
  222       -6.238016     -6.238016
  223       -6.226470     -6.226470
  224       -6.205073     -6.205073
  225       -6.202101     -6.202101
  226       -6.181486     -6.181486
  227       -6.169696     -6.169696
  228       -6.146480     -6.146480
  229       -6.141391     -6.141391
  230       -6.130894     -6.130894
  231       -6.124781     -6.124781
  232       -6.111118     -6.111118
  233       -6.083058     -6.083058
  234       -6.077631     -6.077631
  235       -6.061301     -6.061301
  236       -5.996746     -5.996746
  237       -5.993654     -5.993654
  238       -5.774783     -5.774783
  239       -5.620169     -5.620169
  240       -5.385151     -5.385151
  241       -5.054348     -5.054348
  242       -5.030680     -5.030680
  243       -4.792469     -4.792469
  244       -4.755059     -4.755059
  245       -4.672570     -4.672570
  246       -4.386483     -4.386483
  247       -4.308722     -4.308722
  248       -3.985681     -3.985681
  249       -3.707558     -3.707558
  250       -3.648463     -3.648463
  251       -3.531808     -3.531808
  252       -3.518538     -3.518538
  253       -3.312184     -3.312184
  254       -3.136771     -3.136771
  255       -3.104444     -3.104444
  256       -2.926437     -2.926437
  257       -2.805442     -2.805442
  258       -2.565817     -2.565817
  259       -2.539933     -2.539933
  260       -2.443091     -2.443091
  261       -2.359104     -2.359104
  262       -2.258760     -2.258760
  263       -2.085281     -2.085281
  264       -2.003927     -2.003927
  265       -1.900381     -1.900381
  266       -1.839074     -1.839074
  267       -1.796246     -1.796246
  268       -1.732385     -1.732385
  269       -1.628160     -1.628160
  270       -1.537215     -1.537215
  271       -1.517791     -1.517791
  272       -1.476869     -1.476869
  273       -1.215405     -1.215405
  274       -1.183032     -1.183032
  275       -1.156185     -1.156185
  276       -0.973375     -0.973376
  277       -0.906892     -0.906892
  278       -0.774744     -0.774744
  279       -0.725970     -0.725969
  280       -0.666223     -0.666223
  281       -0.537969     -0.537968
  282       -0.418704     -0.418704
  283       -0.371620     -0.371621
  284       -0.326649     -0.326649
  285       -0.243274     -0.243274
  286       -0.191818     -0.191818
  287       -0.072723     -0.072724
  288       -0.046534     -0.046534
  289        0.018745      0.018745
  290        0.109995      0.109995
  291        0.205670      0.205671
  292        0.277277      0.277278
  293        0.328876      0.328877
  294        0.388175      0.388175
  295        0.473790      0.473790
  296        0.609678      0.609677
  297        0.627415      0.627412
  298        0.708272      0.708275
  299        0.719953      0.719952
  300        0.777867      0.777863
  301        0.817992      0.817987
  302        0.857578      0.857578
  303        0.922585      0.922585
  304        0.945187      0.945187
  305        0.966623      0.966621
  306        1.011926      1.011927
  307        1.028546      1.028546
  308        1.045956      1.045953
  309        1.060521      1.060520
  310        1.117878      1.117878
  311        1.129091      1.129089
  312        1.138661      1.138662
  313        1.141876      1.141875
  314        1.173601      1.173597
  315        1.185147      1.185148
  316        1.221626      1.221625
  317        1.263050      1.263046
  318        1.287160      1.287161
  319        1.314891      1.314890
  320        1.334723      1.334722
  321        1.364848      1.364847
  322        1.395426      1.395429
  323        1.412094      1.412093
  324        1.425808      1.425806
  325        1.457375      1.457377
  326        1.471256      1.471253
  327        1.503808      1.503808
  328        1.514620      1.514616
