unknown system                          
           1
    20.460271    0.000000    0.000000
     0.000000   20.460271    0.000000
     0.000000    0.000000   20.460271
   Ag
  11
Direct configuration=     1
   0.47581459  0.36982425  0.22751218
   0.51632557  0.46509467  0.32220988
   0.38512034  0.43198186  0.31320370
   0.36672913  0.29946568  0.30292416
   0.48437745  0.33572862  0.36132476
   0.28188854  0.37820868  0.38319477
   0.33222525  0.50266558  0.41647048
   0.37960004  0.30646086  0.44463912
   0.24571159  0.29822579  0.48943926
   0.44244969  0.42934215  0.44656951
   0.31624055  0.40948459  0.51899491
Direct configuration=     2
   0.47574287  0.36987066  0.22766761
   0.51623485  0.46496982  0.32223680
   0.38519900  0.43199965  0.31322643
   0.36673693  0.29950997  0.30292344
   0.48433574  0.33576737  0.36128942
   0.28192523  0.37816865  0.38324811
   0.33222943  0.50258377  0.41646630
   0.37956358  0.30647198  0.44464794
   0.24583699  0.29831529  0.48938234
   0.44238678  0.42936017  0.44656251
   0.31629135  0.40946541  0.51883184
Direct configuration=     3
   0.47552770  0.37000988  0.22813393
   0.51596269  0.46459528  0.32231755
   0.38543497  0.43205300  0.31329461
   0.36676033  0.29964283  0.30292126
   0.48421060  0.33588360  0.36118342
   0.28203530  0.37804856  0.38340813
   0.33224197  0.50233835  0.41645377
   0.37945421  0.30650536  0.44467438
   0.24621317  0.29858379  0.48921157
   0.44219807  0.42941422  0.44654148
   0.31644374  0.40940787  0.51834264
Direct configuration=     4
   0.47509738  0.37028832  0.22906656
   0.51541837  0.46384620  0.32247906
   0.38590691  0.43215971  0.31343097
   0.36680712  0.29990855  0.30291691
   0.48396034  0.33611606  0.36097140
   0.28225544  0.37780837  0.38372817
   0.33226704  0.50184750  0.41642870
   0.37923547  0.30657212  0.44472727
   0.24696553  0.29912079  0.48887002
   0.44182064  0.42952233  0.44649944
   0.31674852  0.40929278  0.51736424
Direct configuration=     5
   0.47423673  0.37084521  0.23093181
   0.51432972  0.46234804  0.32280208
   0.38685079  0.43237312  0.31370369
   0.36690072  0.30044000  0.30290821
   0.48345980  0.33658098  0.36054737
   0.28269571  0.37732800  0.38436825
   0.33231720  0.50086581  0.41637856
   0.37879799  0.30670563  0.44483305
   0.24847024  0.30019480  0.48818693
   0.44106578  0.42973854  0.44641534
   0.31735807  0.40906261  0.51540745
Direct configuration=     6
   0.47471430  0.37053620  0.22989679
   0.51493380  0.46317937  0.32262284
   0.38632703  0.43225470  0.31355236
   0.36684878  0.30014510  0.30291304
   0.48373755  0.33632300  0.36078266
   0.28245140  0.37759456  0.38401307
   0.33228937  0.50141055  0.41640638
   0.37904075  0.30663154  0.44477436
   0.24763528  0.29959884  0.48856598
   0.44148465  0.42961856  0.44646200
   0.31701983  0.40919033  0.51649327
Direct configuration=     7
   0.47449462  0.37058163  0.23006257
   0.51499301  0.46307354  0.32282766
   0.38614889  0.43239096  0.31367734
   0.36677346  0.30022518  0.30287052
   0.48362696  0.33619991  0.36098748
   0.28255165  0.37757214  0.38383644
   0.33218853  0.50138111  0.41630295
   0.37919840  0.30648265  0.44477080
   0.24782945  0.29960884  0.48851392
   0.44139952  0.42963662  0.44653184
   0.31727825  0.40933017  0.51610122
Direct configuration=     8
   0.47383559  0.37071792  0.23055993
   0.51517065  0.46275605  0.32344214
   0.38561446  0.43279974  0.31405227
   0.36654749  0.30046542  0.30274294
   0.48329521  0.33583064  0.36160192
   0.28285239  0.37750490  0.38330656
   0.33188602  0.50129280  0.41599266
   0.37967136  0.30603596  0.44476015
   0.24841194  0.29963885  0.48835774
   0.44114413  0.42969079  0.44674134
   0.31805349  0.40974968  0.51492509
Direct configuration=     9
   0.47251753  0.37099051  0.23155465
   0.51552591  0.46212107  0.32467110
   0.38454561  0.43361731  0.31480213
   0.36609555  0.30094589  0.30248780
   0.48263171  0.33509210  0.36283079
   0.28345388  0.37737042  0.38224680
   0.33128100  0.50111618  0.41537208
   0.38061728  0.30514258  0.44473884
   0.24957694  0.29969886  0.48804539
   0.44063336  0.42979913  0.44716033
   0.31960397  0.41058870  0.51257282
Direct configuration=    10
   0.47296168  0.37089866  0.23121946
   0.51540620  0.46233504  0.32425698
   0.38490578  0.43334181  0.31454945
   0.36624784  0.30078398  0.30257378
   0.48285529  0.33534096  0.36241670
   0.28325120  0.37741574  0.38260391
   0.33148487  0.50117569  0.41558119
   0.38029853  0.30544362  0.44474602
   0.24918437  0.29967864  0.48815064
   0.44080547  0.42976263  0.44701914
   0.31908150  0.41030597  0.51336546
Direct configuration=    11
   0.47252293  0.37097913  0.23160315
   0.51544195  0.46209660  0.32472961
   0.38497618  0.43366671  0.31440394
   0.36611906  0.30088958  0.30236660
   0.48276031  0.33514633  0.36272273
   0.28319444  0.37710477  0.38228937
   0.33102956  0.50180333  0.41531827
   0.38046090  0.30488742  0.44480153
   0.24953180  0.29967752  0.48808478
   0.44087547  0.42986609  0.44710258
   0.31957014  0.41036525  0.51306019
Direct configuration=    12
   0.47165093  0.37113907  0.23236569
   0.51551301  0.46162271  0.32566895
   0.38511608  0.43431243  0.31411476
   0.36586312  0.30109944  0.30195485
   0.48257155  0.33475951  0.36333096
   0.28308164  0.37648672  0.38166422
   0.33012465  0.50305074  0.41479571
   0.38078361  0.30378202  0.44491183
   0.25022230  0.29967530  0.48795388
   0.44101459  0.43007172  0.44726840
   0.32054128  0.41048307  0.51245347
Direct configuration=    13
   0.47172656  0.37106337  0.23244453
   0.51557196  0.46156340  0.32591476
   0.38514781  0.43452341  0.31418464
   0.36597283  0.30116549  0.30183998
   0.48259747  0.33473929  0.36327490
   0.28319170  0.37645855  0.38171296
   0.32981624  0.50313606  0.41462914
   0.38056834  0.30359973  0.44491351
   0.25025713  0.29967076  0.48804354
   0.44089691  0.43029579  0.44697889
   0.32073580  0.41026689  0.51254588
Direct configuration=    14
   0.47181689  0.37097297  0.23253868
   0.51564236  0.46149258  0.32620833
   0.38518572  0.43477537  0.31426809
   0.36610385  0.30124436  0.30170280
   0.48262842  0.33471515  0.36320796
   0.28332314  0.37642491  0.38177117
   0.32944791  0.50323796  0.41443021
   0.38031125  0.30338204  0.44491552
   0.25029873  0.29966533  0.48815062
   0.44075637  0.43056338  0.44663313
   0.32096811  0.41000871  0.51265623
Direct configuration=    15
   0.47196687  0.37097178  0.23254663
   0.51575545  0.46151754  0.32627335
   0.38524756  0.43476682  0.31419650
   0.36621982  0.30135155  0.30166984
   0.48254167  0.33466078  0.36330091
   0.28343654  0.37647360  0.38185745
   0.32914453  0.50308754  0.41450502
   0.38033541  0.30338100  0.44475165
   0.25013928  0.29960003  0.48826799
   0.44055565  0.43069537  0.44640482
   0.32113996  0.40997673  0.51270858
Direct configuration=    16
   0.47217749  0.37097012  0.23255778
   0.51591427  0.46155259  0.32636466
   0.38533441  0.43475481  0.31409595
   0.36638269  0.30150209  0.30162356
   0.48241983  0.33458441  0.36343145
   0.28359580  0.37654198  0.38197861
   0.32871847  0.50287629  0.41461009
   0.38036934  0.30337956  0.44452153
   0.24991536  0.29950834  0.48843281
   0.44027378  0.43088073  0.44608419
   0.32138131  0.40993183  0.51278211
Direct configuration=    17
   0.47232888  0.37097055  0.23259169
   0.51599088  0.46152831  0.32642650
   0.38538178  0.43483288  0.31404877
   0.36644006  0.30154939  0.30154293
   0.48246250  0.33458211  0.36345402
   0.28364869  0.37651155  0.38207313
   0.32842786  0.50282320  0.41460089
   0.38028237  0.30331688  0.44447654
   0.24988230  0.29953506  0.48849515
   0.44015255  0.43104218  0.44589501
   0.32148486  0.40979063  0.51287813
Direct configuration=    18
   0.47278308  0.37097184  0.23269342
   0.51622071  0.46145546  0.32661199
   0.38552389  0.43506709  0.31390722
   0.36661218  0.30169131  0.30130104
   0.48259053  0.33457518  0.36352172
   0.28380737  0.37642023  0.38235666
   0.32755603  0.50266392  0.41457327
   0.38002147  0.30312886  0.44434158
   0.24978312  0.29961524  0.48868216
   0.43978887  0.43152655  0.44532747
   0.32179549  0.40936706  0.51316620
Direct configuration=    19
   0.47282454  0.37097248  0.23274402
   0.51625759  0.46141985  0.32662455
   0.38546540  0.43513229  0.31392060
   0.36661471  0.30171780  0.30126749
   0.48261991  0.33458678  0.36356217
   0.28380466  0.37633838  0.38229449
   0.32743785  0.50266903  0.41450987
   0.38004834  0.30302694  0.44435568
   0.24980824  0.29961976  0.48868625
   0.43975299  0.43167115  0.44528106
   0.32184852  0.40932828  0.51323657
Direct configuration=    20
   0.47288763  0.37097344  0.23282100
   0.51631370  0.46136566  0.32664364
   0.38537641  0.43523151  0.31394097
   0.36661855  0.30175812  0.30121644
   0.48266460  0.33460442  0.36362372
   0.28380053  0.37621384  0.38219988
   0.32725804  0.50267681  0.41441339
   0.38008922  0.30287186  0.44437714
   0.24984647  0.29962663  0.48869247
   0.43969840  0.43189116  0.44521044
   0.32192921  0.40926928  0.51334365
