 vasp.5.3.5 31Mar14 (build Feb 01 2018 12:10:03) gamma-only                     
  
 executed on             LinuxIFC date 2019.03.23  08:04:48
 running on   64 total cores
 distrk:  each k-point on   64 cores,    1 groups
 distr:  one band on NCORES_PER_BAND=  16 cores,    4 groups


--------------------------------------------------------------------------------------------------------


 INCAR:
 POTCAR:    PAW_PBE Ag 02Apr2005                  
 POTCAR:    PAW_PBE Ag 02Apr2005                  
   VRHFIN =Ag : s1 d10                                                          
   LEXCH  = PE                                                                  
   EATOM  =  1037.2675 eV,   76.2370 Ry                                         
                                                                                
   TITEL  = PAW_PBE Ag 02Apr2005                                                
   LULTRA =        F    use ultrasoft PP ?                                      
   IUNSCR =        1    unscreen: 0-lin 1-nonlin 2-no                           
   RPACOR =    2.000    partial core radius                                     
   POMASS =  107.868; ZVAL   =   11.000    mass and valenz                      
   RCORE  =    2.500    outmost cutoff radius                                   
   RWIGS  =    2.840; RWIGS  =    1.503    wigner-seitz radius (au A)           
   ENMAX  =  249.844; ENMIN  =  187.383 eV                                      
   ICORE  =        3    local potential                                         
   LCOR   =        T    correct aug charges                                     
   LPAW   =        T    paw PP                                                  
   EAUG   =  412.496                                                            
   DEXC   =    0.000                                                            
   RMAX   =    2.560    core radius for proj-oper                               
   RAUG   =    1.300    factor for augmentation sphere                          
   RDEP   =    2.576    radius for radial grids                                 
   RDEPT  =    2.072    core radius for aug-charge                              
                                                                                
   Atomic configuration                                                         
   12 entries                                                                   
     n  l   j            E        occ.                                          
     1  0  0.50    -25324.9161   2.0000                                         
     2  0  0.50     -3728.5341   2.0000                                         
     2  1  1.50     -3344.0404   6.0000                                         
     3  0  0.50      -683.5581   2.0000                                         
     3  1  1.50      -557.3225   6.0000                                         
     3  2  2.50      -358.3853  10.0000                                         
     4  0  0.50       -95.0341   2.0000                                         
     4  1  1.50       -58.5511   6.0000                                         
     4  2  2.50        -7.4440  10.0000                                         
     5  0  0.50        -4.4045   1.0000                                         
     5  1  0.50        -1.3606   0.0000                                         
     4  3  2.50        -1.3606   0.0000                                         
   Description                                                                  
     l       E           TYP  RCUT    TYP  RCUT                                 
     2     -7.4439781     23  2.400                                             
     2     -8.8045607     23  2.400                                             
     0     -4.4044681     23  2.400                                             
     0      1.9520038     23  2.400                                             
     1     -1.3605826     23  2.500                                             
     1     27.2116520     23  2.500                                             
     3     -4.0817478     23  2.400                                             
  local pseudopotential read in
  partial core-charges read in
  partial kinetic energy density read in
  atomic valenz-charges read in
  non local Contribution for L=           2  read in
    real space projection operators read in
  non local Contribution for L=           2  read in
    real space projection operators read in
  non local Contribution for L=           0  read in
    real space projection operators read in
  non local Contribution for L=           0  read in
    real space projection operators read in
  non local Contribution for L=           1  read in
    real space projection operators read in
  non local Contribution for L=           1  read in
    real space projection operators read in
    PAW grid and wavefunctions read in
 
   number of l-projection  operators is LMAX  =           6
   number of lm-projection operators is LMMAX =          18
 

 ----------------------------------------------------------------------------- 
|                                                                             |
|  ADVICE TO THIS USER RUNNING 'VASP/VAMP'   (HEAR YOUR MASTER'S VOICE ...):  |
|                                                                             |
|      You have a (more or less) 'large supercell' and for larger cells       |
|      it might be more efficient to use real space projection opertators     |
|      So try LREAL= Auto  in the INCAR   file.                               |
|      Mind: At the moment your POTCAR file does not contain real space       |
|       projectors, and has to be modified,  BUT if you                       |
|      want to do an extremely  accurate calculation you might also keep the  |
|      reciprocal projection scheme          (i.e. LREAL=.FALSE.)             |
|                                                                             |
 ----------------------------------------------------------------------------- 

  PAW_PBE Ag 02Apr2005                  :
 energy of atom  1       EATOM=-1037.2675
 kinetic energy error for atom=    0.0689 (will be added to EATOM!!)
 
 
 POSCAR: Al39, -122.28092632 <s> Ag </s>         
  positions in direct lattice
  No initial velocities read in
 exchange correlation table for  LEXCH =        8
   RHO(1)=    0.500       N(1)  =     2000
   RHO(2)=  100.500       N(2)  =     4000
 


--------------------------------------------------------------------------------------------------------


 ion  position               nearest neighbor table
   1  0.531  0.348  0.371-   2 2.71   9 2.86  11 2.87   6 2.88   7 3.01   3 3.04   4 3.51
   2  0.647  0.390  0.385-   4 2.67   1 2.71   5 2.71   6 2.73   9 2.93   8 3.32
   3  0.529  0.273  0.488-  11 2.70   4 2.80  10 2.86   9 2.92   1 3.04  12 3.22
   4  0.652  0.299  0.465-   2 2.67  12 2.74   3 2.80   9 3.05   8 3.45   1 3.51
   5  0.683  0.506  0.406-   2 2.71  15 2.75  16 2.80  14 2.82   6 2.90   8 2.95  18 3.15
   6  0.557  0.476  0.379-  17 2.67   2 2.73  15 2.84   9 2.87   1 2.88   7 2.88   5 2.90  19 2.93
                            18 2.93
   7  0.433  0.442  0.352-  17 2.80  19 2.87   6 2.88  13 2.94  25 3.00   1 3.01  11 3.12
   8  0.672  0.443  0.524-  16 2.73   9 2.74  21 2.82  12 2.85   5 2.95  18 2.98  23 3.09   2 3.32
                             4 3.45
   9  0.561  0.402  0.486-   8 2.74  11 2.78   1 2.86  12 2.86   6 2.87  10 2.88   3 2.92   2 2.93
                            19 2.94  18 2.95  21 3.01   4 3.05
  10  0.499  0.349  0.589-  12 2.74  22 2.75  29 2.83   3 2.86  21 2.86   9 2.88  11 2.95
  11  0.443  0.358  0.467-  13 2.64   3 2.70   9 2.78   1 2.87  22 2.92  19 2.94  10 2.95   7 3.12

  12  0.623  0.337  0.581-  21 2.71  10 2.74   4 2.74   8 2.85   9 2.86   3 3.22
  13  0.345  0.427  0.453-  11 2.64  25 2.76  27 2.81  22 2.92  19 2.93   7 2.94
  14  0.731  0.626  0.409-  24 2.78   5 2.82  16 2.84  15 2.96
  15  0.601  0.598  0.382-  28 2.70   5 2.75  20 2.78   6 2.84  18 2.93  17 2.94  14 2.96  24 3.00

  16  0.732  0.551  0.515-  23 2.69   8 2.73   5 2.80  14 2.84  24 2.86  18 3.47
  17  0.475  0.563  0.353-   6 2.67  20 2.76   7 2.80  25 2.80  31 2.80  15 2.94  19 3.03  28 3.45

  18  0.576  0.535  0.497-  19 2.76  23 2.78  26 2.92  15 2.93   6 2.93  24 2.94   9 2.95   8 2.98
                            28 3.09  33 3.10   5 3.15  21 3.20  16 3.47
  19  0.461  0.491  0.470-  26 2.71  18 2.76  25 2.81   7 2.87   6 2.93  13 2.93  11 2.94   9 2.94
                            27 2.96  17 3.03  22 3.07  30 3.16
  20  0.517  0.680  0.334-  31 2.73  17 2.76  15 2.78  28 2.79
  21  0.580  0.448  0.614-  12 2.71  26 2.81  29 2.82   8 2.82  23 2.83  10 2.86  32 2.89   9 3.01
                            18 3.20
  22  0.398  0.423  0.575-  27 2.75  10 2.75  34 2.79  26 2.84  29 2.86  11 2.92  13 2.92  19 3.07

  23  0.645  0.558  0.601-  32 2.68  16 2.69  18 2.78  21 2.83  33 2.84  24 2.96   8 3.09
  24  0.647  0.649  0.501-  28 2.72  33 2.77  14 2.78  16 2.86  18 2.94  23 2.96  15 3.00
  25  0.362  0.544  0.409-  27 2.72  13 2.76  17 2.80  19 2.81  35 2.86  31 2.87   7 3.00  30 3.47

  26  0.480  0.523  0.588-  19 2.71  30 2.74  32 2.77  21 2.81  29 2.82  22 2.84  36 2.92  18 2.92
                            34 2.95  33 3.11  27 3.17  37 3.56
  27  0.347  0.528  0.531-  25 2.72  22 2.75  34 2.79  13 2.81  38 2.82  30 2.83  35 2.84  19 2.96
                            26 3.17
  28  0.531  0.663  0.460-  30 2.69  15 2.70  24 2.72  31 2.74  33 2.77  20 2.79  18 3.09  17 3.45

  29  0.472  0.434  0.682-  26 2.82  21 2.82  10 2.83  22 2.86  37 2.86  34 2.99  32 3.26
  30  0.436  0.621  0.525-  28 2.69  26 2.74  31 2.77  27 2.83  36 2.84  33 2.87  35 2.89  38 2.90
                            19 3.16  25 3.47
  31  0.417  0.663  0.408-  20 2.73  28 2.74  30 2.77  35 2.78  17 2.80  25 2.87
  32  0.555  0.557  0.684-  23 2.68  37 2.71  26 2.77  21 2.89  33 2.92  36 2.93  29 3.26
  33  0.551  0.645  0.583-  36 2.68  28 2.77  24 2.77  23 2.84  30 2.87  32 2.92  18 3.10  26 3.11

  34  0.364  0.513  0.656-  22 2.79  27 2.79  37 2.81  39 2.83  26 2.95  38 2.97  29 2.99  36 3.30

  35  0.315  0.643  0.479-  38 2.76  31 2.78  27 2.84  25 2.86  30 2.89
  36  0.451  0.635  0.653-  33 2.68  37 2.83  30 2.84  39 2.86  38 2.87  26 2.92  32 2.93  34 3.30

  37  0.449  0.546  0.746-  32 2.71  39 2.79  34 2.81  36 2.83  29 2.86  26 3.56
  38  0.330  0.633  0.604-  35 2.76  39 2.78  27 2.82  36 2.87  30 2.90  34 2.97
  39  0.347  0.619  0.729-  38 2.78  37 2.79  34 2.83  36 2.86
 
  LATTYP: Found a simple cubic cell.
 ALAT       =    21.9242597992
  
  Lattice vectors:
  
 A1 = (  21.9242597992,   0.0000000000,   0.0000000000)
 A2 = (   0.0000000000,  21.9242597992,   0.0000000000)
 A3 = (   0.0000000000,   0.0000000000,  21.9242597992)


Analysis of symmetry for initial positions (statically):
=====================================================================
 Subroutine PRICEL returns:
 Original cell was already a primitive cell.
 

 Routine SETGRP: Setting up the symmetry group for a 
 simple cubic supercell.


 Subroutine GETGRP returns: Found  1 space group operations
 (whereof  1 operations were pure point group operations)
 out of a pool of 48 trial point group operations.


The static configuration has the point symmetry C_1 .


Analysis of symmetry for dynamics (positions and initial velocities):
=====================================================================
 Subroutine PRICEL returns:
 Original cell was already a primitive cell.
 

 Routine SETGRP: Setting up the symmetry group for a 
 simple cubic supercell.


 Subroutine GETGRP returns: Found  1 space group operations
 (whereof  1 operations were pure point group operations)
 out of a pool of 48 trial point group operations.


The dynamic configuration has the point symmetry C_1 .


Analysis of magnetic symmetry:
=====================================================================
 Subroutine PRICEL returns:
 Original cell was already a primitive cell.
 

 Subroutine MAGSYM returns: Found  1 space group operations
 (whereof  1 operations were pure point group operations)
 out of a pool of  1 trial space group operations
 (whereof  1 operations were pure point group operations)
 and found also     1 'primitive' translations


The magnetic configuration has the point symmetry C_1 .
 
 
 KPOINTS: Gamma-point only                        
  k-points in reciprocal lattice
Space group operators:
 irot       det(A)        alpha          n_x          n_y          n_z        tau_x        tau_y        tau_z
    1     1.000000     0.000001     1.000000     0.000000     0.000000     0.000000     0.000000     0.000000


--------------------------------------------------------------------------------------------------------




 Dimension of arrays:
   k-points           NKPTS =      1   k-points in BZ     NKDIM =      1   number of bands    NBANDS=    280
   number of dos      NEDOS =    301   number of ions     NIONS =     39
   non local maximal  LDIM  =      6   non local SUM 2l+1 LMDIM =     18
   total plane-waves  NPLWV = 729000
   max r-space proj   IRMAX =      1   max aug-charges    IRDMAX=   3600
   dimension x,y,z NGX =    90 NGY =   90 NGZ =   90
   dimension x,y,z NGXF=   180 NGYF=  180 NGZF=  180
   support grid    NGXF=   180 NGYF=  180 NGZF=  180
   ions per type =              39
 NGX,Y,Z   is equivalent  to a cutoff of   6.82,  6.82,  6.82 a.u.
 NGXF,Y,Z  is equivalent  to a cutoff of  13.65, 13.65, 13.65 a.u.


 I would recommend the setting:
   dimension x,y,z NGX =    85 NGY =   85 NGZ =   85
 SYSTEM =  unknown system                          
 POSCAR =  Al39, -122.28092632 <s> Ag </s>         

 Startparameter for this run:
   NWRITE =      2    write-flag & timer
   PREC   = normal    normal or accurate (medium, high low for compatibility)
   ISTART =      0    job   : 0-new  1-cont  2-samecut
   ICHARG =      2    charge: 1-file 2-atom 10-const
   ISPIN  =      2    spin polarized calculation?
   LNONCOLLINEAR =      F non collinear calculations
   LSORBIT =      F    spin-orbit coupling
   INIWAV =      1    electr: 0-lowe 1-rand  2-diag
   LASPH  =      F    aspherical Exc in radial PAW
   METAGGA=      F    non-selfconsistent MetaGGA calc.

 Electronic Relaxation 1
   ENCUT  =  249.8 eV  18.36 Ry    4.29 a.u.  28.26 28.26 28.26*2*pi/ulx,y,z
   ENINI  =  249.8     initial cutoff
   ENAUG  =  412.5 eV  augmentation charge cutoff
   NELM   =     60;   NELMIN=  2; NELMDL= -5     # of ELM steps 
   EDIFF  = 0.1E-03   stopping-criterion for ELM
   LREAL  =      F    real-space projection
   NLSPLINE    = F    spline interpolate recip. space projectors
   LCOMPAT=      F    compatible to vasp.4.4
   GGA_COMPAT  = T    GGA compatible to vasp.4.4-vasp.4.6
   LMAXPAW     = -100 max onsite density
   LMAXMIX     =    2 max onsite mixed and CHGCAR
   VOSKOWN=      0    Vosko Wilk Nusair interpolation
   ROPT   =    0.00000
 Ionic relaxation
   EDIFFG = 0.1E-02   stopping-criterion for IOM
   NSW    =   1000    number of steps for IOM
   NBLOCK =      1;   KBLOCK =   1000    inner block; outer block 
   IBRION =      2    ionic relax: 0-MD 1-quasi-New 2-CG
   NFREE  =      1    steps in history (QN), initial steepest desc. (CG)
   ISIF   =      2    stress and relaxation
   IWAVPR =     11    prediction:  0-non 1-charg 2-wave 3-comb
   ISYM   =      2    0-nonsym 1-usesym 2-fastsym
   LCORR  =      T    Harris-Foulkes like correction to forces

   POTIM  = 0.1000    time-step for ionic-motion
   TEIN   =    0.0    initial temperature
   TEBEG  =    0.0;   TEEND  =   0.0 temperature during run
   SMASS  =  -3.00    Nose mass-parameter (am)
   estimated Nose-frequenzy (Omega)   =  0.10E-29 period in steps =****** mass=  -0.110E-25a.u.
   SCALEE = 1.0000    scale energy and forces
   NPACO  =    256;   APACO  = 16.0  distance and # of slots for P.C.
   PSTRESS=    0.0 pullay stress

  Mass of Ions in am
   POMASS = 107.87
  Ionic Valenz
   ZVAL   =  11.00
  Atomic Wigner-Seitz radii
   RWIGS  =  -1.00
  virtual crystal weights 
   VCA    =   1.00
   NELECT =     429.0000    total number of electrons
   NUPDOWN=      -1.0000    fix difference up-down

 DOS related values:
   EMIN   =  10.00;   EMAX   =-10.00  energy-range for DOS
   EFERMI =   0.00
   ISMEAR =     0;   SIGMA  =   0.00  broadening in eV -4-tet -1-fermi 0-gaus

 Electronic relaxation 2 (details)
   IALGO  =     38    algorithm
   LDIAG  =      T    sub-space diagonalisation (order eigenvalues)
   LSUBROT=      F    optimize rotation matrix (better conditioning)
   TURBO    =      0    0=normal 1=particle mesh
   IRESTART =      0    0=no restart 2=restart with 2 vectors
   NREBOOT  =      0    no. of reboots
   NMIN     =      0    reboot dimension
   EREF     =   0.00    reference energy to select bands
   IMIX   =      4    mixing-type and parameters
     AMIX     =   0.40;   BMIX     =  1.00
     AMIX_MAG =   1.60;   BMIX_MAG =  1.00
     AMIN     =   0.10
     WC   =   100.;   INIMIX=   1;  MIXPRE=   1;  MAXMIX= -45

 Intra band minimization:
   WEIMIN = 0.0010     energy-eigenvalue tresh-hold
   EBREAK =  0.89E-07  absolut break condition
   DEPER  =   0.30     relativ break condition  

   TIME   =   0.40     timestep for ELM

  volume/ion in A,a.u.               =     270.22      1823.50
  Fermi-wavevector in a.u.,A,eV,Ry     =   0.563165  1.064228  4.315153  0.317155
  Thomas-Fermi vector in A             =   1.600191
 
 Write flags
   LWAVE  =      F    write WAVECAR
   LCHARG =      F    write CHGCAR
   LVTOT  =      F    write LOCPOT, total local potential
   LVHAR  =      F    write LOCPOT, Hartree potential only
   LELF   =      F    write electronic localiz. function (ELF)
   LORBIT =      0    0 simple, 1 ext, 2 COOP (PROOUT)


 Dipole corrections
   LMONO  =      F    monopole corrections only (constant potential shift)
   LDIPOL =      F    correct potential (dipole corrections)
   IDIPOL =      0    1-x, 2-y, 3-z, 4-all directions 
   EPSILON=  1.0000000 bulk dielectric constant

 Exchange correlation treatment:
   GGA     =    PE    GGA type
   LEXCH   =     8    internal setting for exchange type
   VOSKOWN=      0    Vosko Wilk Nusair interpolation
   LHFCALC =     F    Hartree Fock is set to
   LHFONE  =     F    Hartree Fock one center treatment
   AEXX    =    0.0000 exact exchange contribution

 Linear response parameters
   LEPSILON=     F    determine dielectric tensor
   LRPA    =     F    only Hartree local field effects (RPA)
   LNABLA  =     F    use nabla operator in PAW spheres
   LVEL    =     F    velocity operator in full k-point grid
   LINTERFAST=   F  fast interpolation
   KINTER  =     0    interpolate to denser k-point grid
   CSHIFT  =0.1000    complex shift for real part using Kramers Kronig
   OMEGAMAX=  -1.0    maximum frequency
   DEG_THRESHOLD= 0.2000000E-02 threshold for treating states as degnerate
   RTIME   =    0.100 relaxation time in fs

 Orbital magnetization related:
   ORBITALMAG=     F  switch on orbital magnetization
   LCHIMAG   =     F  perturbation theory with respect to B field
   DQ        =  0.001000  dq finite difference perturbation B field



--------------------------------------------------------------------------------------------------------


 conjugate gradient relaxation of ions
 charge density and potential will be updated during run
 spin polarized calculation
 Variant of blocked Davidson
 Davidson routine will perform the subspace rotation
 perform sub-space diagonalisation
    after iterative eigenvector-optimisation
 modified Broyden-mixing scheme, WC =      100.0
 initial mixing is a Kerker type mixing with AMIX =  0.4000 and BMIX =      1.0000
 Hartree-type preconditioning will be used
 using additional bands           65
 reciprocal scheme for non local part
 use partial core corrections
 calculate Harris-corrections to forces 
   (improved forces if not selfconsistent)
 use gradient corrections 
 use of overlap-Matrix (Vanderbilt PP)
 Gauss-broadening in eV      SIGMA  =   0.00


--------------------------------------------------------------------------------------------------------


  energy-cutoff  :      249.84
  volume of cell :    10538.40
      direct lattice vectors                 reciprocal lattice vectors
    21.924259799  0.000000000  0.000000000     0.045611574  0.000000000  0.000000000
     0.000000000 21.924259799  0.000000000     0.000000000  0.045611574  0.000000000
     0.000000000  0.000000000 21.924259799     0.000000000  0.000000000  0.045611574

  length of vectors
    21.924259799 21.924259799 21.924259799     0.045611574  0.045611574  0.045611574


 
 k-points in units of 2pi/SCALE and weight: Gamma-point only                        
   0.00000000  0.00000000  0.00000000       1.000
 
 k-points in reciprocal lattice and weights: Gamma-point only                        
   0.00000000  0.00000000  0.00000000       1.000
 
 position of ions in fractional coordinates (direct lattice) 
   0.53140886  0.34798041  0.37106526
   0.64679075  0.38986100  0.38465487
   0.52874806  0.27262181  0.48760118
   0.65155088  0.29867958  0.46495415
   0.68323526  0.50619827  0.40602048
   0.55731254  0.47643711  0.37865394
   0.43332286  0.44219896  0.35228008
   0.67200991  0.44315223  0.52419102
   0.56060907  0.40183552  0.48603013
   0.49856035  0.34866936  0.58914833
   0.44281389  0.35833733  0.46712873
   0.62274880  0.33676019  0.58065248
   0.34524207  0.42731722  0.45255435
   0.73068607  0.62571863  0.40860266
   0.60122915  0.59828616  0.38238098
   0.73246841  0.55144959  0.51476883
   0.47531265  0.56257197  0.35284996
   0.57597910  0.53520672  0.49736845
   0.46132438  0.49090983  0.47034032
   0.51704069  0.68008200  0.33448921
   0.58010675  0.44766767  0.61415637
   0.39816150  0.42254627  0.57466435
   0.64543083  0.55804612  0.60111446
   0.64704158  0.64895201  0.50117430
   0.36215240  0.54404981  0.40914798
   0.47950842  0.52256938  0.58848825
   0.34672012  0.52836759  0.53118294
   0.53110909  0.66325435  0.45992411
   0.47155672  0.43446622  0.68168973
   0.43607169  0.62149546  0.52547172
   0.41744902  0.66255704  0.40753585
   0.55534533  0.55707409  0.68359021
   0.55110760  0.64468978  0.58312003
   0.36351485  0.51341668  0.65640407
   0.31466723  0.64291300  0.47942351
   0.45145511  0.63546014  0.65339476
   0.44923103  0.54583771  0.74624290
   0.33019365  0.63348823  0.60377792
   0.34656772  0.61913742  0.72883731
 
 position of ions in cartesian coordinates  (Angst):
  11.65074596  7.62921289  8.13533119
  14.18040847  8.54741385  8.43327340
  11.59240985  5.97703139 10.69029486
  14.28477085  6.54832866 10.19377566
  14.97942729 11.09802230  8.90169853
  12.21866485 10.44553094  8.30170740
   9.50028295  9.69488487  7.72348006
  14.73331993  9.71578453 11.49250006
  12.29093882  8.80994634 10.65585093
  10.93056674  7.64431757 12.91664113
   9.70836675  7.85628077 10.24145154
  13.65330656  7.38321799 12.73037573
   7.56917676  9.36861386  9.92191912
  16.01975130 13.71841772  8.95831091
  13.18150414 13.11698130  8.38341989
  16.05882765 12.09012397 11.28592550
  10.42087797 12.33397397  7.73597422
  12.62791545 11.73401117 10.90443520
  10.11419553 10.76283469 10.31186340
  11.33573445 14.91029454  7.33342833
  12.71841103  9.81478221 13.46492383
   8.72939611  9.26401420 12.59909050
  14.15059315 12.23474802 13.17898957
  14.18590774 14.22779241 10.98787555
   7.93992322 11.92788929  8.97026659
  10.51286721 11.45694693 12.90216925
   7.60158207 11.58406840 11.64579268
  11.64417377 14.54136061 10.08349570
  10.33853207  9.52535022 14.94554271
   9.56054896 13.62582789 11.52057844
   9.15226076 14.52607276  8.93492188
  12.17553532 12.21343703 14.98720929
  12.08262614 14.13434631 12.78447498
   7.96979406 11.25628059 14.39117330
   6.89884613 14.09539156 10.51100557
   9.89781905 13.93199329 14.32519652
   9.84905775 11.96708774 16.36082324
   7.23925144 13.88876064 13.23738403
   7.59824076 13.57412960 15.97921857
 


--------------------------------------------------------------------------------------------------------


 use parallel FFT for wavefunctions z direction half grid
 k-point  1 :   0.0000 0.0000 0.0000  plane waves:   47267

 maximum and minimum number of plane-waves per node :      2965     2944

 maximum number of plane-waves:     47267
 maximum index in each direction: 
   IXMAX=   28   IYMAX=   28   IZMAX=   28
   IXMIN=  -28   IYMIN=  -28   IZMIN=    0

 WARNING: aliasing errors must be expected set NGX to 114 to avoid them
 WARNING: aliasing errors must be expected set NGY to 114 to avoid them
 WARNING: aliasing errors must be expected set NGZ to 114 to avoid them
 aliasing errors are usually negligible using standard VASP settings
 and one can safely disregard these warnings

 parallel 3D FFT for wavefunctions:
    minimum data exchange during FFTs selected (reduces bandwidth)
 parallel 3D FFT for charge:
    minimum data exchange during FFTs selected (reduces bandwidth)


 total amount of memory used by VASP on root node    54331. kBytes
========================================================================

   base      :      30000. kBytes
   nonl-proj :       2279. kBytes
   fftplans  :       4331. kBytes
   grid      :      10964. kBytes
   one-center:         46. kBytes
   wavefun   :       6711. kBytes
 
     INWAV:  cpu time    0.00: real time    0.00
 Broyden mixing: mesh for mixing (old mesh)
   NGX = 57   NGY = 57   NGZ = 57
  (NGX  =180   NGY  =180   NGZ  =180)
  gives a total of 185193 points

 initial charge density was supplied:
 charge density of overlapping atoms calculated
 number of electron     429.0000000 magnetization      39.0000000
 keeping initial charge density in first step


--------------------------------------------------------------------------------------------------------


 Maximum index for augmentation-charges          263 (set IRDMAX)


--------------------------------------------------------------------------------------------------------


 First call to EWALD:  gamma=   0.081
 Maximum number of real-space cells 3x 3x 3
 Maximum number of reciprocal cells 3x 3x 3

 FEWALD executed in parallel
    FEWALD:  cpu time    0.00: real time    0.00


----------------------------------------- Iteration    1(   1)  ---------------------------------------


    POTLOK:  cpu time    0.22: real time    0.22
    SETDIJ:  cpu time    0.01: real time    0.01
     EDDAV:  cpu time    3.58: real time    3.58
       DOS:  cpu time    0.00: real time    0.00
    --------------------------------------------
      LOOP:  cpu time    3.81: real time    4.63

 eigenvalue-minimisations  :  1120
 total energy-change (2. order) : 0.3587141E+04  (-0.8804605E+04)
 number of electron     429.0000000 magnetization      39.0000000
 augmentation part      429.0000000 magnetization      39.0000000

 Free energy of the ion-electron system (eV)
  ---------------------------------------------------
  alpha Z        PSCENC =       122.76330606
  Ewald energy   TEWEN  =     96650.47605843
  -Hartree energ DENC   =   -135548.89666227
  -exchange      EXHF   =         0.00000000
  -V(xc)+E(xc)   XCENC  =      -425.67945295
  PAW double counting   =     39131.51494472   -37333.31974628
  entropy T*S    EENTRO =        -0.00000001
  eigenvalues    EBANDS =       539.53588707
  atomic energy  EATOM  =     40450.74657337
  ---------------------------------------------------
  free energy    TOTEN  =      3587.14090813 eV

  energy without entropy =     3587.14090815  energy(sigma->0) =     3587.14090814


--------------------------------------------------------------------------------------------------------




----------------------------------------- Iteration    1(   2)  ---------------------------------------


     EDDAV:  cpu time    5.21: real time    5.22
       DOS:  cpu time    0.00: real time    0.00
    --------------------------------------------
      LOOP:  cpu time    5.21: real time    5.22

 eigenvalue-minimisations  :  1808
 total energy-change (2. order) :-0.3001563E+04  (-0.2700269E+04)
 number of electron     429.0000000 magnetization      39.0000000
 augmentation part      429.0000000 magnetization      39.0000000

 Free energy of the ion-electron system (eV)
  ---------------------------------------------------
  alpha Z        PSCENC =       122.76330606
  Ewald energy   TEWEN  =     96650.47605843
  -Hartree energ DENC   =   -135548.89666227
  -exchange      EXHF   =         0.00000000
  -V(xc)+E(xc)   XCENC  =      -425.67945295
  PAW double counting   =     39131.51494472   -37333.31974628
  entropy T*S    EENTRO =         0.00000000
  eigenvalues    EBANDS =     -2462.02704810
  atomic energy  EATOM  =     40450.74657337
  ---------------------------------------------------
  free energy    TOTEN  =       585.57797298 eV

  energy without entropy =      585.57797298  energy(sigma->0) =      585.57797298


--------------------------------------------------------------------------------------------------------




----------------------------------------- Iteration    1(   3)  ---------------------------------------


     EDDAV:  cpu time    4.24: real time    4.24
       DOS:  cpu time    0.00: real time    0.00
    --------------------------------------------
      LOOP:  cpu time    4.24: real time    4.25

 eigenvalue-minimisations  :  1400
 total energy-change (2. order) :-0.6439716E+03  (-0.5917642E+03)
 number of electron     429.0000000 magnetization      39.0000000
 augmentation part      429.0000000 magnetization      39.0000000

 Free energy of the ion-electron system (eV)
  ---------------------------------------------------
  alpha Z        PSCENC =       122.76330606
  Ewald energy   TEWEN  =     96650.47605843
  -Hartree energ DENC   =   -135548.89666227
  -exchange      EXHF   =         0.00000000
  -V(xc)+E(xc)   XCENC  =      -425.67945295
  PAW double counting   =     39131.51494472   -37333.31974628
  entropy T*S    EENTRO =         0.00000000
  eigenvalues    EBANDS =     -3105.99860589
  atomic energy  EATOM  =     40450.74657337
  ---------------------------------------------------
  free energy    TOTEN  =       -58.39358482 eV

  energy without entropy =      -58.39358482  energy(sigma->0) =      -58.39358482


--------------------------------------------------------------------------------------------------------




----------------------------------------- Iteration    1(   4)  ---------------------------------------


     EDDAV:  cpu time    3.77: real time    3.77
       DOS:  cpu time    0.00: real time    0.00
    --------------------------------------------
      LOOP:  cpu time    3.77: real time    3.77

 eigenvalue-minimisations  :  1208
 total energy-change (2. order) :-0.2489812E+02  (-0.2471127E+02)
 number of electron     429.0000000 magnetization      39.0000000
 augmentation part      429.0000000 magnetization      39.0000000

 Free energy of the ion-electron system (eV)
  ---------------------------------------------------
  alpha Z        PSCENC =       122.76330606
  Ewald energy   TEWEN  =     96650.47605843
  -Hartree energ DENC   =   -135548.89666227
  -exchange      EXHF   =         0.00000000
  -V(xc)+E(xc)   XCENC  =      -425.67945295
  PAW double counting   =     39131.51494472   -37333.31974628
  entropy T*S    EENTRO =        -0.00000000
  eigenvalues    EBANDS =     -3130.89672973
  atomic energy  EATOM  =     40450.74657337
  ---------------------------------------------------
  free energy    TOTEN  =       -83.29170866 eV

  energy without entropy =      -83.29170866  energy(sigma->0) =      -83.29170866


--------------------------------------------------------------------------------------------------------




----------------------------------------- Iteration    1(   5)  ---------------------------------------


     EDDAV:  cpu time    3.92: real time    3.92
       DOS:  cpu time    0.00: real time    0.00
    CHARGE:  cpu time    0.12: real time    0.12
    MIXING:  cpu time    0.00: real time    0.00
    --------------------------------------------
      LOOP:  cpu time    4.04: real time    4.05

 eigenvalue-minimisations  :  1264
 total energy-change (2. order) :-0.3608407E+00  (-0.3604509E+00)
 number of electron     428.9999410 magnetization      34.3854071
 augmentation part      201.2391118 magnetization      34.2371791

 Broyden mixing:
  rms(total) = 0.36292E+01    rms(broyden)= 0.36287E+01
  rms(prec ) = 0.36913E+01
  weight for this iteration     100.00

 Free energy of the ion-electron system (eV)
  ---------------------------------------------------
  alpha Z        PSCENC =       122.76330606
  Ewald energy   TEWEN  =     96650.47605843
  -Hartree energ DENC   =   -135548.89666227
  -exchange      EXHF   =         0.00000000
  -V(xc)+E(xc)   XCENC  =      -425.67945295
  PAW double counting   =     39131.51494472   -37333.31974628
  entropy T*S    EENTRO =         0.00000000
  eigenvalues    EBANDS =     -3131.25757046
  atomic energy  EATOM  =     40450.74657337
  ---------------------------------------------------
  free energy    TOTEN  =       -83.65254938 eV

  energy without entropy =      -83.65254938  energy(sigma->0) =      -83.65254938


--------------------------------------------------------------------------------------------------------




----------------------------------------- Iteration    1(   6)  ---------------------------------------


    POTLOK:  cpu time    0.21: real time    0.21
    SETDIJ:  cpu time    0.01: real time    0.01
     EDDAV:  cpu time    3.58: real time    3.58
       DOS:  cpu time    0.00: real time    0.00
    CHARGE:  cpu time    0.12: real time    0.12
    MIXING:  cpu time    0.00: real time    0.00
    --------------------------------------------
      LOOP:  cpu time    3.92: real time    3.93

 eigenvalue-minimisations  :  1128
 total energy-change (2. order) : 0.4979465E+02  (-0.1552443E+02)
 number of electron     428.9999394 magnetization      31.5037847
 augmentation part      206.0584031 magnetization      19.6956796

 Broyden mixing:
  rms(total) = 0.19172E+01    rms(broyden)= 0.19170E+01
  rms(prec ) = 0.19415E+01
  weight for this iteration     100.00

 eigenvalues of (default mixing * dielectric matrix)
  average eigenvalue GAMMA=   0.8520
  0.8520

 Free energy of the ion-electron system (eV)
  ---------------------------------------------------
  alpha Z        PSCENC =       122.76330606
  Ewald energy   TEWEN  =     96650.47605843
  -Hartree energ DENC   =   -135384.28217159
  -exchange      EXHF   =         0.00000000
  -V(xc)+E(xc)   XCENC  =      -403.24905367
  PAW double counting   =     40462.30697254   -38693.43297569
  entropy T*S    EENTRO =         0.00000000
  eigenvalues    EBANDS =     -3239.18661236
  atomic energy  EATOM  =     40450.74657337
  ---------------------------------------------------
  free energy    TOTEN  =       -33.85790293 eV

  energy without entropy =      -33.85790293  energy(sigma->0) =      -33.85790293


--------------------------------------------------------------------------------------------------------




----------------------------------------- Iteration    1(   7)  ---------------------------------------


    POTLOK:  cpu time    0.21: real time    0.21
    SETDIJ:  cpu time    0.01: real time    0.01
     EDDAV:  cpu time    3.69: real time    3.70
       DOS:  cpu time    0.00: real time    0.00
    CHARGE:  cpu time    0.12: real time    0.12
    MIXING:  cpu time    0.00: real time    0.00
    --------------------------------------------
      LOOP:  cpu time    4.04: real time    4.04

 eigenvalue-minimisations  :  1176
 total energy-change (2. order) : 0.4320345E+01  (-0.8384262E+00)
 number of electron     428.9999393 magnetization      26.3595308
 augmentation part      206.0023574 magnetization      16.8659553

 Broyden mixing:
  rms(total) = 0.12012E+01    rms(broyden)= 0.12012E+01
  rms(prec ) = 0.12147E+01
  weight for this iteration     100.00

 eigenvalues of (default mixing * dielectric matrix)
  average eigenvalue GAMMA=   1.0558
  0.7690  1.3426

 Free energy of the ion-electron system (eV)
  ---------------------------------------------------
  alpha Z        PSCENC =       122.76330606
  Ewald energy   TEWEN  =     96650.47605843
  -Hartree energ DENC   =   -135472.52605502
  -exchange      EXHF   =         0.00000000
  -V(xc)+E(xc)   XCENC  =      -399.98309283
  PAW double counting   =     41254.12946383   -39503.91518754
  entropy T*S    EENTRO =         0.00000000
  eigenvalues    EBANDS =     -3131.22862472
  atomic energy  EATOM  =     40450.74657337
  ---------------------------------------------------
  free energy    TOTEN  =       -29.53755842 eV

  energy without entropy =      -29.53755842  energy(sigma->0) =      -29.53755842


--------------------------------------------------------------------------------------------------------




----------------------------------------- Iteration    1(   8)  ---------------------------------------


    POTLOK:  cpu time    0.22: real time    0.22
    SETDIJ:  cpu time    0.00: real time    0.01
     EDDAV:  cpu time    3.70: real time    3.71
       DOS:  cpu time    0.00: real time    0.00
    CHARGE:  cpu time    0.11: real time    0.11
    MIXING:  cpu time    0.00: real time    0.00
    --------------------------------------------
      LOOP:  cpu time    4.05: real time    4.10

 eigenvalue-minimisations  :  1176
 total energy-change (2. order) : 0.4960584E+01  (-0.2804370E+00)
 number of electron     428.9999393 magnetization      23.0656370
 augmentation part      205.8536921 magnetization      13.7919839

 Broyden mixing:
  rms(total) = 0.64025E+00    rms(broyden)= 0.64023E+00
  rms(prec ) = 0.64427E+00
  weight for this iteration     100.00

 eigenvalues of (default mixing * dielectric matrix)
  average eigenvalue GAMMA=   1.2747
  2.3063  0.8945  0.6233

 Free energy of the ion-electron system (eV)
  ---------------------------------------------------
  alpha Z        PSCENC =       122.76330606
  Ewald energy   TEWEN  =     96650.47605843
  -Hartree energ DENC   =   -135589.01286438
  -exchange      EXHF   =         0.00000000
  -V(xc)+E(xc)   XCENC  =      -395.55581397
  PAW double counting   =     42274.71815857   -40545.99499820
  entropy T*S    EENTRO =         0.00000000
  eigenvalues    EBANDS =     -2992.71739465
  atomic energy  EATOM  =     40450.74657337
  ---------------------------------------------------
  free energy    TOTEN  =       -24.57697477 eV

  energy without entropy =      -24.57697477  energy(sigma->0) =      -24.57697477


--------------------------------------------------------------------------------------------------------




----------------------------------------- Iteration    1(   9)  ---------------------------------------


    POTLOK:  cpu time    0.22: real time    0.22
    SETDIJ:  cpu time    0.01: real time    0.01
     EDDAV:  cpu time    3.78: real time    3.78
       DOS:  cpu time    0.00: real time    0.00
    CHARGE:  cpu time    0.12: real time    0.11
    MIXING:  cpu time    0.00: real time    0.00
    --------------------------------------------
      LOOP:  cpu time    4.12: real time    4.34

 eigenvalue-minimisations  :  1208
 total energy-change (2. order) :-0.5676762E+01  (-0.1208191E+00)
 number of electron     428.9999394 magnetization      19.7199235
 augmentation part      205.7289014 magnetization      10.6878631

 Broyden mixing:
  rms(total) = 0.41668E+00    rms(broyden)= 0.41667E+00
  rms(prec ) = 0.42044E+00
  weight for this iteration     100.00

 eigenvalues of (default mixing * dielectric matrix)
  average eigenvalue GAMMA=   1.2611
  2.2671  0.6232  0.8137  1.3404

 Free energy of the ion-electron system (eV)
  ---------------------------------------------------
  alpha Z        PSCENC =       122.76330606
  Ewald energy   TEWEN  =     96650.47605843
  -Hartree energ DENC   =   -135631.77289606
  -exchange      EXHF   =         0.00000000
  -V(xc)+E(xc)   XCENC  =      -399.48241019
  PAW double counting   =     42607.47918061   -40885.57501727
  entropy T*S    EENTRO =         0.00000000
  eigenvalues    EBANDS =     -2944.88853215
  atomic energy  EATOM  =     40450.74657337
  ---------------------------------------------------
  free energy    TOTEN  =       -30.25373721 eV

  energy without entropy =      -30.25373721  energy(sigma->0) =      -30.25373721


--------------------------------------------------------------------------------------------------------




----------------------------------------- Iteration    1(  10)  ---------------------------------------


    POTLOK:  cpu time    0.22: real time    0.22
    SETDIJ:  cpu time    0.01: real time    0.01
     EDDAV:  cpu time    3.66: real time    3.67
       DOS:  cpu time    0.00: real time    0.00
    CHARGE:  cpu time    0.11: real time    0.11
    MIXING:  cpu time    0.00: real time    0.01
    --------------------------------------------
      LOOP:  cpu time    4.01: real time    4.04

 eigenvalue-minimisations  :  1160
 total energy-change (2. order) :-0.1306839E+02  (-0.4255364E+00)
 number of electron     428.9999394 magnetization      16.3994671
 augmentation part      205.7025950 magnetization       9.8097299

 Broyden mixing:
  rms(total) = 0.36743E+00    rms(broyden)= 0.36733E+00
  rms(prec ) = 0.37355E+00
  weight for this iteration     100.00

 eigenvalues of (default mixing * dielectric matrix)
  average eigenvalue GAMMA=   1.2141
  2.3839  1.6280  0.8320  0.6132  0.6132

 Free energy of the ion-electron system (eV)
  ---------------------------------------------------
  alpha Z        PSCENC =       122.76330606
  Ewald energy   TEWEN  =     96650.47605843
  -Hartree energ DENC   =   -135632.66692876
  -exchange      EXHF   =         0.00000000
  -V(xc)+E(xc)   XCENC  =      -409.04026117
  PAW double counting   =     42586.46744910   -40864.14552398
  entropy T*S    EENTRO =         0.00000000
  eigenvalues    EBANDS =     -2947.92280412
  atomic energy  EATOM  =     40450.74657337
  ---------------------------------------------------
  free energy    TOTEN  =       -43.32213108 eV

  energy without entropy =      -43.32213108  energy(sigma->0) =      -43.32213108


--------------------------------------------------------------------------------------------------------




----------------------------------------- Iteration    1(  11)  ---------------------------------------


    POTLOK:  cpu time    0.21: real time    0.22
    SETDIJ:  cpu time    0.01: real time    0.01
     EDDAV:  cpu time    3.70: real time    3.71
       DOS:  cpu time    0.00: real time    0.00
    CHARGE:  cpu time    0.12: real time    0.12
    MIXING:  cpu time    0.01: real time    0.01
    --------------------------------------------
      LOOP:  cpu time    4.05: real time    4.08

 eigenvalue-minimisations  :  1176
 total energy-change (2. order) :-0.6919551E+01  (-0.2278941E+00)
 number of electron     428.9999394 magnetization      12.4809858
 augmentation part      205.6655357 magnetization       6.2938296

 Broyden mixing:
  rms(total) = 0.27223E+00    rms(broyden)= 0.27222E+00
  rms(prec ) = 0.27476E+00
  weight for this iteration     100.00

 eigenvalues of (default mixing * dielectric matrix)
  average eigenvalue GAMMA=   1.3706
  3.0600  2.1955  0.8872  0.8872  0.6557  0.5380

 Free energy of the ion-electron system (eV)
  ---------------------------------------------------
  alpha Z        PSCENC =       122.76330606
  Ewald energy   TEWEN  =     96650.47605843
  -Hartree energ DENC   =   -135644.94622955
  -exchange      EXHF   =         0.00000000
  -V(xc)+E(xc)   XCENC  =      -413.92209781
  PAW double counting   =     42603.46648299   -40881.77643308
  entropy T*S    EENTRO =         0.00000000
  eigenvalues    EBANDS =     -2937.04934278
  atomic energy  EATOM  =     40450.74657337
  ---------------------------------------------------
  free energy    TOTEN  =       -50.24168238 eV

  energy without entropy =      -50.24168238  energy(sigma->0) =      -50.24168238


--------------------------------------------------------------------------------------------------------




----------------------------------------- Iteration    1(  12)  ---------------------------------------


    POTLOK:  cpu time    0.22: real time    0.21
    SETDIJ:  cpu time    0.00: real time    0.01
     EDDAV:  cpu time    3.61: real time    3.61
       DOS:  cpu time    0.00: real time    0.00
    CHARGE:  cpu time    0.12: real time    0.11
    MIXING:  cpu time    0.00: real time    0.01
    --------------------------------------------
      LOOP:  cpu time    3.95: real time    3.96

 eigenvalue-minimisations  :  1136
 total energy-change (2. order) :-0.1146038E+02  (-0.5022170E+00)
 number of electron     428.9999394 magnetization      10.4093092
 augmentation part      205.6428620 magnetization       6.6190813

 Broyden mixing:
  rms(total) = 0.23514E+00    rms(broyden)= 0.23503E+00
  rms(prec ) = 0.24862E+00
  weight for this iteration     100.00

 eigenvalues of (default mixing * dielectric matrix)
  average eigenvalue GAMMA=   1.3567
  3.6883  2.2211  0.8924  0.8924  0.6858  0.5584  0.5584

 Free energy of the ion-electron system (eV)
  ---------------------------------------------------
  alpha Z        PSCENC =       122.76330606
  Ewald energy   TEWEN  =     96650.47605843
  -Hartree energ DENC   =   -135644.58506965
  -exchange      EXHF   =         0.00000000
  -V(xc)+E(xc)   XCENC  =      -422.32503923
  PAW double counting   =     42538.83371614   -40816.63764937
  entropy T*S    EENTRO =         0.00000000
  eigenvalues    EBANDS =     -2940.97395756
  atomic energy  EATOM  =     40450.74657337
  ---------------------------------------------------
  free energy    TOTEN  =       -61.70206183 eV

  energy without entropy =      -61.70206183  energy(sigma->0) =      -61.70206183


--------------------------------------------------------------------------------------------------------




----------------------------------------- Iteration    1(  13)  ---------------------------------------


    POTLOK:  cpu time    0.22: real time    0.21
    SETDIJ:  cpu time    0.01: real time    0.01
     EDDAV:  cpu time    3.74: real time    3.74
       DOS:  cpu time    0.00: real time    0.00
    CHARGE:  cpu time    0.11: real time    0.11
    MIXING:  cpu time    0.01: real time    0.01
    --------------------------------------------
      LOOP:  cpu time    4.08: real time    4.09

 eigenvalue-minimisations  :  1184
 total energy-change (2. order) :-0.4171087E+01  (-0.1104164E+00)
 number of electron     428.9999394 magnetization       7.8539614
 augmentation part      205.6168186 magnetization       4.3008921

 Broyden mixing:
  rms(total) = 0.17526E+00    rms(broyden)= 0.17525E+00
  rms(prec ) = 0.18409E+00
  weight for this iteration     100.00

 eigenvalues of (default mixing * dielectric matrix)
  average eigenvalue GAMMA=   1.4786
  4.8727  2.2795  1.0041  1.0041  0.7840  0.7840  0.6312  0.4694

 Free energy of the ion-electron system (eV)
  ---------------------------------------------------
  alpha Z        PSCENC =       122.76330606
  Ewald energy   TEWEN  =     96650.47605843
  -Hartree energ DENC   =   -135640.31793463
  -exchange      EXHF   =         0.00000000
  -V(xc)+E(xc)   XCENC  =      -425.51353978
  PAW double counting   =     42509.58675487   -40787.31487339
  entropy T*S    EENTRO =         0.00000000
  eigenvalues    EBANDS =     -2946.29949359
  atomic energy  EATOM  =     40450.74657337
  ---------------------------------------------------
  free energy    TOTEN  =       -65.87314867 eV

  energy without entropy =      -65.87314867  energy(sigma->0) =      -65.87314867


--------------------------------------------------------------------------------------------------------




----------------------------------------- Iteration    1(  14)  ---------------------------------------


    POTLOK:  cpu time    0.22: real time    0.22
    SETDIJ:  cpu time    0.01: real time    0.01
     EDDAV:  cpu time    3.65: real time    3.65
       DOS:  cpu time    0.00: real time    0.00
    CHARGE:  cpu time    0.12: real time    0.12
    MIXING:  cpu time    0.00: real time    0.01
    --------------------------------------------
      LOOP:  cpu time    3.99: real time    4.00

 eigenvalue-minimisations  :  1152
 total energy-change (2. order) :-0.6004815E+01  (-0.1808294E+00)
 number of electron     428.9999395 magnetization       6.8744468
 augmentation part      205.6383931 magnetization       5.5079718

 Broyden mixing:
  rms(total) = 0.18496E+00    rms(broyden)= 0.18487E+00
  rms(prec ) = 0.19892E+00
  weight for this iteration     100.00

 eigenvalues of (default mixing * dielectric matrix)
  average eigenvalue GAMMA=   1.3839
  5.1445  2.2565  1.0317  1.0317  0.7730  0.7730  0.6266  0.4997  0.3187

 Free energy of the ion-electron system (eV)
  ---------------------------------------------------
  alpha Z        PSCENC =       122.76330606
  Ewald energy   TEWEN  =     96650.47605843
  -Hartree energ DENC   =   -135623.33143412
  -exchange      EXHF   =         0.00000000
  -V(xc)+E(xc)   XCENC  =      -430.42984739
  PAW double counting   =     42441.32007447   -40718.65301713
  entropy T*S    EENTRO =         0.00000000
  eigenvalues    EBANDS =     -2964.76967777
  atomic energy  EATOM  =     40450.74657337
  ---------------------------------------------------
  free energy    TOTEN  =       -71.87796409 eV

  energy without entropy =      -71.87796409  energy(sigma->0) =      -71.87796409


--------------------------------------------------------------------------------------------------------




----------------------------------------- Iteration    1(  15)  ---------------------------------------


    POTLOK:  cpu time    0.21: real time    0.21
    SETDIJ:  cpu time    0.01: real time    0.01
     EDDAV:  cpu time    3.80: real time    3.80
       DOS:  cpu time    0.00: real time    0.00
    CHARGE:  cpu time    0.12: real time    0.12
    MIXING:  cpu time    0.01: real time    0.01
    --------------------------------------------
      LOOP:  cpu time    4.15: real time    4.15

 eigenvalue-minimisations  :  1216
 total energy-change (2. order) :-0.1362357E+01  (-0.1681765E-01)
 number of electron     428.9999395 magnetization       4.7848503
 augmentation part      205.6382631 magnetization       3.5050528

 Broyden mixing:
  rms(total) = 0.14566E+00    rms(broyden)= 0.14566E+00
  rms(prec ) = 0.15718E+00
  weight for this iteration     100.00

 eigenvalues of (default mixing * dielectric matrix)
  average eigenvalue GAMMA=   1.4913
  6.1910  2.2610  1.2008  1.2008  0.7555  0.7555  0.7350  0.7350  0.6351  0.4430

 Free energy of the ion-electron system (eV)
  ---------------------------------------------------
  alpha Z        PSCENC =       122.76330606
  Ewald energy   TEWEN  =     96650.47605843
  -Hartree energ DENC   =   -135616.70370098
  -exchange      EXHF   =         0.00000000
  -V(xc)+E(xc)   XCENC  =      -431.63801877
  PAW double counting   =     42423.83195235   -40701.12489396
  entropy T*S    EENTRO =         0.00000000
  eigenvalues    EBANDS =     -2971.59159785
  atomic energy  EATOM  =     40450.74657337
  ---------------------------------------------------
  free energy    TOTEN  =       -73.24032136 eV

  energy without entropy =      -73.24032136  energy(sigma->0) =      -73.24032136


--------------------------------------------------------------------------------------------------------




----------------------------------------- Iteration    1(  16)  ---------------------------------------


    POTLOK:  cpu time    0.22: real time    0.22
    SETDIJ:  cpu time    0.01: real time    0.01
     EDDAV:  cpu time    3.63: real time    3.64
       DOS:  cpu time    0.00: real time    0.00
    CHARGE:  cpu time    0.12: real time    0.12
    MIXING:  cpu time    0.01: real time    0.01
    --------------------------------------------
      LOOP:  cpu time    3.98: real time    3.99

 eigenvalue-minimisations  :  1136
 total energy-change (2. order) :-0.3432643E+01  (-0.7128250E-01)
 number of electron     428.9999395 magnetization       3.3497080
 augmentation part      205.6574461 magnetization       2.2114725

 Broyden mixing:
  rms(total) = 0.91740E-01    rms(broyden)= 0.91733E-01
  rms(prec ) = 0.98676E-01
  weight for this iteration     100.00

 eigenvalues of (default mixing * dielectric matrix)
  average eigenvalue GAMMA=   1.5776
  7.0081  2.1113  2.1113  0.9653  0.9653  1.0327  0.7186  0.7186  0.6133  0.6616
  0.4473

 Free energy of the ion-electron system (eV)
  ---------------------------------------------------
  alpha Z        PSCENC =       122.76330606
  Ewald energy   TEWEN  =     96650.47605843
  -Hartree energ DENC   =   -135595.46781543
  -exchange      EXHF   =         0.00000000
  -V(xc)+E(xc)   XCENC  =      -434.80558814
  PAW double counting   =     42372.15230631   -40649.07536716
  entropy T*S    EENTRO =         0.00000000
  eigenvalues    EBANDS =     -2993.46243780
  atomic energy  EATOM  =     40450.74657337
  ---------------------------------------------------
  free energy    TOTEN  =       -76.67296437 eV

  energy without entropy =      -76.67296437  energy(sigma->0) =      -76.67296437


--------------------------------------------------------------------------------------------------------




----------------------------------------- Iteration    1(  17)  ---------------------------------------


    POTLOK:  cpu time    0.22: real time    0.21
    SETDIJ:  cpu time    0.01: real time    0.01
     EDDAV:  cpu time    3.65: real time    3.65
       DOS:  cpu time    0.00: real time    0.00
    CHARGE:  cpu time    0.12: real time    0.12
    MIXING:  cpu time    0.01: real time    0.01
    --------------------------------------------
      LOOP:  cpu time    4.00: real time    4.00

 eigenvalue-minimisations  :  1152
 total energy-change (2. order) :-0.2584680E+01  (-0.4466936E-01)
 number of electron     428.9999395 magnetization       2.3853796
 augmentation part      205.6443765 magnetization       1.3104549

 Broyden mixing:
  rms(total) = 0.55768E-01    rms(broyden)= 0.55756E-01
  rms(prec ) = 0.61586E-01
  weight for this iteration     100.00

 eigenvalues of (default mixing * dielectric matrix)
  average eigenvalue GAMMA=   1.6565
  7.9564  2.7407  2.0068  1.4019  0.9725  0.9725  0.8353  0.6663  0.6663  0.6398
  0.5708  0.4490

 Free energy of the ion-electron system (eV)
  ---------------------------------------------------
  alpha Z        PSCENC =       122.76330606
  Ewald energy   TEWEN  =     96650.47605843
  -Hartree energ DENC   =   -135570.11173164
  -exchange      EXHF   =         0.00000000
  -V(xc)+E(xc)   XCENC  =      -437.34528942
  PAW double counting   =     42342.24430126   -40618.84962497
  entropy T*S    EENTRO =         0.00000000
  eigenvalues    EBANDS =     -3019.18123791
  atomic energy  EATOM  =     40450.74657337
  ---------------------------------------------------
  free energy    TOTEN  =       -79.25764484 eV

  energy without entropy =      -79.25764484  energy(sigma->0) =      -79.25764484


--------------------------------------------------------------------------------------------------------




----------------------------------------- Iteration    1(  18)  ---------------------------------------


    POTLOK:  cpu time    0.22: real time    0.22
    SETDIJ:  cpu time    0.01: real time    0.01
     EDDAV:  cpu time    3.66: real time    3.66
       DOS:  cpu time    0.00: real time    0.00
    CHARGE:  cpu time    0.12: real time    0.12
    MIXING:  cpu time    0.01: real time    0.01
    --------------------------------------------
      LOOP:  cpu time    4.01: real time    4.02

 eigenvalue-minimisations  :  1152
 total energy-change (2. order) :-0.1313806E+01  (-0.1280850E-01)
 number of electron     428.9999394 magnetization       1.6600024
 augmentation part      205.6773090 magnetization       0.6313961

 Broyden mixing:
  rms(total) = 0.38526E-01    rms(broyden)= 0.38515E-01
  rms(prec ) = 0.43759E-01
  weight for this iteration     100.00

 eigenvalues of (default mixing * dielectric matrix)
  average eigenvalue GAMMA=   1.7209
  8.5385  3.1452  2.3517  1.2021  1.2021  1.0892  0.9453  0.7382  0.7382  0.6892
  0.6892  0.5937  0.4491

 Free energy of the ion-electron system (eV)
  ---------------------------------------------------
  alpha Z        PSCENC =       122.76330606
  Ewald energy   TEWEN  =     96650.47605843
  -Hartree energ DENC   =   -135548.65382798
  -exchange      EXHF   =         0.00000000
  -V(xc)+E(xc)   XCENC  =      -438.78327054
  PAW double counting   =     42318.01255227   -40594.17599524
  entropy T*S    EENTRO =         0.00000000
  eigenvalues    EBANDS =     -3040.95684704
  atomic energy  EATOM  =     40450.74657337
  ---------------------------------------------------
  free energy    TOTEN  =       -80.57145067 eV

  energy without entropy =      -80.57145067  energy(sigma->0) =      -80.57145067


--------------------------------------------------------------------------------------------------------




----------------------------------------- Iteration    1(  19)  ---------------------------------------


    POTLOK:  cpu time    0.22: real time    0.22
    SETDIJ:  cpu time    0.01: real time    0.01
     EDDAV:  cpu time    3.67: real time    3.68
       DOS:  cpu time    0.00: real time    0.00
    CHARGE:  cpu time    0.11: real time    0.12
    MIXING:  cpu time    0.01: real time    0.01
    --------------------------------------------
      LOOP:  cpu time    4.02: real time    7.09

 eigenvalue-minimisations  :  1160
 total energy-change (2. order) :-0.1228369E+01  (-0.9337487E-02)
 number of electron     428.9999395 magnetization       1.4098069
 augmentation part      205.6821247 magnetization       0.3880560

 Broyden mixing:
  rms(total) = 0.20340E-01    rms(broyden)= 0.20326E-01
  rms(prec ) = 0.24482E-01
  weight for this iteration     100.00

 eigenvalues of (default mixing * dielectric matrix)
  average eigenvalue GAMMA=   1.7596
  8.9132  3.8225  2.2762  1.5299  1.5299  0.9060  0.9060  0.9457  0.6820  0.6820
  0.4485  0.7485  0.6586  0.5856

 Free energy of the ion-electron system (eV)
  ---------------------------------------------------
  alpha Z        PSCENC =       122.76330606
  Ewald energy   TEWEN  =     96650.47605843
  -Hartree energ DENC   =   -135525.88726499
  -exchange      EXHF   =         0.00000000
  -V(xc)+E(xc)   XCENC  =      -440.15916534
  PAW double counting   =     42330.60722876   -40606.72287632
  entropy T*S    EENTRO =         0.00000000
  eigenvalues    EBANDS =     -3063.62368001
  atomic energy  EATOM  =     40450.74657337
  ---------------------------------------------------
  free energy    TOTEN  =       -81.79982005 eV

  energy without entropy =      -81.79982005  energy(sigma->0) =      -81.79982005


--------------------------------------------------------------------------------------------------------




----------------------------------------- Iteration    1(  20)  ---------------------------------------


    POTLOK:  cpu time    0.21: real time    0.21
    SETDIJ:  cpu time    0.01: real time    0.01
     EDDAV:  cpu time    3.70: real time    3.70
       DOS:  cpu time    0.00: real time    0.00
    CHARGE:  cpu time    0.12: real time    0.12
    MIXING:  cpu time    0.01: real time    0.01
    --------------------------------------------
      LOOP:  cpu time    4.04: real time    4.05

 eigenvalue-minimisations  :  1176
 total energy-change (2. order) :-0.3633585E+00  (-0.1352289E-02)
 number of electron     428.9999395 magnetization       1.2679693
 augmentation part      205.6899462 magnetization       0.2485138

 Broyden mixing:
  rms(total) = 0.11662E-01    rms(broyden)= 0.11656E-01
  rms(prec ) = 0.15155E-01
  weight for this iteration     100.00

 eigenvalues of (default mixing * dielectric matrix)
  average eigenvalue GAMMA=   1.7782
  9.1310  4.2464  2.0963  2.0963  1.5369  0.9828  0.9828  1.0894  0.6938  0.6938
  0.4489  0.7641  0.6905  0.6323  0.5877

 Free energy of the ion-electron system (eV)
  ---------------------------------------------------
  alpha Z        PSCENC =       122.76330606
  Ewald energy   TEWEN  =     96650.47605843
  -Hartree energ DENC   =   -135513.75698223
  -exchange      EXHF   =         0.00000000
  -V(xc)+E(xc)   XCENC  =      -440.59712071
  PAW double counting   =     42335.19491885   -40611.18670755
  entropy T*S    EENTRO =         0.00000000
  eigenvalues    EBANDS =     -3075.80322481
  atomic energy  EATOM  =     40450.74657337
  ---------------------------------------------------
  free energy    TOTEN  =       -82.16317859 eV

  energy without entropy =      -82.16317859  energy(sigma->0) =      -82.16317859


--------------------------------------------------------------------------------------------------------




----------------------------------------- Iteration    1(  21)  ---------------------------------------


    POTLOK:  cpu time    0.21: real time    0.21
    SETDIJ:  cpu time    0.01: real time    0.01
     EDDAV:  cpu time    3.67: real time    3.67
       DOS:  cpu time    0.00: real time    0.00
    CHARGE:  cpu time    0.12: real time    0.12
    MIXING:  cpu time    0.01: real time    0.01
    --------------------------------------------
      LOOP:  cpu time    4.02: real time    4.02

 eigenvalue-minimisations  :  1160
 total energy-change (2. order) :-0.1617961E+00  (-0.5019272E-03)
 number of electron     428.9999395 magnetization       1.1882026
 augmentation part      205.6935215 magnetization       0.1686500

 Broyden mixing:
  rms(total) = 0.74618E-02    rms(broyden)= 0.74602E-02
  rms(prec ) = 0.10052E-01
  weight for this iteration     100.00

 eigenvalues of (default mixing * dielectric matrix)
  average eigenvalue GAMMA=   1.7871
  9.1996  4.6162  2.4106  2.1022  1.4777  1.1898  1.1898  0.9667  0.9667  0.7003
  0.7003  0.4489  0.7500  0.6436  0.6436  0.5873

 Free energy of the ion-electron system (eV)
  ---------------------------------------------------
  alpha Z        PSCENC =       122.76330606
  Ewald energy   TEWEN  =     96650.47605843
  -Hartree energ DENC   =   -135505.19928624
  -exchange      EXHF   =         0.00000000
  -V(xc)+E(xc)   XCENC  =      -440.80215014
  PAW double counting   =     42343.75521066   -40619.73547206
  entropy T*S    EENTRO =         0.00000000
  eigenvalues    EBANDS =     -3084.32921473
  atomic energy  EATOM  =     40450.74657337
  ---------------------------------------------------
  free energy    TOTEN  =       -82.32497465 eV

  energy without entropy =      -82.32497465  energy(sigma->0) =      -82.32497465


--------------------------------------------------------------------------------------------------------




----------------------------------------- Iteration    1(  22)  ---------------------------------------


    POTLOK:  cpu time    0.22: real time    0.22
    SETDIJ:  cpu time    0.01: real time    0.01
     EDDAV:  cpu time    3.49: real time    3.50
       DOS:  cpu time    0.00: real time    0.00
    CHARGE:  cpu time    0.12: real time    0.12
    MIXING:  cpu time    0.01: real time    0.01
    --------------------------------------------
      LOOP:  cpu time    3.85: real time    3.86

 eigenvalue-minimisations  :  1080
 total energy-change (2. order) :-0.6843716E-01  (-0.2141230E-03)
 number of electron     428.9999395 magnetization       1.0793316
 augmentation part      205.6930418 magnetization       0.0578244

 Broyden mixing:
  rms(total) = 0.50249E-02    rms(broyden)= 0.50240E-02
  rms(prec ) = 0.69337E-02
  weight for this iteration     100.00

 eigenvalues of (default mixing * dielectric matrix)
  average eigenvalue GAMMA=   1.8018
  9.3895  4.8135  2.5665  2.0071  2.0071  1.5350  0.9841  0.9841  1.0565  0.8448
  0.7066  0.7066  0.4488  0.6796  0.6796  0.5847  0.6370

 Free energy of the ion-electron system (eV)
  ---------------------------------------------------
  alpha Z        PSCENC =       122.76330606
  Ewald energy   TEWEN  =     96650.47605843
  -Hartree energ DENC   =   -135499.05924850
  -exchange      EXHF   =         0.00000000
  -V(xc)+E(xc)   XCENC  =      -440.89733457
  PAW double counting   =     42351.07977402   -40627.11419520
  entropy T*S    EENTRO =         0.00000000
  eigenvalues    EBANDS =     -3090.38834543
  atomic energy  EATOM  =     40450.74657337
  ---------------------------------------------------
  free energy    TOTEN  =       -82.39341182 eV

  energy without entropy =      -82.39341182  energy(sigma->0) =      -82.39341182


--------------------------------------------------------------------------------------------------------




----------------------------------------- Iteration    1(  23)  ---------------------------------------


    POTLOK:  cpu time    0.21: real time    0.21
    SETDIJ:  cpu time    0.01: real time    0.01
     EDDAV:  cpu time    3.10: real time    3.10
       DOS:  cpu time    0.00: real time    0.00
    CHARGE:  cpu time    0.12: real time    0.12
    MIXING:  cpu time    0.01: real time    0.01
    --------------------------------------------
      LOOP:  cpu time    3.45: real time    3.45

 eigenvalue-minimisations  :   912
 total energy-change (2. order) :-0.1310813E-01  (-0.1046713E-03)
 number of electron     428.9999394 magnetization       1.0454937
 augmentation part      205.6968171 magnetization       0.0276553

 Broyden mixing:
  rms(total) = 0.32760E-02    rms(broyden)= 0.32752E-02
  rms(prec ) = 0.46235E-02
  weight for this iteration     100.00

 eigenvalues of (default mixing * dielectric matrix)
  average eigenvalue GAMMA=   1.8008
  9.4010  5.0082  2.9700  2.1381  2.1381  1.3182  1.3182  0.9967  0.9967  0.9374
  0.7153  0.7153  0.4488  0.7414  0.6780  0.6780  0.6295  0.5855

 Free energy of the ion-electron system (eV)
  ---------------------------------------------------
  alpha Z        PSCENC =       122.76330606
  Ewald energy   TEWEN  =     96650.47605843
  -Hartree energ DENC   =   -135494.33872159
  -exchange      EXHF   =         0.00000000
  -V(xc)+E(xc)   XCENC  =      -440.93674194
  PAW double counting   =     42350.28623885   -40626.31857672
  entropy T*S    EENTRO =         0.00000000
  eigenvalues    EBANDS =     -3095.08465641
  atomic energy  EATOM  =     40450.74657337
  ---------------------------------------------------
  free energy    TOTEN  =       -82.40651995 eV

  energy without entropy =      -82.40651995  energy(sigma->0) =      -82.40651995


--------------------------------------------------------------------------------------------------------




----------------------------------------- Iteration    1(  24)  ---------------------------------------


    POTLOK:  cpu time    0.22: real time    0.21
    SETDIJ:  cpu time    0.00: real time    0.01
     EDDAV:  cpu time    2.87: real time    2.87
       DOS:  cpu time    0.00: real time    0.00
    CHARGE:  cpu time    0.12: real time    0.12
    MIXING:  cpu time    0.01: real time    0.01
    --------------------------------------------
      LOOP:  cpu time    3.22: real time    3.23

 eigenvalue-minimisations  :   816
 total energy-change (2. order) :-0.1096795E-01  (-0.3427633E-04)
 number of electron     428.9999394 magnetization       1.0254209
 augmentation part      205.6954341 magnetization       0.0084746

 Broyden mixing:
  rms(total) = 0.23548E-02    rms(broyden)= 0.23546E-02
  rms(prec ) = 0.33370E-02
  weight for this iteration     100.00

 eigenvalues of (default mixing * dielectric matrix)
  average eigenvalue GAMMA=   1.8067
  9.4351  5.2059  3.2872  1.9604  1.9604  1.9709  1.2368  1.2368  0.9798  0.9798
  0.9101  0.7088  0.7088  0.4488  0.7337  0.6780  0.6780  0.5878  0.6195

 Free energy of the ion-electron system (eV)
  ---------------------------------------------------
  alpha Z        PSCENC =       122.76330606
  Ewald energy   TEWEN  =     96650.47605843
  -Hartree energ DENC   =   -135491.95110747
  -exchange      EXHF   =         0.00000000
  -V(xc)+E(xc)   XCENC  =      -440.95326145
  PAW double counting   =     42351.52010885   -40627.58121495
  entropy T*S    EENTRO =        -0.00000000
  eigenvalues    EBANDS =     -3097.43795074
  atomic energy  EATOM  =     40450.74657337
  ---------------------------------------------------
  free energy    TOTEN  =       -82.41748790 eV

  energy without entropy =      -82.41748790  energy(sigma->0) =      -82.41748790


--------------------------------------------------------------------------------------------------------




----------------------------------------- Iteration    1(  25)  ---------------------------------------


    POTLOK:  cpu time    0.22: real time    0.22
    SETDIJ:  cpu time    0.01: real time    0.01
     EDDAV:  cpu time    2.82: real time    2.82
       DOS:  cpu time    0.00: real time    0.00
    CHARGE:  cpu time    0.12: real time    0.12
    MIXING:  cpu time    0.01: real time    0.01
    --------------------------------------------
      LOOP:  cpu time    3.16: real time    3.17

 eigenvalue-minimisations  :   792
 total energy-change (2. order) :-0.5918652E-02  (-0.2081739E-04)
 number of electron     428.9999394 magnetization       1.0234285
 augmentation part      205.6959365 magnetization       0.0066615

 Broyden mixing:
  rms(total) = 0.14080E-02    rms(broyden)= 0.14078E-02
  rms(prec ) = 0.20571E-02
  weight for this iteration     100.00

 eigenvalues of (default mixing * dielectric matrix)
  average eigenvalue GAMMA=   1.8173
  9.3941  5.4442  3.4550  2.3837  2.0871  2.0871  1.3230  1.3230  0.9808  0.9808
  0.9712  0.7106  0.7106  0.4488  0.8112  0.6845  0.6845  0.5881  0.6584  0.6191

 Free energy of the ion-electron system (eV)
  ---------------------------------------------------
  alpha Z        PSCENC =       122.76330606
  Ewald energy   TEWEN  =     96650.47605843
  -Hartree energ DENC   =   -135489.82407402
  -exchange      EXHF   =         0.00000000
  -V(xc)+E(xc)   XCENC  =      -440.96602622
  PAW double counting   =     42351.54483055   -40627.59896880
  entropy T*S    EENTRO =         0.00000000
  eigenvalues    EBANDS =     -3099.56510593
  atomic energy  EATOM  =     40450.74657337
  ---------------------------------------------------
  free energy    TOTEN  =       -82.42340656 eV

  energy without entropy =      -82.42340656  energy(sigma->0) =      -82.42340656


--------------------------------------------------------------------------------------------------------




----------------------------------------- Iteration    1(  26)  ---------------------------------------


    POTLOK:  cpu time    0.21: real time    0.21
    SETDIJ:  cpu time    0.01: real time    0.01
     EDDAV:  cpu time    2.78: real time    2.79
       DOS:  cpu time    0.00: real time    0.00
    CHARGE:  cpu time    0.11: real time    0.12
    MIXING:  cpu time    0.01: real time    0.01
    --------------------------------------------
      LOOP:  cpu time    3.13: real time    4.46

 eigenvalue-minimisations  :   776
 total energy-change (2. order) :-0.4059624E-02  (-0.1013875E-04)
 number of electron     428.9999394 magnetization       1.0115780
 augmentation part      205.6959126 magnetization      -0.0059045

 Broyden mixing:
  rms(total) = 0.10693E-02    rms(broyden)= 0.10690E-02
  rms(prec ) = 0.14849E-02
  weight for this iteration     100.00

 eigenvalues of (default mixing * dielectric matrix)
  average eigenvalue GAMMA=   1.8377
  9.3816  5.7485  3.8688  2.3871  2.0751  2.0751  1.5967  1.5967  0.9955  0.9955
  1.0020  1.0020  0.7090  0.7090  0.4488  0.8048  0.6779  0.6779  0.5877  0.6260
  0.6260

 Free energy of the ion-electron system (eV)
  ---------------------------------------------------
  alpha Z        PSCENC =       122.76330606
  Ewald energy   TEWEN  =     96650.47605843
  -Hartree energ DENC   =   -135488.31240715
  -exchange      EXHF   =         0.00000000
  -V(xc)+E(xc)   XCENC  =      -440.97450995
  PAW double counting   =     42351.79300872   -40627.84542657
  entropy T*S    EENTRO =         0.00000000
  eigenvalues    EBANDS =     -3101.07406908
  atomic energy  EATOM  =     40450.74657337
  ---------------------------------------------------
  free energy    TOTEN  =       -82.42746618 eV

  energy without entropy =      -82.42746618  energy(sigma->0) =      -82.42746618


--------------------------------------------------------------------------------------------------------




----------------------------------------- Iteration    1(  27)  ---------------------------------------


    POTLOK:  cpu time    0.21: real time    0.21
    SETDIJ:  cpu time    0.01: real time    0.01
     EDDAV:  cpu time    2.76: real time    2.76
       DOS:  cpu time    0.00: real time    0.00
    CHARGE:  cpu time    0.12: real time    0.12
    MIXING:  cpu time    0.01: real time    0.01
    --------------------------------------------
      LOOP:  cpu time    3.11: real time    3.14

 eigenvalue-minimisations  :   768
 total energy-change (2. order) :-0.3332120E-02  (-0.7280452E-05)
 number of electron     428.9999394 magnetization       1.0055606
 augmentation part      205.6965314 magnetization      -0.0115872

 Broyden mixing:
  rms(total) = 0.61857E-03    rms(broyden)= 0.61843E-03
  rms(prec ) = 0.85362E-03
  weight for this iteration     100.00

 eigenvalues of (default mixing * dielectric matrix)
  average eigenvalue GAMMA=   1.8712
  9.3370  6.3721  4.3552  2.5093  2.5093  1.9159  1.9159  1.2221  1.2221  1.1832
  0.9830  0.9830  0.7105  0.7105  0.4488  0.8349  0.7187  0.7187  0.5863  0.6521
  0.6521  0.6253

 Free energy of the ion-electron system (eV)
  ---------------------------------------------------
  alpha Z        PSCENC =       122.76330606
  Ewald energy   TEWEN  =     96650.47605843
  -Hartree energ DENC   =   -135486.91538215
  -exchange      EXHF   =         0.00000000
  -V(xc)+E(xc)   XCENC  =      -440.98308825
  PAW double counting   =     42351.58155741   -40627.63603632
  entropy T*S    EENTRO =         0.00000000
  eigenvalues    EBANDS =     -3102.46378685
  atomic energy  EATOM  =     40450.74657337
  ---------------------------------------------------
  free energy    TOTEN  =       -82.43079830 eV

  energy without entropy =      -82.43079830  energy(sigma->0) =      -82.43079830


--------------------------------------------------------------------------------------------------------




----------------------------------------- Iteration    1(  28)  ---------------------------------------


    POTLOK:  cpu time    0.21: real time    0.21
    SETDIJ:  cpu time    0.01: real time    0.01
     EDDAV:  cpu time    2.74: real time    2.74
       DOS:  cpu time    0.00: real time    0.00
    CHARGE:  cpu time    0.12: real time    0.12
    MIXING:  cpu time    0.01: real time    0.01
    --------------------------------------------
      LOOP:  cpu time    3.09: real time    4.28

 eigenvalue-minimisations  :   760
 total energy-change (2. order) :-0.1176190E-02  (-0.1781795E-05)
 number of electron     428.9999394 magnetization       1.0026241
 augmentation part      205.6967343 magnetization      -0.0142552

 Broyden mixing:
  rms(total) = 0.41252E-03    rms(broyden)= 0.41243E-03
  rms(prec ) = 0.57264E-03
  weight for this iteration     100.00

 eigenvalues of (default mixing * dielectric matrix)
  average eigenvalue GAMMA=   1.9099
  9.2620  7.2125  4.6503  2.8607  2.4397  2.0378  2.0378  1.4068  1.4068  0.9930
  0.9930  0.9716  0.9716  0.8735  0.7096  0.7096  0.4488  0.7654  0.6666  0.6666
  0.5876  0.6185  0.6370

 Free energy of the ion-electron system (eV)
  ---------------------------------------------------
  alpha Z        PSCENC =       122.76330606
  Ewald energy   TEWEN  =     96650.47605843
  -Hartree energ DENC   =   -135486.33910161
  -exchange      EXHF   =         0.00000000
  -V(xc)+E(xc)   XCENC  =      -440.98642575
  PAW double counting   =     42351.49208269   -40627.54716878
  entropy T*S    EENTRO =         0.00000000
  eigenvalues    EBANDS =     -3103.03729889
  atomic energy  EATOM  =     40450.74657337
  ---------------------------------------------------
  free energy    TOTEN  =       -82.43197449 eV

  energy without entropy =      -82.43197449  energy(sigma->0) =      -82.43197449


--------------------------------------------------------------------------------------------------------




----------------------------------------- Iteration    1(  29)  ---------------------------------------


    POTLOK:  cpu time    0.21: real time    0.21
    SETDIJ:  cpu time    0.01: real time    0.01
     EDDAV:  cpu time    2.68: real time    2.68
       DOS:  cpu time    0.00: real time    0.00
    CHARGE:  cpu time    0.12: real time    0.12
    MIXING:  cpu time    0.01: real time    0.01
    --------------------------------------------
      LOOP:  cpu time    3.03: real time    3.04

 eigenvalue-minimisations  :   736
 total energy-change (2. order) :-0.2910463E-03  (-0.8192456E-06)
 number of electron     428.9999394 magnetization       1.0022224
 augmentation part      205.6968173 magnetization      -0.0145819

 Broyden mixing:
  rms(total) = 0.29583E-03    rms(broyden)= 0.29577E-03
  rms(prec ) = 0.40017E-03
  weight for this iteration     100.00

 eigenvalues of (default mixing * dielectric matrix)
  average eigenvalue GAMMA=   1.9198
  9.1677  7.8420  4.8305  2.9956  2.5428  1.9420  1.9420  1.5390  1.5390  1.2006
  0.9932  0.9932  0.9826  0.9826  0.7091  0.7091  0.4488  0.8457  0.6735  0.6735
  0.6875  0.5878  0.6309  0.6162

 Free energy of the ion-electron system (eV)
  ---------------------------------------------------
  alpha Z        PSCENC =       122.76330606
  Ewald energy   TEWEN  =     96650.47605843
  -Hartree energ DENC   =   -135486.07406170
  -exchange      EXHF   =         0.00000000
  -V(xc)+E(xc)   XCENC  =      -440.98760088
  PAW double counting   =     42351.54509209   -40627.59903669
  entropy T*S    EENTRO =         0.00000000
  eigenvalues    EBANDS =     -3103.30259622
  atomic energy  EATOM  =     40450.74657337
  ---------------------------------------------------
  free energy    TOTEN  =       -82.43226554 eV

  energy without entropy =      -82.43226554  energy(sigma->0) =      -82.43226554


--------------------------------------------------------------------------------------------------------




----------------------------------------- Iteration    1(  30)  ---------------------------------------


    POTLOK:  cpu time    0.21: real time    0.21
    SETDIJ:  cpu time    0.01: real time    0.01
     EDDAV:  cpu time    2.67: real time    2.67
       DOS:  cpu time    0.00: real time    0.00
    --------------------------------------------
      LOOP:  cpu time    2.89: real time    2.91

 eigenvalue-minimisations  :   720
 total energy-change (2. order) : 0.8133626E-05  (-0.3489443E-06)
 number of electron     428.9999394 magnetization       1.0022224
 augmentation part      205.6968173 magnetization      -0.0145819

 Free energy of the ion-electron system (eV)
  ---------------------------------------------------
  alpha Z        PSCENC =       122.76330606
  Ewald energy   TEWEN  =     96650.47605843
  -Hartree energ DENC   =   -135486.04415274
  -exchange      EXHF   =         0.00000000
  -V(xc)+E(xc)   XCENC  =      -440.98717208
  PAW double counting   =     42351.74303626   -40627.79806466
  entropy T*S    EENTRO =         0.00000000
  eigenvalues    EBANDS =     -3103.33184203
  atomic energy  EATOM  =     40450.74657337
  ---------------------------------------------------
  free energy    TOTEN  =       -82.43225740 eV

[...]
 -0.002  -0.000  -0.001   0.001   0.002  -0.002   0.000  -0.001
 -0.002  -0.019   0.010   0.000   0.016  -0.002  -0.018   0.009
  0.000  -0.015  -0.022  -0.002   0.000   0.000  -0.015  -0.021
 -0.016   0.000   0.002  -0.019  -0.003  -0.016   0.000   0.002
 -0.002  -0.023   0.011   0.000   0.019  -0.002  -0.022   0.011
  0.000  -0.019  -0.026  -0.003   0.000   0.000  -0.018  -0.025
 -0.020   0.000   0.002  -0.023  -0.003  -0.019   0.000   0.002
 pseudopotential strength for first ion, spin component:           2
-10.284  -0.004  -0.001  -0.000   0.002 -10.259  -0.003  -0.001
 -0.004 -10.289  -0.007  -0.000   0.004  -0.003 -10.264  -0.007
 -0.001  -0.007 -10.289  -0.002  -0.001  -0.001  -0.007 -10.265
 -0.000  -0.000  -0.002 -10.290   0.000  -0.000  -0.000  -0.002
  0.002   0.004  -0.001   0.000 -10.284   0.002   0.004  -0.001
-10.259  -0.003  -0.001  -0.000   0.002 -10.211  -0.003  -0.001
 -0.003 -10.264  -0.007  -0.000   0.004  -0.003 -10.215  -0.007
 -0.001  -0.007 -10.265  -0.002  -0.001  -0.001  -0.007 -10.216
 -0.000  -0.000  -0.002 -10.265   0.000  -0.000  -0.000  -0.002
  0.002   0.004  -0.001   0.000 -10.260   0.002   0.004  -0.001
 -0.001  -0.000  -0.001   0.001   0.001  -0.001  -0.000  -0.001
 -0.002  -0.001  -0.001   0.001   0.002  -0.002  -0.001  -0.001
 -0.002  -0.020   0.010  -0.000   0.016  -0.002  -0.019   0.009
 -0.000  -0.015  -0.022  -0.002   0.000  -0.000  -0.015  -0.021
 -0.016  -0.000   0.002  -0.019  -0.003  -0.015  -0.000   0.002
 -0.003  -0.024   0.012  -0.000   0.020  -0.003  -0.023   0.011
 -0.000  -0.019  -0.027  -0.003   0.001  -0.000  -0.018  -0.026
 -0.020  -0.000   0.002  -0.023  -0.003  -0.019  -0.000   0.002
 total augmentation occupancy for first ion, spin component:           1
  2.793   0.052  -0.042   0.084   0.028  -0.776  -0.083   0.017  -0.022   0.008   0.139  -0.002  -0.024   0.005  -0.121   0.000
  0.052   2.774  -0.068  -0.049  -0.048  -0.083  -0.741   0.001   0.042   0.049   0.031   0.024  -0.096  -0.022   0.003  -0.006
 -0.042  -0.068   2.936  -0.055  -0.032   0.017   0.001  -0.883   0.042   0.040   0.077   0.019   0.098  -0.150   0.041  -0.000
  0.084  -0.049  -0.055   2.787   0.077  -0.022   0.042   0.042  -0.803  -0.045  -0.094   0.024   0.006  -0.003  -0.143  -0.000
  0.028  -0.048  -0.032   0.077   2.793   0.008   0.049   0.040  -0.045  -0.787  -0.159   0.010   0.075  -0.014  -0.059   0.005
 -0.776  -0.083   0.017  -0.022   0.008   0.725   0.110   0.003  -0.026  -0.038  -0.117   0.003   0.030  -0.002   0.128  -0.002
 -0.083  -0.741   0.001   0.042   0.049   0.110   0.681   0.056  -0.036  -0.052  -0.043  -0.007   0.108   0.046  -0.000  -0.006
  0.017   0.001  -0.883   0.042   0.040   0.003   0.056   0.806  -0.031  -0.046  -0.073  -0.008  -0.098   0.168  -0.041   0.006
 -0.022   0.042   0.042  -0.803  -0.045  -0.026  -0.036  -0.031   0.784   0.019   0.080  -0.019  -0.003   0.006   0.156   0.000
  0.008   0.049   0.040  -0.045  -0.787  -0.038  -0.052  -0.046   0.019   0.744   0.151  -0.017  -0.092   0.016   0.053   0.005
  0.139   0.031   0.077  -0.094  -0.159  -0.117  -0.043  -0.073   0.080   0.151   1.829  -0.279   0.132   0.167   0.032  -0.012
 -0.002   0.024   0.019   0.024   0.010   0.003  -0.007  -0.008  -0.019  -0.017  -0.279   0.059  -0.027  -0.039  -0.011   0.002
 -0.024  -0.096   0.098   0.006   0.075   0.030   0.108  -0.098  -0.003  -0.092   0.132  -0.027   0.089  -0.017  -0.007  -0.006
  0.005  -0.022  -0.150  -0.003  -0.014  -0.002   0.046   0.168   0.006   0.016   0.167  -0.039  -0.017   0.080  -0.002   0.000
 -0.121   0.003   0.041  -0.143  -0.059   0.128  -0.000  -0.041   0.156   0.053   0.032  -0.011  -0.007  -0.002   0.120   0.000
  0.000  -0.006  -0.000  -0.000   0.005  -0.002  -0.006   0.006   0.000   0.005  -0.012   0.002  -0.006   0.000   0.000   0.001
 -0.001  -0.007  -0.003   0.000   0.002   0.000  -0.003  -0.010  -0.001  -0.002  -0.016   0.003   0.000  -0.005  -0.000   0.000
 -0.003  -0.000  -0.001  -0.002   0.002  -0.008   0.000   0.002  -0.010  -0.003  -0.003   0.001   0.000  -0.000  -0.007  -0.000
 total augmentation occupancy for first ion, spin component:           2
 -0.008   0.015   0.010   0.005  -0.015   0.003  -0.012  -0.007  -0.003   0.011   0.001   0.001  -0.010  -0.001  -0.001   0.000
  0.015   0.027   0.014   0.013  -0.033  -0.012  -0.025  -0.011  -0.011   0.025   0.007   0.002  -0.023  -0.001  -0.005   0.000
  0.010   0.014  -0.000   0.005  -0.021  -0.007  -0.011  -0.002  -0.004   0.015   0.006   0.000  -0.009   0.001  -0.002   0.000
  0.005   0.013   0.005   0.004  -0.015  -0.003  -0.011  -0.004  -0.004   0.011   0.003   0.001  -0.009  -0.000  -0.003   0.000
 -0.015  -0.033  -0.021  -0.015   0.020   0.012   0.025   0.015   0.011  -0.020  -0.001  -0.001   0.022   0.001   0.005  -0.000
  0.003  -0.012  -0.007  -0.003   0.012   0.002   0.009   0.005   0.002  -0.009   0.000  -0.001   0.008   0.000   0.000  -0.000
 -0.012  -0.025  -0.011  -0.011   0.025   0.009   0.024   0.009   0.009  -0.019  -0.007  -0.000   0.018   0.000   0.004  -0.000
 -0.007  -0.011  -0.002  -0.004   0.015   0.005   0.009   0.003   0.004  -0.009  -0.007   0.000   0.007  -0.001   0.002  -0.000
 -0.003  -0.011  -0.004  -0.004   0.011   0.002   0.009   0.004   0.004  -0.009  -0.003  -0.000   0.007   0.000   0.002  -0.000
  0.011   0.025   0.015   0.011  -0.020  -0.009  -0.019  -0.009  -0.009   0.020  -0.002   0.002  -0.016  -0.001  -0.004   0.000
  0.001   0.007   0.006   0.003  -0.001   0.000  -0.007  -0.007  -0.003  -0.002   0.007  -0.002  -0.006   0.000  -0.002   0.000
  0.001   0.002   0.000   0.001  -0.001  -0.001  -0.000   0.000  -0.000   0.002  -0.002   0.001  -0.001  -0.000  -0.000   0.000
 -0.010  -0.023  -0.009  -0.009   0.022   0.008   0.018   0.007   0.007  -0.016  -0.006  -0.001   0.014   0.000   0.003  -0.000
 -0.001  -0.001   0.001  -0.000   0.001   0.000   0.000  -0.001   0.000  -0.001   0.000  -0.000   0.000  -0.000   0.000   0.000
 -0.001  -0.005  -0.002  -0.003   0.005   0.000   0.004   0.002   0.002  -0.004  -0.002  -0.000   0.003   0.000   0.001  -0.000
  0.000   0.000   0.000   0.000  -0.000  -0.000  -0.000  -0.000  -0.000   0.000   0.000   0.000  -0.000   0.000  -0.000   0.000
 -0.000  -0.000  -0.000  -0.000   0.000   0.000   0.000   0.000   0.000  -0.000  -0.000   0.000   0.000  -0.000   0.000  -0.000
  0.000   0.000   0.000   0.000  -0.000  -0.000  -0.000  -0.000  -0.000   0.000   0.000   0.000  -0.000  -0.000  -0.000   0.000


------------------------ aborting loop because EDIFF is reached ----------------------------------------


    CHARGE:  cpu time    0.12: real time    0.12
    FORLOC:  cpu time    0.02: real time    0.01
    FORNL :  cpu time    2.50: real time    2.51
    STRESS:  cpu time    2.96: real time    2.97
    FORCOR:  cpu time    0.21: real time    0.21
    FORHAR:  cpu time    0.04: real time    0.04
    MIXING:  cpu time    0.00: real time    0.00
    OFIELD:  cpu time    0.00: real time    0.00

  FORCE on cell =-STRESS in cart. coord.  units (eV):
  Direction    XX          YY          ZZ          XY          YZ          ZX
  --------------------------------------------------------------------------------------
  Alpha Z   122.76331   122.76331   122.76331
  Ewald   34170.12792 31071.78064 29594.00377 -5159.43707   748.12085 -6627.74655
  Hartree 46882.40121 44172.52072 42639.48184 -4658.55687   790.52405 -6133.29736
  E(xc)   -2261.03872 -2262.20632 -2261.75593    -1.05195    -0.29423    -0.92790
  Local  -87436.10764-81643.48140-78626.89108  9806.69812 -1541.77140 12758.21011
  n-local  -406.54965  -405.41200  -405.43838     0.83280     0.28549    -1.22843
  augment  3580.93081  3585.50429  3583.53734     3.20132     0.80700     1.47823
  Kinetic  5333.02009  5344.15600  5339.88886     8.13505     2.35527     3.52938
  Fock        0.00000     0.00000     0.00000     0.00000     0.00000     0.00000
  -------------------------------------------------------------------------------------
  Total     -14.45269   -14.37476   -14.41027    -0.17861     0.02703     0.01749
  in kB      -2.19727    -2.18543    -2.19083    -0.02715     0.00411     0.00266
  external pressure =       -2.19 kB  Pullay stress =        0.00 kB


 VOLUME and BASIS-vectors are now :
 -----------------------------------------------------------------------------
  energy-cutoff  :      249.84
  volume of cell :    10538.40
      direct lattice vectors                 reciprocal lattice vectors
    21.924259799  0.000000000  0.000000000     0.045611574  0.000000000  0.000000000
     0.000000000 21.924259799  0.000000000     0.000000000  0.045611574  0.000000000
     0.000000000  0.000000000 21.924259799     0.000000000  0.000000000  0.045611574

  length of vectors
    21.924259799 21.924259799 21.924259799     0.045611574  0.045611574  0.045611574


 FORCES acting on ions
    electron-ion (+dipol)            ewald-force                    non-local-force                 convergence-correction
 -----------------------------------------------------------------------------------------------
   0.489E+02 0.113E+04 0.116E+04   -.486E+02 -.112E+04 -.116E+04   -.284E+00 -.281E+01 -.308E+01   -.265E-02 0.983E-03 0.537E-03
   -.100E+04 0.661E+03 0.105E+04   0.100E+04 -.660E+03 -.104E+04   0.305E+01 -.841E+00 -.282E+01   -.745E-03 -.498E-03 0.109E-02
   0.125E+03 0.158E+04 -.427E+02   -.125E+03 -.158E+04 0.423E+02   -.364E+00 -.424E+01 0.345E+00   -.415E-03 0.214E-03 0.295E-03
   -.893E+03 0.126E+04 0.343E+03   0.889E+03 -.126E+04 -.343E+03   0.371E+01 -.282E+01 0.209E+00   0.347E-03 -.102E-03 0.364E-03
   -.122E+04 0.105E+03 0.798E+03   0.121E+04 -.106E+03 -.797E+03   0.183E+01 0.258E+00 -.447E+00   -.127E-02 -.768E-03 0.216E-03
   -.328E+03 0.223E+03 0.130E+04   0.328E+03 -.221E+03 -.130E+04   0.198E+00 -.115E+01 -.878E+00   -.122E-02 0.632E-03 -.563E-04
   0.664E+03 0.588E+03 0.141E+04   -.662E+03 -.587E+03 -.141E+04   -.219E+01 -.128E+01 -.352E+01   -.479E-03 0.890E-03 0.417E-03
   -.138E+04 0.540E+03 -.325E+03   0.137E+04 -.538E+03 0.325E+03   0.157E+01 -.203E+01 -.350E+00   -.893E-03 -.749E-03 0.102E-02
   -.332E+03 0.705E+03 0.938E+02   0.331E+03 -.704E+03 -.935E+02   0.517E+00 -.141E+01 -.302E+00   0.360E-03 -.136E-02 0.168E-03
   0.266E+03 0.127E+04 -.883E+03   -.266E+03 -.126E+04 0.882E+03   0.459E+00 -.228E+01 0.947E+00   -.136E-02 -.131E-02 0.333E-04
   0.831E+03 0.127E+04 0.311E+03   -.829E+03 -.127E+04 -.310E+03   -.122E+01 -.124E+01 -.645E+00   -.175E-02 0.617E-03 0.832E-03
   -.892E+03 0.113E+04 -.793E+03   0.889E+03 -.113E+04 0.790E+03   0.223E+01 -.357E+01 0.320E+01   0.422E-03 -.123E-02 0.567E-03
   0.145E+04 0.730E+03 0.473E+03   -.144E+04 -.728E+03 -.472E+03   -.456E+01 -.170E+01 -.101E+01   -.355E-03 -.684E-03 0.927E-03
   -.115E+04 -.760E+03 0.653E+03   0.115E+04 0.758E+03 -.649E+03   0.381E+01 0.277E+01 -.370E+01   -.179E-02 -.697E-03 0.139E-02
   -.622E+03 -.656E+03 0.114E+04   0.621E+03 0.656E+03 -.114E+04   0.957E+00 0.570E+00 -.155E+01   0.754E-03 -.477E-03 0.116E-02
   -.152E+04 -.234E+03 -.282E+03   0.151E+04 0.234E+03 0.281E+03   0.457E+01 0.657E+00 0.151E+01   -.172E-02 0.275E-03 0.426E-03
   0.272E+03 -.306E+03 0.138E+04   -.272E+03 0.305E+03 -.138E+04   0.837E-01 0.735E+00 -.974E+00   0.216E-03 -.407E-03 -.897E-03
   -.450E+03 -.250E+03 0.880E+02   0.449E+03 0.249E+03 -.882E+02   0.121E+01 0.375E+00 0.229E+00   0.174E-02 0.636E-03 -.116E-02
   0.430E+03 0.158E+03 0.376E+03   -.429E+03 -.157E+03 -.375E+03   -.137E+01 -.239E+00 -.102E+01   0.120E-02 0.227E-03 0.571E-03
   -.597E+02 -.109E+04 0.114E+04   0.586E+02 0.108E+04 -.113E+04   0.109E+01 0.455E+01 -.484E+01   0.860E-03 -.103E-02 -.229E-03
   -.687E+03 0.509E+03 -.107E+04   0.686E+03 -.509E+03 0.107E+04   0.104E+01 -.301E+00 0.458E+00   0.859E-03 -.817E-03 0.157E-02
   0.109E+04 0.922E+03 -.538E+03   -.109E+04 -.920E+03 0.538E+03   -.158E+01 -.144E+01 0.501E+00   -.173E-02 0.137E-03 0.196E-02
   -.116E+04 -.383E+03 -.101E+04   0.116E+04 0.383E+03 0.101E+04   0.226E+01 -.233E+00 0.235E+01   -.555E-03 -.109E-02 0.151E-02
   -.913E+03 -.123E+04 -.155E+03   0.911E+03 0.123E+04 0.155E+03   0.205E+01 0.183E+01 -.311E-01   -.786E-03 -.499E-03 -.126E-02
   0.119E+04 -.169E+03 0.102E+04   -.118E+04 0.169E+03 -.102E+04   -.286E+01 -.328E-01 -.193E+01   0.218E-03 -.583E-03 -.122E-02
   0.175E+03 -.998E+02 -.501E+03   -.175E+03 0.998E+02 0.500E+03   0.229E-01 0.797E-02 0.121E+01   -.529E-03 0.277E-02 0.125E-02
   0.135E+04 0.210E+02 -.594E+02   -.135E+04 -.212E+02 0.602E+02   -.644E+00 0.196E+00 -.842E+00   -.309E-03 -.753E-03 0.191E-02
   -.154E+03 -.138E+04 0.246E+03   0.154E+03 0.138E+04 -.245E+03   -.141E+00 0.125E+01 -.137E+01   0.308E-03 -.125E-02 -.101E-02
   0.187E+03 0.809E+03 -.135E+04   -.188E+03 -.807E+03 0.135E+04   0.312E+00 -.177E+01 0.266E+01   -.174E-02 0.603E-03 -.604E-03
   0.437E+03 -.121E+04 -.107E+03   -.436E+03 0.121E+04 0.107E+03   -.131E+01 0.192E-01 -.682E+00   0.136E-03 -.895E-03 -.246E-03
   0.687E+03 -.114E+04 0.770E+03   -.686E+03 0.114E+04 -.769E+03   -.164E+01 0.266E+01 -.106E+01   0.512E-03 -.704E-03 -.140E-02
   -.674E+03 -.324E+03 -.140E+04   0.672E+03 0.324E+03 0.140E+04   0.208E+01 0.101E-01 0.331E+01   -.989E-03 -.377E-03 0.877E-03
   -.450E+03 -.127E+04 -.680E+03   0.449E+03 0.127E+04 0.678E+03   0.629E+00 0.134E+01 0.151E+01   -.930E-03 -.304E-04 -.134E-02
   0.112E+04 0.301E+03 -.906E+03   -.112E+04 -.301E+03 0.904E+03   -.217E+01 -.857E-01 0.149E+01   0.971E-03 -.301E-03 -.158E-02
   0.131E+04 -.842E+03 0.332E+03   -.131E+04 0.839E+03 -.331E+03   -.474E+01 0.288E+01 -.138E+01   -.109E-02 -.141E-03 -.129E-02
   0.103E+03 -.112E+04 -.953E+03   -.102E+03 0.112E+04 0.951E+03   -.673E+00 0.170E+01 0.166E+01   -.106E-02 -.146E-02 0.531E-04
   0.120E+03 -.162E+02 -.151E+04   -.120E+03 0.159E+02 0.151E+04   -.372E-01 0.289E+00 0.494E+01   -.397E-03 -.610E-03 -.104E-02
   0.120E+04 -.840E+03 -.437E+03   -.120E+04 0.837E+03 0.437E+03   -.302E+01 0.257E+01 0.186E-01   0.114E-03 -.125E-02 -.133E-03
   0.817E+03 -.579E+03 -.107E+04   -.814E+03 0.577E+03 0.107E+04   -.300E+01 0.187E+01 0.496E+01   -.671E-04 -.479E-03 -.152E-03
 -----------------------------------------------------------------------------------------------
   -.186E+01 0.299E+01 0.909E+00   -.341E-12 0.352E-11 -.136E-11   0.187E+01 -.294E+01 -.931E+00   -.158E-01 -.126E-01 0.551E-02
 
 
 POSITION                                       TOTAL-FORCE (eV/Angst)
 -----------------------------------------------------------------------------------
     11.68393      7.55545      8.35039        -0.004897      0.004316      0.000550
     14.43160      8.60013      8.14975        -0.011283     -0.009593     -0.020879
     11.52302      5.87337     10.98151        -0.003253      0.003729     -0.006332
     13.90044      6.61324      9.88508        -0.002598     -0.004461     -0.004639
     14.97842     11.14757      9.04570         0.003056     -0.013777     -0.006785
     12.34143     10.36303      8.25344         0.003966     -0.006279      0.008435
      9.60196      9.51595      7.80006        -0.001797      0.005853      0.005966
     14.85034      9.76227     11.53217         0.000170     -0.003112      0.003756
     12.28212      8.82766     10.74182        -0.007075     -0.006646     -0.009354
     10.84757      7.64048     13.03135         0.002066     -0.009481      0.003027
      9.62007      7.72030     10.28785        -0.000687      0.001604      0.001674
     13.66076      7.30489     12.61099         0.003531     -0.008713     -0.002433
      7.49485      9.40335      9.86309        -0.003058      0.003019      0.006221
     16.00094     13.78012      8.89510         0.000061     -0.008042      0.007244
     13.27250     13.16616      8.27361         0.008792     -0.009023      0.007085
     16.29496     12.19403     11.22377        -0.009248     -0.007118      0.000467
     10.55368     12.36053      7.79979        -0.002206      0.001061      0.006692
     12.58239     11.74168     10.83343         0.011666     -0.009359      0.002993
     10.09842     10.60030     10.21195         0.010411      0.003346      0.004396
     11.36361     14.97846      7.32352         0.002204     -0.006852     -0.004119
     12.66615      9.83527     13.37868        -0.001653      0.002629     -0.004084
      8.70383      9.26561     12.53762         0.018913      0.010248     -0.004394
     14.24495     12.17825     13.13329        -0.005162     -0.001676      0.007530
     14.24070     14.09227     10.97257         0.001090      0.002783      0.000224
      7.98362     11.93173      8.75967         0.003819      0.004934     -0.000698
     10.45519     11.55886     12.77133         0.006005      0.016000     -0.000642
      7.70719     11.67470     11.60289        -0.002016      0.004676      0.004166
     11.65630     14.57334     10.07347        -0.000781     -0.007391      0.000999
     10.30582      9.67056     14.94217         0.000237      0.006782     -0.003197
      9.44221     14.08914     11.69638         0.000093      0.008676      0.006295
      9.10958     14.50527      8.88415        -0.001017     -0.000315     -0.004927
     12.06577     12.11434     15.00469        -0.005065      0.003435      0.003611
     12.06957     13.94304     12.77307        -0.004726      0.006970     -0.002969
      8.08398     11.39185     14.41650         0.008618      0.010652     -0.006400
      6.89136     14.02286     10.48010        -0.004511      0.002462     -0.003336
      9.81886     13.81945     14.51192        -0.004421      0.005459      0.000903
      9.75933     11.88920     16.59685        -0.005119      0.000564      0.000808
      7.16938     13.85446     13.34350         0.000613      0.002361      0.001975
      7.53978     13.61630     16.08855        -0.004737      0.000278      0.000171
 -----------------------------------------------------------------------------------
    total drift:                               -0.011326      0.035681     -0.016162


--------------------------------------------------------------------------------------------------------



  FREE ENERGIE OF THE ION-ELECTRON SYSTEM (eV)
  ---------------------------------------------------
  free  energy   TOTEN  =       -83.21889153 eV

  energy  without entropy=      -83.21889153  energy(sigma->0) =      -83.21889153
 
 d Force =-0.2289791E-04[-0.549E-04, 0.908E-05]  d Energy =-0.7527752E-04 0.524E-04
 d Force =-0.3079418E+00[-0.308E+00,-0.308E+00]  d Ewald  =-0.3079418E+00 0.786E-09


--------------------------------------------------------------------------------------------------------


    POTLOK:  cpu time    0.23: real time    0.23


--------------------------------------------------------------------------------------------------------




--------------------------------------------------------------------------------------------------------


  
 reached required accuracy - stopping structural energy minimisation
     LOOP+:  cpu time   12.98: real time   14.18
    4ORBIT:  cpu time    0.00: real time    0.00

 total amount of memory used by VASP on root node    54331. kBytes
========================================================================

   base      :      30000. kBytes
   nonl-proj :       2279. kBytes
   fftplans  :       4331. kBytes
   grid      :      10964. kBytes
   one-center:         46. kBytes
   wavefun   :       6711. kBytes
 
  
  
 General timing and accounting informations for this job:
 ========================================================
  
                  Total CPU time used (sec):      912.081
                            User time (sec):      905.741
                          System time (sec):        6.340
                         Elapsed time (sec):      993.323
  
                   Maximum memory used (kb):       67368.
                   Average memory used (kb):           0.
  
                          Minor page faults:       494445
                          Major page faults:            0
                 Voluntary context switches:        31197
