unknown system                          
           1
    21.847186    0.000000    0.000000
     0.000000   21.847186    0.000000
     0.000000    0.000000   21.847186
   Ag
  31
Direct configuration=     1
   0.51694199  0.31839550  0.54755337
   0.51183900  0.43320650  0.68454786
   0.39272624  0.46868552  0.27648200
   0.38163997  0.55445546  0.38305019
   0.59215036  0.65739005  0.47292786
   0.48837400  0.67748733  0.63318533
   0.50035875  0.40731391  0.31941078
   0.59218940  0.48614990  0.26889378
   0.48160293  0.71332331  0.50804207
   0.39818108  0.47648910  0.62886477
   0.61762401  0.40182361  0.50783192
   0.40051145  0.38285807  0.51616250
   0.61195663  0.49601456  0.62114581
   0.48711325  0.55297493  0.30689200
   0.48388177  0.63735611  0.40098025
   0.60091884  0.62090661  0.59818731
   0.39135321  0.42645173  0.39916695
   0.61023025  0.44503137  0.39069173
   0.38578416  0.60143978  0.60597750
   0.50847348  0.36442220  0.43415572
   0.50040394  0.55596127  0.66634408
   0.59677813  0.57286563  0.37477984
   0.37953045  0.63944349  0.48102029
   0.39157524  0.51180805  0.50493678
   0.60343085  0.53004777  0.49704055
   0.49316757  0.58506616  0.53245263
   0.49660455  0.49924548  0.42575200
   0.50545304  0.45316964  0.55435653
   0.61099924  0.37057231  0.62644316
   0.42148489  0.35307161  0.63363683
   0.52382530  0.29818307  0.67520545
Direct configuration=     2
   0.51693663  0.31842737  0.54776735
   0.51185588  0.43304635  0.68457052
   0.39285724  0.46873614  0.27660364
   0.38167427  0.55448638  0.38294162
   0.59212663  0.65729796  0.47286023
   0.48837973  0.67743989  0.63314155
   0.50032613  0.40759062  0.31929438
   0.59206901  0.48622396  0.26903648
   0.48159081  0.71330023  0.50804162
   0.39825463  0.47651031  0.62888334
   0.61755980  0.40187721  0.50778208
   0.40059308  0.38291592  0.51608510
   0.61184906  0.49601333  0.62115085
   0.48713704  0.55277228  0.30677260
   0.48390518  0.63735481  0.40114111
   0.60082277  0.62080305  0.59818409
   0.39143167  0.42646180  0.39909305
   0.61014562  0.44501501  0.39062664
   0.38586696  0.60136688  0.60599192
   0.50848325  0.36455098  0.43423647
   0.50039188  0.55601180  0.66619893
   0.59671400  0.57287174  0.37467498
   0.37959122  0.63938130  0.48091408
   0.39152130  0.51175750  0.50490828
   0.60352820  0.53000971  0.49701684
   0.49315134  0.58515210  0.53248089
   0.49662450  0.49922975  0.42587849
   0.50543853  0.45320690  0.55427473
   0.61095887  0.37056181  0.62655674
   0.42148811  0.35308677  0.63370725
   0.52383063  0.29815018  0.67530198
Direct configuration=     3
   0.51692052  0.31852298  0.54840928
   0.51190649  0.43256589  0.68463849
   0.39325022  0.46888800  0.27696856
   0.38177719  0.55457915  0.38261592
   0.59205547  0.65702168  0.47265733
   0.48839691  0.67729760  0.63301020
   0.50022827  0.40842075  0.31894517
   0.59170785  0.48644613  0.26946457
   0.48155444  0.71323096  0.50804027
   0.39847531  0.47657396  0.62893903
   0.61736719  0.40203802  0.50763255
   0.40083797  0.38308946  0.51585292
   0.61152636  0.49600964  0.62116599
   0.48720841  0.55216430  0.30641442
   0.48397541  0.63735091  0.40162368
   0.60053457  0.62049237  0.59817444
   0.39166707  0.42649200  0.39887135
   0.60989172  0.44496594  0.39043137
   0.38611536  0.60114818  0.60603518
   0.50851253  0.36493733  0.43447873
   0.50035568  0.55616340  0.66576349
   0.59652162  0.57289005  0.37436040
   0.37977353  0.63919471  0.48059545
   0.39135949  0.51160584  0.50482279
   0.60382026  0.52989554  0.49694569
   0.49310265  0.58540992  0.53256566
   0.49668434  0.49918256  0.42625796
   0.50539497  0.45331868  0.55402934
   0.61083775  0.37053031  0.62689749
   0.42149780  0.35313228  0.63391852
   0.52384663  0.29805149  0.67559160
Direct configuration=     4
   0.51688832  0.31871420  0.54969314
   0.51200773  0.43160499  0.68477444
   0.39403618  0.46919172  0.27769841
   0.38198301  0.55476467  0.38196453
   0.59191313  0.65646913  0.47225152
   0.48843128  0.67701300  0.63274750
   0.50003256  0.41008100  0.31824675
   0.59098553  0.48689048  0.27032075
   0.48148171  0.71309244  0.50803757
   0.39891665  0.47670125  0.62905042
   0.61698196  0.40235965  0.50733350
   0.40132774  0.38343656  0.51538856
   0.61088096  0.49600226  0.62119626
   0.48735115  0.55094836  0.30569805
   0.48411587  0.63734311  0.40258883
   0.59995815  0.61987101  0.59815514
   0.39213787  0.42655240  0.39842794
   0.60938393  0.44486780  0.39004083
   0.38661216  0.60071079  0.60612170
   0.50857111  0.36571003  0.43496323
   0.50028329  0.55646659  0.66489262
   0.59613686  0.57292668  0.37373124
   0.38013814  0.63882154  0.47995821
   0.39103587  0.51130252  0.50465180
   0.60440438  0.52966718  0.49680340
   0.49300526  0.58592556  0.53273522
   0.49680403  0.49908819  0.42701690
   0.50530786  0.45354224  0.55353855
   0.61059551  0.37046731  0.62757898
   0.42151717  0.35322328  0.63434105
   0.52387862  0.29785411  0.67617082
Direct configuration=     5
   0.51682391  0.31909664  0.55226085
   0.51221019  0.42968318  0.68504633
   0.39560810  0.46979915  0.27915810
   0.38239465  0.55513573  0.38066174
   0.59162846  0.65536402  0.47143992
   0.48850001  0.67644380  0.63222211
   0.49964114  0.41340151  0.31684991
   0.58954089  0.48777918  0.27203311
   0.48133624  0.71281539  0.50803216
   0.39979934  0.47695584  0.62927319
   0.61621151  0.40300290  0.50673539
   0.40230729  0.38413075  0.51445984
   0.60959016  0.49598750  0.62125680
   0.48763663  0.54851647  0.30426531
   0.48439678  0.63732751  0.40451912
   0.59880532  0.61862828  0.59811654
   0.39307947  0.42667319  0.39754112
   0.60836836  0.44467153  0.38925975
   0.38760577  0.59983599  0.60629474
   0.50868826  0.36725543  0.43593225
   0.50013850  0.55707298  0.66315087
   0.59536733  0.57299993  0.37247291
   0.38086737  0.63807519  0.47868371
   0.39038861  0.51069588  0.50430983
   0.60557261  0.52921047  0.49651882
   0.49281050  0.58695684  0.53307433
   0.49704340  0.49889943  0.42853478
   0.50513364  0.45398935  0.55255697
   0.61011103  0.37034132  0.62894195
   0.42155590  0.35340529  0.63518613
   0.52394260  0.29745936  0.67732928
Direct configuration=     6
   0.51675556  0.31948881  0.55298624
   0.51214170  0.42939931  0.68518647
   0.39521462  0.47009219  0.27898239
   0.38269209  0.55536418  0.38017425
   0.59178840  0.65486317  0.47116408
   0.48846573  0.67681939  0.63208599
   0.49967797  0.41419206  0.31698273
   0.58983347  0.48814178  0.27197376
   0.48128117  0.71308392  0.50819230
   0.40033348  0.47680160  0.62939555
   0.61597239  0.40295509  0.50703657
   0.40275754  0.38407795  0.51449823
   0.60902366  0.49561849  0.62134746
   0.48754503  0.54854892  0.30432791
   0.48457995  0.63667680  0.40449360
   0.59858331  0.61831580  0.59797867
   0.39341208  0.42667909  0.39729674
   0.60807834  0.44448847  0.38912775
   0.38775706  0.59949683  0.60620754
   0.50877670  0.36800167  0.43632278
   0.50014795  0.55636591  0.66278850
   0.59501687  0.57311863  0.37200141
   0.38086658  0.63764028  0.47828900
   0.39008482  0.51072668  0.50405080
   0.60598461  0.52925254  0.49629045
   0.49273367  0.58693132  0.53281885
   0.49709049  0.49924616  0.42912398
   0.50505612  0.45428768  0.55230380
   0.61031777  0.37044355  0.62910587
   0.42127808  0.35349714  0.63533374
   0.52385677  0.29699460  0.67825047
Direct configuration=     7
   0.51655052  0.32066531  0.55516240
   0.51193622  0.42854771  0.68560689
   0.39403416  0.47097131  0.27845523
   0.38358441  0.55604955  0.37871177
   0.59226821  0.65336063  0.47033655
   0.48836289  0.67794616  0.63167763
   0.49978845  0.41656371  0.31738118
   0.59071119  0.48922960  0.27179571
   0.48111595  0.71388951  0.50867270
   0.40193588  0.47633889  0.62976262
   0.61525504  0.40281167  0.50794010
   0.40410829  0.38391954  0.51461339
   0.60732417  0.49451146  0.62161945
   0.48727024  0.54864627  0.30451569
   0.48512946  0.63472467  0.40441705
   0.59791725  0.61737838  0.59756505
   0.39440993  0.42669678  0.39656359
   0.60720830  0.44393931  0.38873175
   0.38821092  0.59847935  0.60594596
   0.50904204  0.37024036  0.43749436
   0.50017630  0.55424470  0.66170139
   0.59396549  0.57347473  0.37058693
   0.38086420  0.63633557  0.47710487
   0.38917343  0.51081909  0.50327372
   0.60722062  0.52937874  0.49560534
   0.49250319  0.58685477  0.53205243
   0.49723178  0.50028634  0.43089160
   0.50482358  0.45518264  0.55154428
   0.61093798  0.37075026  0.62959762
   0.42044461  0.35377271  0.63577658
   0.52359926  0.29560033  0.68101404
Direct configuration=     8
   0.51649785  0.32113152  0.55577697
   0.51185142  0.42820734  0.68583837
   0.39309252  0.47141004  0.27763005
   0.38335916  0.55606071  0.37841283
   0.59243173  0.65343568  0.47024516
   0.48832591  0.67769675  0.63173878
   0.49979932  0.41675797  0.31790183
   0.59170634  0.48944091  0.27097529
   0.48110293  0.71378530  0.50847459
   0.40204773  0.47613305  0.62966472
   0.61540918  0.40269508  0.50832298
   0.40408966  0.38371431  0.51473755
   0.60737374  0.49427805  0.62150732
   0.48712303  0.54927389  0.30454306
   0.48516853  0.63427724  0.40413379
   0.59790122  0.61735698  0.59742576
   0.39448210  0.42675720  0.39666743
   0.60732143  0.44385945  0.38903137
   0.38823877  0.59838790  0.60574190
   0.50914034  0.37057311  0.43783295
   0.50011330  0.55423058  0.66161861
   0.59429554  0.57345001  0.37037631
   0.38072869  0.63620737  0.47713317
   0.38879838  0.51073846  0.50311473
   0.60748250  0.52933301  0.49545940
   0.49245880  0.58693082  0.53181500
   0.49722885  0.50096007  0.43073501
   0.50475494  0.45552881  0.55174320
   0.61095437  0.37000301  0.63001877
   0.42033242  0.35322602  0.63614038
   0.52349330  0.29576942  0.68136056
Direct configuration=     9
   0.51640289  0.32197213  0.55688510
   0.51169851  0.42759363  0.68625574
   0.39139466  0.47220110  0.27614219
   0.38295300  0.55608084  0.37787380
   0.59272656  0.65357102  0.47008037
   0.48825923  0.67724704  0.63184904
   0.49981892  0.41710823  0.31884062
   0.59350069  0.48982192  0.26949601
   0.48107947  0.71359741  0.50811738
   0.40224941  0.47576190  0.62948820
   0.61568713  0.40248486  0.50901335
   0.40405606  0.38334425  0.51496143
   0.60746312  0.49385720  0.62130513
   0.48685760  0.55040556  0.30459242
   0.48523898  0.63347047  0.40362305
   0.59787230  0.61731838  0.59717460
   0.39461223  0.42686614  0.39685466
   0.60752541  0.44371547  0.38957162
   0.38828898  0.59822300  0.60537396
   0.50931758  0.37117309  0.43844346
   0.49999970  0.55420512  0.66146935
   0.59489063  0.57340544  0.36999654
   0.38048434  0.63597621  0.47718421
   0.38812215  0.51059308  0.50282806
   0.60795467  0.52925055  0.49519625
   0.49237876  0.58706792  0.53138688
   0.49722356  0.50217486  0.43045268
   0.50463117  0.45615298  0.55210187
   0.61098392  0.36865565  0.63077815
   0.42013013  0.35224029  0.63679634
   0.52330223  0.29607430  0.68198536
Direct configuration=    10
   0.51626254  0.32263639  0.55733221
   0.51164455  0.42739159  0.68639450
   0.39116674  0.47297717  0.27586133
   0.38233528  0.55590038  0.37759190
   0.59276389  0.65375496  0.46979248
   0.48820873  0.67685841  0.63189209
   0.49972091  0.41835217  0.31905185
   0.59380196  0.48995411  0.26930722
   0.48107995  0.71321639  0.50766713
   0.40216253  0.47525985  0.62931143
   0.61592348  0.40238700  0.50978617
   0.40395601  0.38314927  0.51538614
   0.60767389  0.49323328  0.62111925
   0.48718719  0.55015030  0.30383718
   0.48522091  0.63352806  0.40363090
   0.59788708  0.61716931  0.59695792
   0.39462125  0.42727024  0.39662296
   0.60770360  0.44398862  0.38963382
   0.38825535  0.59801967  0.60510654
   0.50941331  0.37153110  0.43911459
   0.50004922  0.55408966  0.66143134
   0.59557807  0.57306364  0.36964083
   0.38040324  0.63587320  0.47714184
   0.38774307  0.51031426  0.50263042
   0.60809854  0.52918993  0.49505693
   0.49241479  0.58721242  0.53114588
   0.49721538  0.50282329  0.43004846
   0.50454592  0.45674774  0.55213434
   0.61134624  0.36800561  0.63134012
   0.41963017  0.35151748  0.63744331
   0.52309020  0.29604457  0.68270677
Direct configuration=    11
   0.51600828  0.32383979  0.55814223
   0.51154678  0.42702555  0.68664590
   0.39075383  0.47438313  0.27535252
   0.38121618  0.55557345  0.37708119
   0.59283152  0.65408819  0.46927093
   0.48811725  0.67615434  0.63197006
   0.49954334  0.42060578  0.31943452
   0.59434776  0.49019359  0.26896520
   0.48108082  0.71252610  0.50685142
   0.40200514  0.47435030  0.62899118
   0.61635168  0.40220972  0.51118625
   0.40377475  0.38279604  0.51615555
   0.60805572  0.49210296  0.62078248
   0.48778430  0.54968785  0.30246896
   0.48518819  0.63363239  0.40364512
   0.59791384  0.61689925  0.59656538
   0.39463760  0.42800233  0.39620320
   0.60802643  0.44448348  0.38974650
   0.38819442  0.59765130  0.60462206
   0.50958672  0.37217967  0.44033043
   0.50013893  0.55388048  0.66136249
   0.59682348  0.57244442  0.36899641
   0.38025631  0.63568656  0.47706509
   0.38705630  0.50980915  0.50227235
   0.60835918  0.52908010  0.49480454
   0.49248006  0.58747421  0.53070927
   0.49720055  0.50399804  0.42931616
   0.50439146  0.45782523  0.55219315
   0.61200264  0.36682796  0.63235821
   0.41872442  0.35020800  0.63861539
   0.52270609  0.29599069  0.68401370
Direct configuration=    12
   0.51575053  0.32443722  0.55915549
   0.51149085  0.42686020  0.68621578
   0.39098500  0.47510907  0.27545486
   0.38130551  0.55593415  0.37687410
   0.59297233  0.65390192  0.46844204
   0.48804258  0.67605569  0.63180118
   0.49947931  0.42192251  0.31964332
   0.59440475  0.48994755  0.26898606
   0.48105611  0.71261713  0.50655818
   0.40175832  0.47371336  0.62877807
   0.61640194  0.40258338  0.51168490
   0.40371761  0.38303311  0.51667649
   0.60826156  0.49146298  0.62061287
   0.48817092  0.54984005  0.30161718
   0.48520820  0.63342428  0.40284586
   0.59795518  0.61615410  0.59628874
   0.39468141  0.42824623  0.39647218
   0.60811377  0.44458479  0.39035731
   0.38822001  0.59687012  0.60441509
   0.50964288  0.37323061  0.44057599
   0.50034113  0.55306245  0.66102701
   0.59695487  0.57260291  0.36897854
   0.38011279  0.63525245  0.47667749
   0.38678505  0.50959649  0.50204172
   0.60827775  0.52917450  0.49466519
   0.49249497  0.58740703  0.53058684
   0.49713232  0.50440744  0.42896606
   0.50423275  0.45882040  0.55156163
   0.61252544  0.36623551  0.63333827
   0.41809486  0.34922297  0.63980099
   0.52253330  0.29589946  0.68501841
Direct configuration=    13
   0.51543131  0.32517710  0.56041037
   0.51142157  0.42665542  0.68568310
   0.39127128  0.47600812  0.27558160
   0.38141615  0.55638086  0.37661763
   0.59314672  0.65367124  0.46741548
   0.48795011  0.67593352  0.63159202
   0.49940001  0.42355322  0.31990191
   0.59447533  0.48964283  0.26901190
   0.48102550  0.71272986  0.50619501
   0.40145264  0.47292454  0.62851415
   0.61646419  0.40304616  0.51230247
   0.40364685  0.38332670  0.51732164
   0.60851648  0.49067040  0.62040283
   0.48864974  0.55002856  0.30056229
   0.48523298  0.63316655  0.40185602
   0.59800637  0.61523126  0.59594613
   0.39473566  0.42854830  0.39680531
   0.60822192  0.44471026  0.39111377
   0.38825170  0.59590266  0.60415876
   0.50971244  0.37453215  0.44088011
   0.50059153  0.55204935  0.66061152
   0.59711759  0.57279920  0.36895640
   0.37993503  0.63471481  0.47619747
   0.38644913  0.50933311  0.50175610
   0.60817691  0.52929141  0.49449260
   0.49251343  0.58732383  0.53043521
   0.49704782  0.50491446  0.42853249
   0.50403620  0.46005287  0.55077952
   0.61317291  0.36550177  0.63455202
   0.41731518  0.34800305  0.64126931
   0.52231930  0.29578647  0.68626271
Direct configuration=    14
   0.51514875  0.32610988  0.56154685
   0.51128463  0.42594916  0.68453863
   0.39137032  0.47602508  0.27572521
   0.38216263  0.55692148  0.37609504
   0.59297465  0.65364586  0.46680269
   0.48794474  0.67541169  0.63109687
   0.49943465  0.42405585  0.32017409
   0.59491252  0.48917939  0.26922212
   0.48100309  0.71259427  0.50577996
   0.40122490  0.47174305  0.62834862
   0.61622225  0.40323378  0.51322310
   0.40383492  0.38343937  0.51847723
   0.60875191  0.48996347  0.62028354
   0.48897493  0.55140977  0.29998239
   0.48515059  0.63346686  0.40116192
   0.59795961  0.61448327  0.59571281
   0.39458004  0.42849981  0.39733179
   0.60838691  0.44478213  0.39150262
   0.38846337  0.59507058  0.60413402
   0.50952871  0.37544350  0.44141896
   0.50058823  0.55148563  0.65981864
   0.59679013  0.57288304  0.36856097
   0.38022169  0.63444613  0.47596953
   0.38610362  0.50950364  0.50160629
   0.60814797  0.52957473  0.49440906
   0.49224114  0.58814098  0.53007125
   0.49685526  0.50534196  0.42807660
   0.50386362  0.46065182  0.55002969
   0.61378545  0.36509238  0.63529815
   0.41679567  0.34733356  0.64215233
   0.52239706  0.29572790  0.68756688
Direct configuration=    15
   0.51480146  0.32725633  0.56294366
   0.51111631  0.42508112  0.68313198
   0.39149206  0.47604592  0.27590173
   0.38308010  0.55758595  0.37545273
   0.59276317  0.65361467  0.46604951
   0.48793815  0.67477033  0.63048830
   0.49947723  0.42467361  0.32050863
   0.59544986  0.48860978  0.26948050
   0.48097555  0.71242762  0.50526983
   0.40094500  0.47029091  0.62814517
   0.61592490  0.40346437  0.51435462
   0.40406607  0.38357784  0.51989754
   0.60904127  0.48909459  0.62013692
   0.48937462  0.55310739  0.29926965
   0.48504933  0.63383598  0.40030881
   0.59790214  0.61356395  0.59542603
   0.39438878  0.42844021  0.39797889
   0.60858970  0.44487047  0.39198055
   0.38872352  0.59404788  0.60410362
   0.50930289  0.37656361  0.44208126
   0.50058418  0.55079278  0.65884413
   0.59638766  0.57298609  0.36807495
   0.38057400  0.63411589  0.47568938
   0.38567896  0.50971324  0.50142216
   0.60811241  0.52992295  0.49430637
   0.49190646  0.58914532  0.52962392
   0.49661860  0.50586741  0.42751628
   0.50365150  0.46138798  0.54910810
   0.61453832  0.36458921  0.63621519
   0.41615715  0.34651071  0.64323762
   0.52249263  0.29565592  0.68916981
Direct configuration=    16
   0.51495633  0.32840461  0.56430684
   0.51109361  0.42403800  0.68116754
   0.39214606  0.47554558  0.27630789
   0.38352374  0.55750362  0.37428958
   0.59249284  0.65406936  0.46615290
   0.48800023  0.67427319  0.63013447
   0.49945331  0.42477366  0.32078795
   0.59570434  0.48833114  0.27002369
   0.48094977  0.71315879  0.50434636
   0.40062100  0.46938288  0.62800271
   0.61578137  0.40332623  0.51497794
   0.40371504  0.38352546  0.52127803
   0.60911292  0.48877511  0.62005676
   0.48934474  0.55402470  0.29817614
   0.48515177  0.63548083  0.40008695
   0.59802033  0.61290714  0.59536680
   0.39409166  0.42831995  0.39875291
   0.60870157  0.44487439  0.39236960
   0.38871394  0.59314473  0.60455639
   0.50897766  0.37709321  0.44315628
   0.50035438  0.55004094  0.65754869
   0.59631390  0.57274731  0.36742326
   0.38067454  0.63461083  0.47581097
   0.38530590  0.50970980  0.50142194
   0.60801110  0.53000287  0.49406447
   0.49185810  0.58963674  0.52838391
   0.49641786  0.50669143  0.42710487
   0.50357450  0.46231467  0.54881496
   0.61549435  0.36372730  0.63715190
   0.41572825  0.34527436  0.64403310
   0.52281887  0.29590120  0.69006205
Direct configuration=    17
   0.51506398  0.32920272  0.56525433
   0.51107784  0.42331297  0.67980214
   0.39260063  0.47519782  0.27659019
   0.38383209  0.55744639  0.37348112
   0.59230495  0.65438540  0.46622475
   0.48804339  0.67392765  0.62988854
   0.49943668  0.42484320  0.32098209
   0.59588122  0.48813746  0.27040125
   0.48093184  0.71366700  0.50370450
   0.40039579  0.46875175  0.62790369
   0.61568161  0.40323021  0.51541118
   0.40347106  0.38348904  0.52223754
   0.60916271  0.48855305  0.62000104
   0.48932397  0.55466229  0.29741609
   0.48522297  0.63662410  0.39993275
   0.59810247  0.61245063  0.59532563
   0.39388515  0.42823636  0.39929090
   0.60877933  0.44487711  0.39264002
   0.38870728  0.59251700  0.60487110
   0.50875161  0.37746132  0.44390348
   0.50019466  0.54951837  0.65664828
   0.59626263  0.57258134  0.36697030
   0.38074442  0.63495483  0.47589548
   0.38504661  0.50970741  0.50142179
   0.60794069  0.53005842  0.49389634
   0.49182449  0.58997830  0.52752204
   0.49627834  0.50726417  0.42681892
   0.50352098  0.46295877  0.54861120
   0.61615884  0.36312823  0.63780296
   0.41543014  0.34441503  0.64458599
   0.52304563  0.29607169  0.69068220
Direct configuration=    18
   0.51566294  0.33064931  0.56657704
   0.51129646  0.42263244  0.67788278
   0.39327836  0.47418205  0.27635804
   0.38391750  0.55790198  0.37334078
   0.59265476  0.65455480  0.46662080
   0.48805745  0.67350705  0.62941830
   0.49973452  0.42445928  0.32187091
   0.59555902  0.48808055  0.27074975
   0.48082428  0.71534447  0.50323085
   0.39971954  0.46802074  0.62808547
   0.61587737  0.40284692  0.51556279
   0.40280212  0.38334710  0.52272613
   0.60944169  0.48805101  0.62007569
   0.48937756  0.55501349  0.29686666
   0.48518021  0.63795741  0.39868666
   0.59810992  0.61197507  0.59532446
   0.39399291  0.42808457  0.40046737
   0.60837410  0.44448265  0.39328926
   0.38867066  0.59214921  0.60498361
   0.50837087  0.37766916  0.44472132
   0.49994571  0.54882627  0.65561776
   0.59605610  0.57302006  0.36738478
   0.38047105  0.63512473  0.47561916
   0.38481844  0.50989005  0.50138093
   0.60795026  0.52987713  0.49336514
   0.49167588  0.59077696  0.52640324
   0.49599786  0.50822531  0.42598750
   0.50327048  0.46379815  0.54842565
   0.61795803  0.36228073  0.63882138
   0.41464419  0.34293074  0.64521501
   0.52341375  0.29595063  0.69105861
Direct configuration=    19
   0.51589977  0.33122127  0.56710001
   0.51138290  0.42236337  0.67712389
   0.39354633  0.47378043  0.27626625
   0.38395127  0.55808211  0.37328529
   0.59279308  0.65462177  0.46677739
   0.48806301  0.67334076  0.62923238
   0.49985228  0.42430748  0.32222234
   0.59543162  0.48805805  0.27088755
   0.48078175  0.71600772  0.50304357
   0.39945216  0.46773171  0.62815734
   0.61595477  0.40269537  0.51562274
   0.40253763  0.38329097  0.52291931
   0.60955199  0.48785251  0.62010521
   0.48939875  0.55515235  0.29664942
   0.48516330  0.63848458  0.39819397
   0.59811286  0.61178704  0.59532400
   0.39403551  0.42802456  0.40093254
   0.60821388  0.44432668  0.39354597
   0.38865619  0.59200379  0.60502810
   0.50822033  0.37775134  0.44504468
   0.49984728  0.54855263  0.65521031
   0.59597444  0.57319353  0.36754866
   0.38036297  0.63519191  0.47550991
   0.38472823  0.50996226  0.50136478
   0.60795404  0.52980546  0.49315511
   0.49161712  0.59109274  0.52596089
   0.49588697  0.50860533  0.42565877
   0.50317143  0.46413003  0.54835229
   0.61866940  0.36194564  0.63922405
   0.41433344  0.34234388  0.64546371
   0.52355930  0.29590276  0.69120743
Direct configuration=    20
   0.51619196  0.33244465  0.56800441
   0.51152255  0.42178430  0.67672547
   0.39419389  0.47348316  0.27651161
   0.38377813  0.55803970  0.37336897
   0.59265398  0.65458425  0.46707780
   0.48799289  0.67314645  0.62877517
   0.49991557  0.42372527  0.32283142
   0.59485168  0.48828853  0.27116356
   0.48058799  0.71619733  0.50288624
   0.39871483  0.46728163  0.62837704
   0.61618359  0.40245169  0.51599826
   0.40262787  0.38312083  0.52303707
   0.60998061  0.48719893  0.61988162
   0.48926409  0.55461286  0.29706257
   0.48517842  0.63947777  0.39712023
   0.59786690  0.61125440  0.59513463
   0.39437576  0.42822502  0.40098030
   0.60784718  0.44397020  0.39358282
   0.38873768  0.59214119  0.60443041
   0.50811129  0.37760581  0.44554657
   0.49984714  0.54849828  0.65509090
   0.59581667  0.57358814  0.36806975
   0.38060388  0.63540041  0.47512511
   0.38489418  0.51023474  0.50164687
   0.60791081  0.52951309  0.49336560
   0.49146477  0.59250613  0.52564796
   0.49568426  0.50898218  0.42538898
   0.50276118  0.46460486  0.54749142
   0.61985063  0.36160974  0.63958082
   0.41397165  0.34202247  0.64531928
   0.52372197  0.29561605  0.69089501
Direct configuration=    21
   0.51618240  0.33240462  0.56797482
   0.51151798  0.42180324  0.67673850
   0.39417271  0.47349289  0.27650358
   0.38378379  0.55804109  0.37336623
   0.59265853  0.65458548  0.46706797
   0.48799519  0.67315280  0.62879013
   0.49991350  0.42374432  0.32281150
   0.59487066  0.48828099  0.27115453
   0.48059433  0.71619112  0.50289139
   0.39873895  0.46729636  0.62836985
   0.61617610  0.40245966  0.51598597
   0.40262492  0.38312639  0.52303322
   0.60996659  0.48722032  0.61988894
   0.48926849  0.55463051  0.29704905
   0.48517793  0.63944527  0.39715536
   0.59787495  0.61127183  0.59514083
   0.39436462  0.42821846  0.40097874
   0.60785918  0.44398186  0.39358161
   0.38873501  0.59213670  0.60444996
   0.50811485  0.37761057  0.44553015
   0.49984714  0.54850006  0.65509481
   0.59582183  0.57357523  0.36805271
   0.38059600  0.63539359  0.47513770
   0.38488875  0.51022583  0.50163764
   0.60791223  0.52952265  0.49335871
   0.49146975  0.59245989  0.52565820
   0.49569089  0.50896985  0.42539781
   0.50277460  0.46458932  0.54751958
   0.61981198  0.36162073  0.63956914
   0.41398349  0.34203299  0.64532401
   0.52371665  0.29562543  0.69090524
Direct configuration=    22
   0.51630393  0.33295090  0.56810386
   0.51150157  0.42191392  0.67696732
   0.39419814  0.47357282  0.27663020
   0.38355934  0.55790257  0.37348575
   0.59240548  0.65458478  0.46710203
   0.48797563  0.67345974  0.62893038
   0.49997887  0.42296974  0.32273902
   0.59461443  0.48845001  0.27134370
   0.48038299  0.71625251  0.50271031
   0.39857744  0.46761987  0.62838865
   0.61627341  0.40248097  0.51609533
   0.40288800  0.38317954  0.52283321
   0.60981172  0.48692108  0.61967367
   0.48918251  0.55422619  0.29769551
   0.48517555  0.63977120  0.39671746
   0.59785241  0.61081919  0.59516703
   0.39440334  0.42840229  0.40074938
   0.60782750  0.44397400  0.39355651
   0.38878195  0.59210165  0.60414697
   0.50835433  0.37733190  0.44568902
   0.49987421  0.54818594  0.65524190
   0.59583314  0.57349663  0.36815623
   0.38072491  0.63568305  0.47470490
   0.38511118  0.51022636  0.50175600
   0.60772836  0.52930383  0.49366953
   0.49162033  0.59216662  0.52555037
   0.49575959  0.50926761  0.42576278
   0.50258959  0.46518248  0.54733161
   0.62001075  0.36149764  0.63963232
   0.41405225  0.34233655  0.64508137
   0.52375113  0.29537846  0.69050551
Direct configuration=    23
   0.51632554  0.33304801  0.56812681
   0.51149865  0.42193359  0.67700800
   0.39420267  0.47358703  0.27665271
   0.38351944  0.55787795  0.37350700
   0.59236049  0.65458466  0.46710809
   0.48797216  0.67351430  0.62895532
   0.49999049  0.42283204  0.32272613
   0.59456888  0.48848006  0.27137733
   0.48034542  0.71626342  0.50267812
   0.39854873  0.46767738  0.62839199
   0.61629071  0.40248476  0.51611477
   0.40293477  0.38318898  0.52279765
   0.60978419  0.48686789  0.61963540
   0.48916723  0.55415431  0.29781043
   0.48517513  0.63982914  0.39663962
   0.59784840  0.61073872  0.59517169
   0.39441023  0.42843497  0.40070860
   0.60782187  0.44397261  0.39355205
   0.38879029  0.59209542  0.60409311
   0.50839690  0.37728237  0.44571727
   0.49987902  0.54813010  0.65526804
   0.59583515  0.57348266  0.36817464
   0.38074782  0.63573451  0.47462797
   0.38515072  0.51022645  0.50177704
   0.60769568  0.52926493  0.49372479
   0.49164710  0.59211449  0.52553120
   0.49577180  0.50932054  0.42582766
   0.50255670  0.46528792  0.54729820
   0.62004608  0.36147575  0.63964355
   0.41406447  0.34239051  0.64503823
   0.52375726  0.29533455  0.69043445
Direct configuration=    24
   0.51641021  0.33315232  0.56795784
   0.51148607  0.42186492  0.67720929
   0.39407922  0.47352681  0.27654540
   0.38344544  0.55792890  0.37363664
   0.59229147  0.65452713  0.46705927
   0.48805417  0.67326725  0.62885017
   0.49995073  0.42232883  0.32267767
   0.59460734  0.48833545  0.27133213
   0.48025431  0.71602185  0.50272480
   0.39861249  0.46773989  0.62839813
   0.61631926  0.40246526  0.51597817
   0.40297874  0.38333018  0.52258332
   0.60971557  0.48673204  0.61981775
   0.48909129  0.55405459  0.29793415
   0.48514239  0.63976912  0.39674708
   0.59778894  0.61084943  0.59542522
   0.39456322  0.42841936  0.40076462
   0.60779436  0.44403952  0.39366026
   0.38900928  0.59239045  0.60416062
   0.50853704  0.37738906  0.44543667
   0.49975697  0.54862550  0.65535412
   0.59596451  0.57342660  0.36828430
   0.38082021  0.63575495  0.47459289
   0.38494492  0.51031530  0.50147725
   0.60792029  0.52935748  0.49350847
   0.49147436  0.59280197  0.52581097
   0.49579365  0.50896949  0.42535377
   0.50259744  0.46476516  0.54782227
   0.61984377  0.36142883  0.63968160
   0.41418326  0.34265910  0.64501477
   0.52367306  0.29537332  0.69031825
Direct configuration=    25
   0.51637657  0.33311087  0.56802498
   0.51149107  0.42189220  0.67712932
   0.39412827  0.47355073  0.27658803
   0.38347484  0.55790865  0.37358513
   0.59231889  0.65454999  0.46707866
   0.48802158  0.67336541  0.62889195
   0.49996653  0.42252876  0.32269692
   0.59459206  0.48839291  0.27135009
   0.48029051  0.71611783  0.50270626
   0.39858716  0.46771505  0.62839569
   0.61630792  0.40247301  0.51603244
   0.40296127  0.38327408  0.52266848
   0.60974283  0.48678601  0.61974530
   0.48912146  0.55409421  0.29788500
   0.48515539  0.63979297  0.39670438
   0.59781257  0.61080545  0.59532449
   0.39450243  0.42842557  0.40074236
   0.60780529  0.44401294  0.39361727
   0.38892227  0.59227323  0.60413379
   0.50848136  0.37734667  0.44554816
   0.49980546  0.54842867  0.65531992
   0.59591312  0.57344888  0.36824073