18
Energy = -157.74534045 eV
Mo 10.780236061593 11.083154151192945 6.754475699162449
Mo 10.841357904854613 12.696498700443273 9.045798693772708
Mo 10.922973838043475 8.906439790332117 10.603240839130239
Mo 11.855348582475466 9.444175681915047 7.9255954363927
Mo 12.09530822599475 10.048393552172513 12.89471538822463
Mo 7.278100174244482 11.40563911612131 10.630446768476025
Mo 9.014268505860526 9.002742959777128 7.215696364008546
Mo 10.422564571257803 8.112297509769107 12.9564945692411
Mo 8.703107122077242 9.30652110432064 11.708008611445047
Mo 10.258218006402249 10.374649777983672 13.92159987996839
Mo 8.814391785683384 6.903554314612952 10.559142903549867
Mo 10.24946185455667 7.647934297284155 8.391300397086631
Mo 8.192834480313362 12.89383948005474 10.063747813000475
Mo 12.538421751975793 12.080896778172022 7.6447107545447555
Mo 9.973298430511457 11.471285103935083 11.69844780389999
Mo 12.036949629445287 11.111100934696085 10.313882517232555
Mo 7.615834350595653 8.139740624119609 9.605126248274107
Mo 9.447892499038215 10.441234790229856 9.074710426340483
