11
Energy = -92.36828466 eV
Mo 7.798956858951716 13.702584248363596 10.826544795057178
Mo 10.106894645428515 12.276956869476457 9.57530202905576
Mo 11.628180141649196 9.168921393787759 13.294321838502032
Mo 10.865467638378089 11.823094121048138 12.303086786508603
Mo 14.220146592254805 10.532739423307591 10.867009581192056
Mo 13.094046193096256 8.486852568070358 12.549048356357924
Mo 11.635895737135174 10.316835035725274 10.656392439645543
Mo 13.53541293500955 11.410939226053939 12.4390210172951
Mo 10.396695763378753 13.8743320531652 11.26057790222785
Mo 12.273871866035137 12.541830759391638 10.020120825416136
Mo 8.150328133151659 12.364989195119875 12.02135131681814
