14
Energy = -120.92344904 eV
Mo 8.636416861885854 11.770370674297668 10.172754940443907
Mo 7.463500604978237 9.430149977921449 6.769331662565973
Mo 9.45971342560215 7.384707600807798 7.331616980341752
Mo 8.984667104220454 11.677771448022817 7.3757982128825725
Mo 10.329902580319258 10.381743606697018 7.053632758212114
Mo 7.836169063231038 7.1286698010721 8.390996570642768
Mo 8.625489899326325 7.664651052846943 11.29084645303608
Mo 10.093270097994335 6.815037250750987 9.813974084057357
Mo 10.544971721164117 7.563236789782291 12.307244128712718
Mo 6.755884861488176 9.932817799473145 8.42591074284013
Mo 9.283268300161103 9.343520686831845 9.23208218924871
Mo 10.14672184499403 10.113956520235206 11.787872434013792
Mo 11.584750812487616 9.234263771905606 10.611959911131487
Mo 10.536948745015957 11.840779019355152 9.71765489330518
