17
Energy = -148.15734058 eV
Mo 13.299015867178644 8.777635635611581 9.40980426574369
Mo 11.366445171128541 8.7268234553157 8.042435793225243
Mo 10.661275530495743 11.093053318326307 6.5607032816603725
Mo 10.029122073184727 12.624091618651548 7.2699973058772045
Mo 9.732565679967587 10.59847357949458 9.25677149821017
Mo 10.665597910967511 11.886254567094594 11.829866001097837
Mo 8.960644178389158 13.320712405649163 10.05791795217183
Mo 9.017810636732126 9.375216409511845 14.025369685362032
Mo 8.476560609202869 11.121061474050558 11.725806250370283
Mo 11.891008085627242 7.487585509184553 10.422725097663069
Mo 11.025464537761199 10.032147778722832 14.14692683545002
Mo 9.968787207586363 9.082840435622728 11.691636632507844
Mo 11.81671703741333 11.119118022136137 9.253215341955086
Mo 12.141573119368068 9.825135602000062 11.690454468106184
Mo 9.724432409466147 7.89966114723329 9.32203092415013
Mo 10.821618042950103 13.708607225392566 9.897289641293582
Mo 9.320489053216914 11.810180716420172 13.959606315717306
