12
Energy = -102.37501506 eV
Mo 10.699593467726315 12.618224460432954 8.412808138124689
Mo 9.06382852305343 12.634248426632329 9.2101791969236
Mo 10.278526042952686 10.418986520168042 10.463931911866643
Mo 11.488126370928484 9.973198566147769 8.295132798094695
Mo 9.513329502045739 10.08984652088031 7.745327227186967
Mo 8.20793988387605 10.024186438099854 10.067648783283436
Mo 8.891123777619747 8.25661298957121 11.967543014941528
Mo 10.035543676125656 7.721951482048868 9.256196788747
Mo 7.443097617255091 7.502291107376132 11.199578677301355
Mo 7.2911429791115925 7.981340003317399 8.188913753337545
Mo 10.213835559797404 7.355558551833379 7.436695093351773
Mo 7.690660212460911 6.253476993011135 8.46419751392405
