13
Energy = -111.41445768 eV
Mo 10.26973017076746 9.788837771358688 6.615287823722648
Mo 12.015515538071948 8.462920063068381 8.358672438069888
Mo 9.964437767132667 7.391023185748139 7.7405888201889885
Mo 10.015978139184824 6.435920236361515 9.862339812533845
Mo 9.167139200031167 11.094123326753428 8.682969056771107
Mo 11.76747454222434 10.68985019837604 7.72813153829774
Mo 10.184661517947616 9.267423113663098 9.808498250615306
Mo 7.991873658850705 9.058042829796381 8.35767363478882
Mo 7.932909251657387 6.431914771247076 9.440054075295961
Mo 6.5496712846434875 11.306246742084758 9.669188399975772
Mo 8.095594323693257 8.14698839423103 11.004349598541928
Mo 7.995318753799231 10.811695550807366 11.06984654103879
Mo 6.122580039961736 9.04140023721773 9.976435622668342
