19
Energy = -167.77198519 eV
Mo 12.534589935123277 11.613811173393879 9.472505576983487
Mo 10.953745209131233 11.31498564981865 7.117286831665837
Mo 11.801488116025716 9.618288177922079 7.266197344906883
Mo 11.71592390195245 9.952317295817714 11.523521064875187
Mo 12.341598731768334 8.664041538346021 10.191612497473916
Mo 9.212819628253131 9.163044012146413 6.60870714984076
Mo 10.858724010687277 12.301309462495327 9.916429328927626
Mo 8.035969895469844 10.937057527707413 7.910864106731996
Mo 9.926116976581046 9.810351673586386 9.345795994858758
Mo 6.457017528015042 10.474362572312305 10.235609834423707
Mo 8.766803574041802 9.617399387433144 11.69737707043237
Mo 6.502908798864364 9.414587344520395 7.441111962015531
Mo 7.868071913632173 8.393564352991055 9.256054430364316
Mo 10.125964375764346 7.651652108939673 11.167127513267456
Mo 8.150740579136698 7.190032484645165 6.990860818724461
Mo 10.151879571165615 7.280219323420778 8.372078854897756
Mo 7.294046687800349 7.874714382069424 11.569783609324162
Mo 5.305292601219756 8.91072199261304 9.910739453824434
Mo 8.713992320051197 6.123195691789537 10.21555744031953
