21
Energy = -186.8460071 eV
Mo 11.936991784587395 11.119769603586397 9.241363641272773
Mo 11.239717735576567 8.380798078125675 8.852024295154909
Mo 12.217860422300781 9.875826647699805 10.752905663905075
Mo 9.903558346863019 12.987546525546142 10.294160795521485
Mo 9.56558626591687 11.96285716896513 7.645640582003068
Mo 10.11691379269709 10.331042254172415 7.024463530686771
Mo 10.676352691083299 12.018752630898653 11.716964945807403
Mo 12.248524277464954 5.97262354639725 8.295025855421041
Mo 11.528426069221245 7.181922983327407 10.895118973134938
Mo 10.409391738717314 7.183059307487149 6.376456519218512
Mo 6.957594725684064 12.436553212911328 9.558293976357207
Mo 9.332786424377717 10.189847584953393 9.848444692863694
Mo 7.267705548806126 10.117558568065204 7.963873246829667
Mo 7.987651253615522 11.431993728816705 11.786853762455312
Mo 9.825296062693507 9.17771318826327 12.12370960678238
Mo 8.959173384659104 7.6453416372013345 7.381369384104495
Mo 10.500832542036546 5.50740880892558 8.782993339995231
Mo 9.305112871213664 7.4686263580399315 10.53340683966366
Mo 5.729244484565519 11.131165026051448 10.149567199284974
Mo 7.019435430213519 8.68446405884274 9.238137387378575
Mo 7.411668885094638 9.368913709405193 11.823812373322497
