23
Energy = -204.97063484 eV
Mo 12.881839513397628 7.426722834731343 10.476000066224907
Mo 9.777682310439706 10.258099521680437 13.6174155845985
Mo 11.385203197712656 10.12158979247168 11.398263877627208
Mo 10.434283013199142 7.982492143131694 12.047014599798448
Mo 11.591162061780233 6.071286301544321 10.666377806348581
Mo 13.08133180358352 10.065788682693457 9.454566640751144
Mo 8.42713694074937 9.816782093290048 11.418540750062768
Mo 8.930980466642009 7.231588651458943 10.1771212946393
Mo 13.403859979409157 12.496786504965282 8.433481141710024
Mo 8.782149459748068 8.549712537098804 13.784020495157561
Mo 10.844125534959716 8.3093894193019 9.074547298725344
Mo 12.230372772886021 12.613553162029431 10.046165942020428
Mo 11.02959890009498 12.233611227217573 7.563757247244102
Mo 10.111933749215472 10.80666164822517 9.33319781818095
Mo 9.611987633184194 12.590629443725945 11.466698156151502
Mo 6.6537360236417165 8.064988280692965 11.189760798963071
Mo 12.079053097344936 10.026364712525655 7.451391904934996
Mo 7.972887599726167 9.004316575363516 8.807012793703423
Mo 5.953931030039067 9.658832669239944 10.086307751240538
Mo 9.582609152739968 13.516127832066566 9.710460709909011
Mo 8.230253551812135 11.366071145230025 7.371703865313059
Mo 7.663538533771014 11.657249712725235 9.931083553198553
Mo 9.461456609731243 9.90946784479076 6.746636118650565
