22
Energy = -195.66965083 eV
Mo 9.046318558744655 9.819468842188979 13.139539161594595
Mo 12.434136835772 12.135059410147521 10.864544469034744
Mo 9.488180430493104 10.015380211917236 8.489333595904128
Mo 10.751605166113121 7.876055806627448 9.291284201339055
Mo 8.737244582319304 12.20530940733877 14.751592659188253
Mo 9.656468997281431 7.52454153946135 11.796152643985282
Mo 10.334678222686183 12.332401792115233 12.330834274269456
Mo 12.875374956854868 8.080829330810786 11.015234406831572
Mo 12.572874630137758 7.549037504444264 7.91330900238876
Mo 13.409605880316214 9.654869556186267 11.764608751172108
Mo 8.475413707487684 11.121445973737112 10.898994315495095
Mo 11.127385716604103 8.585606888447655 6.5732560112522505
Mo 8.197433875418167 13.657122013861049 10.14651814286163
Mo 10.708455861651071 9.957529407759532 11.261043599286491
Mo 8.30020840238834 8.412959538692398 10.627116421870515
Mo 7.654715651224599 12.45595585421243 13.349692700724606
Mo 12.197752636956087 10.178327353783496 9.05377844593654
Mo 12.744082073460415 10.078200914899089 6.691790360028621
Mo 8.040277876695146 12.764275515538744 8.529863110259905
Mo 11.061516943460791 10.719222357681884 13.776787686182105
Mo 10.524771218257355 11.386179755871606 7.138304570969185
Mo 10.559934279298153 12.362335955781166 9.522138171874591
