38
Energy = -348.15249989 eV
Mo 14.693122581830464 14.12607761571522 9.580159817314492
Mo 13.718025030077232 12.518320494318495 8.40211612538395
Mo 14.660691057900078 11.834175664177716 10.814166494094623
Mo 13.299641310232845 9.833127421240118 9.15942574340362
Mo 12.382874840786922 10.799545631241205 6.963650570452936
Mo 13.56969043198459 13.814557364419539 12.108122395508929
Mo 12.387389109092352 14.52845549474096 9.787672427042464
Mo 13.773187998898129 9.845191602659536 11.824292062151454
Mo 10.856284998473479 9.141816676493878 6.096095703799977
Mo 11.988908255907372 8.05523301206805 7.730818279948318
Mo 11.142422620640701 12.810446930021719 8.129391965735676
Mo 12.086633624945264 11.956198737285648 10.67963854587209
Mo 12.941116101865616 11.622856564196159 13.402369430306166
Mo 12.970358984430433 7.45443212222168 10.404226769844232
Mo 13.225632674903062 7.554305196085165 12.5846646149566
Mo 9.048061526895696 8.38100839621574 7.696769922690789
Mo 9.262037675489067 11.386425515711517 6.8394013042187725
Mo 11.498204260992614 14.013687730687995 12.49166655110348
Mo 9.963618501406481 13.611407717523415 10.248437101150461
Mo 11.23444080401445 9.343375061684114 11.195392251093022
Mo 8.627283997403659 13.330027681393867 7.908507276176893
Mo 10.550141947770387 10.117950647866822 8.727325560317711
Mo 10.590258794788896 6.872851593864901 12.272898358807021
Mo 10.475462230226986 11.637609045113878 13.100079472909382
Mo 10.47660742511948 7.206093321366919 9.588624060824666
Mo 9.168159603911574 11.191373288485515 10.88604321946114
Mo 11.563816578473332 9.312401761854126 13.701659195169597
Mo 7.7146817107435295 10.720080112540508 8.591030256740254
Mo 9.433836653365123 9.996441113248945 14.771950107976897
Mo 8.559888852469212 13.576066970745037 12.531730242581009
Mo 8.446272998508602 8.562605855460287 10.147552588866867
Mo 8.818658332551442 9.041125760685661 12.784104398329116
Mo 7.362600208794034 12.547180667934912 10.074418575819129
Mo 7.688401623696317 11.89986876218331 13.11989573088331
Mo 6.466541366962257 10.133158426643037 11.222739687215178
Mo 8.767268371538968 6.319454436041838 11.746398417197005
Mo 6.420904857927939 9.474300862767478 13.410385954393174
Mo 6.520321583570978 7.7842142716840526 11.629628348849012
