35
Energy = -318.77478885 eV
Mo 6.935264961277182 8.717862471616895 11.692211166060238
Mo 13.166009910076887 15.330340693863576 16.0301128557848
Mo 8.257438107251156 12.463784452992364 12.449885698977226
Mo 12.46455396377503 11.104909327221936 10.459336456681513
Mo 15.511755032215243 11.436495232497453 14.936826227561227
Mo 13.427964494071928 12.426426992011704 15.433627292366609
Mo 11.377978337909582 8.497826310649632 10.092171282073755
Mo 9.545988495693988 8.16061078175401 12.337911673901253
Mo 15.85666422119185 13.058519050212457 12.733793261445596
Mo 9.63146306124115 14.644287848774244 13.218005903894607
Mo 11.316423648896938 15.279248379321576 11.52156803042437
Mo 13.965315072653887 8.973942261609363 11.425814710715892
Mo 16.209006593000463 10.324434373059713 12.308024879239285
Mo 7.678275856526028 10.793317572711297 10.6243239856292
Mo 12.172657339661713 8.924471951364913 12.539906483038061
Mo 11.75597192628006 13.417207153908523 9.700929653319939
Mo 11.305364983642988 12.770031650651509 12.355884340789883
Mo 9.499698075361152 11.766823707691337 14.376733979811666
Mo 9.455749764080434 13.065946052793468 10.351465709749718
Mo 14.066644491086782 16.600537783979114 14.838633470600072
Mo 10.195708624717751 10.959438564810577 9.270856286069872
Mo 13.816548366623623 16.498704192239977 11.681149203549369
Mo 9.223413573008388 8.520187234440485 10.00796658089044
Mo 11.61896016877712 16.117486200900434 13.816493462314284
Mo 14.210898306258139 9.692193397785038 14.320508758883763
Mo 10.074866377333922 10.552433282861502 11.758207552493136
Mo 15.429481128511744 15.860432174879847 12.296818994298176
Mo 15.449801112530482 11.233848372714576 10.711010510784028
Mo 13.8328763480941 13.701323660586324 10.917166544751314
Mo 11.634046462795137 10.788414405397605 14.42104948004432
Mo 13.6666202238785 11.560505253869042 12.80286367163748
Mo 13.296088068054898 14.205337890514881 13.363564194180979
Mo 11.109914230348476 13.705629300680862 14.903522865964883
Mo 15.385695732394797 14.147386906246293 14.754717192123401
Mo 7.691612046647553 9.751158365169621 13.235198932349165
