34
Energy = -311.49995784 eV
Mo 8.722749864475048 10.633928051528436 8.108189464256451
Mo 6.744226846184938 8.36971927192982 8.235010437061598
Mo 6.147838756954475 11.124578001049688 9.234829537679964
Mo 11.000519010102403 12.49819900520463 7.644114489633373
Mo 13.699841044197617 10.859262535082898 7.198651412839781
Mo 10.104341069740366 11.350250248954193 10.359834117599034
Mo 9.54204619126817 7.805587827220501 8.590841363963287
Mo 13.944502085122958 13.567136354556919 8.28754971450361
Mo 5.536786095171816 9.884206629049592 10.611671485969715
Mo 11.177859499239467 9.855780406995455 8.20464906796226
Mo 6.826748686439116 7.220579399120655 9.67139730201506
Mo 8.183266339622543 9.50682372348154 10.380926692255862
Mo 11.159133085605037 13.883613221304302 9.021070396436533
Mo 8.463889606605077 12.832126827818387 9.092127034630318
Mo 7.566607631862753 11.879512376123412 11.309396417898602
Mo 15.237957801824804 11.520878416024322 9.666636529928013
Mo 12.706652400023563 11.558382662770317 9.711176116939633
Mo 7.223806286356181 7.950579214554817 12.534506155147236
Mo 13.902020244754251 9.369509996386393 8.337919738461137
Mo 7.1727883427622325 9.762518480308145 13.074489428614784
Mo 13.912009050111818 14.008616017920883 10.14540308652322
Mo 9.651824504092552 7.185249791616711 10.64482675917792
Mo 9.590250093969274 13.930170470737295 11.39059591679345
Mo 11.587491429804444 8.785537649964487 10.309509069792544
Mo 11.486766185542448 13.43027332653737 11.8218393172295
Mo 12.045314634317759 10.722909422801575 12.253475376572279
Mo 9.599580484302951 11.651813858808788 12.98382841983296
Mo 9.748190281576564 9.213015010239893 12.482954587598984
Mo 14.184378087666488 9.434810202669428 11.136674185173616
Mo 12.476662220863984 8.073582324574883 12.912126967746115
Mo 14.533694800775269 11.62812317974531 11.817482715868833
Mo 11.698576891323743 11.664324874203025 14.604659666792378
Mo 10.976025788440932 9.783471143758792 14.730282813720814
Mo 13.684346206408968 9.347770485078993 13.831890990497362
