36
Energy = -327.53222127 eV
Mo 11.33464234090964 12.300425528247416 8.404468212729004
Mo 7.601851404525423 10.481152686089395 7.251821977206413
Mo 7.308800923987571 10.092145002491694 12.723058845751659
Mo 11.586053630441384 13.816867510167729 10.483002218265138
Mo 10.730635068400344 8.331544474062204 12.889087543386612
Mo 9.242404570225078 12.23906067332161 10.211369117018886
Mo 12.043242500005555 14.514991398568974 12.953166478252918
Mo 9.876492580985806 9.84976580271323 8.337985554122012
Mo 9.30078790857858 9.322554367711119 10.645308149629338
Mo 13.775204604380345 12.80370025197581 14.730638879478681
Mo 13.766027010406196 11.454460230986609 8.251391203172131
Mo 7.453430429394282 10.642630740213992 9.889250127225493
Mo 14.71526296807873 9.1713531107653 13.337486096029162
Mo 11.192140920142045 12.442424477788602 14.037372219015737
Mo 10.025156111944787 15.889561354633145 11.700054304302226
Mo 7.035073291525837 12.027975863230418 12.247536122943437
Mo 8.519903598756732 12.160095653350478 7.559414094145363
Mo 10.948026039693259 7.771595406297769 7.526292201528934
Mo 9.36846189099468 13.672648998057596 12.344373354920632
Mo 13.468067747615596 12.62767125932794 11.982106498574526
Mo 11.5804448093505 11.0389328435258 10.420833372316594
Mo 10.719624300678898 7.371049333909037 9.540210296625784
Mo 15.666381117443862 8.15741999326681 10.809238599506092
Mo 15.49906110664254 11.074728155071364 12.799623713644928
Mo 14.450141595740352 10.486592889988927 10.61497350203833
Mo 10.779517615580836 9.440679323654937 14.460979486919653
Mo 12.955956393616894 8.454956829808527 11.034881935605739
Mo 12.659457076131895 9.147002527676966 8.759257032079173
Mo 9.64176169458585 10.907846805401292 12.661478458377397
Mo 9.48890542936494 14.152212995574091 14.985790895579987
Mo 15.08587410076223 8.187234116093547 9.014934080637094
Mo 8.493024925384848 12.531271895459083 14.746572939097701
Mo 12.65426365828246 14.103945024215971 15.516000798312474
Mo 13.916369451008709 13.157809456845285 9.527744599453529
Mo 9.587146700161368 15.015040709553645 9.85820064317191
Mo 12.707151907329317 10.33739973301122 12.920843871992842
