3
Energy = -21.05077714 eV
Mo 6.575898102301927 7.021294211664639 7.700674
Mo 7.585048401779879 8.811674789679312 7.700674
Mo 8.941075495918192 7.269052998656054 7.700674
