34
Energy = -309.26515095 eV
Mo 14.110123984358138 8.643087292757725 12.802141504692862
Mo 13.486344520076502 9.269557213466644 10.304478613673622
Mo 12.724571585369226 7.415334760172487 12.172345011481285
Mo 12.150823249198703 7.587357378917943 9.108273030800568
Mo 11.382203560450447 7.64016017685736 6.369959934416813
Mo 13.133898693223543 9.211827582895882 7.419992565143231
Mo 13.857315344784446 11.3595833229108 13.732412608466344
Mo 14.137581506065512 11.551327165852644 11.839995800328529
Mo 13.618989190335293 11.29827006840673 8.746507241600247
Mo 10.33021823397583 8.264471572288683 11.027447530513918
Mo 11.118186386099786 10.04776301549657 9.129679807119064
Mo 12.027933060637382 9.142023352133354 14.713601919510248
Mo 10.783647370957851 10.126845787982143 6.594933468826242
Mo 9.983315342303742 7.756770390587778 7.849143663928839
Mo 11.263218644885333 10.861969041751268 15.040931652291205
Mo 11.768087517366386 10.132794816190982 12.145073078484435
Mo 12.841825486577727 11.48763764192202 6.339086716489024
Mo 11.25970967864473 12.52823233661924 7.622135945932319
Mo 8.400279329501116 8.89095766125438 9.762034087300755
Mo 11.897738109344786 12.465433275627408 10.104692695380782
Mo 11.562042428087285 12.59960720970046 12.734807120147307
Mo 7.888969819628849 7.896476866929196 12.31284594427874
Mo 9.490240471560195 9.544820464398237 13.447592223074416
Mo 9.528248784210295 11.190133157137875 11.134215606481423
Mo 9.30739622377761 12.31694044790787 13.628586172393309
Mo 8.618598891759007 10.907680017772075 8.300847809028538
Mo 6.368668061870064 8.991306230459857 11.418122630916047
Mo 9.25776460328723 13.05377960561413 9.188639637526599
Mo 7.485444960240993 10.692643429947791 12.894842454130105
Mo 10.022607011156577 14.072934778051405 11.336692651763343
Mo 7.1548129622932635 11.317918461912033 10.218399846735373
Mo 7.866789497102859 13.339090929700848 11.780732647607984
Mo 6.612040085569736 13.972541027321062 9.205277940611793
Mo 7.653353176569581 15.321701312787301 9.898645027080033
