35
Energy = -320.25617741 eV
Mo 8.034794565428594 12.664058980671411 10.686695419157163
Mo 9.873945076103668 12.715543486820591 9.665479801428207
Mo 14.008462780808788 11.112258219655729 16.214744226636157
Mo 14.393174287333522 10.626071883880767 9.45911350517356
Mo 9.505047610104393 10.140069191930058 10.687357584592858
Mo 16.49451668235734 11.165812296925369 12.468781030157722
Mo 13.13026163117078 10.568778929283868 13.69626768410747
Mo 15.22091925112029 12.462510564742432 14.067648379590015
Mo 12.84909232151103 8.059805002003573 13.074893660512833
Mo 9.669710273193623 16.152588764103957 13.266175730391366
Mo 12.592563653948883 11.772193770932214 9.278566981713087
Mo 12.480221600399835 13.225933037982394 13.585230795729592
Mo 12.11206342092487 12.01148317897745 16.203717766245234
Mo 14.848384074312802 9.469045800920112 11.789405760802627
Mo 13.742834670016107 8.554034566568516 15.515644970441295
Mo 12.140404676990705 14.336294193901237 11.14903384509846
Mo 14.168731743493534 13.7760428383052 9.753050305903285
Mo 11.226341013551087 11.630256699843386 11.762181705491097
Mo 14.193070743630221 16.165848452478496 11.347978578280031
Mo 14.079910140048648 12.1033487481179 11.58948472994855
Mo 10.337928193697607 11.734294047430023 14.188448547709285
Mo 9.659979237423704 13.628079122353238 12.416875645370139
Mo 10.750538346086229 14.715858342917292 14.774693565112093
Mo 11.783498641312324 9.347448456064956 15.583983045353802
Mo 13.686898488755425 13.972661741966213 15.353834380248271
Mo 11.79141701614772 14.468251708207506 8.284983871119184
Mo 12.360516542774214 16.09719575118963 9.015439709786078
Mo 11.270407547371285 16.91229720648421 11.773131365069453
Mo 12.360894770815877 9.5770769700707 10.875754134829382
Mo 15.673714809996564 9.802903836237032 14.123836040558952
Mo 10.844156513089517 9.185134103792537 13.06097435237362
Mo 8.613491746840745 10.75740922693416 12.532588456160875
Mo 12.41689452178278 15.951826732751655 13.561165665455663
Mo 9.95073032497101 15.171493056532583 10.427162688947186
Mo 14.799912159424258 14.692623360208703 12.430149759240408
