34
Energy = -308.92498485 eV
Mo 15.354502287696203 7.396621755278964 12.497670073048702
Mo 9.669319929521947 16.03107247483161 12.238967833284274
Mo 9.559452319486159 11.35244955538733 14.27817857313393
Mo 14.099664689883005 14.582519300754829 15.292934111063953
Mo 12.0145102171877 14.567073915514444 13.35330613241983
Mo 13.580909931696384 8.829135404218498 11.286846990914745
Mo 12.009213615310589 11.898718620351698 14.91630281055833
Mo 16.423042130986 13.906606976301951 14.425409217271067
Mo 9.312097896900974 13.464319526502422 13.062056760731396
Mo 13.859121785366577 16.75521056910351 14.189753078960837
Mo 11.186505979547004 16.79109145839744 9.834829140076474
Mo 9.516443987152881 12.813413312704748 15.77291206473601
Mo 14.103809761750512 9.821793786069895 14.968130652074633
Mo 14.955471948861478 14.733868236394272 12.597208726529258
Mo 16.0953892913896 8.911503314922607 14.261641210680528
Mo 15.603569808141803 11.856713975535964 9.86577601375184
Mo 10.956759841455405 14.260212737551408 10.933424959069932
Mo 12.48836570071961 9.778311926044806 12.980919141476399
Mo 14.134295822480183 12.417043206913293 13.298306947944424
Mo 13.73403782007437 7.5004158448683755 13.787914802740731
Mo 13.318746200733509 11.276718764019746 10.704084380045492
Mo 14.464531853391142 12.169384149513476 16.00144098918359
Mo 11.358816324857758 17.305620603966506 12.891421311660022
Mo 12.128049063240931 15.417568582104053 8.889059660732377
Mo 13.57769762643191 13.68852361273774 10.654964077456688
Mo 13.059110266487092 16.156199038956405 11.469291598166324
Mo 11.519165426703404 12.163478666422694 12.285627287710641
Mo 16.359259570607712 11.552062040636777 14.799749100222718
Mo 12.096894802156173 16.636544569040332 15.398047561342684
Mo 16.778286746813905 12.57288931168564 12.306499570752488
Mo 11.825723340917962 13.94561260477435 16.11848508899913
Mo 15.364465947667256 10.416840303934196 12.327203382872565
Mo 16.095042248431604 13.867251013464049 10.276258737136194
Mo 9.97468592355881 15.190002913988046 14.659669009331635
