30
Energy = -271.99402464 eV
Mo 8.629144687537366 9.450077418830501 6.954182065861782
Mo 10.64237021426824 11.348313751561529 6.7902489464073295
Mo 11.476543874932467 9.202578494807245 7.591410407617813
Mo 8.178928995414035 12.337600277540032 7.717038260979924
Mo 9.456555499381041 7.800224681247443 7.935892245971583
Mo 6.951872383756375 11.07389354496473 8.637579300172993
Mo 12.746739929171572 11.882977975847767 7.695458751695634
Mo 9.642432005506773 10.43226469406907 9.217650357435563
Mo 11.048615050913526 12.546010962400786 9.2950441353258
Mo 7.834654217494069 8.806291424681325 9.781406655853242
Mo 13.217456009207424 14.213181999066279 9.336750506174177
Mo 12.904065808997375 7.892997708584055 9.119855845949292
Mo 10.3602299317997 14.672579698064101 10.441621499714259
Mo 12.83311340517907 10.238302054476371 9.64990005898567
Mo 8.41308445331684 12.8664972854126 10.18488244234547
Mo 10.716428559916416 8.235559386100006 10.366142845124555
Mo 12.942126466294107 8.445710967630975 11.661550167281128
Mo 13.686885899078385 12.784871404589383 10.437762437571124
Mo 8.411906753779492 6.532445732974388 11.055830213377515
Mo 7.079499168344029 7.5114116712351215 12.017275871873963
Mo 11.017081095526565 10.714469265576502 11.580674210903389
Mo 13.269590633682348 10.551080952683746 12.502870885746614
Mo 8.13654456151897 10.705044323929627 11.467971241868296
Mo 9.43411250550152 12.763543619125402 12.407106800281165
Mo 11.31313917065333 7.098477514092925 13.135172625014146
Mo 11.57346055373795 13.758748426248246 11.9300824948374
Mo 9.376239630098741 8.668120534634019 12.518250422115027
Mo 11.67100853856418 8.786186202474617 14.113126773620248
Mo 11.297477070492697 11.810662042850831 14.149279695586598
Mo 9.63793955213231 10.769122610496558 14.207228460504753
