36
Energy = -330.12094062 eV
Mo 6.925003191302051 9.9746685968848 12.16738356107333
Mo 6.285395975023073 8.520815615714984 9.655386962619698
Mo 8.6714293527388 7.747264870709115 13.103111614439712
Mo 6.719762520684327 7.340034463912864 11.05005292316334
Mo 7.367764448625637 12.106599454092342 12.286268513202321
Mo 9.444515691991828 10.543897820140998 12.99173148560002
Mo 7.202272821376167 11.118827081771196 9.755299300339324
Mo 10.073641809867746 13.268411208788958 13.217668816329276
Mo 8.967438954024756 9.302495543213254 10.612974813367824
Mo 9.510536594933283 6.676091378463826 11.823679254931623
Mo 11.210719736972596 8.859578619320136 12.336641186397836
Mo 8.70394135687238 7.1666553925364145 9.050141920855891
Mo 9.3816059592617 12.115041478338503 10.621903834121783
Mo 8.568544788415565 12.425555755325668 7.819470966456754
Mo 13.496821789341714 7.406253019460279 11.12662270060961
Mo 11.338921111228368 7.642641289382949 9.890951263895701
Mo 8.451286788805934 9.604116323540001 7.998798037896247
Mo 7.2447828375538545 13.961577451184027 9.872065039050344
Mo 13.184551410792842 9.898466010884109 10.437355391132819
Mo 13.267931511469106 9.568416295910367 13.324163342917235
Mo 10.348807867811812 7.988266339905696 7.69734065342453
Mo 8.87554973547818 14.764252620442031 9.400603048691346
Mo 11.888781035253903 10.88209662629763 14.201301371426615
Mo 8.991142534620794 14.454386840960316 12.251319566310942
Mo 13.390222563692614 8.145966942564087 8.397207182035295
Mo 9.98506377439889 11.132470584688868 6.793524748872753
Mo 15.111745492594089 7.964851206872877 9.680868547729494
Mo 10.953115599350033 10.294037011805507 9.162270606546299
Mo 11.73956396896496 11.535172906438836 11.807780476767988
Mo 13.100878166187613 10.90271564935006 7.773285895888446
Mo 11.013217457777763 12.930970003106367 8.5112610291452
Mo 14.550187623402108 12.045613287789882 11.979271428503855
Mo 14.906515278089419 10.725237757132744 8.887162320262021
Mo 11.407561799132024 13.93108933686003 10.649247616964473
Mo 13.375615126470663 12.7052728406862 9.836978117121145
Mo 13.409748739820435 13.4365942518438 12.641785752088564
