30
Energy = -271.34063042 eV
Mo 10.652685418693903 13.5985563752297 8.383409771339124
Mo 10.96927599318274 12.958991496149135 11.143449755142155
Mo 10.796277434512357 10.91126344020579 9.343381807607607
Mo 8.792094072244357 10.047324511957163 7.89210797963962
Mo 10.750828953098912 10.273409919413616 11.981615219802784
Mo 8.064750123597626 12.695020902827228 7.184109119947177
Mo 8.673652555840368 12.112306462556143 12.570327238045849
Mo 7.180276061798773 7.893703358905765 9.054681052468842
Mo 10.430533331485208 12.458262259770686 13.504239787678515
Mo 12.092568446357564 9.312221330009885 13.908856365908997
Mo 10.785658561665754 6.13469485265559 9.42409090314967
Mo 9.632079165731263 8.508155945025083 9.978339144930752
Mo 8.90920832265647 8.724702421242924 12.714346773887502
Mo 10.682731443663409 11.467858610749975 6.932202936613187
Mo 12.702877014239633 10.066749789567503 7.597597367331165
Mo 14.446673947274457 9.003902233856293 12.249288106692442
Mo 12.503142385571334 8.73082830699952 10.19336988984442
Mo 11.131437659628899 8.655847547525493 7.6342059282693775
Mo 8.463108115100315 7.35220542934452 7.702934926083175
Mo 7.9344272035450105 10.089793778634874 10.771112958205789
Mo 12.980426791594633 11.064561910274405 13.292875822086105
Mo 6.215996169893078 10.950917945531986 8.887992364412014
Mo 8.812490151320379 12.442267891793355 10.004268020024137
Mo 10.659616576077399 7.507197337620601 11.994018524399607
Mo 13.145456524481993 10.804296607842877 10.66514111176357
Mo 12.521069206072447 12.90983513480966 8.77744922234316
Mo 7.0750930853591685 13.718954217650678 8.368035820798868
Mo 9.114403259467931 5.832187817943963 10.233147066100344
Mo 6.057654019363609 12.040297950064222 10.460367407511141
Mo 13.390990201145843 7.380662099401319 12.37527983303996
