37
Energy = -338.07560613 eV
Mo 8.332691343886625 10.00757309714201 4.627756054411401
Mo 8.503017324450159 5.515341294158372 5.093089398180151
Mo 6.323931440151087 9.069480051477504 4.831312233615826
Mo 10.937546817583096 7.962880828511349 5.875053382166765
Mo 7.219346525434105 10.900295968027462 6.773034090868637
Mo 10.006589762878491 10.063412488482658 6.624222635698439
Mo 8.30830887017717 7.880598948900405 6.058515302944551
Mo 5.016271662462344 10.367255582020322 6.570830128352151
Mo 6.646339874118292 5.826688971262489 6.698565486574206
Mo 4.160441832939023 6.382782195663573 7.491758588959869
Mo 9.536917611584784 5.409742788322808 6.942527847319646
Mo 12.260722141491282 11.38037773189113 7.575280864911806
Mo 12.641235216050067 9.274809382076219 7.520064026753749
Mo 6.035166663884548 8.354574880813368 7.504854611219406
Mo 8.7584521856308 12.200354643675432 8.848781402636144
Mo 12.579594772015076 6.2034276589987 8.721003371950141
Mo 10.437117608606195 7.617224526765982 8.179504970619979
Mo 8.28436801297967 9.201479735987766 8.527900328022724
Mo 10.000251544513404 5.656268090926703 10.102250643251093
Mo 10.534232411371331 10.182484414085145 9.383238324051112
Mo 12.360942532259928 8.307411735879738 10.13806505321251
Mo 6.183459389671759 10.861884562207473 9.208748319312312
Mo 5.134971288623688 6.168863776729453 9.158451185814666
Mo 12.512150383587295 5.52260197271038 10.622975782487268
Mo 12.72029247649956 10.905324142381037 9.917960247266402
Mo 9.507492190409533 7.799647221739362 10.812532714874827
Mo 4.51290485439004 8.899913253742147 9.398459714999838
Mo 10.460093408155293 12.323637080587499 11.105070548863203
Mo 5.762552626350922 10.175530526466039 11.534942421335705
Mo 6.5336169597284535 8.269153735709098 10.522073622607078
Mo 7.92430805505743 6.3533019833628614 8.663149623863651
Mo 7.510279297085855 12.7075931556171 10.507977194038752
Mo 8.312414738017388 10.354287038689167 11.021004666865421
Mo 11.045573985600422 9.88490603014548 12.180842682305025
Mo 11.429718948984213 7.359049964399578 12.164383386033748
Mo 9.31964141549208 12.069820606908596 12.77271615883828
Mo 9.128511208116361 9.461487313773475 13.202570365011644
