44
Energy = -407.16354193 eV
Mo 13.936424006862346 12.867804737359968 6.003789417805849
Mo 12.519387060556632 10.205910298236258 6.587010543785906
Mo 12.142598648864228 13.074014085766311 5.592605338117107
Mo 15.142616110083727 10.86087504313124 8.241488957444554
Mo 14.73066020210689 13.269578833457697 9.057022538350939
Mo 12.615846937614682 14.946853611090448 7.946011152895115
Mo 13.391844720742437 9.211701358721287 8.804098146825453
Mo 10.462123045453021 10.970414113490431 6.716103120011945
Mo 11.001371664991703 10.15762912014723 8.975957661102779
Mo 12.624634941007765 12.168124529653129 8.247713139362945
Mo 10.35788613192387 13.164776171225244 8.069005474371092
Mo 15.812041450362473 10.610232635587726 10.209685184148107
Mo 11.612704670119996 7.822868854988562 10.529259245958837
Mo 8.704754418631799 11.29374026844987 10.116849294862085
Mo 13.078004026818572 14.248579502869593 10.668087673413444
Mo 11.17295736207091 15.398456498446269 9.270794024424555
Mo 10.872835490492067 10.147194910155628 11.73629498200007
Mo 13.572517225596615 8.851328477559589 11.35723528798831
Mo 8.847814174495694 9.199961176138281 10.03569409833048
Mo 13.321512166582304 11.224906748949241 10.650704499795262
Mo 10.976347574034667 12.75235328618294 10.415712358384775
Mo 15.243756614563688 12.877586230606878 11.769019336947293
Mo 9.125945074749676 8.061962392786366 12.477319808084108
Mo 11.367271937264876 7.622949077033928 12.846575593883117
Mo 9.057363605998106 14.181292298300608 11.14201616746861
Mo 14.975676340341336 11.227704017140422 12.995492463293473
Mo 7.933600273417906 10.529588913101637 12.480779612126327
Mo 13.871530738394794 15.100638871475821 13.001954337533657
Mo 12.53376694714708 9.89978632051974 13.563187490149915
Mo 9.526814481828321 12.403817089070424 12.823991678696295
Mo 12.473940336863944 12.590312173744303 12.89605121218872
Mo 10.914833351421667 14.848176277285871 12.253946779154685
Mo 9.604338711291312 9.698708667151264 14.110866978815356
Mo 14.283539871066042 13.602373119160502 14.452018245707013
Mo 11.590427779036398 9.391619871141593 16.25859641499437
Mo 10.963504322911945 11.850014403718648 15.008361695514125
Mo 13.445318417303529 11.328573975122593 15.483040688897553
Mo 11.725164385612901 14.45738340859222 14.760010564419451
Mo 7.985395735058899 11.78261317384605 15.157482259851125
Mo 9.282319498348027 14.11847321646374 14.748154762768644
Mo 8.859683096913686 10.748077760119726 16.62971181154992
Mo 12.509447713600968 13.305560470023984 16.718468808564257
Mo 11.527915145140053 10.755471366906013 17.572783234567375
Mo 9.974348725590621 13.207391789691794 16.859298542883323
