40
Energy = -367.70206699 eV
Mo 16.60492377800303 11.72931762940945 9.854972004925886
Mo 15.371910421707486 11.900375914658374 12.483906605304284
Mo 15.053877930365617 9.888359506465116 11.228481968016998
Mo 15.182933853627485 13.729417958004978 10.777879456437006
Mo 14.612121752027152 14.492842675687962 13.032478327631548
Mo 15.011755570367086 11.596233414676258 8.86217817024409
Mo 13.338669274041973 9.679387261762827 12.801591227189737
Mo 13.487057867554359 7.2275527064051674 11.651413319836646
Mo 13.048664706982606 11.853817239601874 11.076832928286574
Mo 13.163089366284225 12.29067264499073 13.670492039486943
Mo 12.7213722071835 9.540803101338637 9.917981523320526
Mo 11.114346333974217 7.8967508374050945 13.18308807383895
Mo 12.888710685215083 13.607072492927905 9.376061981310082
Mo 11.951602480265473 14.346195769557006 14.617855069383362
Mo 12.341106543281885 11.40955764878542 8.101575738892619
Mo 12.740092563159983 14.570478577903277 11.928669134898428
Mo 12.089282394650517 5.927017678878875 11.898690839019693
Mo 11.156185498229489 10.478836731309437 14.296390868032528
Mo 10.832640388963261 10.023995737805423 11.730077475520806
Mo 11.130621701778482 7.662582450036177 10.196109203917956
Mo 9.641835681676408 8.900581813025937 15.20244356974095
Mo 8.92531031228859 6.665752368784682 11.55938767939481
Mo 10.53057949225697 11.773456252964007 9.701148909356954
Mo 10.644978941734385 12.791183723110963 12.590468323345185
Mo 11.032711303371915 12.759789719425426 15.51754446124904
Mo 10.658955820589387 13.915149319658086 7.487821224886352
Mo 10.52158042913082 9.241712502399213 8.137735180799844
Mo 10.46149345073749 14.270429018483373 10.322587112825998
Mo 10.027412028640065 11.075590175627896 6.912806781790085
Mo 10.075922083278229 15.540693900857583 12.8836867018541
Mo 7.264103022672282 7.5274272341494175 11.413590060617471
Mo 8.730774950205085 9.022068945480203 13.168656874871843
Mo 8.26591265964828 11.427563761060142 11.520614874385538
Mo 9.13959759549251 14.473022860678235 14.228986307913013
Mo 9.002619254432481 9.108641229136467 10.116361450109268
Mo 8.78822006926094 11.5384735191143 13.89605073146667
Mo 8.394901698767281 13.56463782768848 9.287601560416553
Mo 8.365091089638774 11.1469099559565 8.582436911246678
Mo 8.22476253223877 13.686462674650814 11.816610619031287
Mo 8.990621078677634 13.586650966425365 6.72140111244749
