49
Energy = -454.74888303 eV
Mo 11.115427177673789 10.62242029229682 4.89875635428727
Mo 8.066676100982015 10.310908257971601 5.018198922973731
Mo 8.703313778168653 12.198295242539173 5.3555638043074625
Mo 12.562310365524734 11.147126684811827 6.179546595985462
Mo 10.968316407417657 13.496674550186132 6.615036415302057
Mo 9.526162583031752 8.422971678004052 6.403880296154562
Mo 7.357901509225625 11.402350590034484 7.5659157074594825
Mo 12.036987569274414 8.718576871033596 7.058769511836298
Mo 6.991340163505961 9.161243601516167 7.127184738864012
Mo 11.876009899792125 12.04972557302884 8.764958962764407
Mo 9.454243735227736 13.574659149213147 7.901266438137947
Mo 9.943725222770702 10.721429834510788 7.17340137141076
Mo 14.21375250193952 13.097715577555999 8.79577154223104
Mo 13.725714389748926 10.075855186768361 8.601212395175999
Mo 8.158643768164763 6.60266763186579 7.773584138000039
Mo 10.205761999473195 6.853120796899405 8.507877321644353
Mo 12.063231531962636 14.591123893995121 9.014495221617976
Mo 8.475372125818916 8.96387535737783 9.082035334640272
Mo 12.965303856482146 7.3539583510183535 9.223559270510076
Mo 6.560218787737897 10.633002102338752 10.10290923558448
Mo 7.334630980625701 12.881337082475547 10.027740768295008
Mo 11.178324951047756 9.311033564059327 9.364312794311505
Mo 14.770891355133003 8.353792504098864 10.219051428862766
Mo 6.521194361901026 7.398803766211418 9.930581256931148
Mo 9.269156699253385 11.374317301948139 9.643280520726814
Mo 6.127078517105488 10.973873461440345 12.408180383165144
Mo 9.728507654763984 9.066295995802736 11.636587260218159
Mo 14.192978988202864 11.662299113030349 10.416773069405263
Mo 12.879352062549644 9.34812290778833 11.351272252504343
Mo 8.283351553970768 6.732402911431681 10.67054102718768
Mo 8.321590163828098 13.912089231193281 12.439672567593329
Mo 7.141338884579905 8.811764271278518 12.147756670468219
Mo 11.224253457231747 6.976648129428159 11.226106633635267
Mo 12.648381909800474 13.835250045243956 11.040673797565377
Mo 10.074904649403875 13.753677793514797 10.7551350715801
Mo 13.416745921564587 6.6851507943873445 11.916474475432665
Mo 11.338277827340587 11.509740156692036 11.31458479327919
Mo 8.556331579274975 11.51248023460722 12.177574523436952
Mo 14.28839374364218 9.457670617122377 13.690932547617441
Mo 10.770492422500594 10.293939570237452 13.689334917912957
Mo 8.022302826737878 12.553909812256013 14.887730508901264
Mo 9.44399008550231 7.6067723920327905 14.06256989676777
Mo 12.798061120423593 11.916690497739154 13.206215291240245
Mo 12.080761179046304 8.024278754595713 13.52624043019913
Mo 10.507520516393264 12.996683014931028 13.515201949379938
Mo 8.21651030345657 9.890822512155813 14.184055559973174
Mo 13.133332790587797 10.024989072565676 15.157585002414947
Mo 9.59042560220644 11.750426385250503 15.72855730279261
Mo 10.306480257360095 8.523012722874006 15.637329558673514
