48
Energy = -445.95114371 eV
Mo 12.736306622211348 10.642578576121148 5.873980738548095
Mo 10.507322397203412 12.636151328255224 6.399771461428458
Mo 11.101230079767234 9.648890161985042 6.676598848421214
Mo 13.368714944149152 13.507378266542707 6.383887839048176
Mo 13.10103470516994 8.859581932243763 8.278322533722001
Mo 11.729637979794314 7.491915953276389 10.239151687742208
Mo 9.01108791860995 11.010204929125804 7.8132464040929674
Mo 14.699518254267183 10.509389828749702 7.762815897944639
Mo 12.534613770691278 11.645371224364771 8.27451164493725
Mo 12.411178167365374 14.484824356543575 7.67118723104389
Mo 9.428708596479948 14.065495824465158 7.268836158816348
Mo 9.381826941614642 8.85016663358507 11.784421490532884
Mo 13.939893157221446 7.655931475255902 10.520699505558477
Mo 15.130507707426606 9.309831521165016 12.573302859252903
Mo 8.267658587120582 9.830599975700286 9.701692816670313
Mo 8.604739555317742 7.872015478117652 14.589517913168635
Mo 14.509493686672032 13.06394375331906 9.033267337121432
Mo 12.255817607674917 9.521612253623676 11.871205412212097
Mo 10.926562806083934 9.952365033637925 9.412023447444254
Mo 10.32693555557982 12.786573901660384 9.245274670497862
Mo 9.808906794339094 11.270999888278139 11.602451990359956
Mo 14.292406981219857 10.378504652321269 10.290174016971346
Mo 7.89320834149931 12.301926999510407 9.830231278890503
Mo 10.820183925576448 7.1753017457931625 12.813652815141104
Mo 8.55478547679755 10.676107463609133 13.845063284003489
Mo 11.828993706238935 7.241026054396785 15.588918142454862
Mo 12.477979943009354 12.091006074468858 10.873035374606184
Mo 10.89245256338754 9.480784068787967 14.222897977159011
Mo 15.184240699401192 12.82712259018131 11.218968858029573
Mo 13.139974552002212 7.209717352648745 12.86252419831375
Mo 8.710474484805406 14.984545570798634 10.286447316629422
Mo 14.268985611672512 11.37252906936155 13.045087568558998
Mo 7.678351895730792 12.884432498469444 12.156387379927201
Mo 7.044994674917524 10.592127166313773 12.103266422562701
Mo 10.630181513457417 13.83868219881018 11.800209979461872
Mo 8.759704862703858 8.998597915770384 16.04880175436779
Mo 12.893019018443363 14.710071863329825 10.632657184556804
Mo 10.415089347451453 15.648173362312567 9.569017672269995
Mo 11.659447546231071 11.826426482627218 13.559344598589345
Mo 13.385369007349635 9.253365899725752 14.403106377804798
Mo 13.35080463488957 14.006636691902216 12.732868903361837
Mo 11.652863861342185 8.68718905193616 16.761885154749667
Mo 9.447304493105584 13.342809854117336 14.127763683214539
Mo 11.31259001021516 16.352607850619812 12.599905436788427
Mo 9.475495103944365 16.02170902627944 12.908271680649431
Mo 12.371609106214489 11.501257625262307 15.980071266781758
Mo 10.436631188262188 11.504314845027682 16.1693489186343
Mo 11.370628108129598 14.258090548245717 14.500847830842348
