4
Energy = -31.35552439 eV
Mo 8.95979383084099 9.186430532842122 8.278545080797324
Mo 6.395675362486304 7.550394892698559 6.861865990110186
Mo 7.722234731973268 6.452333500369944 6.718397860039464
Mo 8.279637946724817 8.16818294611453 9.498533197027758
