46
Energy = -426.47762107 eV
Mo 10.522569297978174 6.448350554497167 9.974144682509898
Mo 13.018006039512677 8.643634711721832 7.75868804375799
Mo 10.251763907151416 8.322136541153032 8.29801099251803
Mo 13.340303113411286 7.891926258057141 13.032311823610815
Mo 8.529068256364555 7.876164963391117 10.441283512888443
Mo 11.91615350663148 10.020927963076256 6.755389844906839
Mo 10.544562740637819 7.862813278480184 12.202447743509438
Mo 8.090069809767579 9.385229659763445 8.519345730421605
Mo 12.215629549250263 8.122999264685319 10.26076374919638
Mo 14.44753083341626 11.02305652241184 7.6179333215777145
Mo 8.379117447287356 8.390474996879592 13.274760723733339
Mo 15.140684152761894 10.153448140511184 12.456906017263204
Mo 14.659631730783222 9.070860687785634 10.520657176614138
Mo 14.031448783543697 12.113588015856196 14.050212087325201
Mo 12.670392973816066 10.790120960152409 9.417925257640896
Mo 9.939544037837935 11.071657857127638 8.118501443736694
Mo 10.246796920783359 9.87697208112599 10.401162248352811
Mo 7.614422544074392 9.981763467696593 11.635585275928037
Mo 10.810502918762582 8.576717312631406 14.791965082656423
Mo 9.109559924885643 9.63602261653034 15.394306728304286
Mo 13.623252217701152 9.14926747845706 14.47460822805611
Mo 15.492685703514052 11.23786211121306 9.811345933514053
Mo 12.042423063896756 12.936647455817555 7.966961269289495
Mo 14.341736956267246 13.225079626242474 8.47550329292905
Mo 13.785025052022844 12.444809707903525 11.21328708670449
Mo 12.439203984680104 10.329816358944914 12.242861355060947
Mo 7.232939420743482 11.380084214090616 13.703827062878384
Mo 11.721429749461173 12.943730033721721 13.016607600718281
Mo 10.73175605041833 12.661860563669764 10.49945878558558
Mo 15.784905946871236 12.628292963189423 12.646279719993016
Mo 11.622594765068378 11.031082050491877 15.022723545541737
Mo 12.122029562234642 13.544285875722592 15.764422753896442
Mo 8.317709468205742 11.896720348910293 10.058073137191505
Mo 9.14503766165628 13.665068872790242 8.006063212878036
Mo 9.839909418689473 10.621779453981556 12.912256543096152
Mo 12.868506398982847 14.535154436348854 10.214266867844318
Mo 9.610061966980183 12.435065191917984 14.740808033922146
Mo 13.5056503528621 14.49434020800654 14.616323958479068
Mo 10.478217107446042 15.199166452259176 11.588404066947774
Mo 14.658626298176344 15.224564646853288 12.094707936958876
Mo 10.883447099123288 14.947847625091866 8.78612506722708
Mo 6.629633145431943 12.664050563068539 12.031882938843728
Mo 10.8057352859732 15.114938706446315 13.799382182440851
Mo 8.325563147325992 14.35748947680715 10.018250118936498
Mo 8.885112869874204 13.325351987475022 12.519852658146934
Mo 13.087363140606591 16.205092059917938 12.31172947933913
