9
Energy = -74.41987337 eV
Mo 14.889106330673364 12.421778324643606 12.395807911903166
Mo 12.891302035525747 13.715328461191543 12.325943735143705
Mo 11.128180905099786 12.292441192210003 13.021804462810627
Mo 11.425618702512804 12.69113570352334 10.695997743516596
Mo 9.266303685178666 10.870605592285525 11.273804105212049
Mo 8.76125217829333 12.593999039854872 11.573682965230335
Mo 13.418078792526574 11.148363319337452 13.34717025801504
Mo 12.058021716112554 10.156102264029972 11.535004123534879
Mo 13.588407819248944 11.364027962023606 10.589332638972392
