   42   42 1000    2
  0.2872141E+03  0.2293427E-08  0.2293427E-08  0.2293427E-08  0.1000000E-15
  1.000000000000000E-004
  CAR 
 unknown system                          
    462      1    300
 
  0.0000000E+00  0.0000000E+00  0.0000000E+00  0.1000000E+01
    1       -9.677300     -9.677300
    2       -9.100551     -9.100551
    3       -9.083559     -9.083559
    4       -9.045461     -9.045461
    5       -8.979312     -8.979312
    6       -8.974407     -8.974407
    7       -8.943933     -8.943933
    8       -8.937370     -8.937370
    9       -8.928466     -8.928466
   10       -8.904628     -8.904628
   11       -8.866573     -8.866573
   12       -8.846424     -8.846424
   13       -8.837933     -8.837933
   14       -8.818258     -8.818258
   15       -8.781154     -8.781154
   16       -8.773722     -8.773722
   17       -8.738549     -8.738549
   18       -8.726319     -8.726319
   19       -8.712931     -8.712931
   20       -8.694437     -8.694437
   21       -8.676080     -8.676081
   22       -8.672737     -8.672737
   23       -8.649512     -8.649512
   24       -8.628891     -8.628891
   25       -8.625040     -8.625040
   26       -8.607298     -8.607298
   27       -8.597329     -8.597329
   28       -8.588739     -8.588739
   29       -8.572965     -8.572965
   30       -8.554780     -8.554780
   31       -8.529832     -8.529832
   32       -8.517422     -8.517422
   33       -8.499187     -8.499187
   34       -8.485379     -8.485379
   35       -8.465115     -8.465115
   36       -8.452728     -8.452728
   37       -8.441874     -8.441874
   38       -8.414973     -8.414973
   39       -8.391352     -8.391352
   40       -8.383990     -8.383990
   41       -8.368514     -8.368514
   42       -8.350874     -8.350874
   43       -8.319231     -8.319231
   44       -8.301932     -8.301932
   45       -8.284392     -8.284392
   46       -8.272468     -8.272468
   47       -8.258631     -8.258631
   48       -8.242667     -8.242667
   49       -8.238252     -8.238252
   50       -8.221053     -8.221053
   51       -8.209959     -8.209959
   52       -8.191167     -8.191167
   53       -8.170689     -8.170689
   54       -8.156689     -8.156689
   55       -8.145406     -8.145406
   56       -8.134491     -8.134491
   57       -8.121186     -8.121186
   58       -8.116360     -8.116360
   59       -8.109778     -8.109778
   60       -8.085156     -8.085156
   61       -8.065611     -8.065611
   62       -8.051596     -8.051596
   63       -8.038480     -8.038480
   64       -8.033182     -8.033182
   65       -8.018924     -8.018924
   66       -8.001580     -8.001580
   67       -7.974844     -7.974844
   68       -7.954832     -7.954832
   69       -7.952948     -7.952948
   70       -7.927294     -7.927294
   71       -7.883723     -7.883723
   72       -7.875909     -7.875909
   73       -7.857526     -7.857526
   74       -7.849183     -7.849183
   75       -7.828286     -7.828286
   76       -7.809740     -7.809740
   77       -7.791455     -7.791455
   78       -7.786106     -7.786106
   79       -7.774308     -7.774308
   80       -7.753042     -7.753042
   81       -7.730286     -7.730286
   82       -7.713440     -7.713440
   83       -7.705348     -7.705348
   84       -7.696644     -7.696644
   85       -7.686014     -7.686014
   86       -7.673387     -7.673387
   87       -7.645419     -7.645419
   88       -7.638146     -7.638146
   89       -7.612544     -7.612544
   90       -7.592629     -7.592629
   91       -7.591061     -7.591061
   92       -7.555162     -7.555162
   93       -7.550882     -7.550882
   94       -7.532203     -7.532203
   95       -7.523837     -7.523837
   96       -7.510776     -7.510776
   97       -7.485383     -7.485383
   98       -7.477377     -7.477377
   99       -7.453819     -7.453819
  100       -7.440293     -7.440293
  101       -7.425723     -7.425723
  102       -7.404360     -7.404360
  103       -7.401082     -7.401082
  104       -7.386380     -7.386380
  105       -7.367964     -7.367964
  106       -7.354209     -7.354209
  107       -7.344581     -7.344581
  108       -7.338689     -7.338689
  109       -7.308171     -7.308171
  110       -7.296516     -7.296516
  111       -7.285540     -7.285540
  112       -7.275206     -7.275206
  113       -7.266945     -7.266945
  114       -7.244378     -7.244378
  115       -7.233963     -7.233963
  116       -7.212314     -7.212314
  117       -7.208262     -7.208262
  118       -7.180070     -7.180070
  119       -7.177443     -7.177444
  120       -7.160340     -7.160340
  121       -7.137344     -7.137344
  122       -7.117224     -7.117224
  123       -7.102908     -7.102908
  124       -7.086192     -7.086192
  125       -7.079525     -7.079525
  126       -7.070079     -7.070079
  127       -7.062009     -7.062009
  128       -7.060090     -7.060090
  129       -7.034085     -7.034085
  130       -7.011402     -7.011402
  131       -7.001755     -7.001755
  132       -6.990274     -6.990274
  133       -6.984938     -6.984938
  134       -6.977520     -6.977520
  135       -6.963416     -6.963416
  136       -6.957331     -6.957331
  137       -6.953309     -6.953309
  138       -6.948134     -6.948134
  139       -6.936213     -6.936213
  140       -6.929558     -6.929558
  141       -6.906712     -6.906712
  142       -6.881916     -6.881916
  143       -6.877069     -6.877069
  144       -6.873593     -6.873593
  145       -6.856805     -6.856805
  146       -6.852724     -6.852724
  147       -6.848606     -6.848606
  148       -6.844371     -6.844371
  149       -6.823619     -6.823619
  150       -6.814276     -6.814276
  151       -6.811592     -6.811592
  152       -6.801156     -6.801156
  153       -6.794915     -6.794915
  154       -6.787149     -6.787149
  155       -6.778939     -6.778939
  156       -6.764261     -6.764261
  157       -6.758748     -6.758748
  158       -6.748327     -6.748327
  159       -6.738684     -6.738684
  160       -6.734313     -6.734313
  161       -6.726746     -6.726746
  162       -6.714036     -6.714036
  163       -6.711160     -6.711160
  164       -6.706097     -6.706097
  165       -6.700964     -6.700964
  166       -6.689424     -6.689424
  167       -6.669427     -6.669427
  168       -6.661378     -6.661378
  169       -6.651891     -6.651891
  170       -6.643417     -6.643417
  171       -6.616656     -6.616656
  172       -6.611758     -6.611758
  173       -6.603995     -6.603995
  174       -6.592218     -6.592218
  175       -6.576984     -6.576984
  176       -6.575369     -6.575369
  177       -6.568176     -6.568176
  178       -6.563956     -6.563956
  179       -6.562897     -6.562897
  180       -6.552595     -6.552595
  181       -6.542568     -6.542568
  182       -6.530605     -6.530605
  183       -6.518443     -6.518443
  184       -6.507033     -6.507033
  185       -6.494965     -6.494965
  186       -6.488599     -6.488599
  187       -6.470937     -6.470937
  188       -6.455649     -6.455649
  189       -6.454519     -6.454519
  190       -6.427662     -6.427662
  191       -6.419999     -6.419999
  192       -6.413776     -6.413776
  193       -6.405519     -6.405519
  194       -6.386188     -6.386188
  195       -6.376131     -6.376131
  196       -6.369724     -6.369724
  197       -6.359147     -6.359147
  198       -6.352096     -6.352096
  199       -6.343522     -6.343522
  200       -6.322117     -6.322117
  201       -6.314103     -6.314103
  202       -6.291058     -6.291058
  203       -6.289559     -6.289559
  204       -6.283396     -6.283396
  205       -6.247928     -6.247928
  206       -6.240025     -6.240025
  207       -6.230665     -6.230665
  208       -6.215150     -6.215150
  209       -6.207995     -6.207995
  210       -6.194774     -6.194774
  211       -6.153627     -6.153627
  212       -6.140795     -6.140795
  213       -6.124403     -6.124403
  214       -6.111108     -6.111108
  215       -6.104802     -6.104803
  216       -6.065890     -6.065890
  217       -5.747605     -5.747605
  218       -5.667542     -5.667542
  219       -5.644504     -5.644504
  220       -5.416057     -5.416057
  221       -5.201683     -5.201683
  222       -4.973898     -4.973898
  223       -4.541693     -4.541693
  224       -4.369463     -4.369463
  225       -4.284942     -4.284942
  226       -4.141976     -4.141976
  227       -3.918252     -3.918252
  228       -3.865970     -3.865970
  229       -3.816572     -3.816572
  230       -3.718365     -3.718365
  231       -3.550051     -3.550051
  232       -3.287912     -3.287912
  233       -3.080051     -3.080051
  234       -2.890587     -2.890587
  235       -2.772116     -2.772116
  236       -2.648683     -2.648683
  237       -2.371037     -2.371037
  238       -2.347148     -2.347148
  239       -2.311240     -2.311240
  240       -2.231124     -2.231124
  241       -2.163703     -2.163703
  242       -2.057577     -2.057577
  243       -1.948301     -1.948301
  244       -1.929759     -1.929759
  245       -1.908320     -1.908320
  246       -1.833875     -1.833874
  247       -1.656952     -1.656951
  248       -1.561394     -1.561394
  249       -1.392712     -1.392712
  250       -1.270111     -1.270111
  251       -1.118173     -1.118173
  252       -1.081365     -1.081365
  253       -0.876082     -0.876081
  254       -0.804832     -0.804832
  255       -0.680030     -0.680031
  256       -0.623685     -0.623684
  257       -0.522290     -0.522289
  258       -0.460591     -0.460591
  259       -0.430947     -0.430947
  260       -0.365124     -0.365124
  261       -0.291506     -0.291505
  262       -0.261631     -0.261631
  263       -0.105922     -0.105921
  264       -0.099052     -0.099052
  265        0.006410      0.006412
  266        0.063487      0.063487
  267        0.123288      0.123289
  268        0.245612      0.245614
  269        0.285470      0.285471
  270        0.318258      0.318258
  271        0.508594      0.508598
  272        0.556480      0.556481
  273        0.630618      0.630617
  274        0.681087      0.681083
  275        0.708856      0.708862
  276        0.809607      0.809610
  277        0.827005      0.827010
  278        0.868072      0.868075
  279        0.889081      0.889080
  280        0.909029      0.909032
  281        0.955478      0.955481
  282        0.980381      0.980382
  283        1.028980      1.028984
  284        1.035153      1.035156
  285        1.047411      1.047412
  286        1.070309      1.070311
  287        1.084703      1.084704
  288        1.096311      1.096313
  289        1.116239      1.116239
  290        1.145011      1.145016
  291        1.166455      1.166457
  292        1.253296      1.253294
  293        1.270901      1.270904
  294        1.297543      1.297544
  295        1.312493      1.312496
  296        1.327585      1.327587
  297        1.338512      1.338516
  298        1.359975      1.359978
  299        1.370492      1.370494
  300        1.373191      1.373196
