   49   49 1000    2
  0.2734455E+03  0.2375138E-08  0.2375138E-08  0.2375138E-08  0.1000000E-15
  1.000000000000000E-004
  CAR 
 unknown system                          
    539      1    348
 
  0.0000000E+00  0.0000000E+00  0.0000000E+00  0.1000000E+01
    1       -9.801650     -9.784390
    2       -9.304261     -9.290473
    3       -9.199436     -9.190605
    4       -9.130355     -9.117294
    5       -9.090496     -9.080727
    6       -9.084142     -9.073968
    7       -9.024276     -9.013841
    8       -9.009976     -9.001152
    9       -8.966474     -8.959443
   10       -8.949960     -8.942714
   11       -8.938431     -8.928758
   12       -8.893779     -8.884964
   13       -8.887869     -8.878376
   14       -8.877317     -8.870359
   15       -8.858926     -8.847307
   16       -8.839460     -8.829832
   17       -8.820367     -8.810406
   18       -8.814405     -8.806453
   19       -8.803190     -8.794798
   20       -8.791234     -8.783056
   21       -8.765173     -8.756757
   22       -8.757561     -8.750577
   23       -8.733591     -8.723957
   24       -8.712014     -8.703475
   25       -8.689771     -8.682623
   26       -8.662068     -8.655091
   27       -8.657093     -8.649857
   28       -8.648746     -8.641747
   29       -8.639410     -8.632618
   30       -8.628701     -8.621777
   31       -8.613754     -8.608404
   32       -8.593900     -8.586137
   33       -8.585438     -8.578611
   34       -8.568517     -8.561960
   35       -8.560590     -8.554927
   36       -8.550352     -8.542127
   37       -8.534322     -8.526837
   38       -8.525172     -8.518749
   39       -8.501949     -8.493426
   40       -8.483549     -8.477496
   41       -8.479877     -8.473980
   42       -8.452361     -8.446465
   43       -8.446049     -8.439283
   44       -8.433387     -8.427330
   45       -8.423641     -8.417054
   46       -8.401530     -8.394533
   47       -8.401012     -8.390725
   48       -8.389019     -8.382655
   49       -8.371142     -8.364553
   50       -8.361371     -8.354801
   51       -8.353642     -8.347295
   52       -8.348873     -8.340824
   53       -8.327765     -8.322073
   54       -8.301151     -8.294100
   55       -8.294045     -8.287081
   56       -8.282584     -8.276554
   57       -8.272395     -8.266519
   58       -8.247173     -8.240361
   59       -8.233661     -8.225703
   60       -8.226537     -8.219574
   61       -8.216450     -8.209868
   62       -8.197148     -8.188693
   63       -8.179448     -8.172323
   64       -8.163427     -8.156832
   65       -8.156474     -8.148643
   66       -8.142867     -8.136210
   67       -8.137737     -8.129640
   68       -8.113256     -8.108322
   69       -8.088926     -8.082750
   70       -8.080165     -8.073317
   71       -8.067641     -8.061197
   72       -8.056826     -8.049817
   73       -8.050895     -8.043875
   74       -8.040800     -8.031668
   75       -8.029095     -8.022278
   76       -8.022003     -8.012072
   77       -8.004237     -7.998224
   78       -7.988168     -7.981748
   79       -7.977248     -7.971624
   80       -7.970280     -7.963974
   81       -7.964290     -7.958085
   82       -7.941891     -7.934602
   83       -7.932449     -7.926337
   84       -7.915706     -7.908749
   85       -7.888402     -7.883379
   86       -7.880506     -7.874235
   87       -7.871104     -7.865606
   88       -7.863291     -7.857427
   89       -7.838812     -7.833323
   90       -7.830081     -7.824649
   91       -7.815282     -7.808692
   92       -7.785558     -7.779113
   93       -7.779641     -7.772607
   94       -7.760799     -7.754523
   95       -7.756464     -7.749724
   96       -7.744136     -7.738259
   97       -7.733415     -7.726039
   98       -7.720345     -7.713501
   99       -7.710170     -7.704865
  100       -7.697764     -7.691418
  101       -7.683680     -7.676908
  102       -7.664140     -7.657659
  103       -7.653218     -7.647834
  104       -7.635551     -7.629980
  105       -7.622075     -7.616375
  106       -7.616645     -7.610028
  107       -7.599076     -7.593066
  108       -7.588010     -7.582937
  109       -7.566278     -7.559473
  110       -7.554882     -7.548938
  111       -7.548895     -7.543662
  112       -7.545359     -7.538970
  113       -7.527933     -7.521048
  114       -7.522243     -7.515697
  115       -7.496391     -7.490563
  116       -7.480924     -7.475767
  117       -7.459117     -7.453163
  118       -7.456828     -7.451556
  119       -7.444761     -7.438525
  120       -7.431961     -7.426468
  121       -7.417067     -7.410441
  122       -7.400369     -7.393307
  123       -7.386977     -7.381954
  124       -7.374360     -7.369185
  125       -7.355459     -7.350661
  126       -7.349554     -7.344877
  127       -7.342544     -7.336745
  128       -7.334540     -7.327150
  129       -7.321780     -7.316525
  130       -7.311657     -7.306119
  131       -7.306770     -7.301080
  132       -7.283447     -7.278594
  133       -7.268127     -7.263513
  134       -7.248632     -7.243618
  135       -7.242038     -7.236154
  136       -7.233116     -7.227286
  137       -7.223733     -7.217416
  138       -7.207771     -7.201596
  139       -7.200778     -7.193615
  140       -7.187665     -7.182112
  141       -7.165737     -7.159788
  142       -7.145547     -7.140215
  143       -7.134070     -7.129228
  144       -7.124407     -7.118726
  145       -7.112065     -7.106915
  146       -7.100776     -7.094076
  147       -7.091434     -7.085028
  148       -7.085301     -7.080124
  149       -7.067895     -7.062351
  150       -7.060985     -7.056243
  151       -7.044535     -7.038337
  152       -7.039260     -7.032320
  153       -7.012825     -7.008372
  154       -7.007510     -7.001017
  155       -6.999320     -6.992427
  156       -6.981491     -6.976197
  157       -6.971760     -6.965412
  158       -6.958562     -6.953441
  159       -6.946873     -6.940614
  160       -6.943154     -6.935961
  161       -6.939898     -6.935284
  162       -6.928781     -6.922529
  163       -6.917344     -6.912487
  164       -6.912934     -6.907905
  165       -6.903289     -6.898409
  166       -6.899238     -6.893774
  167       -6.884856     -6.879659
  168       -6.880928     -6.874867
  169       -6.871869     -6.867207
  170       -6.866795     -6.860738
  171       -6.854245     -6.848559
  172       -6.845554     -6.840775
  173       -6.837343     -6.831349
  174       -6.821024     -6.815802
  175       -6.814562     -6.810307
  176       -6.804248     -6.799581
  177       -6.798946     -6.794078
  178       -6.795741     -6.790341
  179       -6.787882     -6.783227
  180       -6.781097     -6.774608
  181       -6.765568     -6.759466
  182       -6.761183     -6.756157
  183       -6.748991     -6.742875
  184       -6.742719     -6.737140
  185       -6.737722     -6.731301
  186       -6.725860     -6.720167
  187       -6.721723     -6.716096
  188       -6.720509     -6.715070
  189       -6.713345     -6.706662
  190       -6.708938     -6.702747
  191       -6.697510     -6.691480
  192       -6.692053     -6.687086
  193       -6.685500     -6.678689
  194       -6.674080     -6.667943
  195       -6.667971     -6.663131
  196       -6.656404     -6.650761
  197       -6.650767     -6.645628
  198       -6.645702     -6.640124
  199       -6.636968     -6.630675
  200       -6.626667     -6.620009
  201       -6.619671     -6.613228
  202       -6.607269     -6.602111
  203       -6.600126     -6.592475
  204       -6.587726     -6.582637
  205       -6.584957     -6.579733
  206       -6.576550     -6.570848
  207       -6.559742     -6.553764
  208       -6.551014     -6.545618
  209       -6.541012     -6.536833
  210       -6.533903     -6.529387
  211       -6.529984     -6.523860
  212       -6.518268     -6.512017
  213       -6.512641     -6.506201
  214       -6.502497     -6.496388
  215       -6.496037     -6.489595
  216       -6.486182     -6.479657
  217       -6.482768     -6.477044
  218       -6.470992     -6.464437
  219       -6.453359     -6.448327
  220       -6.451573     -6.443462
  221       -6.445617     -6.438784
  222       -6.432236     -6.425807
  223       -6.423065     -6.417242
  224       -6.405829     -6.399663
  225       -6.397149     -6.391630
  226       -6.391079     -6.385335
  227       -6.374462     -6.367818
  228       -6.364005     -6.358813
  229       -6.361951     -6.356109
  230       -6.352773     -6.346483
  231       -6.343665     -6.336492
  232       -6.334607     -6.329378
  233       -6.324115     -6.319506
  234       -6.315561     -6.306124
  235       -6.303303     -6.298065
  236       -6.298117     -6.293178
  237       -6.289379     -6.284059
  238       -6.275719     -6.270014
  239       -6.272139     -6.266005
  240       -6.255690     -6.249258
  241       -6.246396     -6.240902
  242       -6.240275     -6.231705
  243       -6.222735     -6.215978
  244       -6.210747     -6.206111
  245       -6.182064     -6.177503
  246       -6.171613     -6.167790
  247       -6.151568     -6.147200
  248       -6.138032     -6.133178
  249       -6.113674     -6.106255
  250       -6.098925     -6.092787
  251       -6.064687     -6.058865
  252       -6.044345     -6.040703
  253       -5.857463     -5.847380
  254       -5.815823     -5.806803
  255       -5.627348     -5.609800
  256       -5.397162     -5.376968
  257       -5.230694     -5.212121
  258       -5.092632     -5.073867
  259       -4.893240     -4.878080
  260       -4.798304     -4.777870
  261       -4.595305     -4.578354
  262       -4.466208     -4.455351
  263       -4.221893     -4.207572
  264       -4.076276     -4.058015
  265       -3.988246     -3.969049
  266       -3.794588     -3.776692
  267       -3.775717     -3.758872
  268       -3.684893     -3.670173
  269       -3.444601     -3.425184
  270       -3.391357     -3.317847
  271       -3.094940     -3.082019
  272       -2.973310     -2.952596
  273       -2.887681     -2.872484
  274       -2.872991     -2.859280
  275       -2.734788     -2.714810
  276       -2.613079     -2.596847
  277       -2.562392     -2.538193
  278       -2.447066     -2.430539
  279       -2.328153     -2.313010
  280       -2.226551     -2.211227
  281       -2.164581     -2.140876
  282       -2.087538     -2.050465
  283       -1.989426     -1.970910
  284       -1.953277     -1.925782
  285       -1.805691     -1.778073
  286       -1.710674     -1.696554
  287       -1.615628     -1.588543
  288       -1.524267     -1.479648
  289       -1.335464     -1.319579
  290       -1.250201     -1.231956
  291       -1.241073     -1.225897
  292       -1.197025     -1.178546
  293       -1.091621     -1.077151
  294       -1.020346     -1.005617
  295       -0.934920     -0.920604
  296       -0.799064     -0.781806
  297       -0.751046     -0.731349
  298       -0.704169     -0.687086
  299       -0.625816     -0.608095
  300       -0.564248     -0.551495
  301       -0.510802     -0.493110
  302       -0.427347     -0.398122
  303       -0.345852     -0.324775
  304       -0.321551     -0.306031
  305       -0.144536     -0.116890
  306       -0.078147     -0.053084
  307       -0.042073     -0.020000
  308        0.040265      0.063193
  309        0.087792      0.121038
  310        0.149063      0.180673
  311        0.195892      0.222855
  312        0.450042      0.468716
  313        0.495131      0.514276
  314        0.531658      0.553508
  315        0.571443      0.594844
  316        0.616775      0.634822
  317        0.677604      0.707747
  318        0.750540      0.759031
  319        0.775324      0.788433
  320        0.826654      0.843628
  321        0.855719      0.867122
  322        0.873510      0.884486
  323        0.909956      0.909601
  324        0.933794      0.949210
  325        0.961793      0.975362
  326        0.967107      0.989193
  327        1.015544      1.026811
  328        1.032817      1.064775
  329        1.061823      1.076547
  330        1.074684      1.086141
  331        1.090654      1.118252
  332        1.117239      1.142420
  333        1.143494      1.153992
  334        1.150537      1.174922
  335        1.175071      1.189672
  336        1.187069      1.221111
  337        1.239741      1.239953
  338        1.270293      1.267744
  339        1.274399      1.280796
  340        1.289925      1.321011
  341        1.308560      1.345504
  342        1.338111      1.347697
  343        1.340886      1.357073
  344        1.354081      1.382032
  345        1.376508      1.403344
  346        1.421412      1.437376
  347        1.446888      1.453648
  348        1.455463      1.460449
