 vasp.5.3.5 31Mar14 (build Feb 01 2018 12:10:03) gamma-only                     
  
 executed on             LinuxIFC date 2019.03.21  22:27:29
 running on   32 total cores
 distrk:  each k-point on   32 cores,    1 groups
 distr:  one band on NCORES_PER_BAND=   8 cores,    4 groups


--------------------------------------------------------------------------------------------------------


 INCAR:
 POTCAR:    PAW_PBE Ag 02Apr2005                  
 POTCAR:    PAW_PBE Ag 02Apr2005                  
   VRHFIN =Ag : s1 d10                                                          
   LEXCH  = PE                                                                  
   EATOM  =  1037.2675 eV,   76.2370 Ry                                         
                                                                                
   TITEL  = PAW_PBE Ag 02Apr2005                                                
   LULTRA =        F    use ultrasoft PP ?                                      
   IUNSCR =        1    unscreen: 0-lin 1-nonlin 2-no                           
   RPACOR =    2.000    partial core radius                                     
   POMASS =  107.868; ZVAL   =   11.000    mass and valenz                      
   RCORE  =    2.500    outmost cutoff radius                                   
   RWIGS  =    2.840; RWIGS  =    1.503    wigner-seitz radius (au A)           
   ENMAX  =  249.844; ENMIN  =  187.383 eV                                      
   ICORE  =        3    local potential                                         
   LCOR   =        T    correct aug charges                                     
   LPAW   =        T    paw PP                                                  
   EAUG   =  412.496                                                            
   DEXC   =    0.000                                                            
   RMAX   =    2.560    core radius for proj-oper                               
   RAUG   =    1.300    factor for augmentation sphere                          
   RDEP   =    2.576    radius for radial grids                                 
   RDEPT  =    2.072    core radius for aug-charge                              
                                                                                
   Atomic configuration                                                         
   12 entries                                                                   
     n  l   j            E        occ.                                          
     1  0  0.50    -25324.9161   2.0000                                         
     2  0  0.50     -3728.5341   2.0000                                         
     2  1  1.50     -3344.0404   6.0000                                         
     3  0  0.50      -683.5581   2.0000                                         
     3  1  1.50      -557.3225   6.0000                                         
     3  2  2.50      -358.3853  10.0000                                         
     4  0  0.50       -95.0341   2.0000                                         
     4  1  1.50       -58.5511   6.0000                                         
     4  2  2.50        -7.4440  10.0000                                         
     5  0  0.50        -4.4045   1.0000                                         
     5  1  0.50        -1.3606   0.0000                                         
     4  3  2.50        -1.3606   0.0000                                         
   Description                                                                  
     l       E           TYP  RCUT    TYP  RCUT                                 
     2     -7.4439781     23  2.400                                             
     2     -8.8045607     23  2.400                                             
     0     -4.4044681     23  2.400                                             
     0      1.9520038     23  2.400                                             
     1     -1.3605826     23  2.500                                             
     1     27.2116520     23  2.500                                             
     3     -4.0817478     23  2.400                                             
  local pseudopotential read in
  partial core-charges read in
  partial kinetic energy density read in
  atomic valenz-charges read in
  non local Contribution for L=           2  read in
    real space projection operators read in
  non local Contribution for L=           2  read in
    real space projection operators read in
  non local Contribution for L=           0  read in
    real space projection operators read in
  non local Contribution for L=           0  read in
    real space projection operators read in
  non local Contribution for L=           1  read in
    real space projection operators read in
  non local Contribution for L=           1  read in
    real space projection operators read in
    PAW grid and wavefunctions read in
 
   number of l-projection  operators is LMAX  =           6
   number of lm-projection operators is LMMAX =          18
 

 ----------------------------------------------------------------------------- 
|                                                                             |
|  ADVICE TO THIS USER RUNNING 'VASP/VAMP'   (HEAR YOUR MASTER'S VOICE ...):  |
|                                                                             |
|      You have a (more or less) 'large supercell' and for larger cells       |
|      it might be more efficient to use real space projection opertators     |
|      So try LREAL= Auto  in the INCAR   file.                               |
|      Mind: At the moment your POTCAR file does not contain real space       |
|       projectors, and has to be modified,  BUT if you                       |
|      want to do an extremely  accurate calculation you might also keep the  |
|      reciprocal projection scheme          (i.e. LREAL=.FALSE.)             |
|                                                                             |
 ----------------------------------------------------------------------------- 

  PAW_PBE Ag 02Apr2005                  :
 energy of atom  1       EATOM=-1037.2675
 kinetic energy error for atom=    0.0689 (will be added to EATOM!!)
 
 
 POSCAR: Pt23, -108.55206087 <s> Ag </s>         
  positions in direct lattice
  No initial velocities read in
 exchange correlation table for  LEXCH =        8
   RHO(1)=    0.500       N(1)  =     2000
   RHO(2)=  100.500       N(2)  =     4000
 


--------------------------------------------------------------------------------------------------------


 ion  position               nearest neighbor table
   1  0.603  0.679  0.572-   5 2.68   3 2.71   6 2.79   2 2.82   4 2.92
   2  0.597  0.672  0.437-  11 2.66   8 2.72   3 2.76   1 2.82   6 2.84
   3  0.495  0.638  0.514-   1 2.71   7 2.73   9 2.73   2 2.76   4 2.77   8 2.80  11 3.25
   4  0.508  0.604  0.642-   9 2.63   5 2.64  15 2.71   3 2.77   1 2.92  10 3.04
   5  0.628  0.565  0.627-   6 2.60  12 2.61   4 2.64  10 2.68   1 2.68  14 3.44  20 3.50  15 3.52

   6  0.667  0.580  0.509-   5 2.60  14 2.64  11 2.65   1 2.79   2 2.84
   7  0.385  0.601  0.454-  18 2.70   8 2.72   9 2.73   3 2.73  13 2.79  16 2.89
   8  0.490  0.626  0.381-  11 2.65  16 2.68   2 2.72   7 2.72   3 2.80  17 3.48
   9  0.406  0.567  0.578-   4 2.63  13 2.70   7 2.73   3 2.73  15 2.79  21 2.96  18 3.49
  10  0.573  0.502  0.724-  15 2.64   5 2.68  12 2.71   4 3.04
  11  0.580  0.547  0.421-   8 2.65   6 2.65  19 2.66   2 2.66  17 2.67   3 3.25
  12  0.667  0.449  0.652-   5 2.61  20 2.62  10 2.71  14 2.77
  13  0.305  0.514  0.517-  18 2.68   9 2.70  21 2.73   7 2.79
  14  0.700  0.459  0.523-   6 2.64  20 2.69  19 2.73  12 2.77   5 3.44
  15  0.485  0.476  0.636-  10 2.64  21 2.71   4 2.71  23 2.76   9 2.79  20 2.86   5 3.52
  16  0.406  0.542  0.331-   8 2.68  18 2.68  17 2.77   7 2.89
  17  0.504  0.460  0.368-  18 2.65  11 2.67  19 2.73  22 2.75  16 2.77   8 3.48
  18  0.400  0.474  0.440-  17 2.65  21 2.68  16 2.68  13 2.68   7 2.70  22 2.78   9 3.49
  19  0.611  0.424  0.433-  11 2.66  14 2.73  17 2.73  22 2.76  20 2.77
  20  0.584  0.416  0.563-  12 2.62  23 2.67  14 2.69  22 2.73  19 2.77  15 2.86   5 3.50
  21  0.393  0.427  0.559-  23 2.66  18 2.68  15 2.71  13 2.73  22 2.84   9 2.96
  22  0.492  0.385  0.476-  20 2.73  23 2.75  17 2.75  19 2.76  18 2.78  21 2.84
  23  0.483  0.348  0.602-  21 2.66  20 2.67  22 2.75  15 2.76
 
  LATTYP: Found a simple cubic cell.
 ALAT       =    20.8739446966
  
  Lattice vectors:
  
 A1 = (  20.8739446966,   0.0000000000,   0.0000000000)
 A2 = (   0.0000000000,  20.8739446966,   0.0000000000)
 A3 = (   0.0000000000,   0.0000000000,  20.8739446966)


Analysis of symmetry for initial positions (statically):
=====================================================================
 Subroutine PRICEL returns:
 Original cell was already a primitive cell.
 

 Routine SETGRP: Setting up the symmetry group for a 
 simple cubic supercell.


 Subroutine GETGRP returns: Found  1 space group operations
 (whereof  1 operations were pure point group operations)
 out of a pool of 48 trial point group operations.


The static configuration has the point symmetry C_1 .


Analysis of symmetry for dynamics (positions and initial velocities):
=====================================================================
 Subroutine PRICEL returns:
 Original cell was already a primitive cell.
 

 Routine SETGRP: Setting up the symmetry group for a 
 simple cubic supercell.


 Subroutine GETGRP returns: Found  1 space group operations
 (whereof  1 operations were pure point group operations)
 out of a pool of 48 trial point group operations.


The dynamic configuration has the point symmetry C_1 .


Analysis of magnetic symmetry:
=====================================================================
 Subroutine PRICEL returns:
 Original cell was already a primitive cell.
 

 Subroutine MAGSYM returns: Found  1 space group operations
 (whereof  1 operations were pure point group operations)
 out of a pool of  1 trial space group operations
 (whereof  1 operations were pure point group operations)
 and found also     1 'primitive' translations


The magnetic configuration has the point symmetry C_1 .
 
 
 KPOINTS: Gamma-point only                        
  k-points in reciprocal lattice
Space group operators:
 irot       det(A)        alpha          n_x          n_y          n_z        tau_x        tau_y        tau_z
    1     1.000000     0.000000     1.000000     0.000000     0.000000     0.000000     0.000000     0.000000


--------------------------------------------------------------------------------------------------------




 Dimension of arrays:
   k-points           NKPTS =      1   k-points in BZ     NKDIM =      1   number of bands    NBANDS=    164
   number of dos      NEDOS =    301   number of ions     NIONS =     23
   non local maximal  LDIM  =      6   non local SUM 2l+1 LMDIM =     18
   total plane-waves  NPLWV = 592704
   max r-space proj   IRMAX =      1   max aug-charges    IRDMAX=   3403
   dimension x,y,z NGX =    84 NGY =   84 NGZ =   84
   dimension x,y,z NGXF=   168 NGYF=  168 NGZF=  168
   support grid    NGXF=   168 NGYF=  168 NGZF=  168
   ions per type =              23
 NGX,Y,Z   is equivalent  to a cutoff of   6.69,  6.69,  6.69 a.u.
 NGXF,Y,Z  is equivalent  to a cutoff of  13.38, 13.38, 13.38 a.u.


 I would recommend the setting:
   dimension x,y,z NGX =    81 NGY =   81 NGZ =   81
 SYSTEM =  unknown system                          
 POSCAR =  Pt23, -108.55206087 <s> Ag </s>         

 Startparameter for this run:
   NWRITE =      2    write-flag & timer
   PREC   = normal    normal or accurate (medium, high low for compatibility)
   ISTART =      0    job   : 0-new  1-cont  2-samecut
   ICHARG =      2    charge: 1-file 2-atom 10-const
   ISPIN  =      2    spin polarized calculation?
   LNONCOLLINEAR =      F non collinear calculations
   LSORBIT =      F    spin-orbit coupling
   INIWAV =      1    electr: 0-lowe 1-rand  2-diag
   LASPH  =      F    aspherical Exc in radial PAW
   METAGGA=      F    non-selfconsistent MetaGGA calc.

 Electronic Relaxation 1
   ENCUT  =  249.8 eV  18.36 Ry    4.29 a.u.  26.90 26.90 26.90*2*pi/ulx,y,z
   ENINI  =  249.8     initial cutoff
   ENAUG  =  412.5 eV  augmentation charge cutoff
   NELM   =     60;   NELMIN=  2; NELMDL= -5     # of ELM steps 
   EDIFF  = 0.1E-03   stopping-criterion for ELM
   LREAL  =      F    real-space projection
   NLSPLINE    = F    spline interpolate recip. space projectors
   LCOMPAT=      F    compatible to vasp.4.4
   GGA_COMPAT  = T    GGA compatible to vasp.4.4-vasp.4.6
   LMAXPAW     = -100 max onsite density
   LMAXMIX     =    2 max onsite mixed and CHGCAR
   VOSKOWN=      0    Vosko Wilk Nusair interpolation
   ROPT   =    0.00000
 Ionic relaxation
   EDIFFG = 0.1E-02   stopping-criterion for IOM
   NSW    =   1000    number of steps for IOM
   NBLOCK =      1;   KBLOCK =   1000    inner block; outer block 
   IBRION =      2    ionic relax: 0-MD 1-quasi-New 2-CG
   NFREE  =      1    steps in history (QN), initial steepest desc. (CG)
   ISIF   =      2    stress and relaxation
   IWAVPR =     11    prediction:  0-non 1-charg 2-wave 3-comb
   ISYM   =      2    0-nonsym 1-usesym 2-fastsym
   LCORR  =      T    Harris-Foulkes like correction to forces

   POTIM  = 0.1000    time-step for ionic-motion
   TEIN   =    0.0    initial temperature
   TEBEG  =    0.0;   TEEND  =   0.0 temperature during run
   SMASS  =  -3.00    Nose mass-parameter (am)
   estimated Nose-frequenzy (Omega)   =  0.10E-29 period in steps =****** mass=  -0.996E-26a.u.
   SCALEE = 1.0000    scale energy and forces
   NPACO  =    256;   APACO  = 16.0  distance and # of slots for P.C.
   PSTRESS=    0.0 pullay stress

  Mass of Ions in am
   POMASS = 107.87
  Ionic Valenz
   ZVAL   =  11.00
  Atomic Wigner-Seitz radii
   RWIGS  =  -1.00
  virtual crystal weights 
   VCA    =   1.00
   NELECT =     253.0000    total number of electrons
   NUPDOWN=      -1.0000    fix difference up-down

 DOS related values:
   EMIN   =  10.00;   EMAX   =-10.00  energy-range for DOS
   EFERMI =   0.00
   ISMEAR =     0;   SIGMA  =   0.00  broadening in eV -4-tet -1-fermi 0-gaus

 Electronic relaxation 2 (details)
   IALGO  =     38    algorithm
   LDIAG  =      T    sub-space diagonalisation (order eigenvalues)
   LSUBROT=      F    optimize rotation matrix (better conditioning)
   TURBO    =      0    0=normal 1=particle mesh
   IRESTART =      0    0=no restart 2=restart with 2 vectors
   NREBOOT  =      0    no. of reboots
   NMIN     =      0    reboot dimension
   EREF     =   0.00    reference energy to select bands
   IMIX   =      4    mixing-type and parameters
     AMIX     =   0.40;   BMIX     =  1.00
     AMIX_MAG =   1.60;   BMIX_MAG =  1.00
     AMIN     =   0.10
     WC   =   100.;   INIMIX=   1;  MIXPRE=   1;  MAXMIX= -45

 Intra band minimization:
   WEIMIN = 0.0010     energy-eigenvalue tresh-hold
   EBREAK =  0.15E-06  absolut break condition
   DEPER  =   0.30     relativ break condition  

   TIME   =   0.40     timestep for ELM

  volume/ion in A,a.u.               =     395.44      2668.59
  Fermi-wavevector in a.u.,A,eV,Ry     =   0.496033  0.937366  3.347695  0.246049
  Thomas-Fermi vector in A             =   1.501790
 
 Write flags
   LWAVE  =      F    write WAVECAR
   LCHARG =      F    write CHGCAR
   LVTOT  =      F    write LOCPOT, total local potential
   LVHAR  =      F    write LOCPOT, Hartree potential only
   LELF   =      F    write electronic localiz. function (ELF)
   LORBIT =      0    0 simple, 1 ext, 2 COOP (PROOUT)


 Dipole corrections
   LMONO  =      F    monopole corrections only (constant potential shift)
   LDIPOL =      F    correct potential (dipole corrections)
   IDIPOL =      0    1-x, 2-y, 3-z, 4-all directions 
   EPSILON=  1.0000000 bulk dielectric constant

 Exchange correlation treatment:
   GGA     =    PE    GGA type
   LEXCH   =     8    internal setting for exchange type
   VOSKOWN=      0    Vosko Wilk Nusair interpolation
   LHFCALC =     F    Hartree Fock is set to
   LHFONE  =     F    Hartree Fock one center treatment
   AEXX    =    0.0000 exact exchange contribution

 Linear response parameters
   LEPSILON=     F    determine dielectric tensor
   LRPA    =     F    only Hartree local field effects (RPA)
   LNABLA  =     F    use nabla operator in PAW spheres
   LVEL    =     F    velocity operator in full k-point grid
   LINTERFAST=   F  fast interpolation
   KINTER  =     0    interpolate to denser k-point grid
   CSHIFT  =0.1000    complex shift for real part using Kramers Kronig
   OMEGAMAX=  -1.0    maximum frequency
   DEG_THRESHOLD= 0.2000000E-02 threshold for treating states as degnerate
   RTIME   =    0.100 relaxation time in fs

 Orbital magnetization related:
   ORBITALMAG=     F  switch on orbital magnetization
   LCHIMAG   =     F  perturbation theory with respect to B field
   DQ        =  0.001000  dq finite difference perturbation B field



--------------------------------------------------------------------------------------------------------


 conjugate gradient relaxation of ions
 charge density and potential will be updated during run
 spin polarized calculation
 Variant of blocked Davidson
 Davidson routine will perform the subspace rotation
 perform sub-space diagonalisation
    after iterative eigenvector-optimisation
 modified Broyden-mixing scheme, WC =      100.0
 initial mixing is a Kerker type mixing with AMIX =  0.4000 and BMIX =      1.0000
 Hartree-type preconditioning will be used
 using additional bands           37
 reciprocal scheme for non local part
 use partial core corrections
 calculate Harris-corrections to forces 
   (improved forces if not selfconsistent)
 use gradient corrections 
 use of overlap-Matrix (Vanderbilt PP)
 Gauss-broadening in eV      SIGMA  =   0.00


--------------------------------------------------------------------------------------------------------


  energy-cutoff  :      249.84
  volume of cell :     9095.23
      direct lattice vectors                 reciprocal lattice vectors
    20.873944697  0.000000000  0.000000000     0.047906613  0.000000000  0.000000000
     0.000000000 20.873944697  0.000000000     0.000000000  0.047906613  0.000000000
     0.000000000  0.000000000 20.873944697     0.000000000  0.000000000  0.047906613

  length of vectors
    20.873944697 20.873944697 20.873944697     0.047906613  0.047906613  0.047906613


 
 k-points in units of 2pi/SCALE and weight: Gamma-point only                        
   0.00000000  0.00000000  0.00000000       1.000
 
 k-points in reciprocal lattice and weights: Gamma-point only                        
   0.00000000  0.00000000  0.00000000       1.000
 
 position of ions in fractional coordinates (direct lattice) 
   0.60348960  0.67931743  0.57237952
   0.59722400  0.67220782  0.43740121
   0.49498261  0.63818957  0.51402268
   0.50828745  0.60382496  0.64175261
   0.62795992  0.56528423  0.62657472
   0.66651016  0.57976070  0.50887231
   0.38456240  0.60144286  0.45410528
   0.48952365  0.62569532  0.38053911
   0.40605176  0.56688340  0.57838823
   0.57275081  0.50232545  0.72358483
   0.58033554  0.54695905  0.42133000
   0.66697806  0.44893163  0.65173133
   0.30539559  0.51413396  0.51700257
   0.69954259  0.45871860  0.52332009
   0.48521759  0.47606522  0.63601117
   0.40594952  0.54190342  0.33119794
   0.50350462  0.45986943  0.36806906
   0.39984713  0.47373102  0.43978137
   0.61138678  0.42401616  0.43313365
   0.58447630  0.41619882  0.56305094
   0.39302385  0.42695075  0.55899438
   0.49233243  0.38475416  0.47576696
   0.48330578  0.34823133  0.60194391
 
 position of ions in cartesian coordinates  (Angst):
  12.59720846 14.18003449 11.94781835
  12.46642070 14.03162881  9.13028858
  10.33223960 13.32153376 10.72968098
  10.60996412 12.60420890 13.39590850
  13.10800064 11.79971176 13.07908604
  13.91269626 12.10189285 10.62217249
   8.02733436 12.55448492  9.47896850
  10.21828952 13.06072960  7.94335225
   8.47590207 11.83309279 12.07324391
  11.95556878 10.48551367 15.10406973
  12.11389200 11.41719288  8.79481920
  13.92246315  9.37097396 13.60420377
   6.37481070 10.73200379 10.79188303
  14.60221329  9.57526669 10.92375460
  10.12840521  9.93735902 13.27606206
   8.47376786 11.31166212  6.91340750
  10.51012753  9.59928909  7.68305311
   8.34638697  9.88863505  9.17997205
  12.76205376  8.85088978  9.04120786
  12.20032602  8.68771118 11.75309412
   8.20395807  8.91214642 11.66841786
  10.27691985  8.03133700  9.93113324
  10.08849808  7.26896161 12.56494397
 


--------------------------------------------------------------------------------------------------------


 use parallel FFT for wavefunctions z direction half grid
 k-point  1 :   0.0000 0.0000 0.0000  plane waves:   40657

 maximum and minimum number of plane-waves per node :      5085     5079

 maximum number of plane-waves:     40657
 maximum index in each direction: 
   IXMAX=   26   IYMAX=   26   IZMAX=   26
   IXMIN=  -26   IYMIN=  -26   IZMIN=    0

 WARNING: aliasing errors must be expected set NGX to 106 to avoid them
 WARNING: aliasing errors must be expected set NGY to 106 to avoid them
 WARNING: aliasing errors must be expected set NGZ to 106 to avoid them
 aliasing errors are usually negligible using standard VASP settings
 and one can safely disregard these warnings

 parallel 3D FFT for wavefunctions:
    minimum data exchange during FFTs selected (reduces bandwidth)
 parallel 3D FFT for charge:
    minimum data exchange during FFTs selected (reduces bandwidth)


 total amount of memory used by VASP on root node    65140. kBytes
========================================================================

   base      :      30000. kBytes
   nonl-proj :       2603. kBytes
   fftplans  :       7241. kBytes
   grid      :      18544. kBytes
   one-center:         46. kBytes
   wavefun   :       6706. kBytes
 
     INWAV:  cpu time    0.00: real time    0.00
 Broyden mixing: mesh for mixing (old mesh)
   NGX = 53   NGY = 53   NGZ = 53
  (NGX  =168   NGY  =168   NGZ  =168)
  gives a total of 148877 points

 initial charge density was supplied:
 charge density of overlapping atoms calculated
 number of electron     253.0000000 magnetization      23.0000000
 keeping initial charge density in first step


--------------------------------------------------------------------------------------------------------


 Maximum index for augmentation-charges          256 (set IRDMAX)


--------------------------------------------------------------------------------------------------------


 First call to EWALD:  gamma=   0.085
 Maximum number of real-space cells 3x 3x 3
 Maximum number of reciprocal cells 3x 3x 3

 FEWALD executed in parallel
    FEWALD:  cpu time    0.00: real time    0.00


----------------------------------------- Iteration    1(   1)  ---------------------------------------


    POTLOK:  cpu time    0.29: real time    0.29
    SETDIJ:  cpu time    0.00: real time    0.01
     EDDAV:  cpu time    2.46: real time    2.46
       DOS:  cpu time    0.00: real time    0.00
    --------------------------------------------
      LOOP:  cpu time    2.75: real time    2.78

 eigenvalue-minimisations  :   656
 total energy-change (2. order) : 0.2244682E+04  (-0.4516801E+04)
 number of electron     253.0000000 magnetization      23.0000000
 augmentation part      253.0000000 magnetization      23.0000000

 Free energy of the ion-electron system (eV)
  ---------------------------------------------------
  alpha Z        PSCENC =        49.47163541
  Ewald energy   TEWEN  =     41340.05759433
  -Hartree energ DENC   =    -64192.12509970
  -exchange      EXHF   =         0.00000000
  -V(xc)+E(xc)   XCENC  =      -252.79682542
  PAW double counting   =     23077.56009560   -22017.08600421
  entropy T*S    EENTRO =         0.00000000
  eigenvalues    EBANDS =       384.03221754
  atomic energy  EATOM  =     23855.56849199
  ---------------------------------------------------
  free energy    TOTEN  =      2244.68210554 eV

  energy without entropy =     2244.68210554  energy(sigma->0) =     2244.68210554


--------------------------------------------------------------------------------------------------------




----------------------------------------- Iteration    1(   2)  ---------------------------------------


     EDDAV:  cpu time    3.86: real time    3.86
       DOS:  cpu time    0.00: real time    0.00
    --------------------------------------------
      LOOP:  cpu time    3.86: real time    3.87

 eigenvalue-minimisations  :  1136
 total energy-change (2. order) :-0.1693208E+04  (-0.1507858E+04)
 number of electron     253.0000000 magnetization      23.0000000
 augmentation part      253.0000000 magnetization      23.0000000

 Free energy of the ion-electron system (eV)
  ---------------------------------------------------
  alpha Z        PSCENC =        49.47163541
  Ewald energy   TEWEN  =     41340.05759433
  -Hartree energ DENC   =    -64192.12509970
  -exchange      EXHF   =         0.00000000
  -V(xc)+E(xc)   XCENC  =      -252.79682542
  PAW double counting   =     23077.56009560   -22017.08600421
  entropy T*S    EENTRO =         0.00000000
  eigenvalues    EBANDS =     -1309.17581396
  atomic energy  EATOM  =     23855.56849199
  ---------------------------------------------------
  free energy    TOTEN  =       551.47407404 eV

  energy without entropy =      551.47407404  energy(sigma->0) =      551.47407404


--------------------------------------------------------------------------------------------------------




----------------------------------------- Iteration    1(   3)  ---------------------------------------


     EDDAV:  cpu time    3.11: real time    3.11
       DOS:  cpu time    0.00: real time    0.00
    --------------------------------------------
      LOOP:  cpu time    3.11: real time    3.51

 eigenvalue-minimisations  :   872
 total energy-change (2. order) :-0.5606472E+03  (-0.5126487E+03)
 number of electron     253.0000000 magnetization      23.0000000
 augmentation part      253.0000000 magnetization      23.0000000

 Free energy of the ion-electron system (eV)
  ---------------------------------------------------
  alpha Z        PSCENC =        49.47163541
  Ewald energy   TEWEN  =     41340.05759433
  -Hartree energ DENC   =    -64192.12509970
  -exchange      EXHF   =         0.00000000
  -V(xc)+E(xc)   XCENC  =      -252.79682542
  PAW double counting   =     23077.56009560   -22017.08600421
  entropy T*S    EENTRO =         0.00000000
  eigenvalues    EBANDS =     -1869.82303122
  atomic energy  EATOM  =     23855.56849199
  ---------------------------------------------------
  free energy    TOTEN  =        -9.17314322 eV

  energy without entropy =       -9.17314322  energy(sigma->0) =       -9.17314322


--------------------------------------------------------------------------------------------------------




----------------------------------------- Iteration    1(   4)  ---------------------------------------


     EDDAV:  cpu time    2.68: real time    2.68
       DOS:  cpu time    0.00: real time    0.00
    --------------------------------------------
      LOOP:  cpu time    2.68: real time    2.68

 eigenvalue-minimisations  :   720
 total energy-change (2. order) :-0.3490919E+02  (-0.3443769E+02)
 number of electron     253.0000000 magnetization      23.0000000
 augmentation part      253.0000000 magnetization      23.0000000

 Free energy of the ion-electron system (eV)
  ---------------------------------------------------
  alpha Z        PSCENC =        49.47163541
  Ewald energy   TEWEN  =     41340.05759433
  -Hartree energ DENC   =    -64192.12509970
  -exchange      EXHF   =         0.00000000
  -V(xc)+E(xc)   XCENC  =      -252.79682542
  PAW double counting   =     23077.56009560   -22017.08600421
  entropy T*S    EENTRO =        -0.00000000
  eigenvalues    EBANDS =     -1904.73222505
  atomic energy  EATOM  =     23855.56849199
  ---------------------------------------------------
  free energy    TOTEN  =       -44.08233705 eV

  energy without entropy =      -44.08233705  energy(sigma->0) =      -44.08233705


--------------------------------------------------------------------------------------------------------




----------------------------------------- Iteration    1(   5)  ---------------------------------------


     EDDAV:  cpu time    2.72: real time    2.72
       DOS:  cpu time    0.00: real time    0.00
    CHARGE:  cpu time    0.11: real time    0.11
    MIXING:  cpu time    0.01: real time    0.01
    --------------------------------------------
      LOOP:  cpu time    2.84: real time    2.85

 eigenvalue-minimisations  :   736
 total energy-change (2. order) :-0.4857618E+00  (-0.4851452E+00)
 number of electron     253.0000279 magnetization      20.0756727
 augmentation part      118.8694936 magnetization      19.5894827

 Broyden mixing:
  rms(total) = 0.27952E+01    rms(broyden)= 0.27947E+01
  rms(prec ) = 0.28452E+01
  weight for this iteration     100.00

 Free energy of the ion-electron system (eV)
  ---------------------------------------------------
  alpha Z        PSCENC =        49.47163541
  Ewald energy   TEWEN  =     41340.05759433
  -Hartree energ DENC   =    -64192.12509970
  -exchange      EXHF   =         0.00000000
  -V(xc)+E(xc)   XCENC  =      -252.79682542
  PAW double counting   =     23077.56009560   -22017.08600421
  entropy T*S    EENTRO =         0.00000000
  eigenvalues    EBANDS =     -1905.21798683
  atomic energy  EATOM  =     23855.56849199
  ---------------------------------------------------
  free energy    TOTEN  =       -44.56809883 eV

  energy without entropy =      -44.56809883  energy(sigma->0) =      -44.56809883


--------------------------------------------------------------------------------------------------------




----------------------------------------- Iteration    1(   6)  ---------------------------------------


    POTLOK:  cpu time    0.28: real time    0.29
    SETDIJ:  cpu time    0.01: real time    0.01
     EDDAV:  cpu time    2.53: real time    2.53
       DOS:  cpu time    0.00: real time    0.00
    CHARGE:  cpu time    0.11: real time    0.11
    MIXING:  cpu time    0.01: real time    0.01
    --------------------------------------------
      LOOP:  cpu time    2.94: real time    2.95

 eigenvalue-minimisations  :   668
 total energy-change (2. order) : 0.3350712E+02  (-0.1029366E+02)
 number of electron     253.0000284 magnetization      18.1711461
 augmentation part      121.5486603 magnetization      11.4707028

 Broyden mixing:
  rms(total) = 0.14508E+01    rms(broyden)= 0.14507E+01
  rms(prec ) = 0.14703E+01
  weight for this iteration     100.00

 eigenvalues of (default mixing * dielectric matrix)
  average eigenvalue GAMMA=   0.8612
  0.8612

 Free energy of the ion-electron system (eV)
  ---------------------------------------------------
  alpha Z        PSCENC =        49.47163541
  Ewald energy   TEWEN  =     41340.05759433
  -Hartree energ DENC   =    -64103.43325039
  -exchange      EXHF   =         0.00000000
  -V(xc)+E(xc)   XCENC  =      -235.90379691
  PAW double counting   =     23937.67725612   -22895.56078147
  entropy T*S    EENTRO =        -0.00000000
  eigenvalues    EBANDS =     -1958.93812488
  atomic energy  EATOM  =     23855.56849199
  ---------------------------------------------------
  free energy    TOTEN  =       -11.06097580 eV

  energy without entropy =      -11.06097580  energy(sigma->0) =      -11.06097580


--------------------------------------------------------------------------------------------------------




----------------------------------------- Iteration    1(   7)  ---------------------------------------


    POTLOK:  cpu time    0.29: real time    0.29
    SETDIJ:  cpu time    0.00: real time    0.01
     EDDAV:  cpu time    2.65: real time    2.65
       DOS:  cpu time    0.00: real time    0.00
    CHARGE:  cpu time    0.11: real time    0.11
    MIXING:  cpu time    0.01: real time    0.01
    --------------------------------------------
      LOOP:  cpu time    3.06: real time    3.07

 eigenvalue-minimisations  :   712
 total energy-change (2. order) : 0.3969168E+01  (-0.5506241E+00)
 number of electron     253.0000285 magnetization      15.3513098
 augmentation part      121.4611928 magnetization       8.8895625

 Broyden mixing:
  rms(total) = 0.85083E+00    rms(broyden)= 0.85081E+00
  rms(prec ) = 0.86149E+00
  weight for this iteration     100.00

 eigenvalues of (default mixing * dielectric matrix)
  average eigenvalue GAMMA=   1.0008
  0.7539  1.2477

 Free energy of the ion-electron system (eV)
  ---------------------------------------------------
  alpha Z        PSCENC =        49.47163541
  Ewald energy   TEWEN  =     41340.05759433
  -Hartree energ DENC   =    -64157.40109037
  -exchange      EXHF   =         0.00000000
  -V(xc)+E(xc)   XCENC  =      -232.34140221
  PAW double counting   =     24450.89914186   -23420.55323158
  entropy T*S    EENTRO =         0.00000000
  eigenvalues    EBANDS =     -1892.79294703
  atomic energy  EATOM  =     23855.56849199
  ---------------------------------------------------
  free energy    TOTEN  =        -7.09180760 eV

  energy without entropy =       -7.09180760  energy(sigma->0) =       -7.09180760


--------------------------------------------------------------------------------------------------------




----------------------------------------- Iteration    1(   8)  ---------------------------------------


    POTLOK:  cpu time    0.29: real time    0.29
    SETDIJ:  cpu time    0.00: real time    0.01
     EDDAV:  cpu time    2.66: real time    2.66
       DOS:  cpu time    0.00: real time    0.00
    CHARGE:  cpu time    0.11: real time    0.11
    MIXING:  cpu time    0.01: real time    0.01
    --------------------------------------------
      LOOP:  cpu time    3.08: real time    3.08

 eigenvalue-minimisations  :   716
 total energy-change (2. order) :-0.4672472E+01  (-0.2464721E+00)
 number of electron     253.0000284 magnetization      13.5010685
 augmentation part      121.2408770 magnetization       7.2551874

 Broyden mixing:
  rms(total) = 0.43562E+00    rms(broyden)= 0.43561E+00
  rms(prec ) = 0.43977E+00
  weight for this iteration     100.00

 eigenvalues of (default mixing * dielectric matrix)
  average eigenvalue GAMMA=   1.2235
  2.1427  0.9115  0.6164

 Free energy of the ion-electron system (eV)
  ---------------------------------------------------
  alpha Z        PSCENC =        49.47163541
  Ewald energy   TEWEN  =     41340.05759433
  -Hartree energ DENC   =    -64215.87002529
  -exchange      EXHF   =         0.00000000
  -V(xc)+E(xc)   XCENC  =      -235.19156460
  PAW double counting   =     25044.04914920   -24025.50400874
  entropy T*S    EENTRO =         0.00000000
  eigenvalues    EBANDS =     -1824.34555158
  atomic energy  EATOM  =     23855.56849199
  ---------------------------------------------------
  free energy    TOTEN  =       -11.76427927 eV

  energy without entropy =      -11.76427927  energy(sigma->0) =      -11.76427927


--------------------------------------------------------------------------------------------------------




----------------------------------------- Iteration    1(   9)  ---------------------------------------


    POTLOK:  cpu time    0.28: real time    0.29
    SETDIJ:  cpu time    0.01: real time    0.01
     EDDAV:  cpu time    2.68: real time    2.68
       DOS:  cpu time    0.00: real time    0.00
    CHARGE:  cpu time    0.11: real time    0.11
    MIXING:  cpu time    0.01: real time    0.01
    --------------------------------------------
      LOOP:  cpu time    3.09: real time    3.13

 eigenvalue-minimisations  :   720
 total energy-change (2. order) :-0.5125585E+01  (-0.1779068E+00)
 number of electron     253.0000284 magnetization      11.5984557
 augmentation part      121.1957053 magnetization       5.5473545

 Broyden mixing:
  rms(total) = 0.25616E+00    rms(broyden)= 0.25614E+00
  rms(prec ) = 0.26025E+00
  weight for this iteration     100.00

 eigenvalues of (default mixing * dielectric matrix)
  average eigenvalue GAMMA=   1.2543
  2.1719  0.6177  0.8166  1.4109

 Free energy of the ion-electron system (eV)
  ---------------------------------------------------
  alpha Z        PSCENC =        49.47163541
  Ewald energy   TEWEN  =     41340.05759433
  -Hartree energ DENC   =    -64233.46586844
  -exchange      EXHF   =         0.00000000
  -V(xc)+E(xc)   XCENC  =      -238.77378992
  PAW double counting   =     25258.80628553   -24244.25674502
  entropy T*S    EENTRO =         0.00000000
  eigenvalues    EBANDS =     -1804.29746826
  atomic energy  EATOM  =     23855.56849199
  ---------------------------------------------------
  free energy    TOTEN  =       -16.88986438 eV

  energy without entropy =      -16.88986438  energy(sigma->0) =      -16.88986438


--------------------------------------------------------------------------------------------------------




----------------------------------------- Iteration    1(  10)  ---------------------------------------


    POTLOK:  cpu time    0.28: real time    0.29
    SETDIJ:  cpu time    0.01: real time    0.01
     EDDAV:  cpu time    2.58: real time    2.58
       DOS:  cpu time    0.00: real time    0.00
    CHARGE:  cpu time    0.11: real time    0.11
    MIXING:  cpu time    0.01: real time    0.01
    --------------------------------------------
      LOOP:  cpu time    2.99: real time    3.00

 eigenvalue-minimisations  :   684
 total energy-change (2. order) :-0.8290241E+01  (-0.3436232E+00)
 number of electron     253.0000284 magnetization      10.7872775
 augmentation part      121.2355211 magnetization       6.9936231

 Broyden mixing:
  rms(total) = 0.26812E+00    rms(broyden)= 0.26799E+00
  rms(prec ) = 0.27595E+00
  weight for this iteration     100.00

 eigenvalues of (default mixing * dielectric matrix)
  average eigenvalue GAMMA=   1.1068
  2.2858  1.4648  0.8273  0.6197  0.3366

 Free energy of the ion-electron system (eV)
  ---------------------------------------------------
  alpha Z        PSCENC =        49.47163541
  Ewald energy   TEWEN  =     41340.05759433
  -Hartree energ DENC   =    -64232.24897198
  -exchange      EXHF   =         0.00000000
  -V(xc)+E(xc)   XCENC  =      -245.00576865
  PAW double counting   =     25264.01563678   -24249.71376884
  entropy T*S    EENTRO =         0.00000000
  eigenvalues    EBANDS =     -1807.32495404
  atomic energy  EATOM  =     23855.56849199
  ---------------------------------------------------
  free energy    TOTEN  =       -25.18010500 eV

  energy without entropy =      -25.18010500  energy(sigma->0) =      -25.18010500


--------------------------------------------------------------------------------------------------------




----------------------------------------- Iteration    1(  11)  ---------------------------------------


    POTLOK:  cpu time    0.28: real time    0.29
    SETDIJ:  cpu time    0.01: real time    0.01
     EDDAV:  cpu time    2.67: real time    2.67
       DOS:  cpu time    0.00: real time    0.00
    CHARGE:  cpu time    0.11: real time    0.11
    MIXING:  cpu time    0.01: real time    0.01
    --------------------------------------------
      LOOP:  cpu time    3.09: real time    3.09

 eigenvalue-minimisations  :   720
 total energy-change (2. order) :-0.1396924E+01  (-0.3194811E-01)
 number of electron     253.0000284 magnetization       8.3260258
 augmentation part      121.2259866 magnetization       4.6404201

 Broyden mixing:
  rms(total) = 0.22427E+00    rms(broyden)= 0.22426E+00
  rms(prec ) = 0.23020E+00
  weight for this iteration     100.00

 eigenvalues of (default mixing * dielectric matrix)
  average eigenvalue GAMMA=   1.1883
  2.5085  1.6248  0.8946  0.8946  0.6572  0.5505

 Free energy of the ion-electron system (eV)
  ---------------------------------------------------
  alpha Z        PSCENC =        49.47163541
  Ewald energy   TEWEN  =     41340.05759433
  -Hartree energ DENC   =    -64234.87645189
  -exchange      EXHF   =         0.00000000
  -V(xc)+E(xc)   XCENC  =      -245.94938615
  PAW double counting   =     25272.20897342   -24258.24172024
  entropy T*S    EENTRO =         0.00000000
  eigenvalues    EBANDS =     -1804.81616584
  atomic energy  EATOM  =     23855.56849199
  ---------------------------------------------------
  free energy    TOTEN  =       -26.57702897 eV

  energy without entropy =      -26.57702897  energy(sigma->0) =      -26.57702897


--------------------------------------------------------------------------------------------------------




----------------------------------------- Iteration    1(  12)  ---------------------------------------


    POTLOK:  cpu time    0.29: real time    0.29
    SETDIJ:  cpu time    0.00: real time    0.01
     EDDAV:  cpu time    2.53: real time    2.53
       DOS:  cpu time    0.00: real time    0.00
    CHARGE:  cpu time    0.11: real time    0.11
    MIXING:  cpu time    0.01: real time    0.01
    --------------------------------------------
      LOOP:  cpu time    2.95: real time    2.97

 eigenvalue-minimisations  :   668
 total energy-change (2. order) :-0.5955733E+01  (-0.2445011E+00)
 number of electron     253.0000283 magnetization       6.2536524
 augmentation part      121.2286895 magnetization       2.8267145

 Broyden mixing:
  rms(total) = 0.14168E+00    rms(broyden)= 0.14167E+00
  rms(prec ) = 0.14424E+00
  weight for this iteration     100.00

 eigenvalues of (default mixing * dielectric matrix)
  average eigenvalue GAMMA=   1.3480
  3.4275  1.9967  1.0764  1.0764  0.6739  0.5926  0.5926

 Free energy of the ion-electron system (eV)
  ---------------------------------------------------
  alpha Z        PSCENC =        49.47163541
  Ewald energy   TEWEN  =     41340.05759433
  -Hartree energ DENC   =    -64237.54308591
  -exchange      EXHF   =         0.00000000
  -V(xc)+E(xc)   XCENC  =      -250.50522728
  PAW double counting   =     25227.52475597   -24213.61262491
  entropy T*S    EENTRO =         0.00000000
  eigenvalues    EBANDS =     -1803.49430172
  atomic energy  EATOM  =     23855.56849199
  ---------------------------------------------------
  free energy    TOTEN  =       -32.53276212 eV

  energy without entropy =      -32.53276212  energy(sigma->0) =      -32.53276212


--------------------------------------------------------------------------------------------------------




----------------------------------------- Iteration    1(  13)  ---------------------------------------


    POTLOK:  cpu time    0.29: real time    0.29
    SETDIJ:  cpu time    0.00: real time    0.01
     EDDAV:  cpu time    2.58: real time    2.59
       DOS:  cpu time    0.00: real time    0.00
    CHARGE:  cpu time    0.11: real time    0.11
    MIXING:  cpu time    0.01: real time    0.01
    --------------------------------------------
      LOOP:  cpu time    3.00: real time    3.01

 eigenvalue-minimisations  :   688
 total energy-change (2. order) :-0.5049380E+01  (-0.1757535E+00)
 number of electron     253.0000283 magnetization       5.9885488
 augmentation part      121.2197007 magnetization       4.6969749

 Broyden mixing:
  rms(total) = 0.17975E+00    rms(broyden)= 0.17961E+00
  rms(prec ) = 0.19389E+00
  weight for this iteration     100.00

 eigenvalues of (default mixing * dielectric matrix)
  average eigenvalue GAMMA=   1.2199
  3.5880  2.0021  1.0580  1.0580  0.6869  0.5912  0.5912  0.1839

 Free energy of the ion-electron system (eV)
  ---------------------------------------------------
  alpha Z        PSCENC =        49.47163541
  Ewald energy   TEWEN  =     41340.05759433
  -Hartree energ DENC   =    -64233.83488243
  -exchange      EXHF   =         0.00000000
  -V(xc)+E(xc)   XCENC  =      -254.61394872
  PAW double counting   =     25177.28274631   -24163.08492487
  entropy T*S    EENTRO =         0.00000000
  eigenvalues    EBANDS =     -1808.42885447
  atomic energy  EATOM  =     23855.56849199
  ---------------------------------------------------
  free energy    TOTEN  =       -37.58214245 eV

  energy without entropy =      -37.58214245  energy(sigma->0) =      -37.58214245


--------------------------------------------------------------------------------------------------------




----------------------------------------- Iteration    1(  14)  ---------------------------------------


    POTLOK:  cpu time    0.28: real time    0.29
    SETDIJ:  cpu time    0.01: real time    0.01
     EDDAV:  cpu time    2.86: real time    2.86
       DOS:  cpu time    0.00: real time    0.00
    CHARGE:  cpu time    0.11: real time    0.11
    MIXING:  cpu time    0.01: real time    0.01
    --------------------------------------------
      LOOP:  cpu time    3.28: real time    3.28

 eigenvalue-minimisations  :   784
 total energy-change (2. order) :-0.1969729E+00  (-0.3954328E-02)
 number of electron     253.0000283 magnetization       4.9133156
 augmentation part      121.2106629 magnetization       3.6536327

 Broyden mixing:
  rms(total) = 0.16501E+00    rms(broyden)= 0.16500E+00
  rms(prec ) = 0.17877E+00
  weight for this iteration     100.00

 eigenvalues of (default mixing * dielectric matrix)
  average eigenvalue GAMMA=   1.2860
  4.1547  2.1866  1.1549  0.9765  0.6403  0.6080  0.6080  0.6225  0.6225

 Free energy of the ion-electron system (eV)
  ---------------------------------------------------
  alpha Z        PSCENC =        49.47163541
  Ewald energy   TEWEN  =     41340.05759433
  -Hartree energ DENC   =    -64233.58687963
  -exchange      EXHF   =         0.00000000
  -V(xc)+E(xc)   XCENC  =      -254.77577800
  PAW double counting   =     25175.39536012   -24161.23157032
  entropy T*S    EENTRO =         0.00000000
  eigenvalues    EBANDS =     -1808.67796925
  atomic energy  EATOM  =     23855.56849199
  ---------------------------------------------------
  free energy    TOTEN  =       -37.77911534 eV

  energy without entropy =      -37.77911534  energy(sigma->0) =      -37.77911534


--------------------------------------------------------------------------------------------------------




----------------------------------------- Iteration    1(  15)  ---------------------------------------


    POTLOK:  cpu time    0.29: real time    0.29
    SETDIJ:  cpu time    0.01: real time    0.01
     EDDAV:  cpu time    2.56: real time    2.57
       DOS:  cpu time    0.00: real time    0.00
    CHARGE:  cpu time    0.11: real time    0.11
    MIXING:  cpu time    0.01: real time    0.01
    --------------------------------------------
      LOOP:  cpu time    2.99: real time    3.32

 eigenvalue-minimisations  :   680
 total energy-change (2. order) :-0.1477731E+01  (-0.2347166E-01)
 number of electron     253.0000284 magnetization       3.4099785
 augmentation part      121.2344283 magnetization       2.2254886

 Broyden mixing:
  rms(total) = 0.12979E+00    rms(broyden)= 0.12979E+00
  rms(prec ) = 0.13991E+00
  weight for this iteration     100.00

 eigenvalues of (default mixing * dielectric matrix)
  average eigenvalue GAMMA=   1.3808
  5.0143  2.0835  1.3237  1.0814  1.0814  0.9388  0.6600  0.5471  0.5390  0.5390

 Free energy of the ion-electron system (eV)
  ---------------------------------------------------
  alpha Z        PSCENC =        49.47163541
  Ewald energy   TEWEN  =     41340.05759433
  -Hartree energ DENC   =    -64228.27769804
  -exchange      EXHF   =         0.00000000
  -V(xc)+E(xc)   XCENC  =      -256.07634644
  PAW double counting   =     25142.12726193   -24127.74309414
  entropy T*S    EENTRO =         0.00000000
  eigenvalues    EBANDS =     -1814.38469155
  atomic energy  EATOM  =     23855.56849199
  ---------------------------------------------------
  free energy    TOTEN  =       -39.25684652 eV

  energy without entropy =      -39.25684652  energy(sigma->0) =      -39.25684652


--------------------------------------------------------------------------------------------------------




----------------------------------------- Iteration    1(  16)  ---------------------------------------


    POTLOK:  cpu time    0.29: real time    0.29
    SETDIJ:  cpu time    0.01: real time    0.01
     EDDAV:  cpu time    2.52: real time    2.52
       DOS:  cpu time    0.00: real time    0.00
    CHARGE:  cpu time    0.11: real time    0.11
    MIXING:  cpu time    0.01: real time    0.01
    --------------------------------------------
      LOOP:  cpu time    2.94: real time    2.97

 eigenvalue-minimisations  :   664
 total energy-change (2. order) :-0.1865467E+01  (-0.4794832E-01)
 number of electron     253.0000284 magnetization       1.9905794
 augmentation part      121.2176559 magnetization       0.8875297

 Broyden mixing:
  rms(total) = 0.64169E-01    rms(broyden)= 0.64159E-01
  rms(prec ) = 0.68915E-01
  weight for this iteration     100.00

 eigenvalues of (default mixing * dielectric matrix)
  average eigenvalue GAMMA=   1.5701
  6.8021  1.9808  1.9808  1.4938  0.9178  0.9178  0.7865  0.6620  0.5974  0.5660
  0.5660

 Free energy of the ion-electron system (eV)
  ---------------------------------------------------
  alpha Z        PSCENC =        49.47163541
  Ewald energy   TEWEN  =     41340.05759433
  -Hartree energ DENC   =    -64221.47178053
  -exchange      EXHF   =         0.00000000
  -V(xc)+E(xc)   XCENC  =      -257.71410474
  PAW double counting   =     25128.06759146   -24113.76694756
  entropy T*S    EENTRO =         0.00000000
  eigenvalues    EBANDS =     -1821.33479427
  atomic energy  EATOM  =     23855.56849199
  ---------------------------------------------------
  free energy    TOTEN  =       -41.12231391 eV

  energy without entropy =      -41.12231391  energy(sigma->0) =      -41.12231391


--------------------------------------------------------------------------------------------------------




----------------------------------------- Iteration    1(  17)  ---------------------------------------


    POTLOK:  cpu time    0.29: real time    0.29
    SETDIJ:  cpu time    0.01: real time    0.01
     EDDAV:  cpu time    2.51: real time    2.52
       DOS:  cpu time    0.00: real time    0.00
    CHARGE:  cpu time    0.11: real time    0.11
    MIXING:  cpu time    0.01: real time    0.01
    --------------------------------------------
      LOOP:  cpu time    2.93: real time    2.94

 eigenvalue-minimisations  :   664
 total energy-change (2. order) :-0.1263402E+01  (-0.3037022E-01)
 number of electron     253.0000284 magnetization       1.7096424
 augmentation part      121.2239245 magnetization       0.6768795

 Broyden mixing:
  rms(total) = 0.43681E-01    rms(broyden)= 0.43664E-01
  rms(prec ) = 0.48523E-01
  weight for this iteration     100.00

 eigenvalues of (default mixing * dielectric matrix)
  average eigenvalue GAMMA=   1.5727
  7.1240  2.0507  2.0507  1.4242  1.1446  1.1446  0.8705  0.6699  0.6699  0.6055
  0.5588  0.5588

 Free energy of the ion-electron system (eV)
  ---------------------------------------------------
  alpha Z        PSCENC =        49.47163541
  Ewald energy   TEWEN  =     41340.05759433
  -Hartree energ DENC   =    -64210.49813284
  -exchange      EXHF   =         0.00000000
  -V(xc)+E(xc)   XCENC  =      -258.95757141
  PAW double counting   =     25109.76967997   -24095.23635202
  entropy T*S    EENTRO =         0.00000000
  eigenvalues    EBANDS =     -1832.56106106
  atomic energy  EATOM  =     23855.56849199
  ---------------------------------------------------
  free energy    TOTEN  =       -42.38571563 eV

  energy without entropy =      -42.38571563  energy(sigma->0) =      -42.38571563


--------------------------------------------------------------------------------------------------------




----------------------------------------- Iteration    1(  18)  ---------------------------------------


    POTLOK:  cpu time    0.29: real time    0.29
    SETDIJ:  cpu time    0.00: real time    0.01
     EDDAV:  cpu time    2.61: real time    2.61
       DOS:  cpu time    0.00: real time    0.00
    CHARGE:  cpu time    0.11: real time    0.11
    MIXING:  cpu time    0.01: real time    0.01
    --------------------------------------------
      LOOP:  cpu time    3.03: real time    3.04

 eigenvalue-minimisations  :   696
 total energy-change (2. order) :-0.7000751E+00  (-0.6166038E-02)
 number of electron     253.0000284 magnetization       1.4319867
 augmentation part      121.2195222 magnetization       0.4009943

 Broyden mixing:
  rms(total) = 0.27984E-01    rms(broyden)= 0.27977E-01
  rms(prec ) = 0.32169E-01
  weight for this iteration     100.00

 eigenvalues of (default mixing * dielectric matrix)
  average eigenvalue GAMMA=   1.6510
  7.5144  2.8373  1.8991  1.8991  1.2552  1.2552  0.9308  0.7643  0.7643  0.5576
  0.5576  0.6331  0.5954

 Free energy of the ion-electron system (eV)
  ---------------------------------------------------
  alpha Z        PSCENC =        49.47163541
  Ewald energy   TEWEN  =     41340.05759433
  -Hartree energ DENC   =    -64202.88477680
  -exchange      EXHF   =         0.00000000
  -V(xc)+E(xc)   XCENC  =      -259.67793488
  PAW double counting   =     25109.77391379   -24095.00602168
  entropy T*S    EENTRO =         0.00000000
  eigenvalues    EBANDS =     -1840.38869293
  atomic energy  EATOM  =     23855.56849199
  ---------------------------------------------------
  free energy    TOTEN  =       -43.08579077 eV

  energy without entropy =      -43.08579077  energy(sigma->0) =      -43.08579077


--------------------------------------------------------------------------------------------------------




----------------------------------------- Iteration    1(  19)  ---------------------------------------


    POTLOK:  cpu time    0.29: real time    0.29
    SETDIJ:  cpu time    0.00: real time    0.01
     EDDAV:  cpu time    2.54: real time    2.54
       DOS:  cpu time    0.00: real time    0.00
    CHARGE:  cpu time    0.11: real time    0.11
    MIXING:  cpu time    0.01: real time    0.01
    --------------------------------------------
      LOOP:  cpu time    2.96: real time    2.96

 eigenvalue-minimisations  :   672
 total energy-change (2. order) :-0.5856998E+00  (-0.3105200E-02)
 number of electron     253.0000284 magnetization       1.2304217
 augmentation part      121.2320032 magnetization       0.1990352

 Broyden mixing:
  rms(total) = 0.13992E-01    rms(broyden)= 0.13982E-01
  rms(prec ) = 0.16905E-01
  weight for this iteration     100.00

 eigenvalues of (default mixing * dielectric matrix)
  average eigenvalue GAMMA=   1.6968
  8.0609  3.6025  1.8902  1.6386  1.6386  1.0269  1.0269  1.0775  0.5596  0.5596
  0.7117  0.7117  0.6483  0.6025

 Free energy of the ion-electron system (eV)
  ---------------------------------------------------
  alpha Z        PSCENC =        49.47163541
  Ewald energy   TEWEN  =     41340.05759433
  -Hartree energ DENC   =    -64192.40821215
  -exchange      EXHF   =         0.00000000
  -V(xc)+E(xc)   XCENC  =      -260.34437589
  PAW double counting   =     25106.42166794   -24091.39406691
  entropy T*S    EENTRO =         0.00000000
  eigenvalues    EBANDS =     -1851.04422535
  atomic energy  EATOM  =     23855.56849199
  ---------------------------------------------------
  free energy    TOTEN  =       -43.67149062 eV

  energy without entropy =      -43.67149062  energy(sigma->0) =      -43.67149062


--------------------------------------------------------------------------------------------------------




----------------------------------------- Iteration    1(  20)  ---------------------------------------


    POTLOK:  cpu time    0.28: real time    0.29
    SETDIJ:  cpu time    0.01: real time    0.01
     EDDAV:  cpu time    2.64: real time    2.63
       DOS:  cpu time    0.00: real time    0.00
    CHARGE:  cpu time    0.11: real time    0.11
    MIXING:  cpu time    0.01: real time    0.01
    --------------------------------------------
      LOOP:  cpu time    3.06: real time    3.06

 eigenvalue-minimisations  :   704
 total energy-change (2. order) :-0.2217138E+00  (-0.7578426E-03)
 number of electron     253.0000284 magnetization       1.1540416
 augmentation part      121.2314233 magnetization       0.1246898

 Broyden mixing:
  rms(total) = 0.96011E-02    rms(broyden)= 0.95978E-02
  rms(prec ) = 0.11864E-01
  weight for this iteration     100.00

 eigenvalues of (default mixing * dielectric matrix)
  average eigenvalue GAMMA=   1.6752
  8.2535  3.5488  2.1006  1.7318  1.7318  1.1233  1.1233  0.9945  0.5599  0.5599
  0.7230  0.7230  0.7343  0.5859  0.6345

 Free energy of the ion-electron system (eV)
  ---------------------------------------------------
  alpha Z        PSCENC =        49.47163541
  Ewald energy   TEWEN  =     41340.05759433
  -Hartree energ DENC   =    -64186.33498935
  -exchange      EXHF   =         0.00000000
  -V(xc)+E(xc)   XCENC  =      -260.60877093
  PAW double counting   =     25111.42719808   -24096.42213316
  entropy T*S    EENTRO =         0.00000000
  eigenvalues    EBANDS =     -1857.05223080
  atomic energy  EATOM  =     23855.56849199
  ---------------------------------------------------
  free energy    TOTEN  =       -43.89320443 eV

  energy without entropy =      -43.89320443  energy(sigma->0) =      -43.89320443


--------------------------------------------------------------------------------------------------------




----------------------------------------- Iteration    1(  21)  ---------------------------------------


    POTLOK:  cpu time    0.28: real time    0.29
    SETDIJ:  cpu time    0.01: real time    0.01
     EDDAV:  cpu time    2.35: real time    2.35
       DOS:  cpu time    0.00: real time    0.00
    CHARGE:  cpu time    0.11: real time    0.11
    MIXING:  cpu time    0.02: real time    0.01
    --------------------------------------------
      LOOP:  cpu time    2.77: real time    2.78

 eigenvalue-minimisations  :   600
 total energy-change (2. order) :-0.5002848E-01  (-0.1247701E-03)
 number of electron     253.0000284 magnetization       1.0562856
 augmentation part      121.2329592 magnetization       0.0299011

 Broyden mixing:
  rms(total) = 0.58266E-02    rms(broyden)= 0.58258E-02
  rms(prec ) = 0.81497E-02
  weight for this iteration     100.00

 eigenvalues of (default mixing * dielectric matrix)
  average eigenvalue GAMMA=   1.7365
  8.3371  3.9740  2.5706  1.8914  1.8914  1.1868  1.1868  1.2078  1.0556  0.5597
  0.5597  0.7329  0.7329  0.6851  0.6029  0.6091

 Free energy of the ion-electron system (eV)
  ---------------------------------------------------
  alpha Z        PSCENC =        49.47163541
  Ewald energy   TEWEN  =     41340.05759433
  -Hartree energ DENC   =    -64183.88577582
  -exchange      EXHF   =         0.00000000
  -V(xc)+E(xc)   XCENC  =      -260.67610111
  PAW double counting   =     25114.43750672   -24099.47807574
  entropy T*S    EENTRO =         0.00000000
  eigenvalues    EBANDS =     -1859.43850868
  atomic energy  EATOM  =     23855.56849199
  ---------------------------------------------------
  free energy    TOTEN  =       -43.94323291 eV

  energy without entropy =      -43.94323291  energy(sigma->0) =      -43.94323291


--------------------------------------------------------------------------------------------------------




----------------------------------------- Iteration    1(  22)  ---------------------------------------


    POTLOK:  cpu time    0.29: real time    0.29
    SETDIJ:  cpu time    0.01: real time    0.01
     EDDAV:  cpu time    2.56: real time    2.56
       DOS:  cpu time    0.00: real time    0.00
    CHARGE:  cpu time    0.11: real time    0.11
    MIXING:  cpu time    0.02: real time    0.01
    --------------------------------------------
      LOOP:  cpu time    2.98: real time    2.99

 eigenvalue-minimisations  :   676
 total energy-change (2. order) :-0.6685072E-01  (-0.3281578E-03)
 number of electron     253.0000284 magnetization       1.0349325
 augmentation part      121.2353981 magnetization       0.0085773

 Broyden mixing:
  rms(total) = 0.29975E-02    rms(broyden)= 0.29954E-02
  rms(prec ) = 0.44533E-02
  weight for this iteration     100.00

 eigenvalues of (default mixing * dielectric matrix)
  average eigenvalue GAMMA=   1.7456
  8.4103  4.6969  2.6426  1.8633  1.8633  1.6533  1.1536  1.1536  0.9954  0.5596
  0.5596  0.7416  0.7416  0.7908  0.6003  0.6248  0.6248

 Free energy of the ion-electron system (eV)
  ---------------------------------------------------
  alpha Z        PSCENC =        49.47163541
  Ewald energy   TEWEN  =     41340.05759433
  -Hartree energ DENC   =    -64178.49080357
  -exchange      EXHF   =         0.00000000
  -V(xc)+E(xc)   XCENC  =      -260.77806017
  PAW double counting   =     25119.31795407   -24104.40149055
  entropy T*S    EENTRO =         0.00000000
  eigenvalues    EBANDS =     -1864.75540513
  atomic energy  EATOM  =     23855.56849199
  ---------------------------------------------------
  free energy    TOTEN  =       -44.01008363 eV

  energy without entropy =      -44.01008363  energy(sigma->0) =      -44.01008363


--------------------------------------------------------------------------------------------------------




----------------------------------------- Iteration    1(  23)  ---------------------------------------


    POTLOK:  cpu time    0.29: real time    0.29
    SETDIJ:  cpu time    0.00: real time    0.01
     EDDAV:  cpu time    2.07: real time    2.07
       DOS:  cpu time    0.00: real time    0.00
    CHARGE:  cpu time    0.11: real time    0.11
    MIXING:  cpu time    0.02: real time    0.01
    --------------------------------------------
      LOOP:  cpu time    2.49: real time    2.50

 eigenvalue-minimisations  :   500
 total energy-change (2. order) :-0.1240157E-02  (-0.3590353E-04)
 number of electron     253.0000284 magnetization       1.0264720
 augmentation part      121.2364378 magnetization       0.0000233

 Broyden mixing:
  rms(total) = 0.21597E-02    rms(broyden)= 0.21592E-02
  rms(prec ) = 0.32667E-02
  weight for this iteration     100.00

 eigenvalues of (default mixing * dielectric matrix)
  average eigenvalue GAMMA=   1.7356
  8.4275  4.8790  2.6632  2.0737  1.8625  1.8625  1.1742  1.1742  0.9433  0.9433
  0.5597  0.5597  0.7982  0.7365  0.7365  0.5947  0.6261  0.6261

 Free energy of the ion-electron system (eV)
  ---------------------------------------------------
  alpha Z        PSCENC =        49.47163541
  Ewald energy   TEWEN  =     41340.05759433
  -Hartree energ DENC   =    -64176.66905851
  -exchange      EXHF   =         0.00000000
  -V(xc)+E(xc)   XCENC  =      -260.79001967
  PAW double counting   =     25119.61376790   -24104.69193617
  entropy T*S    EENTRO =         0.00000000
  eigenvalues    EBANDS =     -1866.57179906
  atomic energy  EATOM  =     23855.56849199
  ---------------------------------------------------
  free energy    TOTEN  =       -44.01132378 eV

  energy without entropy =      -44.01132378  energy(sigma->0) =      -44.01132378


--------------------------------------------------------------------------------------------------------




----------------------------------------- Iteration    1(  24)  ---------------------------------------


    POTLOK:  cpu time    0.29: real time    0.29
    SETDIJ:  cpu time    0.01: real time    0.01
     EDDAV:  cpu time    1.97: real time    1.97
       DOS:  cpu time    0.00: real time    0.00
    CHARGE:  cpu time    0.11: real time    0.11
    MIXING:  cpu time    0.02: real time    0.02
    --------------------------------------------
      LOOP:  cpu time    2.40: real time    2.44

 eigenvalue-minimisations  :   464
 total energy-change (2. order) :-0.3071407E-02  (-0.2389980E-04)
 number of electron     253.0000284 magnetization       1.0171352
 augmentation part      121.2373996 magnetization      -0.0093462

 Broyden mixing:
  rms(total) = 0.14126E-02    rms(broyden)= 0.14123E-02
  rms(prec ) = 0.21695E-02
  weight for this iteration     100.00

 eigenvalues of (default mixing * dielectric matrix)
  average eigenvalue GAMMA=   1.7489
  8.4603  5.1598  2.9029  1.9946  1.9946  1.9656  1.2096  1.2096  1.1428  1.1428
  0.5597  0.5597  0.8836  0.7551  0.7551  0.6649  0.6649  0.5990  0.6048

 Free energy of the ion-electron system (eV)
  ---------------------------------------------------
  alpha Z        PSCENC =        49.47163541
  Ewald energy   TEWEN  =     41340.05759433
  -Hartree energ DENC   =    -64175.13776927
  -exchange      EXHF   =         0.00000000
  -V(xc)+E(xc)   XCENC  =      -260.79970454
  PAW double counting   =     25119.68468511   -24104.75850545
  entropy T*S    EENTRO =         0.00000000
  eigenvalues    EBANDS =     -1868.10082277
  atomic energy  EATOM  =     23855.56849199
  ---------------------------------------------------
  free energy    TOTEN  =       -44.01439519 eV

  energy without entropy =      -44.01439519  energy(sigma->0) =      -44.01439519


--------------------------------------------------------------------------------------------------------




----------------------------------------- Iteration    1(  25)  ---------------------------------------


    POTLOK:  cpu time    0.29: real time    0.29
    SETDIJ:  cpu time    0.00: real time    0.01
     EDDAV:  cpu time    1.98: real time    1.98
       DOS:  cpu time    0.00: real time    0.00
    CHARGE:  cpu time    0.11: real time    0.11
    MIXING:  cpu time    0.02: real time    0.02
    --------------------------------------------
      LOOP:  cpu time    2.40: real time    2.41

 eigenvalue-minimisations  :   468
 total energy-change (2. order) :-0.2368325E-02  (-0.1667287E-04)
 number of electron     253.0000284 magnetization       1.0048770
 augmentation part      121.2370190 magnetization      -0.0217427

 Broyden mixing:
  rms(total) = 0.12573E-02    rms(broyden)= 0.12572E-02
  rms(prec ) = 0.16478E-02
  weight for this iteration     100.00

 eigenvalues of (default mixing * dielectric matrix)
  average eigenvalue GAMMA=   1.7641
  8.4393  5.4286  3.1689  2.4435  1.9233  1.9233  1.6027  1.1855  1.1855  1.0296
  0.9088  0.9088  0.5597  0.5597  0.7279  0.7279  0.7215  0.6350  0.6007  0.6007

 Free energy of the ion-electron system (eV)
  ---------------------------------------------------
  alpha Z        PSCENC =        49.47163541
  Ewald energy   TEWEN  =     41340.05759433
  -Hartree energ DENC   =    -64173.78915126
  -exchange      EXHF   =         0.00000000
  -V(xc)+E(xc)   XCENC  =      -260.80696825
  PAW double counting   =     25119.92938971   -24105.00706427
  entropy T*S    EENTRO =         0.00000000
  eigenvalues    EBANDS =     -1869.44069119
  atomic energy  EATOM  =     23855.56849199
  ---------------------------------------------------
  free energy    TOTEN  =       -44.01676352 eV

  energy without entropy =      -44.01676352  energy(sigma->0) =      -44.01676352


--------------------------------------------------------------------------------------------------------




----------------------------------------- Iteration    1(  26)  ---------------------------------------


    POTLOK:  cpu time    0.29: real time    0.28
    SETDIJ:  cpu time    0.00: real time    0.01
     EDDAV:  cpu time    1.94: real time    1.94
       DOS:  cpu time    0.00: real time    0.00
    CHARGE:  cpu time    0.11: real time    0.11
    MIXING:  cpu time    0.02: real time    0.02
    --------------------------------------------
      LOOP:  cpu time    2.36: real time    2.36

 eigenvalue-minimisations  :   452
 total energy-change (2. order) :-0.2148305E-02  (-0.7260229E-05)
 number of electron     253.0000284 magnetization       1.0006254
 augmentation part      121.2377466 magnetization      -0.0251748

 Broyden mixing:
  rms(total) = 0.85854E-03    rms(broyden)= 0.85846E-03
  rms(prec ) = 0.10920E-02
  weight for this iteration     100.00

 eigenvalues of (default mixing * dielectric matrix)
  average eigenvalue GAMMA=   1.7861
  8.4402  5.6066  3.7980  2.1802  2.1802  1.9547  1.9547  1.2112  1.2112  1.0646
  1.0646  0.9668  0.5597  0.5597  0.7415  0.7415  0.7837  0.6433  0.6433  0.6007
  0.6007

 Free energy of the ion-electron system (eV)
  ---------------------------------------------------
  alpha Z        PSCENC =        49.47163541
  Ewald energy   TEWEN  =     41340.05759433
  -Hartree energ DENC   =    -64172.96715538
  -exchange      EXHF   =         0.00000000
  -V(xc)+E(xc)   XCENC  =      -260.81330903
  PAW double counting   =     25119.46900510   -24104.54431779
  entropy T*S    EENTRO =         0.00000000
  eigenvalues    EBANDS =     -1870.26085645
  atomic energy  EATOM  =     23855.56849199
  ---------------------------------------------------
  free energy    TOTEN  =       -44.01891182 eV

  energy without entropy =      -44.01891182  energy(sigma->0) =      -44.01891182


--------------------------------------------------------------------------------------------------------




----------------------------------------- Iteration    1(  27)  ---------------------------------------


    POTLOK:  cpu time    0.29: real time    0.29
    SETDIJ:  cpu time    0.00: real time    0.01
     EDDAV:  cpu time    1.95: real time    1.95
       DOS:  cpu time    0.00: real time    0.00
    CHARGE:  cpu time    0.11: real time    0.11
    MIXING:  cpu time    0.02: real time    0.02
    --------------------------------------------
      LOOP:  cpu time    2.38: real time    2.64

 eigenvalue-minimisations  :   456
 total energy-change (2. order) :-0.1350600E-02  (-0.3482285E-05)
 number of electron     253.0000284 magnetization       1.0016117
 augmentation part      121.2374872 magnetization      -0.0239728

 Broyden mixing:
  rms(total) = 0.40988E-03    rms(broyden)= 0.40970E-03
  rms(prec ) = 0.59298E-03
  weight for this iteration     100.00

 eigenvalues of (default mixing * dielectric matrix)
  average eigenvalue GAMMA=   1.8201
  8.3200  6.4343  4.1875  2.3641  2.3641  1.9065  1.9065  1.2127  1.2127  1.2928
  1.0314  1.0314  0.9435  0.5597  0.5597  0.7378  0.7378  0.7339  0.6026  0.6026
  0.6503  0.6503

 Free energy of the ion-electron system (eV)
  ---------------------------------------------------
  alpha Z        PSCENC =        49.47163541
  Ewald energy   TEWEN  =     41340.05759433
  -Hartree energ DENC   =    -64172.55399811
  -exchange      EXHF   =         0.00000000
  -V(xc)+E(xc)   XCENC  =      -260.81593022
  PAW double counting   =     25119.71936007   -24104.79998424
  entropy T*S    EENTRO =        -0.00000000
  eigenvalues    EBANDS =     -1870.66743165
  atomic energy  EATOM  =     23855.56849199
  ---------------------------------------------------
  free energy    TOTEN  =       -44.02026242 eV

  energy without entropy =      -44.02026242  energy(sigma->0) =      -44.02026242


--------------------------------------------------------------------------------------------------------




----------------------------------------- Iteration    1(  28)  ---------------------------------------


    POTLOK:  cpu time    0.29: real time    0.29
    SETDIJ:  cpu time    0.01: real time    0.01
     EDDAV:  cpu time    1.90: real time    1.90
       DOS:  cpu time    0.00: real time    0.00
    CHARGE:  cpu time    0.11: real time    0.11
    MIXING:  cpu time    0.02: real time    0.02
    --------------------------------------------
      LOOP:  cpu time    2.33: real time    2.33

 eigenvalue-minimisations  :   440
 total energy-change (2. order) :-0.1508350E-03  (-0.8497567E-06)
 number of electron     253.0000284 magnetization       0.9988946
 augmentation part      121.2372856 magnetization      -0.0268313

 Broyden mixing:
  rms(total) = 0.28563E-03    rms(broyden)= 0.28555E-03
  rms(prec ) = 0.40440E-03
  weight for this iteration     100.00

 eigenvalues of (default mixing * dielectric matrix)
  average eigenvalue GAMMA=   1.8238
  8.2823  6.9499  4.4876  2.5576  1.9015  1.9015  1.9482  1.9482  1.2034  1.2034
  1.0300  1.0300  0.8636  0.8636  0.5597  0.5597  0.7302  0.7302  0.7013  0.6007
  0.6007  0.6475  0.6475

 Free energy of the ion-electron system (eV)
  ---------------------------------------------------
  alpha Z        PSCENC =        49.47163541
  Ewald energy   TEWEN  =     41340.05759433
  -Hartree energ DENC   =    -64172.32920639
  -exchange      EXHF   =         0.00000000
  -V(xc)+E(xc)   XCENC  =      -260.81645431
  PAW double counting   =     25119.92681698   -24105.00710064
  entropy T*S    EENTRO =         0.00000000
  eigenvalues    EBANDS =     -1870.89219063
  atomic energy  EATOM  =     23855.56849199
  ---------------------------------------------------
  free energy    TOTEN  =       -44.02041326 eV

  energy without entropy =      -44.02041326  energy(sigma->0) =      -44.02041326


--------------------------------------------------------------------------------------------------------




----------------------------------------- Iteration    1(  29)  ---------------------------------------


    POTLOK:  cpu time    0.28: real time    0.28
    SETDIJ:  cpu time    0.01: real time    0.01
     EDDAV:  cpu time    1.90: real time    1.90
       DOS:  cpu time    0.00: real time    0.00
    --------------------------------------------
      LOOP:  cpu time    2.20: real time    2.20

 eigenvalue-minimisations  :   440
 total energy-change (2. order) :-0.4866892E-04  (-0.2901699E-06)
 number of electron     253.0000284 magnetization       0.9988946
 augmentation part      121.2372856 magnetization      -0.0268313

 Free energy of the ion-electron system (eV)
  ---------------------------------------------------
  alpha Z        PSCENC =        49.47163541
  Ewald energy   TEWEN  =     41340.05759433
  -Hartree energ DENC   =    -64172.21529160
  -exchange      EXHF   =         0.00000000
  -V(xc)+E(xc)   XCENC  =      -260.81705562
  PAW double counting   =     25119.92910513   -24105.00885558
  entropy T*S    EENTRO =         0.00000000
  eigenvalues    EBANDS =     -1871.00608598
  atomic energy  EATOM  =     23855.56849199
  ---------------------------------------------------
  free energy    TOTEN  =       -44.02046192 eV

  energy without entropy =      -44.02046192  energy(sigma->0) =      -44.02046192


--------------------------------------------------------------------------------------------------------




 average (electrostatic) potential at core
  the test charge radii are     1.1249
  (the norm of the test charge is              1.0000)
       1 -82.3092       2 -82.3960       3 -82.2710       4 -82.3986       5 -82.4379
       6 -82.3423       7 -82.2042       8 -82.4669       9 -82.3191      10 -82.2418
      11 -82.3844      12 -82.2143      13 -82.1902      14 -82.2477      15 -82.4133
      16 -82.1041      17 -82.3971      18 -82.3344      19 -82.2979      20 -82.3731
      21 -82.4183      22 -82.3347      23 -82.4501
 
 
 
 E-fermi :  -3.3060     XC(G=0):  -0.9703     alpha+bet : -0.5804


 spin component 1

 k-point     1 :       0.0000    0.0000    0.0000
  band No.  band energies     occupation 
      1      -9.3424      1.00000
      2      -9.2580      1.00000
      3      -9.1811      1.00000
      4      -9.1428      1.00000
      5      -9.1366      1.00000
      6      -9.0868      1.00000
      7      -9.0169      1.00000
      8      -9.0006      1.00000
      9      -8.9789      1.00000
     10      -8.9518      1.00000
     11      -8.9408      1.00000
     12      -8.8987      1.00000
     13      -8.8492      1.00000
     14      -8.8204      1.00000
     15      -8.8175      1.00000
     16      -8.7707      1.00000
     17      -8.7591      1.00000
     18      -8.7370      1.00000
     19      -8.7008      1.00000
     20      -8.6898      1.00000
     21      -8.6376      1.00000
     22      -8.6145      1.00000
     23      -8.5874      1.00000
     24      -8.5575      1.00000
     25      -8.5115      1.00000
     26      -8.4995      1.00000
     27      -8.4958      1.00000
     28      -8.4217      1.00000
     29      -8.3946      1.00000
     30      -8.3035      1.00000
     31      -8.2833      1.00000
     32      -8.2399      1.00000
     33      -8.2231      1.00000
     34      -8.1763      1.00000
     35      -8.1599      1.00000
     36      -8.1421      1.00000
     37      -8.1122      1.00000
     38      -8.0732      1.00000
     39      -8.0532      1.00000
     40      -8.0294      1.00000
     41      -7.9832      1.00000
     42      -7.9648      1.00000
     43      -7.9432      1.00000
     44      -7.9333      1.00000
     45      -7.8881      1.00000
     46      -7.8601      1.00000
     47      -7.8029      1.00000
     48      -7.7808      1.00000
     49      -7.7699      1.00000
     50      -7.7452      1.00000
     51      -7.7173      1.00000
     52      -7.6699      1.00000
     53      -7.6658      1.00000
     54      -7.6194      1.00000
     55      -7.6103      1.00000
     56      -7.5664      1.00000
     57      -7.5625      1.00000
     58      -7.5213      1.00000
     59      -7.4883      1.00000
     60      -7.4473      1.00000
     61      -7.4405      1.00000
     62      -7.3950      1.00000
     63      -7.3910      1.00000
     64      -7.3705      1.00000
     65      -7.3624      1.00000
     66      -7.3399      1.00000
     67      -7.2909      1.00000
     68      -7.2861      1.00000
     69      -7.2506      1.00000
     70      -7.2171      1.00000
     71      -7.1973      1.00000
     72      -7.1740      1.00000
     73      -7.1265      1.00000
     74      -7.1113      1.00000
     75      -7.0968      1.00000
     76      -7.0817      1.00000
     77      -7.0600      1.00000
     78      -7.0590      1.00000
     79      -7.0282      1.00000
     80      -7.0209      1.00000
     81      -6.9836      1.00000
     82      -6.9553      1.00000
     83      -6.9378      1.00000
     84      -6.9236      1.00000
     85      -6.9105      1.00000
     86      -6.8978      1.00000
     87      -6.8870      1.00000
     88      -6.8690      1.00000
     89      -6.8341      1.00000
     90      -6.8142      1.00000
     91      -6.7997      1.00000
     92      -6.7732      1.00000
     93      -6.7682      1.00000
     94      -6.7310      1.00000
     95      -6.7237      1.00000
     96      -6.6993      1.00000
     97      -6.6866      1.00000
     98      -6.6807      1.00000
     99      -6.6672      1.00000
    100      -6.6448      1.00000
    101      -6.6321      1.00000
    102      -6.6013      1.00000
    103      -6.5861      1.00000
    104      -6.5727      1.00000
    105      -6.5169      1.00000
    106      -6.5144      1.00000
    107      -6.4505      1.00000
    108      -6.4254      1.00000
    109      -6.4172      1.00000
    110      -6.3588      1.00000
    111      -6.3548      1.00000
    112      -6.3256      1.00000
    113      -6.2918      1.00000
    114      -6.2521      1.00000
    115      -6.2142      1.00000
    116      -6.1955      1.00000
    117      -6.1594      1.00000
    118      -6.1041      1.00000
    119      -6.0807      1.00000
    120      -5.6683      1.00000
    121      -5.4096      1.00000
    122      -5.1219      1.00000
    123      -4.8411      1.00000
    124      -4.4752      1.00000
    125      -3.9714      1.00000
    126      -3.5250      1.00000
    127      -3.3285      1.00000
    128      -3.1982      0.00000
    129      -3.1089      0.00000
    130      -2.9384      0.00000
    131      -2.7282      0.00000
[...]
    102      -6.5540      1.00000
    103      -6.5504      1.00000
    104      -6.5419      1.00000
    105      -6.5247      1.00000
    106      -6.4990      1.00000
    107      -6.4933      1.00000
    108      -6.4655      1.00000
    109      -6.4270      1.00000
    110      -6.4149      1.00000
    111      -6.3905      1.00000
    112      -6.3752      1.00000
    113      -6.3429      1.00000
    114      -6.3171      1.00000
    115      -6.2755      1.00000
    116      -6.2612      1.00000
    117      -6.2293      1.00000
    118      -6.1931      1.00000
    119      -6.0239      1.00000
    120      -5.6719      1.00000
    121      -5.2886      1.00000
    122      -4.7338      1.00000
    123      -4.4628      1.00000
    124      -4.3203      1.00000
    125      -4.0515      1.00000
    126      -3.9454      1.00000
    127      -3.3405      0.00000
    128      -3.1224      0.00000
    129      -2.9180      0.00000
    130      -2.6916      0.00000
    131      -2.4092      0.00000
    132      -2.3170      0.00000
    133      -2.1479      0.00000
    134      -2.1138      0.00000
    135      -1.8615      0.00000
    136      -1.6507      0.00000
    137      -1.4934      0.00000
    138      -1.3455      0.00000
    139      -1.2796      0.00000
    140      -1.0157      0.00000
    141      -0.8821      0.00000
    142      -0.7893      0.00000
    143      -0.7478      0.00000
    144      -0.5224      0.00000
    145      -0.3599      0.00000
    146      -0.3001      0.00000
    147      -0.1864      0.00000
    148      -0.1099      0.00000
    149       0.0670      0.00000
    150       0.1135      0.00000
    151       0.1320      0.00000
    152       0.1892      0.00000
    153       0.4622      0.00000
    154       0.5045      0.00000
    155       0.6164      0.00000
    156       0.7144      0.00000
    157       0.7264      0.00000
    158       0.7348      0.00000
    159       0.7731      0.00000
    160       0.7879      0.00000
    161       0.8363      0.00000
    162       0.8739      0.00000
    163       0.9450      0.00000
    164       0.9687      0.00000


--------------------------------------------------------------------------------------------------------


 soft charge-density along one line, spin component           1
         0         1         2         3         4         5         6         7         8         9
 total charge-density along one line
 
 soft charge-density along one line, spin component           2
         0         1         2         3         4         5         6         7         8         9
 total charge-density along one line
 
 pseudopotential strength for first ion, spin component:           1
-10.255   0.002  -0.001   0.008  -0.002 -10.232   0.002  -0.001
  0.002 -10.243   0.002   0.001  -0.008   0.002 -10.221   0.002
 -0.001   0.002 -10.245   0.002   0.001  -0.001   0.002 -10.222
  0.008   0.001   0.002 -10.250   0.001   0.008   0.001   0.002
 -0.002  -0.008   0.001   0.001 -10.255  -0.002  -0.008   0.001
-10.232   0.002  -0.001   0.008  -0.002 -10.185   0.002  -0.001
  0.002 -10.221   0.002   0.001  -0.008   0.002 -10.174   0.002
 -0.001   0.002 -10.222   0.002   0.001  -0.001   0.002 -10.176
  0.008   0.001   0.002 -10.227   0.001   0.007   0.001   0.002
 -0.002  -0.008   0.001   0.001 -10.232  -0.002  -0.008   0.001
 -0.002  -0.005  -0.002  -0.001   0.002  -0.002  -0.005  -0.002
 -0.003  -0.008  -0.003  -0.002   0.004  -0.003  -0.008  -0.003
  0.011   0.007  -0.014  -0.000  -0.025   0.010   0.007  -0.014
 -0.000   0.025   0.008   0.011  -0.000   0.000   0.024   0.007
  0.025  -0.000  -0.006   0.006   0.010   0.024   0.000  -0.006
  0.014   0.009  -0.017   0.000  -0.030   0.013   0.008  -0.016
  0.000   0.030   0.009   0.013  -0.000   0.000   0.029   0.009
  0.030   0.000  -0.007   0.008   0.012   0.029   0.000  -0.007
 pseudopotential strength for first ion, spin component:           2
-10.255   0.002  -0.001   0.008  -0.001 -10.232   0.002  -0.001
  0.002 -10.243   0.002   0.001  -0.009   0.002 -10.221   0.002
 -0.001   0.002 -10.245   0.002   0.002  -0.001   0.002 -10.223
  0.008   0.001   0.002 -10.250   0.002   0.008   0.001   0.002
 -0.001  -0.009   0.002   0.002 -10.253  -0.001  -0.008   0.002
-10.232   0.002  -0.001   0.008  -0.001 -10.185   0.002  -0.001
  0.002 -10.221   0.002   0.001  -0.008   0.002 -10.174   0.002
 -0.001   0.002 -10.223   0.002   0.002  -0.001   0.002 -10.176
  0.008   0.001   0.002 -10.227   0.002   0.007   0.001   0.002
 -0.001  -0.008   0.002   0.002 -10.230  -0.001  -0.008   0.001
 -0.002  -0.005  -0.001  -0.001   0.002  -0.002  -0.005  -0.001
 -0.003  -0.008  -0.002  -0.002   0.003  -0.003  -0.008  -0.002
  0.011   0.007  -0.014  -0.000  -0.025   0.011   0.007  -0.014
 -0.000   0.025   0.008   0.011  -0.000  -0.000   0.024   0.007
  0.025  -0.000  -0.006   0.007   0.011   0.024  -0.000  -0.006
  0.014   0.009  -0.018  -0.000  -0.031   0.013   0.009  -0.017
 -0.000   0.031   0.009   0.014  -0.000   0.000   0.030   0.009
  0.030  -0.000  -0.008   0.008   0.014   0.029   0.000  -0.008
 total augmentation occupancy for first ion, spin component:           1
  2.712  -0.095  -0.056   0.166   0.098  -0.741   0.099   0.038  -0.116  -0.109   0.116  -0.010  -0.026  -0.040   0.155   0.007
 -0.095   2.685   0.130   0.016   0.037   0.099  -0.650  -0.133   0.005  -0.083   0.299  -0.018  -0.026   0.110  -0.040   0.006
 -0.056   0.130   2.830   0.102   0.033   0.038  -0.133  -0.828  -0.083  -0.021   0.054  -0.009  -0.078   0.148  -0.021  -0.004
  0.166   0.016   0.102   2.604   0.162  -0.116   0.005  -0.083  -0.642  -0.157   0.027  -0.002  -0.052   0.046   0.102   0.002
  0.098   0.037   0.033   0.162   2.682  -0.109  -0.083  -0.021  -0.157  -0.690  -0.154   0.010  -0.072   0.056   0.109  -0.011
 -0.741   0.099   0.038  -0.116  -0.109   0.739  -0.103  -0.024   0.074   0.119  -0.102   0.012   0.019   0.039  -0.180  -0.001
  0.099  -0.650  -0.133   0.005  -0.083  -0.103   0.594   0.136  -0.021   0.120  -0.244   0.008   0.027  -0.130   0.041  -0.002
  0.038  -0.133  -0.828  -0.083  -0.021  -0.024   0.136   0.800   0.068   0.012  -0.041   0.002   0.091  -0.157   0.027  -0.005
 -0.116   0.005  -0.083  -0.642  -0.157   0.074  -0.021   0.068   0.645   0.155  -0.011  -0.003   0.050  -0.049  -0.109  -0.003
 -0.109  -0.083  -0.021  -0.157  -0.690   0.119   0.120   0.012   0.155   0.669   0.138  -0.012   0.094  -0.062  -0.117  -0.005
  0.116   0.299   0.054   0.027  -0.154  -0.102  -0.244  -0.041  -0.011   0.138   1.878  -0.248  -0.191  -0.077  -0.064   0.018
 -0.010  -0.018  -0.009  -0.002   0.010   0.012   0.008   0.002  -0.003  -0.012  -0.248   0.049   0.038   0.023   0.009  -0.003
 -0.026  -0.026  -0.078  -0.052  -0.072   0.019   0.027   0.091   0.050   0.094  -0.191   0.038   0.064  -0.015  -0.016  -0.005
 -0.040   0.110   0.148   0.046   0.056   0.039  -0.130  -0.157  -0.049  -0.062  -0.077   0.023  -0.015   0.080  -0.002   0.000
  0.155  -0.040  -0.021   0.102   0.109  -0.180   0.041   0.027  -0.109  -0.117  -0.064   0.009  -0.016  -0.002   0.090   0.000
  0.007   0.006  -0.004   0.002  -0.011  -0.001  -0.002  -0.005  -0.003  -0.005   0.018  -0.003  -0.005   0.000   0.000   0.001
  0.002   0.009  -0.004   0.003  -0.003  -0.003   0.007   0.009   0.003   0.004   0.008  -0.002   0.000  -0.005   0.000   0.000
  0.006   0.002  -0.002  -0.002  -0.000   0.011  -0.003  -0.002   0.006   0.006   0.006  -0.001   0.000   0.000  -0.005   0.000
 total augmentation occupancy for first ion, spin component:           2
 -0.006   0.002  -0.005   0.001   0.023   0.001  -0.002   0.002  -0.000  -0.017  -0.002  -0.001  -0.008   0.001   0.009   0.000
  0.002  -0.012  -0.000   0.005  -0.006  -0.002   0.006   0.001  -0.002   0.005   0.002  -0.000   0.002   0.000  -0.002  -0.000
 -0.005  -0.000  -0.008   0.003  -0.001   0.002   0.000   0.004  -0.002   0.002   0.005  -0.001  -0.002  -0.000   0.001   0.000
  0.001   0.005   0.003  -0.007   0.009  -0.000  -0.002  -0.002   0.002  -0.007  -0.004   0.000  -0.003   0.001   0.003   0.000
  0.023  -0.006  -0.001   0.009   0.049  -0.017   0.005   0.002  -0.007  -0.042  -0.028  -0.003  -0.019   0.002   0.024   0.000
  0.001  -0.002   0.002  -0.000  -0.017   0.004   0.002   0.001  -0.001   0.012  -0.001   0.002   0.005  -0.000  -0.006  -0.000
 -0.002   0.006   0.000  -0.002   0.005   0.002  -0.001  -0.001  -0.000  -0.003  -0.002   0.001  -0.002   0.001   0.002   0.000
  0.002   0.001   0.004  -0.002   0.002   0.001  -0.001   0.000   0.002  -0.002  -0.004   0.001   0.001   0.000  -0.000  -0.000
 -0.000  -0.002  -0.002   0.002  -0.007  -0.001  -0.000   0.002   0.002   0.005   0.003  -0.000   0.002  -0.001  -0.002  -0.000
 -0.017   0.005   0.002  -0.007  -0.042   0.012  -0.003  -0.002   0.005   0.038   0.023   0.001   0.014  -0.001  -0.019  -0.000
 -0.002   0.002   0.005  -0.004  -0.028  -0.001  -0.002  -0.004   0.003   0.023   0.016  -0.002   0.009  -0.001  -0.012  -0.000
 -0.001  -0.000  -0.001   0.000  -0.003   0.002   0.001   0.001  -0.000   0.001  -0.002   0.001   0.001  -0.000  -0.001  -0.000
 -0.008   0.002  -0.002  -0.003  -0.019   0.005  -0.002   0.001   0.002   0.014   0.009   0.001   0.005  -0.001  -0.007  -0.000
  0.001   0.000  -0.000   0.001   0.002  -0.000   0.001   0.000  -0.001  -0.001  -0.001  -0.000  -0.001   0.000   0.001   0.000
  0.009  -0.002   0.001   0.003   0.024  -0.006   0.002  -0.000  -0.002  -0.019  -0.012  -0.001  -0.007   0.001   0.010   0.000
  0.000  -0.000   0.000   0.000   0.000  -0.000   0.000  -0.000  -0.000  -0.000  -0.000  -0.000  -0.000   0.000   0.000   0.000
 -0.000   0.000  -0.000  -0.000  -0.000  -0.000   0.000   0.000   0.000   0.000   0.000  -0.000   0.000  -0.000  -0.000  -0.000
 -0.000   0.000  -0.000  -0.000  -0.001   0.000  -0.000  -0.000   0.000   0.001   0.000  -0.000   0.000  -0.000  -0.000  -0.000


------------------------ aborting loop because EDIFF is reached ----------------------------------------


    CHARGE:  cpu time    0.11: real time    0.11
    FORLOC:  cpu time    0.02: real time    0.01
    FORNL :  cpu time    1.49: real time    1.49
    STRESS:  cpu time    1.85: real time    1.85
    FORCOR:  cpu time    0.29: real time    0.29
    FORHAR:  cpu time    0.04: real time    0.04
    MIXING:  cpu time    0.01: real time    0.01
    OFIELD:  cpu time    0.00: real time    0.00

  FORCE on cell =-STRESS in cart. coord.  units (eV):
  Direction    XX          YY          ZZ          XY          YZ          ZX
  --------------------------------------------------------------------------------------
  Alpha Z    49.47164    49.47164    49.47164
  Ewald   20097.26135  9547.66954 11948.04771  -120.88339 -2516.06384  4265.80246
  Hartree 27256.73919 17457.77567 19739.53800  -102.91492 -2257.48119  3889.41795
  E(xc)   -1332.49239 -1333.94054 -1333.81673    -0.08014    -0.55665     0.71057
  Local  -51092.39196-30745.55400-35432.42346   226.81349  4771.26683 -8152.29666
  n-local  -245.60353  -249.13301  -247.14449    -0.77295    -0.57395     0.99454
  augment  2110.83910  2113.16980  2113.69140    -0.65342     1.00037    -1.43886
  Kinetic  3147.50829  3151.58728  3154.08247    -1.42176     2.54727    -3.18923
  Fock        0.00000     0.00000     0.00000     0.00000     0.00000     0.00000
  -------------------------------------------------------------------------------------
  Total      -8.66832    -8.95362    -8.55348     0.08690     0.13885     0.00078
  in kB      -1.52698    -1.57723    -1.50675     0.01531     0.02446     0.00014
  external pressure =       -1.54 kB  Pullay stress =        0.00 kB


 VOLUME and BASIS-vectors are now :
 -----------------------------------------------------------------------------
  energy-cutoff  :      249.84
  volume of cell :     9095.23
      direct lattice vectors                 reciprocal lattice vectors
    20.873944697  0.000000000  0.000000000     0.047906613  0.000000000  0.000000000
     0.000000000 20.873944697  0.000000000     0.000000000  0.047906613  0.000000000
     0.000000000  0.000000000 20.873944697     0.000000000  0.000000000  0.047906613

  length of vectors
    20.873944697 20.873944697 20.873944697     0.047906613  0.047906613  0.047906613


 FORCES acting on ions
    electron-ion (+dipol)            ewald-force                    non-local-force                 convergence-correction
 -----------------------------------------------------------------------------------------------
   -.416E+03 -.113E+04 -.468E+03   0.415E+03 0.112E+04 0.467E+03   0.165E+01 0.434E+01 0.101E+01   0.182E-01 -.173E-01 0.178E-02
   -.422E+03 -.101E+04 0.685E+03   0.420E+03 0.101E+04 -.683E+03   0.190E+01 0.382E+01 -.206E+01   0.266E-01 0.261E-01 -.172E-01
   0.364E+03 -.118E+04 -.139E+03   -.362E+03 0.118E+04 0.139E+03   -.179E+01 0.302E+01 0.614E-01   0.395E-01 -.604E-01 -.120E-01
   0.196E+03 -.619E+03 -.938E+03   -.196E+03 0.618E+03 0.937E+03   -.323E+00 0.737E+00 0.154E+01   0.613E-02 -.248E-01 0.651E-02
   -.774E+03 -.418E+03 -.660E+03   0.773E+03 0.418E+03 0.659E+03   0.931E+00 0.825E-01 0.102E+01   0.527E-02 -.221E-01 0.582E-03
   -.112E+04 -.563E+03 0.269E+03   0.111E+04 0.560E+03 -.268E+03   0.430E+01 0.294E+01 -.117E+01   0.191E-01 0.194E-01 0.825E-02
   0.876E+03 -.850E+03 0.395E+03   -.875E+03 0.846E+03 -.395E+03   -.172E+01 0.428E+01 -.429E+00   0.170E-02 -.119E-01 -.656E-02
   0.454E+02 -.606E+03 0.841E+03   -.447E+02 0.605E+03 -.839E+03   -.763E+00 0.236E+00 -.139E+01   0.151E-01 0.263E-01 -.645E-01
   0.817E+03 -.479E+03 -.625E+03   -.814E+03 0.478E+03 0.625E+03   -.265E+01 0.751E+00 0.954E+00   -.168E-01 0.543E-02 0.203E-01
   -.143E+03 0.121E+03 -.129E+04   0.143E+03 -.120E+03 0.128E+04   0.591E+00 -.327E+00 0.587E+01   -.152E-01 -.350E-01 -.143E-01
   -.712E+03 -.123E+02 0.885E+03   0.710E+03 0.125E+02 -.884E+03   0.129E+01 -.173E+00 -.109E+01   0.990E-02 0.278E-01 0.162E-01
   -.942E+03 0.468E+03 -.684E+03   0.937E+03 -.465E+03 0.680E+03   0.469E+01 -.254E+01 0.363E+01   -.117E-01 -.271E-01 -.408E-02
   0.123E+04 -.161E+02 -.106E+03   -.123E+04 0.160E+02 0.105E+03   -.596E+01 0.601E-01 0.954E+00   -.152E-01 0.687E-02 0.427E-02
   -.114E+04 0.438E+03 0.262E+03   0.114E+04 -.436E+03 -.261E+03   0.264E+01 -.226E+01 -.147E+01   0.737E-02 0.932E-02 -.379E-02
   0.528E+03 0.448E+03 -.107E+04   -.526E+03 -.446E+03 0.107E+04   -.192E+01 -.158E+01 0.253E+01   -.123E-01 -.175E-01 -.659E-02
   0.477E+03 -.123E+03 0.116E+04   -.476E+03 0.122E+03 -.115E+04   -.163E+01 0.688E+00 -.592E+01   -.330E-01 -.460E-01 0.129E-01
   -.496E+02 0.649E+03 0.114E+04   0.496E+02 -.646E+03 -.114E+04   -.502E-01 -.307E+01 -.384E+01   0.109E-01 0.249E-01 0.863E-02
   0.802E+03 0.543E+03 0.607E+03   -.801E+03 -.542E+03 -.606E+03   -.140E+01 -.161E+01 -.912E+00   0.260E-01 0.238E-02 0.425E-01
   -.512E+03 0.107E+04 0.605E+03   0.511E+03 -.107E+04 -.603E+03   0.146E+01 -.373E+01 -.237E+01   -.889E-02 0.208E-01 -.521E-03
   -.393E+03 0.900E+03 -.474E+03   0.393E+03 -.900E+03 0.473E+03   0.939E+00 -.409E+00 0.742E+00   -.508E-02 -.123E-01 -.107E-01
   0.952E+03 0.800E+03 -.362E+03   -.949E+03 -.797E+03 0.361E+03   -.278E+01 -.310E+01 0.144E+01   -.408E-01 0.140E-01 0.416E-01
   0.631E+02 0.251E+03 0.696E+02   -.643E+02 -.251E+03 -.706E+02   0.111E+01 0.207E+00 0.101E+01   0.143E-01 0.664E-01 0.131E-01
   0.268E+03 0.132E+04 -.105E+03   -.266E+03 -.131E+04 0.106E+03   -.202E+01 -.516E+01 -.944E+00   -.326E-01 0.402E-01 -.408E-01
 -----------------------------------------------------------------------------------------------
   0.154E+01 0.278E+01 0.912E+00   -.341E-12 0.000E+00 -.639E-12   -.152E+01 -.277E+01 -.820E+00   0.847E-02 0.156E-01 -.436E-02
 
 
 POSITION                                       TOTAL-FORCE (eV/Angst)
 -----------------------------------------------------------------------------------
     12.58054     13.98869     12.01074        -0.006517      0.002330      0.006880
     12.30054     13.77420      9.20359         0.020825     -0.011812      0.011990
     10.04328     13.73885     10.90565        -0.006295     -0.015447      0.015585
     10.81155     12.09301     13.06371        -0.018702      0.001841     -0.004578
     13.59219     11.54367     12.84485         0.006719     -0.023528     -0.003976
     14.47285     12.52996     10.43425        -0.012191     -0.027747      0.001233
      7.45675     12.80660      9.17037         0.039738     -0.031691     -0.009093
     10.14617     12.18237      8.64046        -0.056308     -0.005004     -0.040360
      8.37178     11.66485     11.68096         0.012580     -0.005166      0.012723
     12.14804     10.18640     14.75729         0.034435      0.011740      0.001334
     12.70606     10.95766      8.99957         0.028111      0.015256     -0.008146
     14.80475      9.24144     13.68383        -0.026572      0.002180     -0.023390
      5.88602     10.92539     10.62732        -0.005664      0.009346     -0.005352
     14.52881      9.75320     10.86241        -0.013336      0.004293      0.013894
      9.79610      9.54736     13.36374        -0.007907      0.015141      0.015694
      8.34741     11.40505      6.70916         0.009307     -0.001253      0.065161
     10.51537      9.57349      7.82744        -0.027994     -0.013271     -0.004173
      8.06226     10.11558      9.10751         0.026775      0.032093     -0.049739
     12.33190      8.24986      9.66330         0.020460      0.009362     -0.055012
     12.40410      8.74688     12.42719         0.053918      0.013322      0.034118
      7.74401      8.95252     11.57535        -0.000609     -0.021788      0.024842
     10.48726     10.10804     10.66152        -0.027442      0.029400      0.023828
     10.16971      7.47119     11.41032        -0.043332      0.010403     -0.023462
 -----------------------------------------------------------------------------------
    total drift:                                0.026568      0.018156      0.087764


--------------------------------------------------------------------------------------------------------



  FREE ENERGIE OF THE ION-ELECTRON SYSTEM (eV)
  ---------------------------------------------------
  free  energy   TOTEN  =       -46.19130823 eV

  energy  without entropy=      -46.19130823  energy(sigma->0) =      -46.19130823
 
 d Force = 0.1685223E-03[ 0.157E-03, 0.180E-03]  d Energy = 0.2625097E-03-0.940E-04
 d Force =-0.8035411E+00[-0.797E+00,-0.810E+00]  d Ewald  =-0.8035404E+00-0.658E-06


--------------------------------------------------------------------------------------------------------


    POTLOK:  cpu time    0.30: real time    0.30


--------------------------------------------------------------------------------------------------------




--------------------------------------------------------------------------------------------------------


  
 reached required accuracy - stopping structural energy minimisation
     LOOP+:  cpu time   12.28: real time   12.92
    4ORBIT:  cpu time    0.00: real time    0.00

 total amount of memory used by VASP on root node    65140. kBytes
========================================================================

   base      :      30000. kBytes
   nonl-proj :       2603. kBytes
   fftplans  :       7241. kBytes
   grid      :      18544. kBytes
   one-center:         46. kBytes
   wavefun   :       6706. kBytes
 
  
  
 General timing and accounting informations for this job:
 ========================================================
  
                  Total CPU time used (sec):     2058.789
                            User time (sec):     2041.664
                          System time (sec):       17.125
                         Elapsed time (sec):     2106.747
  
                   Maximum memory used (kb):       79808.
                   Average memory used (kb):           0.
  
                          Minor page faults:      2724636
                          Major page faults:            0
                 Voluntary context switches:        17756
