16
Energy = -125.06560781 eV
C 6.718910091409134 8.372669268982696 7.743570237203404
C 5.7367496269701554 7.793636884133814 8.545678849147091
C 7.9211766446745795 9.290951990824512 5.901582337158662
C 9.105556200710195 8.921366680391872 5.835509350106161
C 10.232447355276308 8.246709374509386 6.073786056221936
C 4.45554557752348 8.19728713840367 8.071008076818325
C 6.68022224574902 9.11683737139836 6.5644930969522495
C 10.876953721748606 7.397183640005571 6.727580734996537
C 7.16721245328449 6.199079186788379 9.912964481852095
C 11.0131907024098 6.47885393924787 7.680949248839499
C 4.369434393627228 8.945594316647137 7.006580163488001
C 9.549126744710618 5.556135772677345 9.491886666855349
C 6.197664213278078 6.87184496692472 9.520404688504197
C 5.319845842561735 9.407370615936795 6.242493380655917
C 10.533339993480984 5.839613997048464 8.64699186943492
C 8.389919623401463 5.668082505919139 9.95025309633444
