16
Energy = -120.86008455 eV
C 7.27568885203877 9.145750714965494 5.450182200787904
C 6.196597859968072 9.039701702651216 6.092202623815213
C 8.465429308702943 8.627138437947528 5.132909753707262
C 5.65422836549914 8.204903579510857 6.979679278102818
C 8.42843043400286 8.960544148756167 10.21402340411673
C 9.189029450702517 7.641679412750284 5.410668747554203
C 7.488713522971121 9.654953948196558 11.063735865377403
C 7.923927178998478 7.817968299329084 9.533974937570113
C 9.206374845061262 6.908132229049889 7.670163132503266
C 6.999168997860406 8.47047509125618 10.386374805374107
C 5.772021428328484 7.131725272254114 7.628282058449891
C 9.234874938826481 6.560846677050205 6.300801234104589
C 8.070333130411571 6.936644824620575 8.477199155493924
C 6.852665778934956 6.2811733534209795 7.85574316674865
C 8.338981121856596 5.473192937497591 6.264990440594923
C 7.274702069032444 5.304752577303289 6.939671468520684
