22
Energy = -173.3272407 eV
C 7.578862841037527 7.854877478078406 4.368557700509182
C 7.018479544538608 8.072503901307678 6.894556314592077
C 6.437820110055484 8.595202364215265 4.386455260538235
C 5.614891214160329 8.198408572403697 6.418456610295653
C 7.3972028787663 6.378041881874089 4.396294856111383
C 7.871130253808231 7.60612386540301 5.80999786189824
C 7.307403696853784 7.443905137091776 8.109521785771479
C 4.818812675616497 7.058046642495354 6.907767591318845
C 8.013363901803723 6.157531396023138 5.70898683926183
C 6.2589341052696525 5.699286335049721 3.8961175843975115
C 5.521582823098706 8.948446034204798 5.208287059789636
C 6.292239778536076 4.5042975643132515 8.62182614636303
C 7.844922655136601 6.079554376303872 8.1057252670234
C 5.042162336550093 6.524540852027865 8.220712480795315
C 4.78816550423503 5.873486531951069 5.999605924575821
C 7.68039008340225 5.347918650947307 6.8643249752752595
C 5.08729074772637 4.685148747542583 6.765913985325252
C 5.3161931651632655 5.856795937210371 4.725630065960261
C 6.284077096159928 6.796002723450383 8.915569598555399
C 7.037029376847394 5.560652917416341 9.226637184932923
C 6.5745609010558885 4.4518603616460215 7.186237756545933
C 5.037623177448859 5.072064359000906 8.134106007029157
