23
Energy = -172.17799104 eV
C 11.682523700901434 8.900930633584768 9.947114499620776
C 11.239672860747312 10.278412724483964 9.732583371182637
C 10.920270428404175 8.264567224890778 11.002713491979556
C 11.022019221410153 9.25903678186175 8.721248716318508
C 9.927237704034415 10.32896848629881 10.400997878930133
C 9.950156698291686 7.181297100211069 10.828029946387314
C 9.879759837109841 9.229322723402124 11.304475262348383
C 8.972820799226922 9.772380898924403 9.46606439916399
C 9.617602267650604 9.060193049910822 8.419520311564044
C 9.2471741030516 6.550024860426918 8.712596802657554
C 9.854375990003742 6.277773460831013 9.78219402142901
C 8.582399698356 7.838899712712253 8.416104741505329
C 8.82628735807185 8.128090657357589 11.004826847492746
C 8.211922307312015 8.524505745635121 9.817095222019768
C 7.482859427997936 7.810520665739639 7.41266733733041
C 7.3595569347224865 6.975512370864976 6.207163760080912
C 6.2511383346926355 8.424330012387516 7.507827613131445
C 5.365745137925993 8.133181418406641 6.432881717613174
C 6.949716158567264 8.461781858814717 4.021767113393697
C 6.0331476510402355 6.963709962841484 5.755346934082541
C 7.0498595525596235 7.328228374702847 4.798988334747399
C 5.17360381748634 8.928804776615024 5.326380952525635
C 5.756925212386675 9.204377911700755 4.202445433770608
