24
Energy = -182.51073321 eV
C 10.752669740685612 7.724725919060905 7.408840613110239
C 9.829108771887878 7.334651754441094 6.357371201600441
C 10.65223285533969 9.081398191695111 7.682791236476124
C 9.359726239370277 9.53130480053429 7.136670759790375
C 9.113556438355431 8.612647773599178 6.00106672998775
C 7.832335418435426 8.338024454921092 5.369975548511129
C 10.419841793788578 8.131285285642074 8.765006311000258
C 6.797998227951269 9.223691460055353 5.5270202456650805
C 8.80056326873632 6.457140112242898 6.477889940525983
C 6.037028223165472 9.325730258219574 6.541489349513946
C 8.50771443374502 9.317742949016711 8.284883308158847
C 7.510922817192162 6.968517626377561 5.912941126281108
C 9.094770870426428 8.373478741067137 9.221212710848002
C 6.1975524691414785 8.488908615988406 7.626690352370692
C 7.064416347226135 8.921882007561546 8.745072489753296
C 6.571144062420227 7.156427014932744 7.154764764345484
C 6.275543368053377 6.011855167624603 5.9338486837512185
C 6.864512766873698 9.235262207306242 10.230700793344756
C 7.75899474287755 7.848848785643543 9.626323389676436
C 6.913641627893702 6.85949274420423 10.32868901479588
C 6.263744714063949 5.792724742883116 7.320505733374796
C 6.1628788205171094 5.251594196828263 8.600896688867815
C 6.5307701322778975 8.088485858638242 10.859403605367927
C 6.322180286544182 5.776294535752827 9.729524108607981
