37
Energy = -293.22619634 eV
C 2.370274269496554 5.9031945274797915 4.758955197980534
C 6.678961996221917 8.021938387625925 5.111900130431881
C 6.133483781698541 7.063093164588111 7.230444609228623
C 3.489620694049488 6.190016452168716 7.939008521112417
C 5.454709312384613 8.498731064345545 5.612227608239925
C 3.815561124097575 7.411491772421606 7.312774261893055
C 5.992012233181719 5.532467058550302 7.117191768949165
C 3.609204079667247 6.300479580298111 4.254759065693362
C 2.8778810888497515 4.415084130927708 6.569590444795546
C 5.129743837216887 4.392983630958855 7.704397140545203
C 2.603415067588979 6.696266141942413 6.986724092458405
C 3.771723263768652 4.813078162047484 7.681484872878216
C 7.107945723235004 7.109275458878527 6.168140358695834
C 6.890464612208063 7.402884867274704 3.7490396712897063
C 2.162391308094681 5.644600145163246 6.1282126269608455
C 5.671318950118241 5.627201310369545 5.640736813418493
C 8.187788102420665 7.04341701142605 3.2619817578505668
C 5.94953573210834 6.415298132070856 3.4501421535402326
C 2.867845718936111 5.349092459407166 3.550859423159414
C 4.999303327766544 6.2340525461406475 4.592010696855088
C 5.994750697499309 5.050674099762457 2.7543558973857025
C 5.478654852204498 3.133499123297383 7.149211770710895
C 3.3692975800498144 3.367512602078981 5.730121088059368
C 6.427975396088316 3.1877542381489947 4.437353891947717
C 8.1734353102413 4.729843772115639 3.9627297231800136
C 7.1677936262715205 5.590304360893361 6.036089328958148
C 3.8022008884057366 3.3186396048161786 4.2756699872483725
C 8.071345804537978 4.511317185137187 5.421701226462679
C 6.969213433708677 4.167764575176154 3.449033483953951
C 8.668292277017846 5.9056940735465115 3.425972744535761
C 3.637635096498409 4.142258914340533 3.17264764298589
C 6.847474668933011 2.972424474051825 6.858503324871352
C 4.6044687154820805 2.7151338092366704 6.092371260439483
C 4.833498321874822 4.414674550894029 2.460131099147283
C 5.118740819754037 2.777014890986501 4.718005667860238
C 7.313985531144108 3.2720890386824673 5.624622878320038
C 5.048188825545411 7.968890751114626 6.901033836321208
