41
Energy = -319.59289476 eV
C 6.310117977557548 2.7682612229278427 5.899654229224715
C 7.371589323336782 3.4836971541285995 6.45842421542023
C 5.586394801653313 2.937808350667097 4.644486416279502
C 8.454933074278948 4.074959122217996 5.707338019427895
C 4.277530608026768 2.792471853716531 5.517001612065473
C 5.057470876141227 2.5928864288676867 6.652793131543696
C 7.178765321875746 4.378574156028783 7.588626732955464
C 5.829382603977267 5.838396850707812 6.452141892922718
C 8.984370974438514 5.238995767821903 6.384690515686266
C 2.9737660016156786 5.760557064427661 4.282018915064102
C 5.899553556632563 5.205486284536451 7.901398373697498
C 7.2182720853376905 4.63784519935373 3.6094163226678235
C 8.166648605301434 5.470249065454168 7.536295610015275
C 4.219826672319895 3.854154266462431 6.581224758482086
C 6.016241565787701 3.8858086193327055 3.7239621430235417
C 8.329167320988065 4.787033638417804 4.473702982473832
C 8.995076096495994 5.988980054161132 5.102723895218931
C 6.582862023892514 6.823376469696248 5.97556861177197
C 8.550440220195478 7.267021322858719 4.915242923492873
C 4.052493082635461 6.488403831752081 3.7027759689907143
C 7.592947472423342 6.720965535584764 8.075778789261218
C 8.33870269854574 8.355853564233852 5.886669722445959
C 4.636571801589462 5.190895760063572 6.041239851327628
C 5.997753394365243 5.193906714976341 3.1296575995712117
C 7.132027920996429 9.192663452773015 5.434828668423742
C 4.121520973438902 4.929130993375516 7.591561444807808
C 3.69375789183103 7.232152749426897 4.826497753339768
C 7.088337465977043 7.181840789569963 4.602279165253381
C 4.140948219872544 7.172825306361439 9.16979489053217
C 7.3687564312906515 7.794858035464056 6.972194354778612
C 6.3763416838019165 6.356138901379945 8.740594029059233
C 3.43817606953272 6.093546086721316 5.724540223080878
C 6.229518030293373 7.554652914916515 3.4937888818348872
C 3.234658547989085 6.152576996901286 7.220756630928806
C 6.483589484743449 8.643518513413968 4.2409010309428625
C 5.33329640625905 6.448375626909673 3.0752259982262333
C 3.4397382548423945 7.348547620016917 7.925819425838901
C 6.399753840193392 9.008678965050365 6.642341056367498
C 5.364677180677175 7.063521670833795 9.36442626782804
C 5.0273193631690205 9.063624243020861 6.9293027552974475
C 3.9813763731372602 8.501431132926228 7.276986487887415
