41
Energy = -314.11063969 eV
C 6.208417132739223 6.398378843985278 4.791490217014249
C 7.612128177619954 5.812204301356057 4.586021531783717
C 7.568351474732846 8.344498633495002 4.717851780533586
C 8.475437163969596 7.073607347427063 4.618752931712288
C 6.197039628669804 7.9957631566429805 4.6648598483450545
C 5.2735733684758355 5.858135710818376 6.121513798867237
C 8.009621005660613 4.837868329405183 5.582272120656016
C 6.667917359499655 6.568824310686912 6.142460703305022
C 9.613256585256345 6.820767293219676 5.546397817583494
C 5.2775164884143155 8.454162412102855 5.882026023735627
C 7.209920077762174 4.335084928864168 6.807602327511091
C 7.9237963484134255 9.304265823031956 5.973661496187042
C 9.080530793051244 5.62114408953001 6.297250013291419
C 4.4759638991161985 7.25865162971083 6.652385343648293
C 5.936070156843461 7.513762137179112 6.800176898941189
C 8.097706963556606 8.201767202809654 6.903834875826329
C 10.141588739990096 7.731398227942639 6.521186972857041
C 7.945674668780674 6.6603638996223005 6.824483996280974
C 9.323242222871235 8.977524423098009 6.794764925753562
C 5.451165770912817 9.580004714687393 6.8849361478301665
C 9.348802375218076 5.150881102719377 7.739102463246003
C 10.110873150787683 7.504079980436207 8.039016225433398
C 6.459148438814316 7.4680626133649275 8.130570834928326
C 6.781981878341824 10.064555480921246 7.016295317836884
C 9.614253961669506 8.832770806547979 8.389911520861958
C 5.84571683660531 4.8875244633277495 7.200890934283929
C 4.854048630370978 9.13060152385361 8.188598663706854
C 7.404691392813253 8.530603458054996 8.09689649850902
C 7.496502181945487 6.473050335057363 8.18901472702192
C 9.574242907219727 6.270847205884112 8.62710111466291
C 8.066977935576197 4.4711185576976336 7.964977967391386
C 4.351831399260803 7.755376762802962 8.10602781601617
C 7.061611346701386 9.879462175104663 8.616358622205516
C 5.815817821231208 5.368668554046222 8.593862471788222
C 8.291158309659181 8.961051057732652 9.200628397433645
C 5.8134487310152085 9.332634320466422 9.274479507652634
C 5.367738250907102 6.991559013020413 9.025770757533929
C 8.220949069895722 6.480182389144744 9.476416842973714
C 7.297462608724903 5.247206625036923 8.991069842460496
C 7.630254151156129 7.85881759237024 10.086783311584469
C 6.174627069507489 8.063825040551535 10.003352864561855
