42
Energy = -347.64016114 eV
C 5.826704904376218 6.99968671277001 4.021113645419762
C 7.109739917487151 4.868204950532599 4.564856075069839
C 6.1558850996998125 8.302972851381716 4.5278539658683
C 7.069641182530862 6.195735893030971 4.01488619009467
C 4.610852724354339 6.405961268769346 4.44973104044485
C 8.178991318076747 7.104618559325957 4.201366602180407
C 5.971046718588149 4.3798677732318785 5.375187796238918
C 3.622875714393165 7.19671144470614 5.059020837842668
C 7.590442562645068 8.379893069604853 4.535905417108198
C 5.70726886332073 6.01925186701755 6.516996586508342
C 6.2416311486813365 3.5078601959959115 6.461828186552281
C 9.38099319181122 5.515783546441455 5.4573597489254775
C 4.054434994099392 8.408491947849079 5.741173491969983
C 8.360275194456433 4.5798842231598496 5.161476188396188
C 9.283316088962664 6.8757940389715735 5.117890874878573
C 3.1080706447352693 6.5975550173071715 6.31656321448203
C 8.274842668137454 8.882609254553582 5.632918736875762
C 7.555574385933731 9.328642797930689 6.820434245441648
C 3.8841332506197253 5.423227199329001 6.560833712215747
C 5.377426621438048 8.870567782515138 5.6284660493076775
C 8.858626758412477 4.685550207530872 6.47465133064478
C 3.5765368187139335 7.794876167497574 7.001705447269824
C 4.804020625941533 5.288867160250423 5.397625633727364
C 9.512195941545276 8.058760653723047 7.422412923012185
C 8.565221927555942 4.7525643135908515 7.853875223252081
C 8.376650657030785 8.958957184605495 7.898093922167762
C 9.384537130133658 8.016889315565464 6.002206996950973
C 9.28108791414427 5.674681363595189 8.642626532474763
C 6.123821747937903 9.185548271695595 6.888470164867272
C 6.0012691378485785 4.318668250506057 7.63256826120787
C 4.851462131616359 5.371868113794821 7.6892146437060696
C 4.433779478029429 7.767766635261962 8.07707610178497
C 6.039595745155607 6.7035192949540665 9.406075945188473
C 9.763175929844975 7.124746442364848 8.452316764083914
C 7.149948389554074 4.661711958379685 8.429084500989179
C 8.402736612159071 6.097733483031817 9.71737882059443
C 7.845067802487875 8.438327287371068 9.110500514097689
C 5.595472843607943 8.640987569621153 8.124881577321219
C 4.873520332461354 6.493806815608093 8.665602252851343
C 8.780905218713873 7.429577681152334 9.492467286822304
C 7.065424749753878 5.68765587161357 9.428080675982677
C 6.470518327736199 8.123338978594207 9.146945289912768
