45
Energy = -349.59654195 eV
C 7.898007733034118 8.236557883726226 4.958357757225201
C 7.532851114160789 5.12793434352614 5.231413016738583
C 6.396691614520664 8.267831954881522 4.91886635316249
C 5.576284754145969 6.973020763754569 5.650633030849185
C 9.031584245677925 7.096032022087026 4.88932449603547
C 5.986406367099379 9.539520105205298 5.7943476028623895
C 8.373842721669218 9.587638375665561 5.5681462808444975
C 8.894417182099685 5.621820795300944 5.381552305082984
C 9.982444451547844 7.840897568088401 5.86764731657565
C 4.443657105637839 6.300707327772088 6.464434083429498
C 8.52533997256864 7.648587737766718 6.173987701874137
C 7.277895565262543 10.178659929565933 6.269883782085199
C 6.409072302285639 4.482359618291879 6.2655188705684735
C 6.633323021959787 5.988798613760481 5.931281225129466
C 4.82455073512281 9.116896932400707 6.4888989767912975
C 9.82961246118318 5.550620990354789 6.550546507605517
C 9.691185032126958 9.345438013948556 6.1487025980737045
C 5.952484505378932 8.122322834537043 6.465504917880953
C 10.387223049500204 6.822946021889587 6.854085544386093
C 4.886633531013293 4.991007106650776 6.9089874313580735
C 4.072106504465004 7.135424913494941 7.608114932984624
C 4.270163086171142 8.571666345094446 7.726944373978533
C 9.92094646431489 9.735056819441072 7.487650620800975
C 6.754514001296485 8.038703718059407 7.725489609031949
C 7.17182052588092 6.105334815566259 7.393149185049048
C 10.712614847731738 8.803277986475395 8.247091350464315
C 7.429898716596664 10.219877968684731 7.74357820822146
C 5.995409356311603 4.278912217169717 8.956815082244457
C 7.344075478391742 4.659978867806416 7.414744295874375
C 8.704355049721116 10.00186333179141 8.28794041049246
C 9.507548454390632 5.219919559733846 7.997903197026112
C 4.942752412807802 4.963747457715856 8.385234267150583
C 8.129257095732822 7.237402498959812 7.471359237973958
C 9.591932283533557 6.831526803300628 8.213972522210264
C 4.786910278787982 6.503065620181304 8.727054404514346
C 6.330635553462883 6.813251321104559 8.483592674828133
C 5.019845195374818 8.848337169480734 8.934348206694269
C 8.690131750457601 8.970580003582038 9.365776019846075
C 7.280204085845985 4.117688600754418 9.003415724592605
C 9.860723100370231 8.090228045305464 9.081299728637783
C 6.513698349596771 9.298715932977132 8.623353050911152
C 7.3871626170265365 8.647145961504696 9.684374419640072
C 8.479259822151537 4.306880496940284 8.270995008965052
C 5.188123911833989 7.62624193977063 9.716350445639552
C 6.63084514208645 7.384014216265752 9.915774774004667
