46
Energy = -365.5311324 eV
C 6.68800616819356 6.745002296101399 3.404991140331024
C 6.110473880347522 5.32104539293016 3.6324814401812495
C 4.772002671340318 8.330475405825798 4.242936289497451
C 3.777700013862574 5.979270051990457 3.947917812319612
C 8.218305471375743 5.45059372190757 4.529264844666746
C 8.083010940068402 6.642626162600423 3.7382934355763915
C 7.16898606038817 9.008503785392946 3.7511398091362684
C 4.774266367951028 4.989654316913843 4.011400648420366
C 7.10079001596431 4.504712128420966 4.270134322106543
C 4.577412180474957 9.164923099542293 5.388148063666201
C 3.814733034460002 7.346697919037847 4.184910817713699
C 9.824942450917435 6.92924148512728 5.3937790433720645
C 7.535982506946107 5.876684920218414 5.871762508449335
C 9.15043307369502 4.590340226606455 6.569234401694992
C 3.0251138139454823 6.460313135607129 5.010429336043432
C 5.532526764076199 3.2033477438544695 5.691405884918907
C 6.108722943236713 8.087906915201316 3.6409783225394072
C 9.003072730121605 7.592412724728149 4.297349111564652
C 6.820036317179965 3.6886796166882383 5.422374353880971
C 8.36899866701392 8.819390138855756 4.0868950186216875
C 4.507103816978511 4.100084509477869 5.124762266694225
C 7.6279722448153295 4.442895514920577 6.481411136272439
C 3.2460690481942156 6.633309105171412 7.49525388487702
C 3.1118259013908522 5.8707126160970295 6.311898986876421
C 4.730760270509365 10.18153934056147 6.319073602870998
C 9.644043756983526 7.475750330284408 6.726375144962822
C 8.35919053202668 7.888710423020809 7.004127702183094
C 5.1035340084071885 2.762317847828821 6.961464646186994
C 4.0058798901513715 9.007616690124733 6.680065405822622
C 3.5564741024458653 8.101230537636356 7.631994990922934
C 3.6606807160276587 4.525412751201805 6.227247503419387
C 7.200823028433839 7.168224680001631 6.377981850313191
C 5.854134576700515 2.86689716744525 8.2638769788993
C 6.342275038619736 7.227337741272718 7.441258671449818
C 4.090690123441582 3.7195633169972373 7.339546341706883
C 4.46281232969508 7.711388274468099 8.713476466528837
C 8.322425293780523 4.863407933936242 7.717963465494312
C 5.881349398261782 7.680109104954637 8.613613774750032
C 9.373308605871397 5.571483515422696 5.470636058299067
C 8.858800430273421 7.05115034780285 8.003395476939444
C 4.090673958256665 6.308587680817466 8.650026201028956
C 4.9403328532398945 4.051240020593917 8.454099136441828
C 6.458953694764184 6.2202745228254175 8.680166526914894
C 6.934206150586387 2.513445110710858 8.923299034497218
C 5.194626198220419 5.391841374252852 8.766274805900828
C 7.994165718229106 5.942276112484843 8.543511092907302
