46
Energy = -366.66690116 eV
C 4.40090809317282 4.798221395802635 0.5064516831845087
C 3.252321133236043 3.913408433264864 0.8885579245662301
C 5.260149931636521 3.124741265573884 1.783595340275983
C 3.6680962515572197 5.883848862816373 1.1659860488163212
C 8.15894653824735 3.6870744606234687 3.5563492391518174
C 8.292012157080935 6.1503916554550315 3.8815685001247644
C 5.581289302170584 4.177877632644647 0.9096587523093179
C 1.9041888367208746 4.934605316807131 2.769436446265722
C 3.808646313882642 3.0238437890751713 1.8286641809206792
C 2.520325675949369 4.992097592072801 1.496990730416949
C 4.146141653935002 7.294539596396 3.5126001573300223
C 5.815418607622913 2.7984369447427326 3.070456204246156
C 4.619309296964159 2.7956835324773084 4.050763162138976
C 3.8711742806339426 6.88465707916483 2.132148168896163
C 2.8214633287461046 7.125690840704629 3.0227631481252235
C 8.394608143216566 4.805636335820817 4.323592552057731
C 3.383216286431797 2.979029930438429 3.151977235776602
C 5.4363907079118 4.4200258412105375 6.303510404574385
C 1.8298494615918806 6.212287526675078 3.44876291626366
C 7.126972994773167 3.0050046367836734 3.3233608316539884
C 7.249484815715896 6.793665249156804 4.12072521625966
C 2.2287214059252793 3.7171513469392674 3.609316439237171
C 2.0702373966812226 3.5209601997104123 4.99450534649062
C 4.730573781326694 7.0614789962581375 4.763422272601596
C 1.5394761832052601 6.392470690884513 4.818247609520028
C 4.4767493058908245 3.7370068850911693 5.2899404425421315
C 6.4392897763151735 5.376144240014424 5.697066251993507
C 2.440448281023602 6.7620997390232285 5.826353687529138
C 6.247937446113468 3.2317968653164746 6.674265735150738
C 7.062457646449973 1.42698852438618 5.899998859048578
C 4.506385858357998 2.177984495060225 5.445426189233136
C 7.699506513683963 4.620475269044529 5.619481890718366
C 1.652290446552456 4.238881790269636 6.178521940422769
C 3.2596698406266458 3.0137622209418184 5.811358832440169
C 6.099142581877476 6.511462333857836 4.916073127534992
C 4.541031033190102 5.070987496943502 7.315131376787281
C 8.167679274425904 2.032540823291256 6.1733086523885845
C 3.8266143231201304 7.047499123725737 5.945414630953279
C 5.774657899034312 1.96788616161558 6.237766462519592
C 4.547736996026494 6.345802540447441 8.509738805400591
C 1.5135978282408478 5.6501089343729 5.998586151857515
C 7.655077285990045 3.394425975632603 6.329645447651391
C 2.6248227646981106 3.6123139212022823 7.058726707259756
C 4.117195134620039 4.9208381324946 8.942907639520568
C 4.279293337731607 6.501594308911652 7.182087399793263
C 3.4046737359845145 4.3127509551491165 7.960969146341549
