47
Energy = -356.34165405 eV
C 12.27333872292956 15.955143203801988 6.751965499716634
C 12.47021011203374 10.068282575445442 12.420543491381453
C 11.292230368051527 15.12625656096742 7.177387156417385
C 11.24787763520977 13.81219401074598 7.787203124873295
C 8.783208454670257 13.60873559369774 8.282604602632542
C 14.752549972376015 7.978292472366396 8.361233711369511
C 9.78293651189357 8.412772586689867 7.145712041953711
C 6.8945898437861795 13.53734312255576 9.906880093074705
C 12.977256318496769 14.894376735111011 7.216706521720681
C 12.622675713835116 7.239259411160418 14.00447822695781
C 13.520507320710712 8.862826167219177 8.150920173135582
C 14.313577648821509 10.093789508999839 8.419288892169774
C 15.019799363188831 8.141920723005919 14.362798892161571
C 15.399754137399357 9.258333021461347 8.667316050024336
C 5.264555306516283 10.581666129247846 17.61601619493113
C 12.663065799092278 13.605122787201699 7.800340456623127
C 13.413685282176791 12.499099004965153 8.104422294184227
C 13.728303535120597 10.4968554378617 12.63350779964468
C 7.627286531224285 13.606413687788825 8.74091695255883
C 7.449181563327043 8.209611576500023 6.461830769877556
C 8.400007769544754 11.612203111019076 12.388139195535079
C 8.751102511514269 12.607980350751856 11.411121834998308
C 11.52360611200841 7.810952885270398 13.305956244612542
C 6.498595075483171 11.302643388151553 14.043829656096868
C 15.20820409541714 9.266879370217966 13.820163997599394
C 7.578886390172784 13.430630440198033 11.184368873208484
C 5.608728435494863 10.705667325426901 16.37912365180437
C 10.147498620326365 13.173152487103605 8.403625894467714
C 9.066322693062688 10.839569679831785 11.40391901447191
C 10.21036014921307 12.195722654292233 9.372035691517869
C 13.80978236772706 7.527624086854077 14.269546701163069
C 10.370233587645941 7.111473114450709 13.256677273450302
C 6.0398850433549045 10.979339668478733 15.17148766997948
C 8.695998992317906 7.561920825264266 6.750988906534144
C 6.483389805195142 12.820681631403444 11.993805269516715
C 12.257382265466129 8.646703091793656 7.825338525453516
C 11.766398922041947 9.083316975915292 12.709880118779552
C 14.88880917479588 10.365189870561757 13.10741246442801
C 14.896507294233631 6.676218961555998 8.203309509443773
C 8.531384543118175 9.069690091068013 6.862432820365551
C 8.18106976309912 5.745600367300229 13.145486322474712
C 7.050817914796977 11.827301295382105 12.93498567557004
C 9.297465594628795 6.414263780825838 13.226144545052398
C 9.675888319676691 11.891860514834702 10.534249323110155
C 6.059033178067113 12.644247443376301 10.651185022936998
C 11.044075636615888 8.53029108135978 7.495485980632904
C 13.947845889569246 11.411293881075816 8.34302043607893
