48
Energy = -389.11240872 eV
C 8.307341798341833 8.032789838422612 4.107129297032801
C 9.337951605479397 6.933389543914526 4.1341175594330455
C 7.285042697415671 7.249114524433206 4.720093448570248
C 9.143967021642531 8.996334981232824 4.765423820816861
C 8.347114072161645 6.226568650357583 4.953254543657211
C 10.128561885910777 7.862678739188486 4.890381544974406
C 6.488354170053104 7.846691672559964 5.7649676277688275
C 6.50062115308077 9.426277681467777 5.686263689567656
C 8.885578445733405 9.837114353632947 5.932080713000293
C 8.992433044397538 7.326645152059695 6.801887226848745
C 7.531962758265035 10.152855925541465 6.382613925215286
C 8.69260678370697 5.903496104083475 6.3768257578000975
C 10.416760875435699 7.563191496879124 6.301460353499958
C 6.67568770265221 7.51226172869131 7.30512580528462
C 7.931885933015862 5.419266800245562 7.613337717670805
C 10.108423344019144 6.2236003553106105 6.894912220121175
C 9.912486570334497 9.849124051312604 6.977411844256695
C 10.750660236512235 8.632474463551663 7.276522162054981
C 6.690741329112359 6.104906593492089 7.952109244657485
C 8.120479201996115 7.928314645564833 7.751218625206272
C 7.197904526368203 10.582092384211332 7.767361997843753
C 9.564901567150594 10.406004796193809 8.199044803628185
C 5.383298545473891 8.786905326757385 6.13827264789928
C 10.167435953446349 5.936037253005841 8.306232480037295
C 8.275616151529539 10.879848879939571 8.66073231528606
C 8.60512567657924 5.669820440684331 9.987070407726033
C 10.745085773509347 8.318185614571101 8.669074474523912
C 6.2430687589764124 6.176032619174827 9.313587381851296
C 6.018915298537485 9.926899803123444 8.312569811702929
C 8.915776547064278 5.2788888273802375 8.660864695304163
C 8.536203739090158 8.453793009370708 8.920571580225245
C 5.5219340893320465 8.614910865051785 7.655231672426699
C 4.904567321725885 8.30001519047938 8.985585425240643
C 10.455472385643972 6.96601633038892 9.257589507616268
C 9.947668882140224 9.437134584837462 9.236837092600835
C 8.295355837455597 10.705553417470691 10.124817377723533
C 7.2867032459998535 6.015694037354992 10.280009061312997
C 9.536481841575755 6.707763245663916 10.447831937112765
C 9.485832392594991 10.010931631016009 10.532135590232786
C 5.380672460187583 7.278400961213504 9.805247078372815
C 5.419545488315502 9.556897445290327 9.54704055250759
C 7.929482718341572 8.404601418687262 10.203893880019539
C 8.777519075285742 7.593304149520747 11.352377199203548
C 5.908441619059124 7.890891449929686 11.050014529708013
C 7.299633174158941 7.249410735073981 11.063338100907375
C 7.445152753810513 9.701840669472825 10.903630149042778
C 8.773591758882173 9.09555396749093 11.442355365220479
C 6.005522168570223 9.305044024774203 10.865116137356868
