48
Energy = -387.90697478 eV
C 5.494523351576044 8.420636430898764 4.5479098821712185
C 6.810570977824113 7.847701328409701 5.106232666248708
C 5.377473622203852 9.61211606735785 5.301791707207473
C 6.882161266923433 6.3532425743595935 5.248023173992608
C 6.116259808045412 5.914475927363433 6.297917259492193
C 9.107287727053922 6.387975458747053 4.190853578668924
C 8.297211420096106 8.338777452115625 5.158833351391566
C 4.555785363540057 8.22962958908533 5.736558523721498
C 4.155166752907603 9.631014583414164 6.098333102064657
C 9.086371142370016 7.634160270296403 4.067472570846695
C 8.679710625773021 9.524112420945768 6.156035698194169
C 5.2886170301935165 7.329283822310261 6.8242116654501235
C 6.554186587928653 8.174769179690777 6.609325427417523
C 8.314395700255057 4.9023218289618145 6.479368465387488
C 10.024793513801695 7.63866325232708 6.681057817391844
C 7.001342584501192 4.888669436141714 6.994120863520542
C 8.330749207296348 5.9184059773721716 5.3970938154960395
C 9.806199557962563 9.080245927591626 6.886323082276611
C 6.2819508829448045 9.698927012856714 6.553191055676474
C 7.646767891516086 10.23476286085253 6.892149909813573
C 5.034593669075751 7.671946826269134 8.34685685048996
C 9.331635334253226 4.73175028824824 7.6552197490474105
C 8.661734726585484 7.244836481732512 6.255348003067242
C 10.54745971778703 7.043626128108877 7.799476707771416
C 5.0055508345628414 9.965561779418923 7.355705762123421
C 10.03490940245499 5.777256790814721 8.342132351229534
C 10.053292620547294 9.342822458771609 8.284684853838366
C 4.723847309237901 9.012582643215783 8.494711312535793
C 8.67831978606357 3.749423914197069 8.471993648609601
C 10.611506478653062 8.097190361677013 8.830637628369034
C 7.645952366296068 7.479100551592587 7.364694773237965
C 7.812643768314938 10.503009914630393 8.281087112241467
C 6.089977162130816 7.37221911384864 9.229513554194563
C 7.142137417493876 4.446644921031278 8.470104238672768
C 9.011604664463798 10.017498426858573 8.97987229291576
C 7.442005751327294 5.592474847276079 9.212609977885748
C 5.299841063523615 10.243657469138542 8.772893984810967
C 9.736927996548024 6.115103060622281 9.754682663610517
C 6.642238726053858 10.285183503179011 9.202919965781508
C 7.2159862468728715 6.826135310914262 8.469866230474214
C 7.625239258504889 3.037965059686973 8.736814034710292
C 10.138384976745469 7.517977463029292 10.010227930852764
C 7.11684989477602 9.38634969517399 10.222261264914211
C 8.384821027281046 6.025181283154668 10.229065496260175
C 8.561485844913344 9.42841949067372 10.22602683558668
C 9.071318249726058 8.196450026721854 10.690192573819628
C 7.96443573351698 7.287227111749649 10.811041952952936
C 6.742111529517749 7.98085024910549 10.410891205506816
