48
Energy = -381.8051179 eV
C 6.931355388304581 8.172302809329723 3.2611420169568843
C 5.90200896142505 5.671173597472899 2.9219910044490525
C 8.194886538090856 8.791413917396701 3.437536060340337
C 6.490804266253174 6.803702156961418 3.4401287732493633
C 10.127771660908095 6.011895795228671 4.965065798094003
C 9.636028936001024 4.750462225001301 5.303962114434351
C 5.966329782041109 8.958772595162229 4.160951040054849
C 3.8470805908403443 7.9522778832654115 5.449571682034327
C 8.17763991832357 9.578817095466968 4.58394936580226
C 5.013162626093657 4.903865907031427 3.4005888660412933
C 6.081333134761996 7.187702132206374 4.8045760837569285
C 3.2517652919631095 4.6760413120726785 5.185029443422267
C 9.754169826560254 8.286452340630886 6.133634929960631
C 10.106382836313296 7.205567518455224 5.302966584441239
C 4.901586921432737 8.14730168605363 4.701101345833067
C 8.481636553629812 3.955950468827786 5.355366896226216
C 3.9737855791979446 4.590470533787515 4.167775036685763
C 6.752536242971036 9.809123846349976 5.000335986572788
C 7.6847028655375 6.585539300731653 6.73258665858807
C 3.6993967121179656 7.409721720962364 6.712676968608683
C 9.443104545026404 4.070483121566023 6.498762799234927
C 2.9511639578739617 6.239938993166286 7.137589417641988
C 8.93915218914525 9.427377456242688 5.801553115924934
C 6.666210761993765 7.208244909221586 6.11409667909563
C 7.366706900864089 3.50069986365086 7.296172106402521
C 7.242000193221267 3.6449934535810153 5.895851345261764
C 5.951233537564647 8.419579649630242 6.875880215209772
C 6.680131080394589 9.630946862147098 6.404869934239687
C 8.713090665277505 6.536117745755133 7.614790780319311
C 2.818763403956895 4.942453378828354 6.47853605647096
C 9.371014739163229 7.867707453759843 7.4614303959845865
C 2.8668145963681813 3.9229576474201324 7.51672598059128
C 4.776933428475051 7.884937785514554 7.592700943139298
C 8.737631187503789 3.7805427267565954 7.663675380826399
C 8.414801928459795 5.851352548985572 8.938374519763604
C 8.39799501628105 8.817916842742736 8.01563809190935
C 8.043927958213425 9.652916299963374 6.925522054451836
C 3.057926460466591 5.905644507347192 8.513792776190117
C 4.457053707767236 4.720208684046944 9.402748972499099
C 6.822288565065451 3.8915342584151484 8.662527911974392
C 6.391171770940982 7.52872402093389 9.337014412439002
C 3.1038892777652314 4.440237519551441 8.753390835838402
C 7.574688047355472 8.23375290570948 9.026410028794004
C 8.220037753141504 4.478358765879028 8.844282970454147
C 5.069302723607665 7.283870202647832 8.846796091271663
C 4.233339844943723 6.185854601973505 9.21737359215641
C 5.642037934371563 4.144006854216267 9.184831064451865
C 7.627817135204732 6.894680041132265 9.512318815090646
