50
Energy = -395.41627515 eV
C 4.429331802329296 6.848655309162236 2.2024810758193074
C 3.247488714280631 6.691158896764334 1.726965851023137
C 7.341926346233049 4.474168759292235 2.259585911226954
C 2.6597295480990066 5.548403891773578 2.2969514124510275
C 6.805278659628233 -0.12050734713608095 2.7429551930839273
C 7.48606728994248 2.2596543525029964 3.146193349268004
C 7.16866696862924 3.1176827634661493 2.1342911800207784
C 6.446756678698654 5.547974156985222 2.6705662160159993
C 1.4625028342959232 4.927801686906036 2.5921125315239926
C 5.0052463700024 5.668685267233365 2.787523097479151
C 3.802449350532753 4.847196730333207 3.045148524156151
C 1.6663820596688341 3.882650088927397 3.472616511381295
C 8.079353010931605 5.038084331813451 3.383367439240668
C 6.805728166044845 0.939099855881119 3.528193950239461
C 3.242322174502835 10.053138566796708 6.216791470819998
C 7.842175951898138 2.8869586808910426 4.429153242318036
C 6.239084714186236 1.2550989270825932 4.866268295794823
C 7.047442054236738 2.289655558051883 5.43552587459954
C 2.603054299218642 0.7840359579157818 4.770070398278548
C 7.386197026594921 6.297012283431786 3.5472660418421342
C 3.1738287100253966 3.9643460006394755 3.9652159144374255
C 6.340441840794585 8.841628226173702 5.181275316956474
C 4.27365882652891 10.30199576178598 5.534082496303488
C 6.9677386358116795 6.3674442307472106 5.030578089290945
C 8.169903513522591 4.2585840636131564 4.5545425882019
C 1.0926104609097993 2.740343910492053 3.9911790552343502
C 5.501514853688188 6.0037188081220405 5.0982335059074275
C 5.418325763493697 9.703485146081743 5.203743052226989
C 1.6670813266900646 8.276477155095385 7.183819809762328
C 2.7957538510524036 9.134665781729638 7.158888023600131
C 3.956397513247066 8.273746034522674 7.678729317815887
C 4.386443953651229 2.5154563043799834 5.817340886622221
C 3.2653962375637393 3.0217591581278342 5.020568164669006
C 6.786328719066147 7.68291762459152 5.820208488212335
C 6.286340070883017 7.570907974041086 7.183907432326603
C 7.226890791685647 4.3730401252477344 6.804817103394556
C 6.625485382471382 3.075641180789501 6.509014596621858
C 4.893940865316581 1.2247077751268813 5.2484723173340395
C 3.8019641006065017 0.43238130366524524 4.830554568499372
C 7.695716579088632 5.050292750809764 5.664814350719165
C 2.096545675481602 2.078659624011751 4.684543943867334
C 4.561340429547384 5.840609380462614 5.89689001447988
C 5.2508581223763935 8.48995957585699 7.502019572402084
C 2.021356249070372 7.070379344760663 7.52969954078343
C 5.183985821657445 3.21516442172476 6.750819316086087
C 5.8811090638966075 6.337108820411372 7.712834608936727
C 4.402048755003322 5.843637396126146 7.3731411359641
C 6.309111454566226 5.006917744022516 7.69272969083278
C 3.3596349228304674 6.853144848959628 7.731343692868081
C 5.023215852524671 4.396423172812883 7.574118202066401
