 vasp.5.3.5 31Mar14 (build Feb 01 2018 12:10:03) gamma-only                     
  
 executed on             LinuxIFC date 2019.03.23  08:03:41
 running on   64 total cores
 distrk:  each k-point on   64 cores,    1 groups
 distr:  one band on NCORES_PER_BAND=  16 cores,    4 groups


--------------------------------------------------------------------------------------------------------


 INCAR:
 POTCAR:    PAW_PBE Ag 02Apr2005                  
 POTCAR:    PAW_PBE Ag 02Apr2005                  
   VRHFIN =Ag : s1 d10                                                          
   LEXCH  = PE                                                                  
   EATOM  =  1037.2675 eV,   76.2370 Ry                                         
                                                                                
   TITEL  = PAW_PBE Ag 02Apr2005                                                
   LULTRA =        F    use ultrasoft PP ?                                      
   IUNSCR =        1    unscreen: 0-lin 1-nonlin 2-no                           
   RPACOR =    2.000    partial core radius                                     
   POMASS =  107.868; ZVAL   =   11.000    mass and valenz                      
   RCORE  =    2.500    outmost cutoff radius                                   
   RWIGS  =    2.840; RWIGS  =    1.503    wigner-seitz radius (au A)           
   ENMAX  =  249.844; ENMIN  =  187.383 eV                                      
   ICORE  =        3    local potential                                         
   LCOR   =        T    correct aug charges                                     
   LPAW   =        T    paw PP                                                  
   EAUG   =  412.496                                                            
   DEXC   =    0.000                                                            
   RMAX   =    2.560    core radius for proj-oper                               
   RAUG   =    1.300    factor for augmentation sphere                          
   RDEP   =    2.576    radius for radial grids                                 
   RDEPT  =    2.072    core radius for aug-charge                              
                                                                                
   Atomic configuration                                                         
   12 entries                                                                   
     n  l   j            E        occ.                                          
     1  0  0.50    -25324.9161   2.0000                                         
     2  0  0.50     -3728.5341   2.0000                                         
     2  1  1.50     -3344.0404   6.0000                                         
     3  0  0.50      -683.5581   2.0000                                         
     3  1  1.50      -557.3225   6.0000                                         
     3  2  2.50      -358.3853  10.0000                                         
     4  0  0.50       -95.0341   2.0000                                         
     4  1  1.50       -58.5511   6.0000                                         
     4  2  2.50        -7.4440  10.0000                                         
     5  0  0.50        -4.4045   1.0000                                         
     5  1  0.50        -1.3606   0.0000                                         
     4  3  2.50        -1.3606   0.0000                                         
   Description                                                                  
     l       E           TYP  RCUT    TYP  RCUT                                 
     2     -7.4439781     23  2.400                                             
     2     -8.8045607     23  2.400                                             
     0     -4.4044681     23  2.400                                             
     0      1.9520038     23  2.400                                             
     1     -1.3605826     23  2.500                                             
     1     27.2116520     23  2.500                                             
     3     -4.0817478     23  2.400                                             
  local pseudopotential read in
  partial core-charges read in
  partial kinetic energy density read in
  atomic valenz-charges read in
  non local Contribution for L=           2  read in
    real space projection operators read in
  non local Contribution for L=           2  read in
    real space projection operators read in
  non local Contribution for L=           0  read in
    real space projection operators read in
  non local Contribution for L=           0  read in
    real space projection operators read in
  non local Contribution for L=           1  read in
    real space projection operators read in
  non local Contribution for L=           1  read in
    real space projection operators read in
    PAW grid and wavefunctions read in
 
   number of l-projection  operators is LMAX  =           6
   number of lm-projection operators is LMMAX =          18
 

 ----------------------------------------------------------------------------- 
|                                                                             |
|  ADVICE TO THIS USER RUNNING 'VASP/VAMP'   (HEAR YOUR MASTER'S VOICE ...):  |
|                                                                             |
|      You have a (more or less) 'large supercell' and for larger cells       |
|      it might be more efficient to use real space projection opertators     |
|      So try LREAL= Auto  in the INCAR   file.                               |
|      Mind: At the moment your POTCAR file does not contain real space       |
|       projectors, and has to be modified,  BUT if you                       |
|      want to do an extremely  accurate calculation you might also keep the  |
|      reciprocal projection scheme          (i.e. LREAL=.FALSE.)             |
|                                                                             |
 ----------------------------------------------------------------------------- 

  PAW_PBE Ag 02Apr2005                  :
 energy of atom  1       EATOM=-1037.2675
 kinetic energy error for atom=    0.0689 (will be added to EATOM!!)
 
 
 POSCAR: Al39, -122.33285458 <s> Ag </s>         
  positions in direct lattice
  No initial velocities read in
 exchange correlation table for  LEXCH =        8
   RHO(1)=    0.500       N(1)  =     2000
   RHO(2)=  100.500       N(2)  =     4000
 


--------------------------------------------------------------------------------------------------------


 ion  position               nearest neighbor table
   1  0.653  0.671  0.569-   2 2.78   8 2.79  11 2.81  10 2.84   5 2.92
   2  0.742  0.591  0.536-   3 2.75   1 2.78   9 2.86  11 2.87
   3  0.738  0.509  0.445-   2 2.75   4 2.82   6 2.83  12 2.85   9 2.89  11 3.13
   4  0.716  0.432  0.347-  12 2.71   6 2.75  14 2.79   3 2.82
   5  0.572  0.698  0.470-  16 2.74   7 2.83  13 2.83  11 2.83   1 2.92  10 2.92
   6  0.628  0.512  0.381-  17 2.68   7 2.73   4 2.75  11 2.79   3 2.83  14 2.96  12 2.99  18 3.21

   7  0.559  0.613  0.377-   6 2.73  21 2.75  16 2.83   5 2.83  11 2.87  17 3.25
   8  0.596  0.572  0.617-   1 2.79  15 2.81  24 2.85  10 2.88   9 2.94  23 3.00  20 3.06  11 3.07
                            18 3.35
   9  0.672  0.485  0.554-  15 2.77  18 2.78   2 2.86  12 2.88   3 2.89  11 2.91   8 2.94  19 3.02

  10  0.529  0.679  0.592-  23 2.72  13 2.76  25 2.79   1 2.84   8 2.88   5 2.92  16 2.97
  11  0.626  0.584  0.483-  18 2.77   6 2.79   1 2.81   5 2.83  16 2.85   7 2.87   2 2.87   9 2.91
                             8 3.07   3 3.13
  12  0.664  0.405  0.453-  19 2.69   4 2.71   3 2.85  26 2.87  14 2.87   9 2.88   6 2.99  18 3.09

  13  0.453  0.725  0.505-  10 2.76  25 2.77  27 2.81   5 2.83  16 2.97
  14  0.598  0.388  0.344-   4 2.79  26 2.82  17 2.84  12 2.87  28 2.90   6 2.96
  15  0.585  0.447  0.634-  20 2.60  19 2.70   9 2.77  22 2.80   8 2.81  24 2.96  18 3.08  31 3.36

  16  0.499  0.601  0.488-  29 2.71   5 2.74  25 2.83   7 2.83  11 2.85  27 2.86  24 2.97  13 2.97
                            10 2.97  21 3.00  18 3.02
  17  0.514  0.475  0.384-   6 2.68  21 2.73  36 2.74  29 2.81  18 2.84  14 2.84  28 2.88  26 2.91
                             7 3.25
  18  0.559  0.481  0.503-  24 2.76  26 2.76  11 2.77   9 2.78  17 2.84  22 2.85  29 2.96  16 3.02
                            15 3.08  12 3.09   6 3.21  19 3.22   8 3.35
  19  0.618  0.361  0.556-  12 2.69  15 2.70  22 2.85  26 2.86   9 3.02  18 3.22
  20  0.537  0.507  0.723-  15 2.60  30 2.73  23 2.74  31 2.98   8 3.06  24 3.19
  21  0.443  0.573  0.369-  17 2.73   7 2.75  27 2.77  29 2.85  36 2.86  33 2.93  16 3.00
  22  0.495  0.391  0.567-  34 2.71  26 2.75  15 2.80  31 2.81  18 2.85  19 2.85  38 2.86  24 2.92
                            37 3.02  29 3.52
  23  0.483  0.608  0.680-  10 2.72  20 2.74  24 2.80  25 2.81  30 2.96  32 2.96   8 3.00
  24  0.482  0.520  0.591-  18 2.76  23 2.80  32 2.83   8 2.85  29 2.87  31 2.90  22 2.92  25 2.95
                            15 2.96  16 2.97  37 3.04  20 3.19
  25  0.414  0.632  0.577-  32 2.76  13 2.77  10 2.79  27 2.79  23 2.81  16 2.83  35 2.87  24 2.95

  26  0.540  0.368  0.455-  28 2.72  22 2.75  18 2.76  14 2.82  19 2.86  38 2.86  12 2.87  17 2.91

  27  0.380  0.635  0.456-  35 2.76  21 2.77  25 2.79  13 2.81  33 2.81  16 2.86  29 3.21
  28  0.472  0.356  0.354-  26 2.72  36 2.79  17 2.88  14 2.90  38 2.94
  29  0.431  0.502  0.475-  16 2.71  17 2.81  37 2.85  21 2.85  35 2.86  36 2.86  24 2.87  39 2.91
                            18 2.96  38 2.99  27 3.21  33 3.44  22 3.52
  30  0.423  0.524  0.763-  20 2.73  32 2.79  31 2.92  23 2.96
  31  0.441  0.428  0.675-  22 2.81  37 2.83  34 2.89  24 2.90  30 2.92  20 2.98  32 3.02  15 3.36

  32  0.372  0.542  0.650-  25 2.76  30 2.79  37 2.80  24 2.83  35 2.89  23 2.96  31 3.02
  33  0.314  0.553  0.387-  27 2.81  39 2.85  36 2.91  21 2.93  35 3.18  29 3.44
  34  0.396  0.330  0.603-  37 2.70  22 2.71  31 2.89  38 3.09
  35  0.326  0.551  0.529-  37 2.74  27 2.76  29 2.86  39 2.86  25 2.87  32 2.89  33 3.18
  36  0.395  0.454  0.361-  17 2.74  28 2.79  39 2.80  29 2.86  21 2.86  33 2.91  38 3.12
  37  0.370  0.444  0.571-  34 2.70  35 2.74  32 2.80  39 2.82  31 2.83  29 2.85  38 2.94  22 3.02
                            24 3.04
  38  0.413  0.369  0.471-  39 2.80  22 2.86  26 2.86  28 2.94  37 2.94  29 2.99  34 3.09  36 3.12

  39  0.315  0.446  0.457-  38 2.80  36 2.80  37 2.82  33 2.85  35 2.86  29 2.91
 
  LATTYP: Found a simple cubic cell.
 ALAT       =    22.3054495540
  
  Lattice vectors:
  
 A1 = (  22.3054495540,   0.0000000000,   0.0000000000)
 A2 = (   0.0000000000,  22.3054495540,   0.0000000000)
 A3 = (   0.0000000000,   0.0000000000,  22.3054495540)


Analysis of symmetry for initial positions (statically):
=====================================================================
 Subroutine PRICEL returns:
 Original cell was already a primitive cell.
 

 Routine SETGRP: Setting up the symmetry group for a 
 simple cubic supercell.


 Subroutine GETGRP returns: Found  1 space group operations
 (whereof  1 operations were pure point group operations)
 out of a pool of 48 trial point group operations.


The static configuration has the point symmetry C_1 .


Analysis of symmetry for dynamics (positions and initial velocities):
=====================================================================
 Subroutine PRICEL returns:
 Original cell was already a primitive cell.
 

 Routine SETGRP: Setting up the symmetry group for a 
 simple cubic supercell.


 Subroutine GETGRP returns: Found  1 space group operations
 (whereof  1 operations were pure point group operations)
 out of a pool of 48 trial point group operations.


The dynamic configuration has the point symmetry C_1 .


Analysis of magnetic symmetry:
=====================================================================
 Subroutine PRICEL returns:
 Original cell was already a primitive cell.
 

 Subroutine MAGSYM returns: Found  1 space group operations
 (whereof  1 operations were pure point group operations)
 out of a pool of  1 trial space group operations
 (whereof  1 operations were pure point group operations)
 and found also     1 'primitive' translations


The magnetic configuration has the point symmetry C_1 .
 
 
 KPOINTS: Gamma-point only                        
  k-points in reciprocal lattice
Space group operators:
 irot       det(A)        alpha          n_x          n_y          n_z        tau_x        tau_y        tau_z
    1     1.000000     0.000000     1.000000     0.000000     0.000000     0.000000     0.000000     0.000000


--------------------------------------------------------------------------------------------------------




 Dimension of arrays:
   k-points           NKPTS =      1   k-points in BZ     NKDIM =      1   number of bands    NBANDS=    280
   number of dos      NEDOS =    301   number of ions     NIONS =     39
   non local maximal  LDIM  =      6   non local SUM 2l+1 LMDIM =     18
   total plane-waves  NPLWV = 729000
   max r-space proj   IRMAX =      1   max aug-charges    IRDMAX=   3429
   dimension x,y,z NGX =    90 NGY =   90 NGZ =   90
   dimension x,y,z NGXF=   180 NGYF=  180 NGZF=  180
   support grid    NGXF=   180 NGYF=  180 NGZF=  180
   ions per type =              39
 NGX,Y,Z   is equivalent  to a cutoff of   6.71,  6.71,  6.71 a.u.
 NGXF,Y,Z  is equivalent  to a cutoff of  13.42, 13.42, 13.42 a.u.


 I would recommend the setting:
   dimension x,y,z NGX =    86 NGY =   86 NGZ =   86
 SYSTEM =  unknown system                          
 POSCAR =  Al39, -122.33285458 <s> Ag </s>         

 Startparameter for this run:
   NWRITE =      2    write-flag & timer
   PREC   = normal    normal or accurate (medium, high low for compatibility)
   ISTART =      0    job   : 0-new  1-cont  2-samecut
   ICHARG =      2    charge: 1-file 2-atom 10-const
   ISPIN  =      2    spin polarized calculation?
   LNONCOLLINEAR =      F non collinear calculations
   LSORBIT =      F    spin-orbit coupling
   INIWAV =      1    electr: 0-lowe 1-rand  2-diag
   LASPH  =      F    aspherical Exc in radial PAW
   METAGGA=      F    non-selfconsistent MetaGGA calc.

 Electronic Relaxation 1
   ENCUT  =  249.8 eV  18.36 Ry    4.29 a.u.  28.75 28.75 28.75*2*pi/ulx,y,z
   ENINI  =  249.8     initial cutoff
   ENAUG  =  412.5 eV  augmentation charge cutoff
   NELM   =     60;   NELMIN=  2; NELMDL= -5     # of ELM steps 
   EDIFF  = 0.1E-03   stopping-criterion for ELM
   LREAL  =      F    real-space projection
   NLSPLINE    = F    spline interpolate recip. space projectors
   LCOMPAT=      F    compatible to vasp.4.4
   GGA_COMPAT  = T    GGA compatible to vasp.4.4-vasp.4.6
   LMAXPAW     = -100 max onsite density
   LMAXMIX     =    2 max onsite mixed and CHGCAR
   VOSKOWN=      0    Vosko Wilk Nusair interpolation
   ROPT   =    0.00000
 Ionic relaxation
   EDIFFG = 0.1E-02   stopping-criterion for IOM
   NSW    =   1000    number of steps for IOM
   NBLOCK =      1;   KBLOCK =   1000    inner block; outer block 
   IBRION =      2    ionic relax: 0-MD 1-quasi-New 2-CG
   NFREE  =      1    steps in history (QN), initial steepest desc. (CG)
   ISIF   =      2    stress and relaxation
   IWAVPR =     11    prediction:  0-non 1-charg 2-wave 3-comb
   ISYM   =      2    0-nonsym 1-usesym 2-fastsym
   LCORR  =      T    Harris-Foulkes like correction to forces

   POTIM  = 0.1000    time-step for ionic-motion
   TEIN   =    0.0    initial temperature
   TEBEG  =    0.0;   TEEND  =   0.0 temperature during run
   SMASS  =  -3.00    Nose mass-parameter (am)
   estimated Nose-frequenzy (Omega)   =  0.10E-29 period in steps =****** mass=  -0.114E-25a.u.
   SCALEE = 1.0000    scale energy and forces
   NPACO  =    256;   APACO  = 16.0  distance and # of slots for P.C.
   PSTRESS=    0.0 pullay stress

  Mass of Ions in am
   POMASS = 107.87
  Ionic Valenz
   ZVAL   =  11.00
  Atomic Wigner-Seitz radii
   RWIGS  =  -1.00
  virtual crystal weights 
   VCA    =   1.00
   NELECT =     429.0000    total number of electrons
   NUPDOWN=      -1.0000    fix difference up-down

 DOS related values:
   EMIN   =  10.00;   EMAX   =-10.00  energy-range for DOS
   EFERMI =   0.00
   ISMEAR =     0;   SIGMA  =   0.00  broadening in eV -4-tet -1-fermi 0-gaus

 Electronic relaxation 2 (details)
   IALGO  =     38    algorithm
   LDIAG  =      T    sub-space diagonalisation (order eigenvalues)
   LSUBROT=      F    optimize rotation matrix (better conditioning)
   TURBO    =      0    0=normal 1=particle mesh
   IRESTART =      0    0=no restart 2=restart with 2 vectors
   NREBOOT  =      0    no. of reboots
   NMIN     =      0    reboot dimension
   EREF     =   0.00    reference energy to select bands
   IMIX   =      4    mixing-type and parameters
     AMIX     =   0.40;   BMIX     =  1.00
     AMIX_MAG =   1.60;   BMIX_MAG =  1.00
     AMIN     =   0.10
     WC   =   100.;   INIMIX=   1;  MIXPRE=   1;  MAXMIX= -45

 Intra band minimization:
   WEIMIN = 0.0010     energy-eigenvalue tresh-hold
   EBREAK =  0.89E-07  absolut break condition
   DEPER  =   0.30     relativ break condition  

   TIME   =   0.40     timestep for ELM

  volume/ion in A,a.u.               =     284.56      1920.28
  Fermi-wavevector in a.u.,A,eV,Ry     =   0.553541  1.046040  4.168926  0.306407
  Thomas-Fermi vector in A             =   1.586458
 
 Write flags
   LWAVE  =      F    write WAVECAR
   LCHARG =      F    write CHGCAR
   LVTOT  =      F    write LOCPOT, total local potential
   LVHAR  =      F    write LOCPOT, Hartree potential only
   LELF   =      F    write electronic localiz. function (ELF)
   LORBIT =      0    0 simple, 1 ext, 2 COOP (PROOUT)


 Dipole corrections
   LMONO  =      F    monopole corrections only (constant potential shift)
   LDIPOL =      F    correct potential (dipole corrections)
   IDIPOL =      0    1-x, 2-y, 3-z, 4-all directions 
   EPSILON=  1.0000000 bulk dielectric constant

 Exchange correlation treatment:
   GGA     =    PE    GGA type
   LEXCH   =     8    internal setting for exchange type
   VOSKOWN=      0    Vosko Wilk Nusair interpolation
   LHFCALC =     F    Hartree Fock is set to
   LHFONE  =     F    Hartree Fock one center treatment
   AEXX    =    0.0000 exact exchange contribution

 Linear response parameters
   LEPSILON=     F    determine dielectric tensor
   LRPA    =     F    only Hartree local field effects (RPA)
   LNABLA  =     F    use nabla operator in PAW spheres
   LVEL    =     F    velocity operator in full k-point grid
   LINTERFAST=   F  fast interpolation
   KINTER  =     0    interpolate to denser k-point grid
   CSHIFT  =0.1000    complex shift for real part using Kramers Kronig
   OMEGAMAX=  -1.0    maximum frequency
   DEG_THRESHOLD= 0.2000000E-02 threshold for treating states as degnerate
   RTIME   =    0.100 relaxation time in fs

 Orbital magnetization related:
   ORBITALMAG=     F  switch on orbital magnetization
   LCHIMAG   =     F  perturbation theory with respect to B field
   DQ        =  0.001000  dq finite difference perturbation B field



--------------------------------------------------------------------------------------------------------


 conjugate gradient relaxation of ions
 charge density and potential will be updated during run
 spin polarized calculation
 Variant of blocked Davidson
 Davidson routine will perform the subspace rotation
 perform sub-space diagonalisation
    after iterative eigenvector-optimisation
 modified Broyden-mixing scheme, WC =      100.0
 initial mixing is a Kerker type mixing with AMIX =  0.4000 and BMIX =      1.0000
 Hartree-type preconditioning will be used
 using additional bands           65
 reciprocal scheme for non local part
 use partial core corrections
 calculate Harris-corrections to forces 
   (improved forces if not selfconsistent)
 use gradient corrections 
 use of overlap-Matrix (Vanderbilt PP)
 Gauss-broadening in eV      SIGMA  =   0.00


--------------------------------------------------------------------------------------------------------


  energy-cutoff  :      249.84
  volume of cell :    11097.70
      direct lattice vectors                 reciprocal lattice vectors
    22.305449554  0.000000000  0.000000000     0.044832094  0.000000000  0.000000000
     0.000000000 22.305449554  0.000000000     0.000000000  0.044832094  0.000000000
     0.000000000  0.000000000 22.305449554     0.000000000  0.000000000  0.044832094

  length of vectors
    22.305449554 22.305449554 22.305449554     0.044832094  0.044832094  0.044832094


 
 k-points in units of 2pi/SCALE and weight: Gamma-point only                        
   0.00000000  0.00000000  0.00000000       1.000
 
 k-points in reciprocal lattice and weights: Gamma-point only                        
   0.00000000  0.00000000  0.00000000       1.000
 
 position of ions in fractional coordinates (direct lattice) 
   0.65339830  0.67148611  0.56893920
   0.74238343  0.59080904  0.53644280
   0.73759995  0.50856645  0.44471575
   0.71553081  0.43151993  0.34701145
   0.57235078  0.69844867  0.46999193
   0.62834681  0.51191151  0.38070305
   0.55927101  0.61306008  0.37691237
   0.59558743  0.57171262  0.61686711
   0.67227151  0.48497335  0.55433536
   0.52853089  0.67937419  0.59181025
   0.62569861  0.58383099  0.48291025
   0.66362607  0.40479787  0.45346191
   0.45321919  0.72523642  0.50493348
   0.59825873  0.38799743  0.34385143
   0.58482257  0.44740493  0.63433488
   0.49908449  0.60146884  0.48799411
   0.51405344  0.47463216  0.38399993
   0.55893781  0.48104363  0.50275126
   0.61834619  0.36089479  0.55626357
   0.53730248  0.50699943  0.72277279
   0.44287063  0.57326940  0.36927129
   0.49475838  0.39142699  0.56706039
   0.48258278  0.60838449  0.67970260
   0.48183418  0.51951383  0.59133724
   0.41388423  0.63215969  0.57675371
   0.54042443  0.36838329  0.45469356
   0.37955112  0.63542581  0.45644116
   0.47247608  0.35621999  0.35410329
   0.43094354  0.50201004  0.47467004
   0.42293127  0.52362746  0.76254444
   0.44096636  0.42818917  0.67469229
   0.37157632  0.54163908  0.64994384
   0.31418136  0.55273771  0.38736068
   0.39588099  0.33028129  0.60255463
   0.32589529  0.55090952  0.52926221
   0.39528563  0.45431679  0.36093693
   0.37013940  0.44401645  0.57071863
   0.41307972  0.36934851  0.47083323
   0.31463479  0.44575739  0.45696254
 
 position of ions in cartesian coordinates  (Angst):
  14.57434290 14.97779966 12.69044473
  16.55919624 13.17826120 11.96559785
  16.45249844 11.34380324  9.91958476
  15.96023628  9.62524600  7.74024636
  12.76654134 15.57921163 10.48338139
  14.01555810 11.41841629  8.49175263
  12.47479140 13.67458070  8.40719995
  13.28484527 12.75230702 13.75949815
  14.99531817 10.81754856 12.36469935
  11.78911910 15.15374675 13.20059370
  13.95648880 13.02261259 10.77153016
  14.80247774  9.02919858 10.11467185
  10.10925788 16.17672429 11.26276828
  13.34442996  8.65445714  7.66976081
  13.04473031  9.97956810 14.14912464
  11.13230402 13.41603282 10.88492811
  11.46619306 10.58688368  8.56529114
  12.46735923 10.72989436 11.21409284
  13.79248984  8.04992056 12.40770906
  11.98477331 11.30885015 16.12177191
   9.87842852 12.78703173  8.23676222
  11.03580808  8.73095500 12.64853692
  10.76422581 13.57028959 15.16107199
  10.74752809 11.58798942 13.19004306
   9.23187386 14.10060612 12.86475070
  12.05440997  8.21695491 10.14214432
   8.46605829 14.17345840 10.18112524
  10.53879148  7.94564697  7.89843311
   9.61238946 11.19755954 10.58772868
   9.43367209 11.67974580 17.00889660
   9.83595297  9.55095203 15.04931474
   8.28817685 12.08150320 14.49728948
   7.00795638 12.32906305  8.64025415
   8.83030354  7.36707254 13.44025201
   7.26924097 12.28828449 11.80543159
   8.81702362 10.13374022  8.05086053
   8.25612579  9.90398643 12.73013550
   9.21392882  8.23848467 10.50214679
   7.01807041  9.94281899 10.19275499
 


--------------------------------------------------------------------------------------------------------


 use parallel FFT for wavefunctions z direction half grid
 k-point  1 :   0.0000 0.0000 0.0000  plane waves:   49853

 maximum and minimum number of plane-waves per node :      3128     3109

 maximum number of plane-waves:     49853
 maximum index in each direction: 
   IXMAX=   28   IYMAX=   28   IZMAX=   28
   IXMIN=  -28   IYMIN=  -28   IZMIN=    0

 WARNING: aliasing errors must be expected set NGX to 114 to avoid them
 WARNING: aliasing errors must be expected set NGY to 114 to avoid them
 WARNING: aliasing errors must be expected set NGZ to 114 to avoid them
 aliasing errors are usually negligible using standard VASP settings
 and one can safely disregard these warnings

 parallel 3D FFT for wavefunctions:
    minimum data exchange during FFTs selected (reduces bandwidth)
 parallel 3D FFT for charge:
    minimum data exchange during FFTs selected (reduces bandwidth)


 total amount of memory used by VASP on root node    54777. kBytes
========================================================================

   base      :      30000. kBytes
   nonl-proj :       2393. kBytes
   fftplans  :       4332. kBytes
   grid      :      10964. kBytes
   one-center:         46. kBytes
   wavefun   :       7042. kBytes
 
     INWAV:  cpu time    0.00: real time    0.00
 Broyden mixing: mesh for mixing (old mesh)
   NGX = 57   NGY = 57   NGZ = 57
  (NGX  =180   NGY  =180   NGZ  =180)
  gives a total of 185193 points

 initial charge density was supplied:
 charge density of overlapping atoms calculated
 number of electron     429.0000000 magnetization      39.0000000
 keeping initial charge density in first step


--------------------------------------------------------------------------------------------------------


 Maximum index for augmentation-charges          257 (set IRDMAX)


--------------------------------------------------------------------------------------------------------


 First call to EWALD:  gamma=   0.079
 Maximum number of real-space cells 3x 3x 3
 Maximum number of reciprocal cells 3x 3x 3

 FEWALD executed in parallel
    FEWALD:  cpu time    0.01: real time    0.01


----------------------------------------- Iteration    1(   1)  ---------------------------------------


    POTLOK:  cpu time    0.27: real time    0.27
    SETDIJ:  cpu time    0.01: real time    0.01
     EDDAV:  cpu time    3.89: real time    3.89
       DOS:  cpu time    0.00: real time    0.00
    --------------------------------------------
      LOOP:  cpu time    4.16: real time    4.19

 eigenvalue-minimisations  :  1120
 total energy-change (2. order) : 0.3626220E+04  (-0.8624583E+04)
 number of electron     429.0000000 magnetization      39.0000000
 augmentation part      429.0000000 magnetization      39.0000000

 Free energy of the ion-electron system (eV)
  ---------------------------------------------------
  alpha Z        PSCENC =       116.57634987
  Ewald energy   TEWEN  =     99466.37640112
  -Hartree energ DENC   =   -138344.66383433
  -exchange      EXHF   =         0.00000000
  -V(xc)+E(xc)   XCENC  =      -426.15693399
  PAW double counting   =     39131.51494472   -37333.31974628
  entropy T*S    EENTRO =        -0.00000000
  eigenvalues    EBANDS =       565.14614865
  atomic energy  EATOM  =     40450.74657337
  ---------------------------------------------------
  free energy    TOTEN  =      3626.21990313 eV

  energy without entropy =     3626.21990313  energy(sigma->0) =     3626.21990313


--------------------------------------------------------------------------------------------------------




----------------------------------------- Iteration    1(   2)  ---------------------------------------


     EDDAV:  cpu time    5.84: real time    5.85
       DOS:  cpu time    0.00: real time    0.00
    --------------------------------------------
      LOOP:  cpu time    5.84: real time    7.36

 eigenvalue-minimisations  :  1840
 total energy-change (2. order) :-0.2992822E+04  (-0.2687721E+04)
 number of electron     429.0000000 magnetization      39.0000000
 augmentation part      429.0000000 magnetization      39.0000000

 Free energy of the ion-electron system (eV)
  ---------------------------------------------------
  alpha Z        PSCENC =       116.57634987
  Ewald energy   TEWEN  =     99466.37640112
  -Hartree energ DENC   =   -138344.66383433
  -exchange      EXHF   =         0.00000000
  -V(xc)+E(xc)   XCENC  =      -426.15693399
  PAW double counting   =     39131.51494472   -37333.31974628
  entropy T*S    EENTRO =         0.00000000
  eigenvalues    EBANDS =     -2427.67591205
  atomic energy  EATOM  =     40450.74657337
  ---------------------------------------------------
  free energy    TOTEN  =       633.39784243 eV

  energy without entropy =      633.39784243  energy(sigma->0) =      633.39784243


--------------------------------------------------------------------------------------------------------




----------------------------------------- Iteration    1(   3)  ---------------------------------------


     EDDAV:  cpu time    4.80: real time    4.81
       DOS:  cpu time    0.00: real time    0.00
    --------------------------------------------
      LOOP:  cpu time    4.80: real time    4.81

 eigenvalue-minimisations  :  1440
 total energy-change (2. order) :-0.6886413E+03  (-0.6322113E+03)
 number of electron     429.0000000 magnetization      39.0000000
 augmentation part      429.0000000 magnetization      39.0000000

 Free energy of the ion-electron system (eV)
  ---------------------------------------------------
  alpha Z        PSCENC =       116.57634987
  Ewald energy   TEWEN  =     99466.37640112
  -Hartree energ DENC   =   -138344.66383433
  -exchange      EXHF   =         0.00000000
  -V(xc)+E(xc)   XCENC  =      -426.15693399
  PAW double counting   =     39131.51494472   -37333.31974628
  entropy T*S    EENTRO =         0.00000000
  eigenvalues    EBANDS =     -3116.31717292
  atomic energy  EATOM  =     40450.74657337
  ---------------------------------------------------
  free energy    TOTEN  =       -55.24341843 eV

  energy without entropy =      -55.24341843  energy(sigma->0) =      -55.24341843


--------------------------------------------------------------------------------------------------------




----------------------------------------- Iteration    1(   4)  ---------------------------------------


     EDDAV:  cpu time    4.19: real time    4.20
       DOS:  cpu time    0.00: real time    0.00
    --------------------------------------------
      LOOP:  cpu time    4.20: real time    4.20

 eigenvalue-minimisations  :  1216
 total energy-change (2. order) :-0.2794368E+02  (-0.2771838E+02)
 number of electron     429.0000000 magnetization      39.0000000
 augmentation part      429.0000000 magnetization      39.0000000

 Free energy of the ion-electron system (eV)
  ---------------------------------------------------
  alpha Z        PSCENC =       116.57634987
  Ewald energy   TEWEN  =     99466.37640112
  -Hartree energ DENC   =   -138344.66383433
  -exchange      EXHF   =         0.00000000
  -V(xc)+E(xc)   XCENC  =      -426.15693399
  PAW double counting   =     39131.51494472   -37333.31974628
  entropy T*S    EENTRO =         0.00000000
  eigenvalues    EBANDS =     -3144.26085289
  atomic energy  EATOM  =     40450.74657337
  ---------------------------------------------------
  free energy    TOTEN  =       -83.18709840 eV

  energy without entropy =      -83.18709840  energy(sigma->0) =      -83.18709840


--------------------------------------------------------------------------------------------------------




----------------------------------------- Iteration    1(   5)  ---------------------------------------


     EDDAV:  cpu time    4.30: real time    4.31
       DOS:  cpu time    0.00: real time    0.00
    CHARGE:  cpu time    0.11: real time    0.11
    MIXING:  cpu time    0.00: real time    0.00
    --------------------------------------------
      LOOP:  cpu time    4.43: real time    4.44

 eigenvalue-minimisations  :  1256
 total energy-change (2. order) :-0.4101066E+00  (-0.4097119E+00)
 number of electron     428.9999596 magnetization      34.5302860
 augmentation part      201.3465558 magnetization      34.3790037

 Broyden mixing:
  rms(total) = 0.36143E+01    rms(broyden)= 0.36137E+01
  rms(prec ) = 0.36742E+01
  weight for this iteration     100.00

 Free energy of the ion-electron system (eV)
  ---------------------------------------------------
  alpha Z        PSCENC =       116.57634987
  Ewald energy   TEWEN  =     99466.37640112
  -Hartree energ DENC   =   -138344.66383433
  -exchange      EXHF   =         0.00000000
  -V(xc)+E(xc)   XCENC  =      -426.15693399
  PAW double counting   =     39131.51494472   -37333.31974628
  entropy T*S    EENTRO =         0.00000000
  eigenvalues    EBANDS =     -3144.67095949
  atomic energy  EATOM  =     40450.74657337
  ---------------------------------------------------
  free energy    TOTEN  =       -83.59720500 eV

  energy without entropy =      -83.59720500  energy(sigma->0) =      -83.59720500


--------------------------------------------------------------------------------------------------------




----------------------------------------- Iteration    1(   6)  ---------------------------------------


    POTLOK:  cpu time    0.23: real time    0.23
    SETDIJ:  cpu time    0.00: real time    0.01
     EDDAV:  cpu time    4.03: real time    4.03
       DOS:  cpu time    0.00: real time    0.00
    CHARGE:  cpu time    0.12: real time    0.12
    MIXING:  cpu time    0.00: real time    0.00
    --------------------------------------------
      LOOP:  cpu time    4.39: real time    4.40

 eigenvalue-minimisations  :  1136
 total energy-change (2. order) : 0.4997002E+02  (-0.1572126E+02)
 number of electron     428.9999589 magnetization      31.7253075
 augmentation part      206.1102254 magnetization      19.9251103

 Broyden mixing:
  rms(total) = 0.19008E+01    rms(broyden)= 0.19006E+01
  rms(prec ) = 0.19239E+01
  weight for this iteration     100.00

 eigenvalues of (default mixing * dielectric matrix)
  average eigenvalue GAMMA=   0.8513
  0.8513

 Free energy of the ion-electron system (eV)
  ---------------------------------------------------
  alpha Z        PSCENC =       116.57634987
  Ewald energy   TEWEN  =     99466.37640112
  -Hartree energ DENC   =   -138185.38466886
  -exchange      EXHF   =         0.00000000
  -V(xc)+E(xc)   XCENC  =      -403.61902658
  PAW double counting   =     40432.40790373   -38662.98410070
  entropy T*S    EENTRO =        -0.00000000
  eigenvalues    EBANDS =     -3247.74661440
  atomic energy  EATOM  =     40450.74657337
  ---------------------------------------------------
  free energy    TOTEN  =       -33.62718244 eV

  energy without entropy =      -33.62718244  energy(sigma->0) =      -33.62718244


--------------------------------------------------------------------------------------------------------




----------------------------------------- Iteration    1(   7)  ---------------------------------------


    POTLOK:  cpu time    0.24: real time    0.24
    SETDIJ:  cpu time    0.00: real time    0.01
     EDDAV:  cpu time    4.10: real time    4.10
       DOS:  cpu time    0.00: real time    0.00
    CHARGE:  cpu time    0.11: real time    0.11
    MIXING:  cpu time    0.00: real time    0.00
    --------------------------------------------
      LOOP:  cpu time    4.46: real time    5.48

 eigenvalue-minimisations  :  1176
 total energy-change (2. order) : 0.4604604E+01  (-0.7898073E+00)
 number of electron     428.9999587 magnetization      26.7270851
 augmentation part      206.0714813 magnetization      17.2379533

 Broyden mixing:
  rms(total) = 0.11952E+01    rms(broyden)= 0.11952E+01
  rms(prec ) = 0.12093E+01
  weight for this iteration     100.00

 eigenvalues of (default mixing * dielectric matrix)
  average eigenvalue GAMMA=   1.0494
  0.7674  1.3315

 Free energy of the ion-electron system (eV)
  ---------------------------------------------------
  alpha Z        PSCENC =       116.57634987
  Ewald energy   TEWEN  =     99466.37640112
  -Hartree energ DENC   =   -138273.86310079
  -exchange      EXHF   =         0.00000000
  -V(xc)+E(xc)   XCENC  =      -400.07509824
  PAW double counting   =     41207.83527133   -39456.85752309
  entropy T*S    EENTRO =         0.00000000
  eigenvalues    EBANDS =     -3139.76145216
  atomic energy  EATOM  =     40450.74657337
  ---------------------------------------------------
  free energy    TOTEN  =       -29.02257858 eV

  energy without entropy =      -29.02257858  energy(sigma->0) =      -29.02257858


--------------------------------------------------------------------------------------------------------




----------------------------------------- Iteration    1(   8)  ---------------------------------------


    POTLOK:  cpu time    0.22: real time    0.22
    SETDIJ:  cpu time    0.01: real time    0.01
     EDDAV:  cpu time    4.14: real time    4.14
       DOS:  cpu time    0.00: real time    0.00
    CHARGE:  cpu time    0.11: real time    0.11
    MIXING:  cpu time    0.00: real time    0.00
    --------------------------------------------
      LOOP:  cpu time    4.48: real time    4.50

 eigenvalue-minimisations  :  1176
 total energy-change (2. order) : 0.5487446E+01  (-0.2753602E+00)
 number of electron     428.9999587 magnetization      23.4629068
 augmentation part      205.9228227 magnetization      14.1721780

 Broyden mixing:
  rms(total) = 0.64802E+00    rms(broyden)= 0.64800E+00
  rms(prec ) = 0.65232E+00
  weight for this iteration     100.00

 eigenvalues of (default mixing * dielectric matrix)
  average eigenvalue GAMMA=   1.2729
  2.3053  0.8921  0.6213

 Free energy of the ion-electron system (eV)
  ---------------------------------------------------
  alpha Z        PSCENC =       116.57634987
  Ewald energy   TEWEN  =     99466.37640112
  -Hartree energ DENC   =   -138392.67112818
  -exchange      EXHF   =         0.00000000
  -V(xc)+E(xc)   XCENC  =      -395.11268709
  PAW double counting   =     42201.21865768   -40471.26301819
  entropy T*S    EENTRO =         0.00000000
  eigenvalues    EBANDS =     -2999.40628114
  atomic energy  EATOM  =     40450.74657337
  ---------------------------------------------------
  free energy    TOTEN  =       -23.53513255 eV

  energy without entropy =      -23.53513255  energy(sigma->0) =      -23.53513255


--------------------------------------------------------------------------------------------------------




----------------------------------------- Iteration    1(   9)  ---------------------------------------


    POTLOK:  cpu time    0.22: real time    0.22
    SETDIJ:  cpu time    0.01: real time    0.01
     EDDAV:  cpu time    4.32: real time    4.32
       DOS:  cpu time    0.00: real time    0.00
    CHARGE:  cpu time    0.11: real time    0.11
    MIXING:  cpu time    0.00: real time    0.00
    --------------------------------------------
      LOOP:  cpu time    4.66: real time    4.68

 eigenvalue-minimisations  :  1232
 total energy-change (2. order) :-0.5454233E+01  (-0.1322680E+00)
 number of electron     428.9999587 magnetization      20.1572902
 augmentation part      205.7940303 magnetization      11.1002365

 Broyden mixing:
  rms(total) = 0.42443E+00    rms(broyden)= 0.42442E+00
  rms(prec ) = 0.42813E+00
  weight for this iteration     100.00

 eigenvalues of (default mixing * dielectric matrix)
  average eigenvalue GAMMA=   1.2590
  2.2742  0.6227  0.8108  1.3284

 Free energy of the ion-electron system (eV)
  ---------------------------------------------------
  alpha Z        PSCENC =       116.57634987
  Ewald energy   TEWEN  =     99466.37640112
  -Hartree energ DENC   =   -138438.34012996
  -exchange      EXHF   =         0.00000000
  -V(xc)+E(xc)   XCENC  =      -398.81171374
  PAW double counting   =     42535.73781998   -40812.63160500
  entropy T*S    EENTRO =         0.00000000
  eigenvalues    EBANDS =     -2948.64306125
  atomic energy  EATOM  =     40450.74657337
  ---------------------------------------------------
  free energy    TOTEN  =       -28.98936560 eV

  energy without entropy =      -28.98936560  energy(sigma->0) =      -28.98936560


--------------------------------------------------------------------------------------------------------




----------------------------------------- Iteration    1(  10)  ---------------------------------------


    POTLOK:  cpu time    0.22: real time    0.22
    SETDIJ:  cpu time    0.01: real time    0.01
     EDDAV:  cpu time    4.12: real time    4.13
       DOS:  cpu time    0.00: real time    0.00
    CHARGE:  cpu time    0.11: real time    0.11
    MIXING:  cpu time    0.00: real time    0.01
    --------------------------------------------
      LOOP:  cpu time    4.47: real time    4.49

 eigenvalue-minimisations  :  1176
 total energy-change (2. order) :-0.1299364E+02  (-0.4113307E+00)
 number of electron     428.9999586 magnetization      16.7744236
 augmentation part      205.7718650 magnetization      10.1618360

 Broyden mixing:
  rms(total) = 0.37332E+00    rms(broyden)= 0.37325E+00
  rms(prec ) = 0.37830E+00
  weight for this iteration     100.00

 eigenvalues of (default mixing * dielectric matrix)
  average eigenvalue GAMMA=   1.2187
  2.4112  1.6141  0.8260  0.6212  0.6212

 Free energy of the ion-electron system (eV)
  ---------------------------------------------------
  alpha Z        PSCENC =       116.57634987
  Ewald energy   TEWEN  =     99466.37640112
  -Hartree energ DENC   =   -138440.74877718
  -exchange      EXHF   =         0.00000000
  -V(xc)+E(xc)   XCENC  =      -408.44347821
  PAW double counting   =     42514.70781576   -40791.16988901
  entropy T*S    EENTRO =         0.00000000
  eigenvalues    EBANDS =     -2950.02800055
  atomic energy  EATOM  =     40450.74657337
  ---------------------------------------------------
  free energy    TOTEN  =       -41.98300483 eV

  energy without entropy =      -41.98300483  energy(sigma->0) =      -41.98300483


--------------------------------------------------------------------------------------------------------




----------------------------------------- Iteration    1(  11)  ---------------------------------------


    POTLOK:  cpu time    0.24: real time    0.24
    SETDIJ:  cpu time    0.01: real time    0.01
     EDDAV:  cpu time    4.10: real time    4.10
       DOS:  cpu time    0.00: real time    0.00
    CHARGE:  cpu time    0.11: real time    0.11
    MIXING:  cpu time    0.01: real time    0.01
    --------------------------------------------
      LOOP:  cpu time    4.46: real time    4.47

 eigenvalue-minimisations  :  1168
 total energy-change (2. order) :-0.7044518E+01  (-0.2412582E+00)
 number of electron     428.9999586 magnetization      12.7253420
 augmentation part      205.7260044 magnetization       6.5300091

 Broyden mixing:
  rms(total) = 0.27795E+00    rms(broyden)= 0.27793E+00
  rms(prec ) = 0.28042E+00
  weight for this iteration     100.00

 eigenvalues of (default mixing * dielectric matrix)
  average eigenvalue GAMMA=   1.3689
  3.0800  2.1427  0.9002  0.9002  0.6552  0.5352

 Free energy of the ion-electron system (eV)
  ---------------------------------------------------
  alpha Z        PSCENC =       116.57634987
  Ewald energy   TEWEN  =     99466.37640112
  -Hartree energ DENC   =   -138455.16888690
  -exchange      EXHF   =         0.00000000
  -V(xc)+E(xc)   XCENC  =      -413.32458360
  PAW double counting   =     42536.35225515   -40813.54058957
  entropy T*S    EENTRO =         0.00000000
  eigenvalues    EBANDS =     -2937.04504205
  atomic energy  EATOM  =     40450.74657337
  ---------------------------------------------------
  free energy    TOTEN  =       -49.02752260 eV

  energy without entropy =      -49.02752260  energy(sigma->0) =      -49.02752260


--------------------------------------------------------------------------------------------------------




----------------------------------------- Iteration    1(  12)  ---------------------------------------


    POTLOK:  cpu time    0.26: real time    0.26
    SETDIJ:  cpu time    0.01: real time    0.01
     EDDAV:  cpu time    4.04: real time    4.05
       DOS:  cpu time    0.00: real time    0.00
    CHARGE:  cpu time    0.12: real time    0.11
    MIXING:  cpu time    0.00: real time    0.01
    --------------------------------------------
      LOOP:  cpu time    4.43: real time    4.68

 eigenvalue-minimisations  :  1160
 total energy-change (2. order) :-0.1185992E+02  (-0.5483353E+00)
 number of electron     428.9999585 magnetization      10.8239725
 augmentation part      205.7021468 magnetization       7.0499222

 Broyden mixing:
  rms(total) = 0.24234E+00    rms(broyden)= 0.24222E+00
  rms(prec ) = 0.25228E+00
  weight for this iteration     100.00

 eigenvalues of (default mixing * dielectric matrix)
  average eigenvalue GAMMA=   1.3399
  3.6175  2.1819  0.9012  0.9012  0.6810  0.5482  0.5482

 Free energy of the ion-electron system (eV)
  ---------------------------------------------------
  alpha Z        PSCENC =       116.57634987
  Ewald energy   TEWEN  =     99466.37640112
  -Hartree energ DENC   =   -138456.42229799
  -exchange      EXHF   =         0.00000000
  -V(xc)+E(xc)   XCENC  =      -422.15529659
  PAW double counting   =     42472.18448066   -40748.87755460
  entropy T*S    EENTRO =        -0.00000000
  eigenvalues    EBANDS =     -2939.31609915
  atomic energy  EATOM  =     40450.74657337
  ---------------------------------------------------
  free energy    TOTEN  =       -60.88744330 eV

  energy without entropy =      -60.88744330  energy(sigma->0) =      -60.88744330


--------------------------------------------------------------------------------------------------------




----------------------------------------- Iteration    1(  13)  ---------------------------------------


    POTLOK:  cpu time    0.23: real time    0.23
    SETDIJ:  cpu time    0.01: real time    0.01
     EDDAV:  cpu time    4.20: real time    4.20
       DOS:  cpu time    0.00: real time    0.00
    CHARGE:  cpu time    0.14: real time    0.14
    MIXING:  cpu time    0.00: real time    0.01
    --------------------------------------------
      LOOP:  cpu time    4.58: real time    4.61

 eigenvalue-minimisations  :  1200
 total energy-change (2. order) :-0.4077218E+01  (-0.1068641E+00)
 number of electron     428.9999586 magnetization       8.2383640
 augmentation part      205.6765860 magnetization       4.6954835

 Broyden mixing:
  rms(total) = 0.18324E+00    rms(broyden)= 0.18322E+00
  rms(prec ) = 0.19056E+00
  weight for this iteration     100.00

 eigenvalues of (default mixing * dielectric matrix)
  average eigenvalue GAMMA=   1.4634
  4.6359  2.3263  1.0499  1.0499  0.7635  0.7635  0.6344  0.4836

 Free energy of the ion-electron system (eV)
  ---------------------------------------------------
  alpha Z        PSCENC =       116.57634987
  Ewald energy   TEWEN  =     99466.37640112
  -Hartree energ DENC   =   -138452.44185413
  -exchange      EXHF   =         0.00000000
  -V(xc)+E(xc)   XCENC  =      -425.25754065
  PAW double counting   =     42439.28239236   -40715.78818449
  entropy T*S    EENTRO =         0.00000000
  eigenvalues    EBANDS =     -2944.45879876
  atomic energy  EATOM  =     40450.74657337
  ---------------------------------------------------
  free energy    TOTEN  =       -64.96466130 eV

  energy without entropy =      -64.96466130  energy(sigma->0) =      -64.96466130


--------------------------------------------------------------------------------------------------------




----------------------------------------- Iteration    1(  14)  ---------------------------------------


    POTLOK:  cpu time    0.22: real time    0.21
    SETDIJ:  cpu time    0.01: real time    0.01
     EDDAV:  cpu time    4.06: real time    4.07
       DOS:  cpu time    0.00: real time    0.00
    CHARGE:  cpu time    0.11: real time    0.11
    MIXING:  cpu time    0.00: real time    0.01
    --------------------------------------------
      LOOP:  cpu time    4.40: real time    6.27

 eigenvalue-minimisations  :  1144
 total energy-change (2. order) :-0.6486789E+01  (-0.1995076E+00)
 number of electron     428.9999586 magnetization       6.9880252
 augmentation part      205.7229105 magnetization       5.6098315

 Broyden mixing:
  rms(total) = 0.18723E+00    rms(broyden)= 0.18711E+00
  rms(prec ) = 0.19941E+00
  weight for this iteration     100.00

 eigenvalues of (default mixing * dielectric matrix)
  average eigenvalue GAMMA=   1.4008
  5.0655  2.2761  1.0951  1.0951  0.7353  0.7353  0.6499  0.5775  0.3778

 Free energy of the ion-electron system (eV)
  ---------------------------------------------------
  alpha Z        PSCENC =       116.57634987
  Ewald energy   TEWEN  =     99466.37640112
  -Hartree energ DENC   =   -138431.28523893
  -exchange      EXHF   =         0.00000000
  -V(xc)+E(xc)   XCENC  =      -430.57550700
  PAW double counting   =     42353.61438306   -40629.41824651
  entropy T*S    EENTRO =         0.00000000
  eigenvalues    EBANDS =     -2967.48616519
  atomic energy  EATOM  =     40450.74657337
  ---------------------------------------------------
  free energy    TOTEN  =       -71.45145020 eV

  energy without entropy =      -71.45145020  energy(sigma->0) =      -71.45145020


--------------------------------------------------------------------------------------------------------




----------------------------------------- Iteration    1(  15)  ---------------------------------------


    POTLOK:  cpu time    0.21: real time    0.21
    SETDIJ:  cpu time    0.01: real time    0.01
     EDDAV:  cpu time    4.24: real time    4.24
       DOS:  cpu time    0.00: real time    0.00
    CHARGE:  cpu time    0.11: real time    0.11
    MIXING:  cpu time    0.01: real time    0.01
    --------------------------------------------
      LOOP:  cpu time    4.58: real time    4.61

 eigenvalue-minimisations  :  1208
 total energy-change (2. order) :-0.1690472E+01  (-0.2336883E-01)
 number of electron     428.9999586 magnetization       4.9698042
 augmentation part      205.7217876 magnetization       3.6954043

 Broyden mixing:
  rms(total) = 0.14114E+00    rms(broyden)= 0.14113E+00
  rms(prec ) = 0.15023E+00
  weight for this iteration     100.00

 eigenvalues of (default mixing * dielectric matrix)
  average eigenvalue GAMMA=   1.5077
  6.1925  2.2265  1.2839  1.2839  0.7789  0.7789  0.8015  0.6434  0.6434  0.4442

 Free energy of the ion-electron system (eV)
  ---------------------------------------------------
  alpha Z        PSCENC =       116.57634987
  Ewald energy   TEWEN  =     99466.37640112
  -Hartree energ DENC   =   -138424.76129225
  -exchange      EXHF   =         0.00000000
  -V(xc)+E(xc)   XCENC  =      -432.04175166
  PAW double counting   =     42338.41880799   -40614.24762139
  entropy T*S    EENTRO =         0.00000000
  eigenvalues    EBANDS =     -2974.20938883
  atomic energy  EATOM  =     40450.74657337
  ---------------------------------------------------
  free energy    TOTEN  =       -73.14192177 eV

  energy without entropy =      -73.14192177  energy(sigma->0) =      -73.14192177


--------------------------------------------------------------------------------------------------------




----------------------------------------- Iteration    1(  16)  ---------------------------------------


    POTLOK:  cpu time    0.22: real time    0.22
    SETDIJ:  cpu time    0.01: real time    0.01
     EDDAV:  cpu time    4.02: real time    4.02
       DOS:  cpu time    0.00: real time    0.00
    CHARGE:  cpu time    0.12: real time    0.12
    MIXING:  cpu time    0.01: real time    0.01
    --------------------------------------------
      LOOP:  cpu time    4.38: real time    4.40

 eigenvalue-minimisations  :  1136
 total energy-change (2. order) :-0.3254595E+01  (-0.6651066E-01)
 number of electron     428.9999586 magnetization       3.3965957
 augmentation part      205.7297459 magnetization       2.2555093

 Broyden mixing:
  rms(total) = 0.92423E-01    rms(broyden)= 0.92415E-01
  rms(prec ) = 0.98975E-01
  weight for this iteration     100.00

 eigenvalues of (default mixing * dielectric matrix)
  average eigenvalue GAMMA=   1.6046
  7.0977  2.1839  1.9684  1.2275  1.0165  1.0165  0.6905  0.6905  0.6926  0.6180
  0.4488

 Free energy of the ion-electron system (eV)
  ---------------------------------------------------
  alpha Z        PSCENC =       116.57634987
  Ewald energy   TEWEN  =     99466.37640112
  -Hartree energ DENC   =   -138406.28295118
  -exchange      EXHF   =         0.00000000
  -V(xc)+E(xc)   XCENC  =      -434.99108191
  PAW double counting   =     42299.05823414   -40574.58792383
  entropy T*S    EENTRO =         0.00000000
  eigenvalues    EBANDS =     -2993.29211808
  atomic energy  EATOM  =     40450.74657337
  ---------------------------------------------------
  free energy    TOTEN  =       -76.39651650 eV

  energy without entropy =      -76.39651650  energy(sigma->0) =      -76.39651650


--------------------------------------------------------------------------------------------------------




----------------------------------------- Iteration    1(  17)  ---------------------------------------


    POTLOK:  cpu time    0.22: real time    0.21
    SETDIJ:  cpu time    0.01: real time    0.01
     EDDAV:  cpu time    4.01: real time    4.01
       DOS:  cpu time    0.00: real time    0.00
    CHARGE:  cpu time    0.11: real time    0.11
    MIXING:  cpu time    0.00: real time    0.01
    --------------------------------------------
      LOOP:  cpu time    4.35: real time    4.36

 eigenvalue-minimisations  :  1120
 total energy-change (2. order) :-0.2743144E+01  (-0.5240625E-01)
 number of electron     428.9999586 magnetization       2.3830263
 augmentation part      205.7167063 magnetization       1.3077769

 Broyden mixing:
  rms(total) = 0.55221E-01    rms(broyden)= 0.55202E-01
  rms(prec ) = 0.60936E-01
  weight for this iteration     100.00

 eigenvalues of (default mixing * dielectric matrix)
  average eigenvalue GAMMA=   1.6788
  8.1118  2.7908  1.8652  1.4102  1.0529  1.0529  0.8289  0.6801  0.6801  0.6439
  0.5796  0.4496

 Free energy of the ion-electron system (eV)
  ---------------------------------------------------
  alpha Z        PSCENC =       116.57634987
  Ewald energy   TEWEN  =     99466.37640112
  -Hartree energ DENC   =   -138377.25431761
  -exchange      EXHF   =         0.00000000
  -V(xc)+E(xc)   XCENC  =      -437.68019348
  PAW double counting   =     42265.57342049   -40540.58310855
  entropy T*S    EENTRO =         0.00000000
  eigenvalues    EBANDS =     -3022.89478586
  atomic energy  EATOM  =     40450.74657337
  ---------------------------------------------------
  free energy    TOTEN  =       -79.13966064 eV

  energy without entropy =      -79.13966064  energy(sigma->0) =      -79.13966064


--------------------------------------------------------------------------------------------------------




----------------------------------------- Iteration    1(  18)  ---------------------------------------


    POTLOK:  cpu time    0.21: real time    0.21
    SETDIJ:  cpu time    0.01: real time    0.01
     EDDAV:  cpu time    4.13: real time    4.14
       DOS:  cpu time    0.00: real time    0.00
    CHARGE:  cpu time    0.11: real time    0.11
    MIXING:  cpu time    0.01: real time    0.01
    --------------------------------------------
      LOOP:  cpu time    4.48: real time    4.48

 eigenvalue-minimisations  :  1168
 total energy-change (2. order) :-0.1329939E+01  (-0.1250782E-01)
 number of electron     428.9999586 magnetization       1.7312382
 augmentation part      205.7541051 magnetization       0.7028684

 Broyden mixing:
  rms(total) = 0.38845E-01    rms(broyden)= 0.38829E-01
  rms(prec ) = 0.43775E-01
  weight for this iteration     100.00

 eigenvalues of (default mixing * dielectric matrix)
  average eigenvalue GAMMA=   1.7551
  8.7128  3.1413  2.4594  1.3289  1.3289  0.9660  0.9660  0.7334  0.7334  0.6995
  0.6995  0.5968  0.4502

 Free energy of the ion-electron system (eV)
  ---------------------------------------------------
  alpha Z        PSCENC =       116.57634987
  Ewald energy   TEWEN  =     99466.37640112
  -Hartree energ DENC   =   -138355.32652559
  -exchange      EXHF   =         0.00000000
  -V(xc)+E(xc)   XCENC  =      -439.15025906
  PAW double counting   =     42246.63689674   -40521.26143650
  entropy T*S    EENTRO =         0.00000000
  eigenvalues    EBANDS =     -3045.06759971
  atomic energy  EATOM  =     40450.74657337
  ---------------------------------------------------
  free energy    TOTEN  =       -80.46959976 eV

  energy without entropy =      -80.46959976  energy(sigma->0) =      -80.46959976


--------------------------------------------------------------------------------------------------------




----------------------------------------- Iteration    1(  19)  ---------------------------------------


    POTLOK:  cpu time    0.22: real time    0.22
    SETDIJ:  cpu time    0.01: real time    0.01
     EDDAV:  cpu time    4.12: real time    4.13
       DOS:  cpu time    0.00: real time    0.00
    CHARGE:  cpu time    0.11: real time    0.11
    MIXING:  cpu time    0.01: real time    0.01
    --------------------------------------------
      LOOP:  cpu time    4.48: real time    4.48

 eigenvalue-minimisations  :  1168
 total energy-change (2. order) :-0.1178182E+01  (-0.7666925E-02)
 number of electron     428.9999586 magnetization       1.3599650
 augmentation part      205.7547386 magnetization       0.3328375

 Broyden mixing:
  rms(total) = 0.21218E-01    rms(broyden)= 0.21200E-01
  rms(prec ) = 0.25323E-01
  weight for this iteration     100.00

 eigenvalues of (default mixing * dielectric matrix)
  average eigenvalue GAMMA=   1.8048
  9.1835  3.9899  2.3062  1.5209  1.5209  0.9840  0.9840  0.9725  0.6930  0.6930
  0.6888  0.6888  0.5930  0.4495

 Free energy of the ion-electron system (eV)
  ---------------------------------------------------
  alpha Z        PSCENC =       116.57634987
  Ewald energy   TEWEN  =     99466.37640112
  -Hartree energ DENC   =   -138333.80685579
  -exchange      EXHF   =         0.00000000
  -V(xc)+E(xc)   XCENC  =      -440.46214380
  PAW double counting   =     42261.73798982   -40536.39287863
  entropy T*S    EENTRO =         0.00000000
  eigenvalues    EBANDS =     -3066.42321767
  atomic energy  EATOM  =     40450.74657337
  ---------------------------------------------------
  free energy    TOTEN  =       -81.64778170 eV

  energy without entropy =      -81.64778170  energy(sigma->0) =      -81.64778170


--------------------------------------------------------------------------------------------------------




----------------------------------------- Iteration    1(  20)  ---------------------------------------


    POTLOK:  cpu time    0.24: real time    0.24
    SETDIJ:  cpu time    0.01: real time    0.01
     EDDAV:  cpu time    4.19: real time    4.19
       DOS:  cpu time    0.00: real time    0.00
    CHARGE:  cpu time    0.11: real time    0.11
    MIXING:  cpu time    0.01: real time    0.01
    --------------------------------------------
      LOOP:  cpu time    4.56: real time    5.19

 eigenvalue-minimisations  :  1184
 total energy-change (2. order) :-0.4983977E+00  (-0.2171962E-02)
 number of electron     428.9999586 magnetization       1.2597043
 augmentation part      205.7675231 magnetization       0.2371392

 Broyden mixing:
  rms(total) = 0.11078E-01    rms(broyden)= 0.11068E-01
  rms(prec ) = 0.14149E-01
  weight for this iteration     100.00

 eigenvalues of (default mixing * dielectric matrix)
  average eigenvalue GAMMA=   1.8091
  9.3669  4.4616  2.0797  2.0797  1.2847  1.2847  1.0318  1.0318  0.7095  0.7095
  0.4497  0.7427  0.6559  0.6559  0.5921

 Free energy of the ion-electron system (eV)
  ---------------------------------------------------
  alpha Z        PSCENC =       116.57634987
  Ewald energy   TEWEN  =     99466.37640112
  -Hartree energ DENC   =   -138317.15472118
  -exchange      EXHF   =         0.00000000
  -V(xc)+E(xc)   XCENC  =      -441.06191363
  PAW double counting   =     42264.60834545   -40539.09059616
  entropy T*S    EENTRO =         0.00000000
  eigenvalues    EBANDS =     -3083.14661827
  atomic energy  EATOM  =     40450.74657337
  ---------------------------------------------------
  free energy    TOTEN  =       -82.14617943 eV

  energy without entropy =      -82.14617943  energy(sigma->0) =      -82.14617943


--------------------------------------------------------------------------------------------------------




----------------------------------------- Iteration    1(  21)  ---------------------------------------


    POTLOK:  cpu time    0.22: real time    0.22
    SETDIJ:  cpu time    0.01: real time    0.01
     EDDAV:  cpu time    4.12: real time    4.13
       DOS:  cpu time    0.00: real time    0.00
    CHARGE:  cpu time    0.11: real time    0.11
    MIXING:  cpu time    0.01: real time    0.01
    --------------------------------------------
      LOOP:  cpu time    4.47: real time    4.50

 eigenvalue-minimisations  :  1168
 total energy-change (2. order) :-0.1373891E+00  (-0.3608970E-03)
 number of electron     428.9999586 magnetization       1.1702541
 augmentation part      205.7661900 magnetization       0.1456926

 Broyden mixing:
  rms(total) = 0.65589E-02    rms(broyden)= 0.65564E-02
  rms(prec ) = 0.91032E-02
  weight for this iteration     100.00

 eigenvalues of (default mixing * dielectric matrix)
  average eigenvalue GAMMA=   1.8330
  9.4798  4.7855  2.4707  2.2937  1.3836  1.3836  1.0838  0.9927  0.9927  0.7063
  0.7063  0.4497  0.7212  0.6449  0.6449  0.5882

 Free energy of the ion-electron system (eV)
  ---------------------------------------------------
  alpha Z        PSCENC =       116.57634987
  Ewald energy   TEWEN  =     99466.37640112
  -Hartree energ DENC   =   -138310.05248979
  -exchange      EXHF   =         0.00000000
  -V(xc)+E(xc)   XCENC  =      -441.22649250
  PAW double counting   =     42274.10638709   -40548.63611489
  entropy T*S    EENTRO =         0.00000000
  eigenvalues    EBANDS =     -3090.17418285
  atomic energy  EATOM  =     40450.74657337
  ---------------------------------------------------
  free energy    TOTEN  =       -82.28356857 eV

  energy without entropy =      -82.28356857  energy(sigma->0) =      -82.28356857


--------------------------------------------------------------------------------------------------------




----------------------------------------- Iteration    1(  22)  ---------------------------------------


    POTLOK:  cpu time    0.24: real time    0.25
    SETDIJ:  cpu time    0.01: real time    0.01
     EDDAV:  cpu time    3.53: real time    3.53
       DOS:  cpu time    0.00: real time    0.00
    CHARGE:  cpu time    0.12: real time    0.11
    MIXING:  cpu time    0.01: real time    0.01
    --------------------------------------------
      LOOP:  cpu time    3.91: real time    4.95

 eigenvalue-minimisations  :   952
 total energy-change (2. order) :-0.6921727E-01  (-0.2080447E-03)
 number of electron     428.9999586 magnetization       1.0772157
 augmentation part      205.7677799 magnetization       0.0519009

 Broyden mixing:
  rms(total) = 0.44130E-02    rms(broyden)= 0.44119E-02
  rms(prec ) = 0.61084E-02
  weight for this iteration     100.00

 eigenvalues of (default mixing * dielectric matrix)
  average eigenvalue GAMMA=   1.8404
  9.6154  5.0675  2.5881  2.4189  1.4173  1.4173  1.3857  1.0205  1.0205  0.8700
  0.7175  0.7175  0.4497  0.6727  0.6727  0.6463  0.5890

 Free energy of the ion-electron system (eV)
  ---------------------------------------------------
  alpha Z        PSCENC =       116.57634987
  Ewald energy   TEWEN  =     99466.37640112
  -Hartree energ DENC   =   -138303.59215210
  -exchange      EXHF   =         0.00000000
  -V(xc)+E(xc)   XCENC  =      -441.32242341
  PAW double counting   =     42279.66783143   -40554.23017505
  entropy T*S    EENTRO =        -0.00000000
  eigenvalues    EBANDS =     -3096.57519108
  atomic energy  EATOM  =     40450.74657337
  ---------------------------------------------------
  free energy    TOTEN  =       -82.35278585 eV

  energy without entropy =      -82.35278585  energy(sigma->0) =      -82.35278585


--------------------------------------------------------------------------------------------------------




----------------------------------------- Iteration    1(  23)  ---------------------------------------


    POTLOK:  cpu time    0.22: real time    0.22
    SETDIJ:  cpu time    0.01: real time    0.01
     EDDAV:  cpu time    3.32: real time    3.32
       DOS:  cpu time    0.00: real time    0.00
    CHARGE:  cpu time    0.11: real time    0.11
    MIXING:  cpu time    0.01: real time    0.01
    --------------------------------------------
      LOOP:  cpu time    3.67: real time    3.68

 eigenvalue-minimisations  :   824
 total energy-change (2. order) :-0.1189988E-01  (-0.9758659E-04)
 number of electron     428.9999586 magnetization       1.0440858
 augmentation part      205.7710615 magnetization       0.0212319

 Broyden mixing:
  rms(total) = 0.26948E-02    rms(broyden)= 0.26940E-02
  rms(prec ) = 0.39639E-02
  weight for this iteration     100.00

 eigenvalues of (default mixing * dielectric matrix)
  average eigenvalue GAMMA=   1.8402
  9.6514  5.2277  3.0982  2.1319  2.1319  1.2822  1.2822  1.0029  1.0029  1.0881
  0.4497  0.7201  0.7201  0.7916  0.6629  0.6629  0.6267  0.5892

 Free energy of the ion-electron system (eV)
  ---------------------------------------------------
  alpha Z        PSCENC =       116.57634987
  Ewald energy   TEWEN  =     99466.37640112
  -Hartree energ DENC   =   -138298.92129858
  -exchange      EXHF   =         0.00000000
  -V(xc)+E(xc)   XCENC  =      -441.35780947
  PAW double counting   =     42279.13971941   -40553.70064931
  entropy T*S    EENTRO =         0.00000000
  eigenvalues    EBANDS =     -3101.22397214
  atomic energy  EATOM  =     40450.74657337
  ---------------------------------------------------
  free energy    TOTEN  =       -82.36468573 eV

  energy without entropy =      -82.36468573  energy(sigma->0) =      -82.36468573


--------------------------------------------------------------------------------------------------------




----------------------------------------- Iteration    1(  24)  ---------------------------------------


    POTLOK:  cpu time    0.23: real time    0.23
    SETDIJ:  cpu time    0.01: real time    0.01
     EDDAV:  cpu time    3.13: real time    3.13
       DOS:  cpu time    0.00: real time    0.00
    CHARGE:  cpu time    0.12: real time    0.11
    MIXING:  cpu time    0.01: real time    0.01
    --------------------------------------------
      LOOP:  cpu time    3.49: real time    3.51

 eigenvalue-minimisations  :   800
 total energy-change (2. order) :-0.1006908E-01  (-0.3029306E-04)
 number of electron     428.9999586 magnetization       1.0306508
 augmentation part      205.7697171 magnetization       0.0086396

 Broyden mixing:
  rms(total) = 0.17853E-02    rms(broyden)= 0.17850E-02
  rms(prec ) = 0.26754E-02
  weight for this iteration     100.00

 eigenvalues of (default mixing * dielectric matrix)
  average eigenvalue GAMMA=   1.8333
  9.6359  5.4071  3.3327  2.0955  2.0955  1.3673  1.3673  1.3869  1.0017  1.0017
  0.9610  0.4497  0.7176  0.7176  0.7413  0.6735  0.6735  0.5917  0.6160

 Free energy of the ion-electron system (eV)
  ---------------------------------------------------
  alpha Z        PSCENC =       116.57634987
  Ewald energy   TEWEN  =     99466.37640112
  -Hartree energ DENC   =   -138296.74030565
  -exchange      EXHF   =         0.00000000
  -V(xc)+E(xc)   XCENC  =      -441.37232690
  PAW double counting   =     42280.08688309   -40554.67787887
  entropy T*S    EENTRO =         0.00000000
  eigenvalues    EBANDS =     -3103.37045084
  atomic energy  EATOM  =     40450.74657337
  ---------------------------------------------------
  free energy    TOTEN  =       -82.37475481 eV

  energy without entropy =      -82.37475481  energy(sigma->0) =      -82.37475481


--------------------------------------------------------------------------------------------------------




----------------------------------------- Iteration    1(  25)  ---------------------------------------


    POTLOK:  cpu time    0.23: real time    0.23
    SETDIJ:  cpu time    0.01: real time    0.01
     EDDAV:  cpu time    3.13: real time    3.13
       DOS:  cpu time    0.00: real time    0.00
    CHARGE:  cpu time    0.14: real time    0.14
    MIXING:  cpu time    0.01: real time    0.01
    --------------------------------------------
      LOOP:  cpu time    3.52: real time    3.54

 eigenvalue-minimisations  :   800
 total energy-change (2. order) :-0.5803144E-02  (-0.1849640E-04)
 number of electron     428.9999586 magnetization       1.0210713
 augmentation part      205.7698963 magnetization      -0.0011231

 Broyden mixing:
  rms(total) = 0.12264E-02    rms(broyden)= 0.12261E-02
  rms(prec ) = 0.17937E-02
  weight for this iteration     100.00

 eigenvalues of (default mixing * dielectric matrix)
  average eigenvalue GAMMA=   1.8461
  9.6308  5.5773  3.5672  2.4752  2.0011  2.0011  1.3318  1.3318  1.0074  1.0074
  1.0321  0.4497  0.8346  0.7179  0.7179  0.6773  0.6773  0.5902  0.6169  0.6770

 Free energy of the ion-electron system (eV)
  ---------------------------------------------------
  alpha Z        PSCENC =       116.57634987
  Ewald energy   TEWEN  =     99466.37640112
  -Hartree energ DENC   =   -138294.72347265
  -exchange      EXHF   =         0.00000000
  -V(xc)+E(xc)   XCENC  =      -441.38418491
  PAW double counting   =     42279.91902259   -40554.50137672
  entropy T*S    EENTRO =         0.00000000
  eigenvalues    EBANDS =     -3105.38987061
  atomic energy  EATOM  =     40450.74657337
  ---------------------------------------------------
  free energy    TOTEN  =       -82.38055795 eV

  energy without entropy =      -82.38055795  energy(sigma->0) =      -82.38055795


--------------------------------------------------------------------------------------------------------




----------------------------------------- Iteration    1(  26)  ---------------------------------------


    POTLOK:  cpu time    0.23: real time    0.23
    SETDIJ:  cpu time    0.01: real time    0.01
     EDDAV:  cpu time    3.09: real time    3.10
       DOS:  cpu time    0.00: real time    0.00
    CHARGE:  cpu time    0.12: real time    0.11
    MIXING:  cpu time    0.01: real time    0.01
    --------------------------------------------
      LOOP:  cpu time    3.45: real time    3.47

 eigenvalue-minimisations  :   784
 total energy-change (2. order) :-0.3883766E-02  (-0.9217025E-05)
 number of electron     428.9999586 magnetization       1.0128650
 augmentation part      205.7704745 magnetization      -0.0094312

 Broyden mixing:
  rms(total) = 0.94835E-03    rms(broyden)= 0.94816E-03
  rms(prec ) = 0.12941E-02
  weight for this iteration     100.00

 eigenvalues of (default mixing * dielectric matrix)
  average eigenvalue GAMMA=   1.8683
  9.6198  5.8876  4.1570  2.3581  2.3581  1.8940  1.4430  1.4430  1.0869  1.0869
  1.0057  1.0057  0.8147  0.7158  0.7158  0.4497  0.6727  0.6727  0.5891  0.6293
  0.6293

 Free energy of the ion-electron system (eV)
  ---------------------------------------------------
  alpha Z        PSCENC =       116.57634987
  Ewald energy   TEWEN  =     99466.37640112
  -Hartree energ DENC   =   -138293.11602076
  -exchange      EXHF   =         0.00000000
  -V(xc)+E(xc)   XCENC  =      -441.39383357
  PAW double counting   =     42279.93218200   -40554.50954858
  entropy T*S    EENTRO =         0.00000000
  eigenvalues    EBANDS =     -3106.99654517
  atomic energy  EATOM  =     40450.74657337
  ---------------------------------------------------
  free energy    TOTEN  =       -82.38444172 eV

  energy without entropy =      -82.38444172  energy(sigma->0) =      -82.38444172


--------------------------------------------------------------------------------------------------------




----------------------------------------- Iteration    1(  27)  ---------------------------------------


    POTLOK:  cpu time    0.21: real time    0.21
    SETDIJ:  cpu time    0.00: real time    0.01
     EDDAV:  cpu time    3.09: real time    3.10
       DOS:  cpu time    0.00: real time    0.00
    CHARGE:  cpu time    0.13: real time    0.13
    MIXING:  cpu time    0.01: real time    0.01
    --------------------------------------------
      LOOP:  cpu time    3.46: real time    3.47

 eigenvalue-minimisations  :   768
 total energy-change (2. order) :-0.2665632E-02  (-0.3739306E-05)
 number of electron     428.9999586 magnetization       1.0058844
 augmentation part      205.7706564 magnetization      -0.0162267

 Broyden mixing:
  rms(total) = 0.50782E-03    rms(broyden)= 0.50768E-03
  rms(prec ) = 0.73390E-03
  weight for this iteration     100.00

 eigenvalues of (default mixing * dielectric matrix)
  average eigenvalue GAMMA=   1.9140
  9.5834  6.6215  4.6126  2.7670  2.4106  1.7383  1.7383  1.3025  1.3025  1.2640
  1.0060  1.0060  0.8825  0.4497  0.7173  0.7173  0.7821  0.6775  0.6775  0.5886
  0.6313  0.6313

 Free energy of the ion-electron system (eV)
  ---------------------------------------------------
  alpha Z        PSCENC =       116.57634987
  Ewald energy   TEWEN  =     99466.37640112
  -Hartree energ DENC   =   -138292.10540662
  -exchange      EXHF   =         0.00000000
  -V(xc)+E(xc)   XCENC  =      -441.39992369
  PAW double counting   =     42280.02938352   -40554.61021491
  entropy T*S    EENTRO =         0.00000000
  eigenvalues    EBANDS =     -3108.00027001
  atomic energy  EATOM  =     40450.74657337
  ---------------------------------------------------
  free energy    TOTEN  =       -82.38710735 eV

  energy without entropy =      -82.38710735  energy(sigma->0) =      -82.38710735


--------------------------------------------------------------------------------------------------------




----------------------------------------- Iteration    1(  28)  ---------------------------------------


    POTLOK:  cpu time    0.27: real time    0.27
    SETDIJ:  cpu time    0.01: real time    0.01
     EDDAV:  cpu time    3.06: real time    3.06
       DOS:  cpu time    0.00: real time    0.00
    CHARGE:  cpu time    0.11: real time    0.11
    MIXING:  cpu time    0.01: real time    0.01
    --------------------------------------------
      LOOP:  cpu time    3.47: real time    5.00

 eigenvalue-minimisations  :   760
 total energy-change (2. order) :-0.1265206E-02  (-0.1925260E-05)
 number of electron     428.9999586 magnetization       1.0038501
 augmentation part      205.7710139 magnetization      -0.0179639

 Broyden mixing:
  rms(total) = 0.29913E-03    rms(broyden)= 0.29898E-03
  rms(prec ) = 0.44666E-03
  weight for this iteration     100.00

 eigenvalues of (default mixing * dielectric matrix)
  average eigenvalue GAMMA=   1.9327
  9.5288  7.3352  4.8822  2.9904  2.3786  1.7684  1.7684  1.4362  1.4362  1.1111
  1.1111  1.0214  1.0214  0.4497  0.7157  0.7157  0.8057  0.8057  0.6659  0.6659
  0.5897  0.6246  0.6246

 Free energy of the ion-electron system (eV)
  ---------------------------------------------------
  alpha Z        PSCENC =       116.57634987
  Ewald energy   TEWEN  =     99466.37640112
  -Hartree energ DENC   =   -138291.47704504
  -exchange      EXHF   =         0.00000000
  -V(xc)+E(xc)   XCENC  =      -441.40392964
  PAW double counting   =     42279.85225885   -40554.42966605
  entropy T*S    EENTRO =         0.00000000
  eigenvalues    EBANDS =     -3108.62931503
  atomic energy  EATOM  =     40450.74657337
  ---------------------------------------------------
  free energy    TOTEN  =       -82.38837255 eV

  energy without entropy =      -82.38837255  energy(sigma->0) =      -82.38837255


--------------------------------------------------------------------------------------------------------




----------------------------------------- Iteration    1(  29)  ---------------------------------------


    POTLOK:  cpu time    0.22: real time    0.22
    SETDIJ:  cpu time    0.00: real time    0.01
     EDDAV:  cpu time    2.99: real time    2.99
       DOS:  cpu time    0.00: real time    0.00
    CHARGE:  cpu time    0.11: real time    0.11
    MIXING:  cpu time    0.01: real time    0.01
    --------------------------------------------
      LOOP:  cpu time    3.34: real time    3.37

 eigenvalue-minimisations  :   744
 total energy-change (2. order) :-0.2693594E-03  (-0.6416071E-06)
 number of electron     428.9999586 magnetization       1.0018039
 augmentation part      205.7709387 magnetization      -0.0199686

 Broyden mixing:
  rms(total) = 0.18451E-03    rms(broyden)= 0.18441E-03
  rms(prec ) = 0.28685E-03
  weight for this iteration     100.00

 eigenvalues of (default mixing * dielectric matrix)
  average eigenvalue GAMMA=   1.9437
  9.4916  7.8154  5.0608  3.0761  2.6317  1.8078  1.8078  1.5054  1.5054  1.1754
  1.1754  1.0157  1.0157  0.9619  0.4497  0.8507  0.7159  0.7159  0.6686  0.6686
  0.6964  0.5897  0.6230  0.6230

 Free energy of the ion-electron system (eV)
  ---------------------------------------------------
  alpha Z        PSCENC =       116.57634987
  Ewald energy   TEWEN  =     99466.37640112
  -Hartree energ DENC   =   -138291.33561753
  -exchange      EXHF   =         0.00000000
  -V(xc)+E(xc)   XCENC  =      -441.40435128
  PAW double counting   =     42280.05379906   -40554.63299379
  entropy T*S    EENTRO =         0.00000000
  eigenvalues    EBANDS =     -3108.76880275
  atomic energy  EATOM  =     40450.74657337
  ---------------------------------------------------
  free energy    TOTEN  =       -82.38864191 eV

  energy without entropy =      -82.38864191  energy(sigma->0) =      -82.38864191


--------------------------------------------------------------------------------------------------------




----------------------------------------- Iteration    1(  30)  ---------------------------------------


    POTLOK:  cpu time    0.25: real time    0.25
    SETDIJ:  cpu time    0.01: real time    0.01
     EDDAV:  cpu time    2.95: real time    2.96
       DOS:  cpu time    0.00: real time    0.00
    --------------------------------------------
      LOOP:  cpu time    3.22: real time    3.70

 eigenvalue-minimisations  :   720
 total energy-change (2. order) :-0.3088942E-05  (-0.2801835E-06)
 number of electron     428.9999586 magnetization       1.0018039
 augmentation part      205.7709387 magnetization      -0.0199686

 Free energy of the ion-electron system (eV)
  ---------------------------------------------------
  alpha Z        PSCENC =       116.57634987
  Ewald energy   TEWEN  =     99466.37640112
  -Hartree energ DENC   =   -138291.27629730
  -exchange      EXHF   =         0.00000000
  -V(xc)+E(xc)   XCENC  =      -441.40422706
  PAW double counting   =     42280.20753204   -40554.78830527
  entropy T*S    EENTRO =         0.00000000
  eigenvalues    EBANDS =     -3108.82667178
  atomic energy  EATOM  =     40450.74657337
  ---------------------------------------------------
  free energy    TOTEN  =       -82.38864500 eV

[...]
 -0.003  -0.000  -0.005   0.000   0.001  -0.003  -0.000  -0.005
  0.010   0.007  -0.014   0.000  -0.024   0.009   0.007  -0.013
  0.000   0.025   0.009   0.009   0.000   0.000   0.024   0.008
  0.025   0.000  -0.006   0.008   0.009   0.023   0.000  -0.005
  0.012   0.009  -0.017   0.000  -0.030   0.011   0.009  -0.016
  0.000   0.030   0.011   0.011   0.000   0.000   0.029   0.010
  0.030   0.000  -0.007   0.009   0.011   0.029   0.000  -0.006
 pseudopotential strength for first ion, spin component:           2
-10.266   0.002  -0.001   0.002   0.002 -10.242   0.002  -0.001
  0.002 -10.259  -0.002  -0.000   0.002   0.002 -10.236  -0.001
 -0.001  -0.002 -10.253  -0.003   0.003  -0.001  -0.001 -10.230
  0.002  -0.000  -0.003 -10.257   0.003   0.002  -0.000  -0.003
  0.002   0.002   0.003   0.003 -10.267   0.001   0.002   0.003
-10.242   0.002  -0.001   0.002   0.001 -10.195   0.002  -0.001
  0.002 -10.236  -0.001  -0.000   0.002   0.002 -10.188  -0.001
 -0.001  -0.001 -10.230  -0.003   0.003  -0.001  -0.001 -10.183
  0.002  -0.000  -0.003 -10.234   0.003   0.002  -0.000  -0.003
  0.001   0.002   0.003   0.003 -10.243   0.001   0.002   0.002
 -0.002  -0.000  -0.003   0.000   0.001  -0.002  -0.000  -0.003
 -0.003  -0.001  -0.005   0.001   0.001  -0.003  -0.000  -0.005
  0.010   0.007  -0.014   0.000  -0.025   0.009   0.007  -0.013
  0.000   0.025   0.009   0.009   0.000   0.000   0.024   0.008
  0.025   0.000  -0.006   0.008   0.009   0.024   0.000  -0.005
  0.012   0.009  -0.017   0.000  -0.030   0.011   0.008  -0.016
  0.000   0.030   0.011   0.011   0.000   0.000   0.029   0.010
  0.030   0.000  -0.007   0.009   0.011   0.029   0.000  -0.006
 total augmentation occupancy for first ion, spin component:           1
  2.775  -0.002   0.031   0.051   0.080  -0.795   0.005  -0.053  -0.021  -0.052   0.179   0.009   0.010  -0.005   0.120   0.005
 -0.002   2.551   0.058   0.071  -0.059   0.005  -0.570  -0.071  -0.060   0.068  -0.010   0.026   0.024   0.085  -0.009   0.002
  0.031   0.058   2.639   0.060   0.119  -0.053  -0.071  -0.593  -0.111  -0.086   0.306  -0.062  -0.078   0.062  -0.003  -0.003
  0.051   0.071   0.060   2.617   0.120  -0.021  -0.060  -0.111  -0.606  -0.101  -0.120   0.024  -0.027   0.090   0.057   0.001
  0.080  -0.059   0.119   0.120   2.759  -0.052   0.068  -0.086  -0.101  -0.792  -0.015  -0.014  -0.124   0.019   0.113  -0.007
 -0.795   0.005  -0.053  -0.021  -0.052   0.788  -0.008   0.072  -0.002   0.029  -0.159  -0.004  -0.017   0.012  -0.145   0.001
  0.005  -0.570  -0.071  -0.060   0.068  -0.008   0.560   0.082   0.050  -0.076   0.009  -0.022  -0.033  -0.109   0.015   0.002
 -0.053  -0.071  -0.593  -0.111  -0.086   0.072   0.082   0.526   0.152   0.060  -0.269   0.053   0.093  -0.076   0.005  -0.006
 -0.021  -0.060  -0.111  -0.606  -0.101  -0.002   0.050   0.152   0.570   0.086   0.114  -0.029   0.029  -0.108  -0.054  -0.001
 -0.052   0.068  -0.086  -0.101  -0.792   0.029  -0.076   0.060   0.086   0.793   0.018   0.010   0.145  -0.013  -0.124  -0.009
  0.179  -0.010   0.306  -0.120  -0.015  -0.159   0.009  -0.269   0.114   0.018   1.845  -0.238  -0.197  -0.069  -0.100   0.018
  0.009   0.026  -0.062   0.024  -0.014  -0.004  -0.022   0.053  -0.029   0.010  -0.238   0.049   0.040   0.016   0.026  -0.003
  0.010   0.024  -0.078  -0.027  -0.124  -0.017  -0.033   0.093   0.029   0.145  -0.197   0.040   0.073  -0.002  -0.010  -0.005
 -0.005   0.085   0.062   0.090   0.019   0.012  -0.109  -0.076  -0.108  -0.013  -0.069   0.016  -0.002   0.056   0.011  -0.000
  0.120  -0.009  -0.003   0.057   0.113  -0.145   0.015   0.005  -0.054  -0.124  -0.100   0.026  -0.010   0.011   0.081   0.000
  0.005   0.002  -0.003   0.001  -0.007   0.001   0.002  -0.006  -0.001  -0.009   0.018  -0.003  -0.005  -0.000   0.000   0.001
  0.001   0.010   0.002   0.001  -0.001  -0.001   0.007   0.004   0.007   0.000   0.007  -0.001  -0.000  -0.004  -0.001   0.000
  0.008   0.001  -0.002   0.001  -0.001   0.008  -0.001  -0.001   0.003   0.008   0.010  -0.002   0.000  -0.001  -0.005   0.000
 total augmentation occupancy for first ion, spin component:           2
  0.000  -0.001  -0.006   0.007  -0.010  -0.001   0.000   0.005  -0.006   0.008  -0.006  -0.001   0.002  -0.000  -0.001  -0.000
 -0.001  -0.001   0.003  -0.004   0.005   0.000   0.000  -0.002   0.003  -0.004   0.002   0.000  -0.001  -0.000   0.000   0.000
 -0.006   0.003   0.005  -0.011   0.014   0.005  -0.002  -0.004   0.008  -0.011   0.008   0.001  -0.003   0.001   0.000   0.000
  0.007  -0.004  -0.011   0.013  -0.019  -0.006   0.003   0.008  -0.010   0.015  -0.010  -0.003   0.005  -0.001  -0.001  -0.000
 -0.010   0.005   0.014  -0.019   0.020   0.008  -0.004  -0.011   0.015  -0.016   0.015   0.002  -0.005   0.001   0.000   0.000
 -0.001   0.000   0.005  -0.006   0.008   0.001  -0.000  -0.004   0.004  -0.006   0.005   0.000  -0.002   0.000   0.001   0.000
  0.000   0.000  -0.002   0.003  -0.004  -0.000   0.001   0.002  -0.002   0.003  -0.002  -0.000   0.001  -0.000  -0.000  -0.000
  0.005  -0.002  -0.004   0.008  -0.011  -0.004   0.002   0.004  -0.007   0.008  -0.006  -0.001   0.002  -0.000  -0.000  -0.000
 -0.006   0.003   0.008  -0.010   0.015   0.004  -0.002  -0.007   0.009  -0.011   0.009   0.001  -0.004   0.001   0.001   0.000
  0.008  -0.004  -0.011   0.015  -0.016  -0.006   0.003   0.008  -0.011   0.013  -0.012  -0.001   0.004  -0.001  -0.000  -0.000
 -0.006   0.002   0.008  -0.010   0.015   0.005  -0.002  -0.006   0.009  -0.012   0.007   0.000  -0.004   0.001   0.001   0.000
 -0.001   0.000   0.001  -0.003   0.002   0.000  -0.000  -0.001   0.001  -0.001   0.000   0.000  -0.000   0.000   0.000  -0.000
  0.002  -0.001  -0.003   0.005  -0.005  -0.002   0.001   0.002  -0.004   0.004  -0.004  -0.000   0.001  -0.000  -0.000  -0.000
 -0.000  -0.000   0.001  -0.001   0.001   0.000  -0.000  -0.000   0.001  -0.001   0.001   0.000  -0.000  -0.000   0.000   0.000
 -0.001   0.000   0.000  -0.001   0.000   0.001  -0.000  -0.000   0.001  -0.000   0.001   0.000  -0.000   0.000  -0.000  -0.000
 -0.000   0.000   0.000  -0.000   0.000   0.000  -0.000  -0.000   0.000  -0.000   0.000  -0.000  -0.000   0.000  -0.000   0.000
 -0.000  -0.000  -0.000   0.000  -0.000   0.000   0.000   0.000  -0.000   0.000  -0.000  -0.000   0.000  -0.000  -0.000  -0.000
  0.000  -0.000  -0.000   0.000   0.000  -0.000   0.000   0.000  -0.000   0.000  -0.000  -0.000  -0.000  -0.000   0.000   0.000


------------------------ aborting loop because EDIFF is reached ----------------------------------------


    CHARGE:  cpu time    0.11: real time    0.11
    FORLOC:  cpu time    0.02: real time    0.01
    FORNL :  cpu time    2.66: real time    2.66
    STRESS:  cpu time    3.16: real time    3.16
    FORCOR:  cpu time    0.22: real time    0.21
    FORHAR:  cpu time    0.04: real time    0.04
    MIXING:  cpu time    0.00: real time    0.00
    OFIELD:  cpu time    0.00: real time    0.00

  FORCE on cell =-STRESS in cart. coord.  units (eV):
  Direction    XX          YY          ZZ          XY          YZ          ZX
  --------------------------------------------------------------------------------------
  Alpha Z   116.57635   116.57635   116.57635
  Ewald   39393.16775 28130.38928 31238.50991   874.87778  5706.88344 -3474.84914
  Hartree 52000.41993 41315.23316 44278.08356   745.73225  5229.53950 -3249.66694
  E(xc)   -2261.16731 -2261.97771 -2261.69870     0.41463     0.90324    -0.36430
  Local  -97776.06497-75832.50058-81901.84950 -1617.42418-10930.67557  6723.49496
  n-local  -405.98354  -406.67278  -406.08453     0.08875     0.29461    -0.60500
  augment  3582.54899  3584.31406  3583.47194    -1.15858    -1.98317     0.74932
  Kinetic  5336.63264  5340.74363  5339.29905    -2.53872    -4.93507     1.21123
  Fock        0.00000     0.00000     0.00000     0.00000     0.00000     0.00000
  -------------------------------------------------------------------------------------
  Total     -13.87016   -13.89460   -13.69192    -0.00807     0.02698    -0.02987
  in kB      -2.00244    -2.00597    -1.97671    -0.00117     0.00389    -0.00431
  external pressure =       -2.00 kB  Pullay stress =        0.00 kB


 VOLUME and BASIS-vectors are now :
 -----------------------------------------------------------------------------
  energy-cutoff  :      249.84
  volume of cell :    11097.70
      direct lattice vectors                 reciprocal lattice vectors
    22.305449554  0.000000000  0.000000000     0.044832094  0.000000000  0.000000000
     0.000000000 22.305449554  0.000000000     0.000000000  0.044832094  0.000000000
     0.000000000  0.000000000 22.305449554     0.000000000  0.000000000  0.044832094

  length of vectors
    22.305449554 22.305449554 22.305449554     0.044832094  0.044832094  0.044832094


 FORCES acting on ions
    electron-ion (+dipol)            ewald-force                    non-local-force                 convergence-correction
 -----------------------------------------------------------------------------------------------
   -.952E+03 -.125E+04 -.431E+03   0.950E+03 0.125E+04 0.429E+03   0.182E+01 0.442E+01 0.132E+01   -.141E-01 -.717E-03 0.777E-02
   -.145E+04 -.473E+03 -.468E+03   0.145E+04 0.472E+03 0.466E+03   0.444E+01 0.116E+01 0.184E+01   0.442E-01 -.104E-01 -.189E-03
   -.150E+04 -.118E+03 0.332E+03   0.150E+04 0.118E+03 -.332E+03   0.361E+01 0.642E+00 -.826E+00   -.741E-02 0.789E-02 0.433E-02
   -.111E+04 0.403E+03 0.931E+03   0.110E+04 -.401E+03 -.926E+03   0.421E+01 -.153E+01 -.423E+01   0.123E-01 0.159E-02 0.186E-02
   -.474E+03 -.147E+04 0.565E+03   0.473E+03 0.146E+04 -.564E+03   0.121E+01 0.415E+01 -.187E+01   -.281E-01 -.632E-02 0.762E-02
   -.767E+03 -.264E+03 0.118E+04   0.766E+03 0.264E+03 -.117E+04   0.134E+01 -.118E+00 -.122E+01   0.228E-01 0.316E-01 0.331E-01
   -.334E+03 -.903E+03 0.134E+04   0.333E+03 0.901E+03 -.134E+04   0.432E+00 0.191E+01 -.312E+01   -.205E-01 -.184E-02 0.512E-01
   -.862E+03 -.431E+03 -.988E+03   0.861E+03 0.430E+03 0.988E+03   0.409E+00 0.920E+00 0.573E+00   -.354E-01 -.204E-01 0.149E-01
   -.131E+04 0.486E+03 -.656E+03   0.131E+04 -.486E+03 0.655E+03   0.199E+01 -.847E+00 0.122E+01   -.189E-01 0.215E-02 0.601E-01
   -.236E+03 -.129E+04 -.721E+03   0.234E+03 0.129E+04 0.720E+03   0.127E+01 0.117E+01 0.430E+00   0.224E-01 0.271E-01 0.656E-02
   -.931E+03 -.710E+03 0.388E+03   0.930E+03 0.709E+03 -.389E+03   0.955E+00 0.739E+00 0.120E+01   0.822E-02 -.417E-01 -.651E-01
   -.106E+04 0.101E+04 0.243E+03   0.106E+04 -.101E+04 -.243E+03   0.708E+00 -.775E+00 -.380E+00   0.155E-01 0.827E-02 -.323E-01
   0.372E+03 -.158E+04 0.123E+03   -.372E+03 0.158E+04 -.121E+03   -.518E+00 0.498E+01 -.142E+01   0.152E-02 -.302E-02 -.129E-01
   -.459E+03 0.859E+03 0.126E+04   0.458E+03 -.856E+03 -.126E+04   0.148E+01 -.253E+01 -.434E+01   0.292E-01 -.861E-02 -.153E-01
   -.697E+03 0.755E+03 -.119E+04   0.696E+03 -.754E+03 0.119E+04   0.972E+00 -.125E+01 0.152E+01   0.487E-01 -.143E-01 -.370E-01
   0.122E+03 -.753E+03 0.345E+03   -.121E+03 0.752E+03 -.345E+03   -.425E+00 0.413E+00 0.516E+00   0.352E-02 0.318E-02 -.316E-01
   0.828E+01 0.125E+03 0.128E+04   -.738E+01 -.124E+03 -.128E+04   -.833E+00 -.100E+01 0.399E-01   -.669E-01 0.417E-01 -.104E-01
   -.398E+03 0.234E+03 0.622E+02   0.398E+03 -.233E+03 -.627E+02   0.740E+00 -.971E+00 0.455E+00   -.175E-01 0.372E-02 0.163E-01
   -.756E+03 0.144E+04 -.527E+03   0.754E+03 -.143E+04 0.525E+03   0.152E+01 -.472E+01 0.183E+01   0.279E-02 0.916E-02 0.268E-01
   -.566E+03 -.891E+02 -.150E+04   0.564E+03 0.887E+02 0.149E+04   0.187E+01 0.396E+00 0.305E+01   0.137E-02 0.200E-01 -.121E-01
   0.494E+03 -.662E+03 0.138E+04   -.493E+03 0.661E+03 -.137E+04   -.126E+01 0.181E+01 -.276E+01   0.460E-02 -.203E-01 0.310E-01
   0.592E+02 0.118E+04 -.526E+03   -.586E+02 -.118E+04 0.526E+03   -.575E+00 0.309E+00 -.147E+00   0.112E-01 0.451E-02 -.207E-01
   0.223E+03 -.100E+04 -.125E+04   -.223E+03 0.100E+04 0.125E+04   -.339E+00 0.251E+01 0.351E+01   0.146E-01 -.152E-01 -.348E-01
   0.157E+03 -.146E+03 -.622E+03   -.156E+03 0.146E+03 0.620E+03   -.102E+01 -.440E+00 0.130E+01   0.268E-01 -.828E-02 -.646E-01
   0.933E+03 -.112E+04 -.539E+03   -.932E+03 0.111E+04 0.539E+03   -.112E+01 0.916E+00 0.815E-01   0.206E-03 0.798E-02 0.139E-01
   -.201E+03 0.137E+04 0.362E+03   0.201E+03 -.137E+04 -.362E+03   -.251E-01 -.119E+01 -.106E+00   0.666E-02 -.147E-01 0.180E-01
   0.992E+03 -.115E+04 0.553E+03   -.991E+03 0.114E+04 -.552E+03   -.112E+01 0.291E+01 -.184E+01   0.386E-01 0.912E-02 0.124E-01
   0.303E+03 0.110E+04 0.116E+04   -.302E+03 -.110E+04 -.116E+04   -.903E+00 -.285E+01 -.394E+01   -.176E-01 -.109E-02 -.693E-02
   0.562E+03 0.156E+03 0.282E+03   -.561E+03 -.157E+03 -.281E+03   -.182E+01 0.584E+00 -.701E+00   0.173E-01 0.284E-01 0.455E-02
   0.467E+03 0.719E+01 -.146E+04   -.466E+03 -.682E+01 0.145E+04   -.181E+01 -.342E+00 0.539E+01   -.276E-01 -.154E-01 0.288E-01
   0.336E+03 0.857E+03 -.128E+04   -.337E+03 -.855E+03 0.128E+04   0.147E+00 -.200E+01 0.310E+01   -.268E-01 -.379E-01 -.423E-02
   0.122E+04 -.209E+03 -.991E+03   -.122E+04 0.209E+03 0.989E+03   -.229E+01 -.127E+00 0.230E+01   -.283E-01 0.107E-01 0.602E-02
   0.135E+04 -.368E+03 0.856E+03   -.135E+04 0.368E+03 -.854E+03   -.345E+01 0.466E+00 -.207E+01   0.101E-01 -.228E-01 0.566E-03
   0.661E+03 0.135E+04 -.557E+03   -.659E+03 -.135E+04 0.554E+03   -.190E+01 -.576E+01 0.236E+01   0.334E-02 0.189E-01 0.545E-01
   0.148E+04 -.385E+03 -.217E+03   -.148E+04 0.384E+03 0.217E+03   -.227E+01 0.963E+00 -.342E+00   -.178E-01 0.871E-03 -.476E-01
   0.887E+03 0.440E+03 0.128E+04   -.885E+03 -.439E+03 -.128E+04   -.176E+01 -.769E+00 -.211E+01   0.206E-03 -.471E-02 0.622E-02
   0.119E+04 0.627E+03 -.627E+03   -.119E+04 -.627E+03 0.626E+03   -.764E+00 -.362E+00 0.522E+00   0.899E-02 -.692E-03 0.157E-01
   0.724E+03 0.135E+04 0.352E+03   -.722E+03 -.135E+04 -.352E+03   -.154E+01 -.167E+01 -.802E+00   -.152E-01 -.274E-01 0.106E-01
   0.152E+04 0.611E+03 0.273E+03   -.151E+04 -.608E+03 -.272E+03   -.433E+01 -.267E+01 -.987E+00   -.112E-01 0.102E-01 -.310E-01
 -----------------------------------------------------------------------------------------------
   0.963E+00 0.548E+00 0.627E+00   0.523E-11 0.682E-12 0.205E-11   -.930E+00 -.535E+00 -.632E+00   0.161E-02 -.286E-01 0.613E-02
 
 
 POSITION                                       TOTAL-FORCE (eV/Angst)
 -----------------------------------------------------------------------------------
     14.57731     15.13717     12.57722         0.006843      0.011671      0.002655
     16.29214     12.96218     12.43637        -0.005393      0.004617      0.001969
     16.41676     11.37398     10.08917         0.000757     -0.002617     -0.008346
     16.24320      9.66179      7.76626        -0.006330     -0.002554      0.002768
     12.74855     15.50106     10.42272         0.006829      0.000172     -0.001407
     14.16551     11.34898      8.44644         0.001629     -0.001150     -0.000023
     12.42272     13.45039      8.39330         0.003669     -0.002525     -0.007694
     13.61128     12.63828     13.55069         0.006921     -0.002084      0.000081
     15.09701     10.46893     12.43966        -0.000870     -0.003477     -0.013813
     11.82808     14.80182     13.12944        -0.005299     -0.011874     -0.000541
     14.11245     13.07088     10.68264        -0.009663      0.001999      0.000784
     14.79798      9.03889     10.02413         0.002300     -0.001803     -0.000942
     10.20104     16.25428     11.36618        -0.000521     -0.003145      0.002568
     13.38730      8.76389      7.61378        -0.002807     -0.005416      0.001025
     12.88657      9.94136     14.12844        -0.004016     -0.001223     -0.004879
     11.05582     13.35602     10.78227         0.001819     -0.006439     -0.000619
     11.46886     10.64796      8.38014        -0.001115      0.003613      0.006080
     12.52534     10.77275     11.18841        -0.000374      0.002239      0.001042
     13.60598      8.03888     12.29357        -0.008208      0.003172      0.001616
     12.11614     11.86147     15.88692         0.005587      0.002361      0.008660
      9.70660     12.76413      8.27497         0.007690      0.000247     -0.007918
     10.87875      8.77661     12.54721        -0.000299      0.000199      0.005501
     10.35568     13.88405     15.33164        -0.005159      0.009083      0.010138
     10.82208     11.90652     13.21956        -0.000866      0.005229      0.013768
      9.01425     14.33192     12.94918         0.000693     -0.001766     -0.001736
     12.01045      8.22484     10.01077        -0.004122      0.000878      0.005767
      8.43209     14.39739     10.20031        -0.009678     -0.002947     -0.000505
     10.52637      7.98355      7.75373         0.001045     -0.001987     -0.000925
      9.67141     10.90854     10.66716         0.000431     -0.001860     -0.004254
      9.55682     11.72953     17.00743         0.007914      0.009424     -0.001841
     10.09914      9.79207     15.05229         0.007953      0.011307      0.004422
      8.27248     12.09012     14.55496         0.003214     -0.006176      0.002587
      7.10289     12.23259      9.03031        -0.003873      0.001572      0.003644
      8.74716      7.15706     13.07608        -0.003746     -0.011102     -0.033594
      7.43135     12.29375     11.85767         0.002771     -0.000874      0.012194
      8.67750     10.02738      8.14951         0.000165      0.006417     -0.001495
      8.24272      9.80764     12.92035         0.001064     -0.008894      0.005330
      9.18625      8.05897     10.36144         0.004295      0.006680     -0.008192
      6.97889      9.84360     10.45024        -0.001249     -0.000966      0.006124
 -----------------------------------------------------------------------------------
    total drift:                                0.034385     -0.015469      0.001047


--------------------------------------------------------------------------------------------------------



  FREE ENERGIE OF THE ION-ELECTRON SYSTEM (eV)
  ---------------------------------------------------
  free  energy   TOTEN  =       -83.05183363 eV

  energy  without entropy=      -83.05183363  energy(sigma->0) =      -83.05183363
 
 d Force = 0.3698111E-03[-0.462E-03, 0.120E-02]  d Energy = 0.3589229E-03 0.109E-04
 d Force = 0.1610158E+01[ 0.159E+01, 0.163E+01]  d Ewald  = 0.1610156E+01 0.119E-05


--------------------------------------------------------------------------------------------------------


    POTLOK:  cpu time    0.23: real time    0.23


--------------------------------------------------------------------------------------------------------




--------------------------------------------------------------------------------------------------------


  
 reached required accuracy - stopping structural energy minimisation
     LOOP+:  cpu time   18.32: real time   18.46
    4ORBIT:  cpu time    0.00: real time    0.00

 total amount of memory used by VASP on root node    54777. kBytes
========================================================================

   base      :      30000. kBytes
   nonl-proj :       2393. kBytes
   fftplans  :       4332. kBytes
   grid      :      10964. kBytes
   one-center:         46. kBytes
   wavefun   :       7042. kBytes
 
  
  
 General timing and accounting informations for this job:
 ========================================================
  
                  Total CPU time used (sec):     1425.085
                            User time (sec):     1416.105
                          System time (sec):        8.981
                         Elapsed time (sec):     1559.934
  
                   Maximum memory used (kb):       66876.
                   Average memory used (kb):           0.
  
                          Minor page faults:       695661
                          Major page faults:            0
                 Voluntary context switches:        41156
