11
Energy = -7.50964585 eV
K 9.349910284162313 11.558919683512913 14.88965662224335
K 12.373941500914153 0.20285083266387716 12.698512930866913
K 12.134102454393169 14.859353964502786 15.930824270437526
K 16.03439905327413 13.762175026322842 0.024568775199483465
K 9.727506635517749 14.823202568159264 11.918272146065576
K 13.425846607402544 10.49191919811924 16.721455920734357
K 13.456752787589918 12.01967806564424 12.435541646769847
K 14.020394353219027 15.599995721609526 9.489028077739626
K 16.008164687495956 15.569974914408675 13.762475434221404
K 17.478917993463256 11.247561671520712 14.52525885771891
K 17.68816912582394 13.225302314445244 10.434752559887986
