14
Energy = -10.21168611 eV
K 17.37403831789047 12.114483419682177 11.238372662729162
K 14.009276197400135 14.821386426957362 10.750401617824618
K 18.136858175794497 16.368863859621573 10.559965688384748
K 14.79609105203087 18.97047448707586 11.628740755483886
K 9.41292465134419 13.608986669889456 12.17734342642559
K 12.962970573119758 10.988793124347271 12.763880168162734
K 9.031403195138587 9.541150124811422 14.085358490882458
K 16.62195201968854 17.040363673992477 14.989193833971763
K 19.89012523012411 14.324080303210561 14.08759189038855
K 12.245409953822728 10.196890247207072 16.981284510563217
K 12.310717797079155 15.840138694771829 14.544277962443473
K 15.760858670214578 12.888636532946425 15.42901309749777
K 9.019955216105378 13.327095290110487 16.472718623231398
K 12.714879239442586 14.256117434571928 18.579317561206224
