14
Energy = -8.78735425 eV
K 13.879280904299163 13.50624982834558 8.626781623185556
K 16.43760347221065 16.269795946393465 10.941439799680975
K 18.100603596448078 12.368590330902181 9.489475556081148
K 11.473730779966155 11.487978011633334 11.632731861650996
K 14.916870035810575 9.390041784813066 9.905171563854958
K 12.473502638734802 15.847764379794155 12.737642367302566
K 13.387206231529747 19.232013261788683 15.710860981508763
K 15.727810632779777 12.316381266451579 13.163658625337511
K 16.085123934114367 15.983086149789493 15.164201702748713
K 10.641609861772626 16.243877713001705 17.16610076384279
K 12.464042629872289 12.61495485111661 15.919050950236592
K 16.15983342795115 12.880486696447365 18.36908707495849
K 12.26111066162878 13.503076100587872 20.31938084671272
K 14.607328843703701 16.971361329756782 19.470073933719306
