14
Energy = -9.21802898 eV
K 16.162683710727624 16.561574727247525 8.297074558035506
K 15.811117138255526 16.958816750612627 12.832623741581363
K 12.445397949857412 15.065808145235525 10.192187667325232
K 11.657868162760707 16.2758992955446 14.680646872215615
K 16.543521328357507 12.815665320277073 10.617404064672835
K 14.263319645249691 0.5942709774620014 16.543490145369685
K 9.105562843364947 13.133173904465844 12.834373096182789
K 18.044013798614632 17.52468887490439 16.93032172166941
K 10.556297257395958 12.452594872687095 17.335075097082996
K 14.301056155451347 15.093919979829526 18.15041804087212
K 13.412865717598843 12.421338949481449 13.913615707105414
K 16.538735478841417 9.35869580059459 13.883077209508267
K 17.413072800304832 13.480431679127001 15.274714501188242
K 14.663964678360154 10.583020406400856 18.001349805497057
