14
Energy = -9.13044562 eV
K 15.95258356884176 0.5045467439543015 15.131059551731733
K 18.501862014271307 16.21244457310823 13.056970076546168
K 16.364383177500436 15.612346900890218 16.946913061553268
K 13.758475746050273 16.73509343369281 12.598986611610632
K 12.025390688790258 17.560548102890333 16.667966027809058
K 0.5985189554899434 12.881421757013284 15.835511002108017
K 13.230575403773361 14.247221881665867 0.6434829998176658
K 15.933707220013654 14.605050202323717 9.270205448267378
K 16.34250748335839 12.260601966570105 13.0412113827159
K 15.871172849042138 11.173392443943216 17.372108474585136
K 11.86459770690007 13.168380079444647 15.683077907478394
K 9.324428955604 15.99429834896437 13.311285143960491
K 11.956793276779402 12.902335418294454 11.187178011612167
K 13.188779644607568 9.218793956295706 13.95926403663469
