16
Energy = -11.80592824 eV
K 19.490116564366325 13.557903119441592 13.581774999792987
K 0.6928043958079835 17.737645308923575 14.372618284685174
K 18.58275134119779 9.29122501107313 12.979098632258191
K 16.305587168869558 11.510687668082415 16.28707918522325
K 17.0568508543373 0.05575546623407188 14.874982303024845
K 16.84013379147925 16.744526660492344 11.955951909009439
K 15.29624204818645 12.213476343930926 11.944779412768522
K 17.20652980506296 15.990211933788322 16.63829627066576
K 14.469733063807217 8.163022153720146 13.754977241449227
K 13.15825456977317 15.413019600193373 14.25173239416143
K 13.379315811327334 19.667779997712156 12.645923913286369
K 13.534365258015834 14.091589833097068 18.592168217994473
K 11.780523731506843 11.313589092219377 15.281098884689015
K 13.324992804904236 18.526138904268407 17.230743261964406
K 9.521770977752425 14.914026279731011 17.087534940640253
K 9.630375474045287 18.503049746335698 14.63141336743104
