17
Energy = -12.87902395 eV
K 13.20868505360714 7.203894158028547 12.087339090501192
K 7.142253849303962 13.523922027140415 8.326351153163158
K 11.658333750192144 10.840533278088532 4.893185891752339
K 13.20863181489334 11.661552506337962 12.086435157545095
K 9.435727 6.88908566748868 4.992073339636313
K 5.662822185106658 11.661552506337962 12.086435157545095
K 9.435727 9.384708738116567 13.756329031790303
K 11.757799539972506 5.2963484073259295 8.311330856412305
K 5.662768946392862 7.203894158028547 12.087339090501192
K 9.435727 4.983527751883154 12.390433919118152
K 9.435727 9.403657563605046 9.099943856395988
K 9.435727 13.961695592583913 12.231767420305497
K 7.213120249807856 10.840533278088532 4.893185891752339
K 7.113654460027497 5.2963484073259295 8.311330856412305
K 4.863062563591849 9.366091466240002 8.263763845824169
K 14.008391436408154 9.366091466240002 8.263763845824169
K 11.72920015069604 13.523922027140415 8.326351153163158
