18
Energy = -13.80313297 eV
K 11.230510115256989 12.223419675967056 9.970649627858567
K 15.607354980950447 11.888722301186897 8.845170007766892
K 17.829208251541584 15.45278932291619 10.586463999620241
K 13.49898010215422 15.971652443775849 9.081526069967902
K 10.56886860541155 16.157658041377296 12.677873999324023
K 14.454571842514207 13.732473404210534 12.881710777045999
K 14.857852812044024 18.11023976396776 12.95666306788252
K 14.149109451028599 9.249867268304925 12.306641653937538
K 18.32859748521646 11.338070840906934 12.681332394192475
K 10.885019508398443 11.79996604762207 14.5078760783608
K 12.435239871324168 7.939542085674315 16.33047161362561
K 16.268981052552604 18.97985779763663 17.079239552222276
K 15.631195781380644 11.06150755062426 16.331153845620566
K 11.691771555854098 19.16660321241679 15.94050883931555
K 18.05624081993829 15.135705792916726 15.31856055725762
K 9.421300756292544 15.299112032514087 17.026817949581297
K 13.807923527892678 15.26319488828904 17.027679447016887
K 11.68107408135016 11.633418130794235 18.85346112050494
