18
Energy = -12.41761838 eV
K 2.140060987725684 15.566867412213252 19.50273031098673
K 19.352216503822774 14.493591376556322 12.502082684899344
K 0.10223989755376851 19.454919300403404 19.456202716923496
K 0.723167885414173 17.44557441978976 15.712552022036958
K 19.526687588551727 12.98368035008065 16.79346914399504
K 16.31355657716079 11.587755897367034 13.89349569169354
K 17.546365194465064 15.634107252405302 0.24056349726651782
K 17.516920804980003 18.489029732847264 12.475062337034299
K 16.685641206905625 0.47907473359242275 16.406119023714414
K 16.362281221077442 15.645667256182097 15.504772621617208
K 15.541934720322896 19.42514013772654 0.9742882559591556
K 15.308243006399596 12.295417002043333 18.095801498863008
K 15.028538701970986 15.02920533914409 11.386501144330934
K 13.28756404067937 16.084281423896886 18.862636293154914
K 13.311675234785833 18.343081009517313 13.876908544278448
K 12.496762929137557 0.6353848780576832 17.659673431980117
K 12.496339901608673 13.822218913003129 14.981055455336595
K 9.919823886170757 17.005335550315824 16.396781439481018
