20
Energy = -15.54367661 eV
K 16.133316163294356 13.963852072706004 8.634933284610314
K 11.276614820541557 13.985543494381446 8.220423272291034
K 17.82750207574051 17.72620315928587 10.480431680029762
K 17.014270762651265 9.94725112411924 11.06545701200177
K 9.288187850140243 10.765924646991282 10.791354933204964
K 13.541464829011648 16.881072706187467 10.946427764464769
K 17.44765714881673 14.008128175270782 12.952445833545669
K 12.871719009914946 8.020017572446026 12.51483310393468
K 13.32452536857031 12.187105240562838 11.491565689537362
K 9.540892514213589 14.952005928890529 12.407299416067627
K 11.283251492961746 18.573879447680802 14.630003191055406
K 10.59415362892405 11.077285409803176 15.154561910206645
K 13.350552153053327 14.6708597262712 14.896338191913928
K 15.971023602299537 18.16442571638625 14.695046211175386
K 15.304248121112904 10.550707912066386 15.202510616225071
K 9.523679717184866 15.141751855170096 17.050010290795125
K 17.014555600243018 14.381691647083583 17.48270785769377
K 13.377738599385244 17.15797944423083 18.41931264053305
K 13.125569298768372 12.495402300712225 18.780146860080144
K 17.11358654211729 10.273421718700238 19.10869953957949
