21
Energy = -16.3475339 eV
K 0.3722919314176988 12.97866249419803 17.75769140317473
K 18.78693656908417 15.137988328644107 14.22228575000237
K 18.812702152319368 17.708065458484814 10.489831092911274
K 16.246740755517852 18.86030019991249 14.217089882868557
K 17.724878602426568 10.796216281133171 14.461411998824994
K 18.065972634371438 12.969855964300221 10.420000362027885
K 18.827031186007016 14.791548471327168 1.815166937036588
K 17.388452243790933 16.96001223729778 18.12293376261768
K 15.187173951482873 0.6737811387836569 10.360602044832113
K 14.292652988775474 14.55592655173514 14.808675913120718
K 14.847259974764627 16.05168401711151 10.601107316428802
K 16.179541051063712 12.768662044923733 18.677343718763677
K 14.44678060535914 16.229079261070186 1.3174133289167664
K 13.718103959745875 10.003938274772612 16.242705835790645
K 10.85294813350264 14.456724562956397 11.477031990233824
K 14.060484210179311 11.152102225098954 11.847637938767772
K 12.978294638173258 18.090273124401094 17.391590840633683
K 11.978595378906409 18.65418294481117 12.988753331898998
K 11.852506349377329 13.669638403316066 18.457672267879513
K 10.04516976256755 11.51284229287431 14.474007748009388
K 9.445672673096261 15.873421358321819 15.486893082833937
