26
Energy = -19.70835077 eV
K 10.786517973740516 17.74037241926448 14.565828325076732
K 15.660021841139026 13.388228758638741 20.65352970714967
K 14.88956663863709 18.58811148350325 15.370944723472254
K 12.998383763817053 10.869130373333208 11.563508142829868
K 20.055048097882874 13.396447878660496 10.034413980708175
K 17.699538540935098 20.783701713621916 13.04079559603978
K 16.762788739938852 14.696959514851951 16.45533265165536
K 17.969328187777034 16.297138765899284 12.538831252210446
K 16.65682177858564 21.606891815492844 17.95486438149002
K 10.116864902248471 13.090971682821756 14.92642325785635
K 12.492894168319538 15.434207627106927 18.0129845680434
K 18.46818604352873 10.994661843637546 17.60457148820857
K 14.382174709813539 18.237627120776953 10.88737173083563
K 12.940264017685415 16.84281772560724 22.37065877319367
K 12.463686109437774 19.743345069084633 19.173136689347444
K 17.98326077020334 17.261175156959847 8.384175639133945
K 16.312771113497934 17.653741663430882 19.649122641321398
K 15.611436081160768 13.705856436039069 9.367388138647167
K 20.810154793670613 13.962673767316895 15.026647061170202
K 13.980282218468886 11.378683367362687 16.397807616605025
K 17.272388417843953 16.45848099457189 23.601223135816994
K 19.879984964751102 14.894041782587907 19.506294673381987
K 17.284389390255814 11.682372024457091 13.012283121968522
K 15.604884202758944 20.645923041919797 22.46689703253386
K 13.726691937592285 14.701553896174607 13.367872216288768
K 19.442977054075737 18.19619053464378 16.31839991278008
