32
Energy = -25.96920196 eV
K 12.656792223745683 15.659677109043432 8.568453926073943
K 14.457032163017233 19.800854582627558 9.513605528776417
K 10.229494561460898 18.51769320581628 11.237018787209461
K 19.258887535870016 12.300630795252832 10.950580627304742
K 17.305431157668377 16.10935095259465 9.697185276074618
K 21.4759751587614 16.24561236684293 13.340340175323485
K 10.496041144500182 13.992706572902032 12.633604881574406
K 14.664451295551867 12.36959349343987 10.976311769118022
K 14.0157495979644 16.634363983275673 12.593687317141113
K 13.012024436248103 21.15608941390128 13.629188145405324
K 21.09292252151349 11.518597393924825 14.886308903159108
K 17.722107145391593 19.5718195081194 12.777018861169115
K 16.80237225042522 9.865828057248114 14.112122280350167
K 17.836588500326076 14.717077082006256 14.437025793359542
K 10.60689787039409 17.446858479283524 15.72244837087607
K 12.127304783205759 9.98139668944508 13.821828921724654
K 16.606448885429185 22.4048338730991 16.37328884439586
K 10.281402369710458 12.983775556383591 17.475293513819125
K 15.135394857828942 18.287335506680886 16.33850230564002
K 19.680541690431088 18.903122248839598 16.88645432202547
K 13.981385296027284 9.388737592161599 17.816484181692392
K 14.080457334168798 13.494381544779232 16.036766079034834
K 21.334300561586627 14.72530568367035 18.014392812285404
K 18.178609274273903 11.13911041178958 18.27179116380234
K 12.282542715525736 21.078015812837148 18.16339938656633
K 17.10680428912669 15.55263447852481 18.927705787578653
K 16.284945649968883 20.030952690038827 20.292857066561282
K 12.597916741111039 16.669729129888683 19.780763712428737
K 20.04390641304811 17.808016814248642 21.375716296047383
K 14.48406368837542 12.565188946994784 20.89622227262011
K 19.080326831253846 13.363987734283002 22.115510232309134
K 15.828112069507995 16.463953303475325 23.08535347197078
