33
Energy = -26.78788633 eV
K 18.28889698844899 14.010614121787425 8.894082838958008
K 14.321397980630264 16.410755445592457 9.50297378960839
K 10.089078718805968 14.233896300929517 10.70881451106682
K 14.080809434582513 12.033503099758478 11.095947031022252
K 18.985552314489155 18.239667673877847 10.543242984202664
K 18.620259640967813 11.112750233939762 12.49658995044547
K 10.80780262107234 18.56322665565766 11.896334965330638
K 17.043545446015102 14.958651582391282 12.825905545566933
K 21.462886490820036 14.781100132981 12.593369647541612
K 10.885378366472498 11.574901949844332 14.615293996274778
K 12.934361000099356 15.427595121343474 13.666351752747275
K 15.253368287538585 19.263153393647126 13.182102006652938
K 8.928670893734223 15.833890193646248 15.249523330295766
K 22.870751560911 19.07885881006427 13.564346172626125
K 15.331341254051754 11.794434509796927 15.569289685253711
K 19.10169239693245 21.754612278482867 13.632250891845485
K 21.35047315121543 20.678358608565354 17.54919083441059
K 19.412699891571418 13.339518720947158 16.573038458659266
K 22.758317633820035 16.209495934929755 17.317665859705944
K 12.410537368059464 14.55009487781289 17.863226262667826
K 19.29902701921654 17.81038588217217 15.169061372065428
K 12.278735572930694 18.974887822145142 16.505865454196282
K 15.901870917919062 16.29919966554288 16.796449234905698
K 16.34727704273889 13.141450106300477 19.84553467037829
K 9.817011859462188 17.179772554141284 20.005034365188337
K 16.48655202151069 20.62617443986787 17.37991494995413
K 12.607119738633985 10.425185649431675 18.873642310150977
K 20.714894787399718 13.752587759151387 20.860294914253558
K 8.84777814616773 12.876907843212326 18.99435334846045
K 18.883611556402258 17.507699926665488 19.860159941505945
K 12.529320611974764 13.981675764881714 22.187172434116974
K 16.961929455947402 15.528590173978284 23.466758304027255
K 14.298409207684543 17.957762144740855 20.62757756414157
