34
Energy = -27.37668624 eV
K 20.79295184592482 0.738218625378732 16.78328030537855
K 17.90967885372626 20.60932425756446 19.904518550947884
K 2.560171563305414 20.16272571990363 15.34581216887776
K 18.25835941082106 1.858093607284581 13.1211770704443
K 15.374931518538979 18.269423165959218 0.8850811937375656
K -0.019210722456340885 13.69929559357199 17.880571389721496
K 13.497238607911004 20.842773970276312 18.476708683596502
K 18.988082684648123 16.01963661686224 20.70150172033644
K 17.201734666237506 19.720124583134666 15.516009821991252
K 20.835487801374857 19.950821435579257 12.838960921078211
K 16.448775073321542 2.1695050636671267 17.219141692336194
K 16.209852711654346 13.852648519578576 1.481041502312779
K 12.443300190094174 16.05601436908308 3.4554910451092886
K 21.06012905140773 18.2371952656692 17.51019575608924
K 15.009330006673821 16.68928128680871 18.657468720987097
K 1.0804878889282776 16.087642749247316 14.035853467202397
K 11.119715197847789 18.2675465629246 21.54163574395987
K 19.686614088694373 11.525563992557423 21.16243853601474
K 19.01874639426658 10.414050642590933 16.59070998697737
K 13.90982572114682 0.7204286982994522 13.852510257125765
K 21.467839519913046 12.04533167720054 13.241163869823197
K 15.840397457856161 12.377578698304045 19.006771937749356
K 10.628301799007103 15.893760691908716 17.7109943618156
K 18.191340811195452 15.146866059437986 15.537813537557586
K 12.210297081018831 13.891263947270051 21.503967442744695
K 13.15212323530313 18.2446044664551 14.618386579932071
K 16.797051452440684 20.04236641540879 10.95567633104127
K 14.71045319027108 9.47607798521724 15.565710878392485
K 12.466815271910583 19.726333696094436 10.406792864716532
K 19.37013502169021 15.87554098996741 11.176288429203106
K 11.372740060428235 11.339738225771875 17.90161015048453
K 14.98058527512812 15.870973935482018 11.175460660207106
K 13.714932998544667 13.783869689534944 14.973547683171605
K 17.126755645935013 11.863160171965257 12.444473644404061
