35
Energy = -28.79994827 eV
K 12.39519814917155 14.777174777544353 8.609588319098592
K 16.572978251615762 12.847924889250098 8.401077108557597
K 16.195753906987306 17.676279238221973 9.245837210669446
K 13.15056209869152 10.700192764896403 10.792914585418725
K 19.620965220472137 14.956431450580352 11.07894562658191
K 15.470466042072589 21.762260652375215 12.351399661564798
K 10.499569883199378 13.888286643966884 12.910875681993481
K 12.211963710613949 18.131575023998856 11.708795653132217
K 19.839674490444036 19.730247009410146 11.334547290439204
K 14.86471682167767 14.430736670795474 12.209275398068252
K 17.644969903414307 10.613058086468412 12.330579879961507
K 17.81933864687887 13.988036626523789 15.227631785119616
K 21.44009893839686 16.869566142211692 14.837756546549674
K 16.72715735278137 18.094936597081393 13.769075599942834
K 11.49046399309393 21.03575160603619 14.820744282311987
K 13.967390367114367 11.079715177922996 15.312643405334478
K 21.551179470485664 12.073486612370521 14.438631651061037
K 19.5889800537391 21.101068953155995 15.84272743627833
K 10.334788865588637 12.666633402981972 17.195952187614452
K 13.233681248523439 16.685880123033073 16.235671205428375
K 9.032063637103375 17.032362300210373 15.98999026870722
K 18.0323297028615 10.12546430745999 17.280718529172653
K 15.149683920453764 21.203417623799936 17.27154365539887
K 17.79718774284053 17.550134632145046 17.958744111487334
K 20.701975634945434 13.832510334218629 18.717213821370596
K 21.895316264522382 18.377538908527413 19.144429394623394
K 15.477284428602506 14.003429376728915 18.949701156290363
K 11.029156335231985 19.913009056797428 19.0975078852161
K 18.386749775159636 20.938903557716092 20.534702369016372
K 11.089547909406727 15.529880798991647 20.376267594669926
K 13.425829360510535 10.545335823488697 19.994388785488862
K 14.602440628434506 18.322956355657798 21.211293058653773
K 18.594135218727256 16.125879176505176 22.074961836029136
K 17.856704180746682 11.45658354319519 21.648435118017794
K 14.383646943419755 14.007300853661418 23.1693809986601
