35
Energy = -28.34535619 eV
K 1.4432085127840815 15.98261840804907 15.865679500780418
K 20.971740086976197 12.262500409862723 15.928909780363242
K 0.17907371967473767 14.782582983144918 20.09108273107013
K 19.6987481506729 10.85487458357551 20.04823772576128
K 21.44401741937449 14.670372329766119 11.730743342961066
K 21.265645303158227 19.559790340789387 13.871901144390842
K 18.046675751852714 11.41041846026959 12.517153382087399
K 19.120432589052616 17.825062884207657 1.0263197511958113
K 20.434798795088817 18.772757378802417 18.40042453365764
K 19.170393636251287 13.382723062129344 1.9742752399833126
K 18.48693251092595 15.930098638471513 14.581886224903679
K 16.603687981182084 11.579487496852266 16.869983244174364
K 19.247347056836134 1.1474045154568635 16.536699973594654
K 17.32614150591948 15.305489580161426 19.371175888131315
K 19.36190929541925 18.478731536734593 10.103643636274324
K 16.84031493961426 14.837253595027153 10.268712314855302
K 15.450628787212796 11.570300969500144 21.482445490088512
K 13.363703024375127 11.462877736489661 13.680696024386904
K 15.290056060828098 15.489848805400467 2.1675629090073247
K 14.49485204220687 11.219394257892137 9.407523974312648
K 12.305345266447311 11.067968383389115 18.063271561310447
K 17.892046735467915 0.15572969975233408 20.58943763513217
K 16.25957137236867 19.48935399125001 16.61794379927317
K 17.81789040609124 0.3638824154303777 12.440251289739727
K 14.787780165536248 18.80567807979713 21.037439550337
K 14.258723120610055 15.50791932118443 15.53280301639923
K 12.483348648055308 14.847315815922315 20.173195473151676
K 15.119658196523316 18.58565423194852 11.934957396736156
K 12.322718096048147 14.977794694911912 11.2285787914447
K 10.158076754132967 14.515714210065704 15.871587253824272
K 13.673931031586807 0.9492398929420182 18.763724017939495
K 13.618421656653283 0.5348302451620132 14.269066779898182
K 11.597111924646402 18.550427206070104 17.854750853170685
K 10.813539722071917 18.60006907817218 13.48444720765512
K 9.59813086066023 0.38060673204750445 16.266387796982084
