36
Energy = -29.57728565 eV
K 16.23470854246749 18.024658848894624 8.353893359189824
K 13.427093189540896 14.86209190248767 10.477919669754483
K 19.73176982398856 19.06568256998513 11.418344938080892
K 12.31328411018676 19.716874157868038 9.925422668705082
K 16.146878247476494 22.179873304097878 10.589547924264997
K 18.02983803000918 14.766251859504324 11.14013793089663
K 20.439958047395343 10.837546970614564 12.077144839886737
K 15.76070483470512 11.050546324576166 12.400505471804301
K 22.00883144399468 14.982875519871937 13.442524464409068
K 15.472408014801106 18.41779424382083 12.427172744713685
K 11.407922536848849 12.546226320609588 14.236339234609598
K 14.853535977075234 14.788476761735296 14.662220922904039
K 18.4856901120264 17.10281533817189 15.152023293613366
K 11.326205011097528 17.450471322159213 13.79812216935843
K 18.550602799182418 12.857067872064244 15.39650744621024
K 17.642743569100972 21.556029919782674 14.955438110686185
K 13.10250961354716 21.834605083401947 14.097521589812573
K 18.436174844540066 8.6813459575374 15.67243635798361
K 10.564770688262257 19.940419487004373 17.48853052867748
K 22.221280679546716 11.158871642138838 16.351571817477165
K 11.87495208277136 15.269362622679289 17.980780121846614
K 14.742098849062177 11.026544093298435 17.070798173859178
K 21.941921691511666 19.336581794936944 15.435235424373452
K 10.436890301068471 11.31369040320382 18.915020010048348
K 14.752961261786291 22.166105427855186 18.91714227065008
K 16.32183062725646 15.32157946622643 19.082916503035793
K 21.13143113780704 15.284260533795429 18.200428899987283
K 18.78986335996223 19.24969840126469 18.961521740487893
K 10.590768647954029 14.685161053562403 22.066428283705875
K 14.621531455963934 18.610484720881804 16.835393763858796
K 18.70409807906739 11.601829333430176 19.621575551527286
K 14.236784776664683 12.142909212027254 21.1808571693043
K 12.719890914655284 18.534392180491857 21.04294706745158
K 19.226903823795663 15.910554734432871 22.19795644087634
K 16.56934708563413 19.697285308686194 22.679643389283882
K 14.902138621552446 15.749358139207969 23.46835253897122
