39
Energy = -27.48760191 eV
K 19.19920547263273 13.488617419293917 10.21544576368723
K 14.719366328203805 13.311723367034011 8.438436034745441
K 16.387658186227736 17.730170595464728 9.496788542388888
K 11.913760715336391 16.736983110934734 10.650200470707452
K 16.37518656632287 10.184546083096873 11.727394570250075
K 18.030384884444246 21.475025153640864 12.61628901588951
K 19.144871789177643 17.0719322300114 13.056173901104062
K 15.45720816686243 14.454477802471688 12.328747563084782
K 11.641988812900655 12.212450393632917 12.009378347343155
K 13.529889713189085 21.380291396634522 10.879078367663267
K 10.554390409646595 19.52676052210389 14.215279626333809
K 12.17012673611544 15.46591188998116 15.001364018464987
K 14.325036021103632 11.485286987114138 15.618182037058709
K 22.586780330306983 14.262863702651455 13.602667019804914
K 14.852143629631854 18.587853101633705 13.583570880329766
K 19.140422673135763 23.447246411728372 16.946422406789516
K 8.287891835528523 15.297381640392208 13.636082917124048
K 21.10814350357854 9.864778571487589 12.894342477755737
K 18.639851335893585 12.759748864018869 14.58947168197031
K 21.756937909533118 19.92501057894923 15.300445147213587
K 16.288948767351208 15.633971708531226 16.46294659170172
K 9.979866215209768 12.167797601703857 16.9058977358955
K 17.65795700568264 19.559208385809146 16.631630533352126
K 17.856872009017696 8.779742689445545 16.096772770358314
K 13.241458663749508 18.915999399742496 17.844506154401905
K 9.341615828739624 16.527112056030635 18.195754595454233
K 20.641831265157833 16.03508798146161 17.27192683308779
K 14.570584713482953 22.563143980652363 15.449504077907648
K 21.533694576733527 11.54170054312711 17.41027566276389
K 13.219435042877512 14.443878406069832 18.99742764152418
K 17.292705591511776 12.157174091345771 19.03328359201633
K 13.309821008993259 10.194839909583022 19.786972994373006
K 16.001053015702922 21.749667620738297 19.976945924233274
K 20.338821733316433 19.79799317365673 19.878782045866547
K 16.536426919700666 17.312297669593693 20.576671999462395
K 10.260984996842248 13.224057566349735 21.66282986562173
K 12.248112855605466 17.45742867245612 21.959936604011535
K 19.92194305826778 14.724463513144377 21.337258929450233
K 14.957826381111765 13.566579877107328 22.736119327634086
