4
Energy = -1.98642322 eV
K 12.180791653101059 14.176775347817896 13.955967620824891
K 16.793146493697954 13.229081734264032 13.261648336770929
K 8.96516078718934 15.853376621206927 12.155490878088747
K 14.42935655527723 9.99728294537892 13.750676468357723
