4
Energy = -1.95125713 eV
K 12.442959708957806 12.523690383665423 9.810670931847701
K 12.142097267632229 11.025591450726349 13.812571304091765
K 14.833333892276954 13.636998425136458 15.922355337386927
K 13.560927616256283 15.771407914593029 12.429942477806065
