4
Energy = -1.92291073 eV
K 9.795855996348 9.795855996348 7.74998118
K 5.704106363652001 5.704106363652001 7.74998118
K 9.795855996348 5.704106363652001 7.74998118
K 5.704106363652001 9.795855996348 7.74998118
