45
Energy = -37.39301188 eV
K 15.380324917771796 8.54579498608708 15.335217787270725
K 16.562091410311506 12.320401643021073 22.617730093179716
K 23.821012532357702 14.043825774748381 21.95696103269641
K 13.436088796850118 10.65221694757741 19.173075585235445
K 12.960426274428675 18.764932998073903 12.748005001935613
K 9.67040310431082 17.824413090530452 19.1829664585003
K 21.061054759136464 18.193141563806222 21.95541605266217
K 14.10195318082359 22.85179120939759 13.29044245348077
K 16.164626907975883 15.633785228594071 13.211549271733913
K 12.682105331258905 20.9227359979303 8.964195556575342
K 23.280655507333414 18.354572032789957 14.28638547541031
K 18.162853931764353 23.78747420160892 15.142972625809238
K 22.131985340002064 12.074311989663016 17.865834845960283
K 10.434298865955268 13.837958808434164 17.224614106518196
K 19.820560134267698 14.467460128554164 20.47555411496621
K 19.59089896091866 16.076090204439744 16.062076267119682
K 16.709806325907998 19.979158341498465 10.595483820995344
K 16.670166323342986 16.828891721013026 23.128460457364767
K 13.462233120875869 19.51917780900597 20.867289779553932
K 18.486270386691324 11.878884412521668 14.652030037237408
K 9.133921642000976 17.78161662696506 14.625000405651138
K 17.986609674497267 10.227672207431306 18.782228177436824
K 22.336940748815515 13.924690542515432 13.495363622229398
K 11.147678623374823 10.059122813919258 14.51937716025936
K 20.65185157373513 20.42531778587508 17.54766451243435
K 20.93111320279787 10.637176622162382 22.205720764885935
K 15.378866581406928 22.29747011115925 18.073682058046078
K 14.212478809854446 12.6548725541729 15.491515013630604
K 14.729161698543765 11.387031335248299 11.495472780454838
K 9.781385335357843 17.73487631614668 9.973759261854159
K 20.228007734204784 14.376505535371912 24.76139279559303
K 18.57015928619437 13.273832199766272 10.313325656549658
K 12.96606273824837 14.976975521365889 21.019588885118395
K 11.416443705655377 21.19080719565653 16.677856897100742
K 13.473756205694936 17.13504737117683 16.76723846271837
K 20.04168556792467 17.19586223411797 11.392722925199353
K 23.293388612568616 16.468760598533855 18.26435322876509
K 20.575269285969178 21.302719260115317 12.574878114451135
K 16.977428923813797 19.5766430025955 14.914556155066684
K 9.75399275307912 21.68325148581268 12.270643030337895
K 17.734877733550075 21.30864983401447 21.934108431914648
K 16.320020235298642 14.185380905323093 18.439789559074164
K 14.248328362332664 16.27796830391695 9.27634763674766
K 11.558188110517872 14.504598390057726 12.697053951276265
K 17.322749780929772 18.216315195934595 19.11028272765018
