47
Energy = -39.59951326 eV
K 12.053007974939705 20.366644881893592 16.569694947780768
K 17.309411772709513 5.584514044195489 19.15276176520855
K 13.344237219441482 21.425963945989047 20.723231539818112
K 17.82891546500121 21.656316911837596 1.1195880389315136
K 13.56446886824505 0.7887144329020144 13.177611999143693
K 14.766385691240405 1.8685695917053369 17.35507075613146
K 15.829105271919351 2.522685600955868 21.864147870206203
K 16.606389242446987 5.652412420840812 14.75213780399962
K 14.670599276486517 5.11703111404081 11.035885090185307
K 20.274430177305195 2.066080598645287 20.763376094073593
K 11.66102437591504 15.451186191505318 15.79179479240012
K 19.283009078222246 17.29379547679618 2.2473925757775857
K 19.230166097187347 2.1756647789468295 16.307299336959428
K 11.743609866372404 16.93969105495969 19.99857626319606
K 16.441936082061503 13.907849454640536 1.9408837975783666
K 17.700643102563564 21.274686373897143 19.413427618921016
K 13.916507084433032 18.191513839344278 13.164363952218324
K -0.7623390888868611 19.992256323272308 22.04210017724036
K 15.37230491327949 17.88548040720834 0.0061311381225824125
K 12.476782544698358 13.236967859328804 0.1731876659522193
K 15.445660549051151 17.8761309927304 17.74861239827434
K 16.947988592799955 20.953137682595777 15.038268034594198
K 17.70625912295999 1.7717299456619144 12.07354617947564
K 12.816536270875293 11.248284625002025 13.942579862091222
K 15.836770091451442 14.012843005442676 19.93712786855195
K 19.192022126401127 16.92652540208568 20.337597835720256
K 15.048129522346402 14.106496010079518 11.077503758678048
K 12.390703040567939 11.819779208951147 18.442751770240612
K 17.92182817012189 17.69065554587624 11.688222742940338
K -0.7801843016569928 21.064219084996772 17.69884028894535
K 21.036377821388633 21.06875011193676 13.180353231604421
K 19.77985367361822 17.279141026420472 15.763738306974508
K 15.90566158625092 14.279288123388973 15.350572806508355
K 19.56993433954764 13.054897170087754 17.593361746410665
K 15.850618218439145 9.808147599605348 21.48755147067332
K 0.7445447438902438 16.588121847390333 18.80311625109667
K 0.3755058890408132 15.444480741614644 0.3944480993582066
K 19.753553790220746 12.515666202011852 22.189131042472315
K 16.213717174694384 9.819627783677856 16.905632777572023
K 16.58091566031231 9.433963278447724 12.23406439608858
K 0.7876527909373436 12.061986350897989 19.54604405397923
K 19.289855353846544 13.193046505732747 12.802327484315636
K -0.3920349512339592 16.569387585558214 11.664413154750266
K 1.8536480978065457 18.46617243417533 15.015538559410885
K 0.7020601232457367 13.883678876583057 15.09475621374187
K 20.291734546370368 9.197655034962452 15.062433284098294
K 20.002650761432108 8.85611549206209 19.60920954581553
