48
Energy = -34.72160989 eV
K 19.44398674059382 19.321944541446463 7.451674081827318
K 20.009834805286808 16.172424497612912 10.408915166070631
K 22.90259068139321 19.78209051792948 10.20840181136517
K 22.651698813895994 23.767524097492505 11.878163625416416
K 18.87577681068844 21.22525984717059 11.324225662228494
K 17.07668262590537 13.39673052999618 12.998982091312339
K 12.549021140095123 14.780975007315016 13.2785534192334
K 15.863451295021289 17.897820139186145 11.925685624561618
K 19.546546372316545 16.76087638270803 14.559278712113313
K 25.78284519943759 20.65675724030859 13.905822607065476
K 14.549673511961439 22.889355146137678 13.368648931973365
K 23.805762676030447 16.691061408351132 13.147366307322196
K 21.666159330130917 20.49090592717942 14.814475433599926
K 21.472032329801234 12.838960250569794 14.066786401768828
K 19.1998520041975 24.31493152238853 14.574517525677644
K 11.417089426852785 15.23005683794314 17.75991250161896
K 18.456129522928034 10.178581540485464 15.92524720282906
K 12.34757816422637 19.08765109636005 15.029824278270791
K 23.909438491910777 23.95074832958525 16.25332674512078
K 17.232854830162307 20.422850024399775 15.484782711615816
K 14.464939381679299 12.033215543733007 16.283878395801263
K 15.478933592438631 16.325318554989124 16.163215580273746
K 11.577912115228793 22.92362912401066 16.74393904260794
K 23.02446681164781 15.50442176811518 17.26707654996111
K 23.986659862869722 19.797423906990094 18.577804313169505
K 15.907335875449705 23.96560148835021 17.735524467802506
K 19.640803991147223 18.53787180582057 18.59271873862201
K 18.606940053872236 14.275389003889591 18.14948489858353
K 21.333381739441005 11.521525529217753 19.310484016911662
K 15.152565626280149 19.483052917594677 19.049437321142015
K 16.599089483641155 10.72407088823002 20.04705494456053
K 20.330958664336457 22.754005064503858 18.710180160514895
K 13.049350996838799 22.930347686614304 20.981918984107573
K 10.934028084747704 19.241642262236777 19.576596823017265
K 12.088278941726085 11.207373648448636 19.828651141506793
K 22.080430011139526 15.978882458543868 21.47745127078616
K 14.979033508169605 15.054984990179824 20.508765429720466
K 17.420482174968058 22.030592259074385 21.87054339205749
K 18.0362730874115 17.631276567811682 22.269899835017203
K 21.54250610267709 20.372213258562418 22.70983168125105
K 18.668487988904328 13.316816220523343 22.838374149370207
K 14.054402910161494 19.125079880939506 23.255524934221768
K 14.059936128961423 12.108503751857203 23.735256903723847
K 11.258111985654615 15.720042969844055 22.634594180078228
K 9.34049528165484 11.959588805285058 22.86438945255988
K 20.563021292967736 16.53936577599141 25.69514501981916
K 15.867862279785017 15.737520366735628 25.590461144315203
K 17.880717972081868 20.02914933605891 25.853617106223933
