48
Energy = -39.83556459 eV
K 18.427755586680135 13.080469353969503 10.397145747702504
K 21.95438257184118 15.965164606040318 10.450100926370169
K 22.38132116550329 11.687702994054872 11.91085676163697
K 18.81055233594537 18.690599774718724 12.33756331306908
K 15.194439004508832 15.59910626688214 12.442663456716247
K 10.749553010746387 16.218964806166717 12.024340539749923
K 18.437340354009006 10.161235558454496 13.947405246809048
K 24.079906184464118 15.1756659122637 14.201779056554582
K 15.826683975210031 24.56868951037413 13.989411486872081
K 9.630571068523768 20.10806148630018 13.96904185194363
K 20.10331052107986 23.009081699687606 12.607643952015051
K 19.73768438104808 14.53254719640194 14.136821670406215
K 15.911217672681179 13.096432213371045 16.070466035170313
K 14.435082990423837 20.185099357988666 13.400107714600354
K 16.95297354562093 17.335570021694597 16.06160086772144
K 21.979412249626296 11.466734077896119 16.38276548295442
K 23.239757539534743 19.632974347549073 12.703615737868985
K 8.332043702256158 16.187885087535502 15.654411256098184
K 14.441579797650386 9.017733054706893 15.922433356885588
K 11.59834546018619 12.828989524540061 15.484036643336525
K 12.105092725436002 23.04711715107497 16.207326722233372
K 18.086651838360645 21.456081056734345 16.13155500709084
K 12.550902633151052 17.047575556696724 15.937451725913656
K 19.4961396654299 25.63067792112913 16.328116396874282
K 21.306978835149913 18.044389986841622 16.370318071138474
K 22.505846253934095 22.230508498647445 16.337003819610107
K 14.437755142713238 20.146116255468144 18.4861780763607
K 18.056224478777928 10.09711447619168 18.447332099902848
K 15.710328592106396 24.40715033533239 18.575697178473483
K 9.888286052439874 19.617825682646977 18.480425697773224
K 11.863092089699325 22.850246401979366 20.857131606067316
K 19.38251199975291 14.446551879299694 18.662881044985816
K 18.649638493023065 18.69514716361641 19.964618496199325
K 10.739012553961178 15.162899260372637 19.488527878438067
K 15.09653729938966 15.778280974447942 19.690863572185105
K 13.701109863884891 11.540900879872678 19.515210565822223
K 23.73326604357574 14.827173470092692 18.80279089721609
K 23.117559796115877 19.195521770430524 20.404598443953095
K 19.873846202744293 22.92824351456064 20.06439074915861
K 12.439697914566862 18.574045544642484 22.144243320579058
K 17.588678963222133 12.877521736305292 22.2956788090043
K 16.08852926141298 21.570342902674046 22.317721932600268
K 16.915246544272293 17.05380307149981 23.800822798231952
K 21.21166122357876 15.758927305215225 22.74845257646865
K 13.352417161419407 14.223955710044322 23.305704411037883
K 24.159413579458054 18.684764890024503 24.745930763143825
K 25.88174278165227 15.627414318405368 22.353818706114247
K 20.174103446529774 20.267179988456075 23.77718208224091
