48
Energy = -40.14525104 eV
K 16.761801499985374 17.25170959224608 11.448267844084768
K 13.062607968929768 18.901032107017436 10.472614192708258
K 19.94320792000649 14.250745278364104 11.591138851270719
K 9.714211818698347 17.061442424574512 12.195134598611844
K 20.29450393775791 19.311149741563916 12.695784914825728
K 16.255247072449777 21.993142920887497 12.01830307198514
K 13.611850306282788 14.031564227095464 12.200114548398066
K 27.206818068606257 17.579572736263067 15.936390863954403
K 11.968457408503587 21.251853648148533 13.960871356656696
K 13.135085932762394 17.010422773705976 14.976198224989576
K 23.76727853525013 20.698680477440107 15.39557743614048
K 22.910272247322077 16.17771824679836 14.581736568074618
K 17.024112283784035 11.312349552555983 13.946977411463637
K 9.867131091343133 14.072018379720449 15.356730098678737
K 21.27353229817931 11.958702550440275 15.45112349669351
K 14.925745422548799 23.744560962382014 16.713583977588858
K 19.327697618827788 23.017276211266275 16.115280622538677
K 17.837467758721637 15.283059223322073 15.174411765309738
K 16.36286439413672 19.644739795125588 15.416959791092177
K 9.115664951838966 18.675365292308943 16.446395185346507
K 20.11004071856664 18.80529477397084 17.088788084321077
K 14.001662988090528 13.08097911878337 16.901125810347516
K 10.245904051975767 23.169180489696565 17.566598342724326
K 23.9988183593081 17.85523137448541 18.76136721060894
K 26.72820073171004 21.032430750967315 19.05247256920225
K 20.90974565974146 14.83703725764882 18.529964397971728
K 17.77944606085339 11.88752041120045 18.60098400121173
K 13.081082721714619 19.939561131261517 18.236450038571764
K 22.26253768404913 11.069180997918405 19.94424008146775
K 16.388745646571813 16.63784864023346 19.085795944990387
K 11.415186477917883 16.016795207218017 19.308985767790656
K 13.390416992422438 23.27038317854707 20.9386822987853
K 25.26047551664177 13.68912144570409 17.78879501253844
K 27.678229076276477 16.67209858128971 20.443802935464507
K 22.080954266526 22.036109148823652 19.654122762830045
K 17.192167014723868 20.761410182729772 20.108677116420083
K 9.516423641861087 20.085150726129662 20.737334951262124
K 20.469520694181128 18.016961775831707 21.390376803803225
K 23.908891244525346 14.880821238623978 22.141503837470353
K 18.063425632842648 24.7470456088974 20.454471048472602
K 14.779769948151598 14.222989861647825 22.07542145458701
K 19.440605704715864 13.964368374239701 22.64670686223703
K 24.59360604227734 19.510156190959822 22.83740093440675
K 13.53000319927311 18.719902958166188 22.459038318555443
K 17.232360537870342 17.66798005674882 24.320249126480984
K 20.360800192964835 21.472096735331153 23.76989703089106
K 16.03681661707484 22.061895121064623 24.20642235851178
K 21.73425418195222 17.218992661369562 25.412380218377184
