55
Energy = -45.89683248 eV
K 15.742214305484707 16.332763368830467 15.473733176489311
K 8.25020924790301 9.325341390533275 13.985009952417878
K 15.55506042554934 9.215632718887003 19.57902741315619
K 8.0931763281826 16.28525688233894 17.943000770576177
K 15.93515928090672 13.942766026369037 11.586637524054497
K 15.68179275214504 13.95859448503356 19.47149023275906
K 15.718417762255065 20.98962892372094 15.495066035987067
K 15.950841808187306 18.729990850669225 11.499950101059522
K 19.27866107302949 20.851797475790995 18.368636295678968
K 15.756670411693165 11.564267222173429 15.491443001551424
K 15.967843720749096 9.157165561044355 11.522767713649905
K 11.799333538106499 16.265669760754633 20.72355110683466
K 8.106152919574061 11.595503600471766 17.954268169764262
K 19.730519869488 16.295125102874053 10.367248111919418
K 8.132792435105502 13.94747044456502 21.901781728428695
K 15.754208031213802 6.9045220574890225 15.537847768730629
K 19.741355266159815 11.60034635639724 10.37250402623521
K 19.50786557476976 11.624235691514931 18.38404249824025
K 11.880985177736568 13.94430814524485 16.639139623702164
K 8.309859956246589 16.263317508582006 9.925851767361811
K 19.32830172912454 7.065989151926902 18.400799955665633
K 11.848717022774657 18.72494921659643 16.741508115474634
K 8.334146189233552 11.601079691613831 9.946937301044747
K 15.504517235136248 18.70451292066252 19.552404407518683
K 11.87924635942946 9.163327926636466 16.7755066843008
K 12.15495691713428 13.933202854207408 8.699273014571602
K 19.493290126135626 16.291274911343514 18.378287148327654
K 19.665917262743264 13.957003919229539 14.354288505560055
K 19.73433129747451 13.941546939775526 6.369912972596537
K 8.499508349510778 13.918117230389079 5.835191954351706
K 19.584493664607187 18.580830866479584 14.33880464299266
K 12.259692526468502 18.706885038102218 8.66018100394682
K 8.593507735745538 18.51518185434181 6.020358155354364
K 19.601031810745205 9.318945033958279 14.350807318785611
K 8.470507674998423 20.81259656752457 9.94295225491053
K 8.616655473579696 9.330983932567808 6.0543962874892765
K 12.058710215437554 16.31488779095562 12.727553055249674
K 12.285180059981283 9.169674603849584 8.688703889691437
K 12.286369480867457 16.228710927808336 4.656302408808238
K 12.069935343562939 20.97119428231047 12.745031830368834
K 8.520797485948524 7.050795850800347 9.987987988015572
K 12.294731290278408 11.628574801306996 4.666479495352289
K 12.077339719912937 11.56825110702822 12.748638279587368
K 16.0068631902237 16.314788977317512 7.522007160590291
K 16.175127166130252 13.939499068651713 3.5408220020828205
K 12.101651243492919 6.9160885387485 12.786637258029202
K 16.01871641964953 11.569337049169329 7.530833405959936
K 19.274909688250336 13.978799254186045 22.465015883656253
K 8.096439769985949 13.932105598010812 13.9908357691801
K 11.810587946076847 11.62753250001208 20.730484014158765
K 19.151573221390148 18.553928973900142 22.2861546866922
K 8.220537852799747 18.54445406266463 13.959622632157958
K 15.441347810291742 16.244769031934506 23.500925764751994
K 19.19291920430039 9.40050205497942 22.3091752811562
K 15.451396404881026 11.683048670511615 23.509257225811165
