  31  31   0   0
  0.3322288E+03  0.2175703E-08  0.2175703E-08  0.2175703E-08  0.1000000E-15
  1.000000000000000E-004
  CAR 
 unknown system                          
      1.64633688    -10.04738722  301     -3.33324064      1.00000000
    -10.047  0.0000E+00  0.0000E+00  0.0000E+00  0.0000E+00
    -10.008  0.0000E+00  0.0000E+00  0.0000E+00  0.0000E+00
     -9.969  0.0000E+00  0.0000E+00  0.0000E+00  0.0000E+00
     -9.930  0.0000E+00  0.0000E+00  0.0000E+00  0.0000E+00
     -9.891  0.0000E+00  0.0000E+00  0.0000E+00  0.0000E+00
     -9.852  0.0000E+00  0.0000E+00  0.0000E+00  0.0000E+00
     -9.814  0.0000E+00  0.0000E+00  0.0000E+00  0.0000E+00
     -9.775  0.0000E+00  0.0000E+00  0.0000E+00  0.0000E+00
     -9.736  0.0000E+00  0.0000E+00  0.0000E+00  0.0000E+00
     -9.697  0.0000E+00  0.0000E+00  0.0000E+00  0.0000E+00
     -9.658  0.0000E+00  0.0000E+00  0.0000E+00  0.0000E+00
     -9.619  0.0000E+00  0.0000E+00  0.0000E+00  0.0000E+00
     -9.580  0.0000E+00  0.0000E+00  0.0000E+00  0.0000E+00
     -9.541  0.0000E+00  0.0000E+00  0.0000E+00  0.0000E+00
     -9.502  0.0000E+00  0.0000E+00  0.1000E-02  0.0000E+00
     -9.463  0.0000E+00  0.0000E+00  0.1000E-02  0.1000E-02
     -9.424  0.0000E+00  0.0000E+00  0.1000E-02  0.1000E-02
     -9.385  0.0000E+00  0.0000E+00  0.1000E-02  0.1000E-02
     -9.346  0.0000E+00  0.0000E+00  0.1000E-02  0.1000E-02
     -9.307  0.0000E+00  0.0000E+00  0.1000E-02  0.1000E-02
     -9.268  0.0000E+00  0.0000E+00  0.1000E-02  0.1000E-02
     -9.229  0.0000E+00  0.0000E+00  0.1000E-02  0.1000E-02
     -9.190  0.0000E+00  0.0000E+00  0.2000E-02  0.1000E-02
     -9.151  0.0000E+00  0.0000E+00  0.2000E-02  0.2000E-02
     -9.112  0.0000E+00  0.0000E+00  0.2000E-02  0.2000E-02
     -9.073  0.0000E+00  0.0000E+00  0.2000E-02  0.2000E-02
     -9.034  0.0000E+00  0.0000E+00  0.3000E-02  0.3000E-02
     -8.995  0.0000E+00  0.0000E+00  0.5000E-02  0.5000E-02
     -8.956  0.0000E+00  0.0000E+00  0.5000E-02  0.5000E-02
     -8.917  0.0000E+00  0.0000E+00  0.7000E-02  0.6000E-02
     -8.878  0.0000E+00  0.0000E+00  0.8000E-02  0.8000E-02
     -8.839  0.0000E+00  0.0000E+00  0.1000E-01  0.1000E-01
     -8.800  0.0000E+00  0.0000E+00  0.1200E-01  0.1200E-01
     -8.761  0.0000E+00  0.0000E+00  0.1300E-01  0.1300E-01
     -8.722  0.0000E+00  0.0000E+00  0.1400E-01  0.1400E-01
     -8.683  0.0000E+00  0.0000E+00  0.1600E-01  0.1600E-01
     -8.644  0.0000E+00  0.0000E+00  0.1800E-01  0.1700E-01
     -8.605  0.0000E+00  0.0000E+00  0.1900E-01  0.1800E-01
     -8.566  0.0000E+00  0.0000E+00  0.2100E-01  0.2100E-01
     -8.527  0.0000E+00  0.0000E+00  0.2400E-01  0.2300E-01
     -8.488  0.0000E+00  0.0000E+00  0.2500E-01  0.2500E-01
     -8.449  0.0000E+00  0.0000E+00  0.2600E-01  0.2600E-01
     -8.410  0.0000E+00  0.0000E+00  0.2800E-01  0.2800E-01
     -8.371  0.0000E+00  0.5795E-07  0.3100E-01  0.3000E-01
     -8.332  0.0000E+00  0.1820E-02  0.3200E-01  0.3107E-01
     -8.293  0.0000E+00  0.0000E+00  0.3300E-01  0.3300E-01
     -8.254  0.0000E+00  0.0000E+00  0.3500E-01  0.3400E-01
     -8.215  0.0000E+00  0.0000E+00  0.3700E-01  0.3700E-01
     -8.176  0.0000E+00  0.0000E+00  0.3900E-01  0.3800E-01
     -8.137  0.0000E+00  0.0000E+00  0.4100E-01  0.4000E-01
     -8.098  0.0000E+00  0.0000E+00  0.4300E-01  0.4300E-01
     -8.059  0.0000E+00  0.0000E+00  0.4600E-01  0.4500E-01
     -8.020  0.0000E+00  0.2565E-01  0.4700E-01  0.4700E-01
     -7.981  0.0000E+00  0.2565E-01  0.4900E-01  0.4900E-01
     -7.943  0.0000E+00  0.0000E+00  0.5100E-01  0.5100E-01
     -7.904  0.0000E+00  0.0000E+00  0.5300E-01  0.5200E-01
     -7.865  0.0000E+00  0.0000E+00  0.5500E-01  0.5400E-01
     -7.826  0.0000E+00  0.0000E+00  0.5700E-01  0.5700E-01
     -7.787  0.0000E+00  0.0000E+00  0.6000E-01  0.5800E-01
     -7.748  0.0000E+00  0.0000E+00  0.6100E-01  0.6000E-01
     -7.709  0.0000E+00  0.0000E+00  0.6200E-01  0.6200E-01
     -7.670  0.0000E+00  0.0000E+00  0.6400E-01  0.6400E-01
     -7.631  0.0000E+00  0.0000E+00  0.6600E-01  0.6500E-01
     -7.592  0.0000E+00  0.0000E+00  0.6700E-01  0.6700E-01
     -7.553  0.0000E+00  0.0000E+00  0.6900E-01  0.6900E-01
     -7.514  0.0000E+00  0.0000E+00  0.7100E-01  0.7100E-01
     -7.475  0.0000E+00  0.0000E+00  0.7400E-01  0.7300E-01
     -7.436  0.0000E+00  0.0000E+00  0.7500E-01  0.7500E-01
     -7.397  0.0000E+00  0.0000E+00  0.7700E-01  0.7700E-01
     -7.358  0.0000E+00  0.0000E+00  0.7800E-01  0.7800E-01
     -7.319  0.0000E+00  0.0000E+00  0.8000E-01  0.8000E-01
     -7.280  0.0000E+00  0.0000E+00  0.8300E-01  0.8200E-01
     -7.241  0.0000E+00  0.0000E+00  0.8500E-01  0.8400E-01
     -7.202  0.0000E+00  0.0000E+00  0.8700E-01  0.8600E-01
     -7.163  0.0000E+00  0.0000E+00  0.8900E-01  0.8900E-01
     -7.124  0.0000E+00  0.0000E+00  0.9200E-01  0.9100E-01
     -7.085  0.0000E+00  0.1616E-04  0.9400E-01  0.9200E-01
     -7.046  0.2565E-01  0.0000E+00  0.9700E-01  0.9500E-01
     -7.007  0.0000E+00  0.0000E+00  0.1000E+00  0.9900E-01
     -6.968  0.0000E+00  0.0000E+00  0.1020E+00  0.1010E+00
     -6.929  0.0000E+00  0.0000E+00  0.1060E+00  0.1050E+00
     -6.890  0.0000E+00  0.2565E-01  0.1090E+00  0.1090E+00
     -6.851  0.0000E+00  0.0000E+00  0.1110E+00  0.1100E+00
     -6.812  0.0000E+00  0.0000E+00  0.1150E+00  0.1140E+00
     -6.773  0.0000E+00  0.0000E+00  0.1160E+00  0.1150E+00
     -6.734  0.0000E+00  0.0000E+00  0.1210E+00  0.1200E+00
     -6.695  0.8635E-12  0.0000E+00  0.1230E+00  0.1230E+00
     -6.656  0.0000E+00  0.0000E+00  0.1270E+00  0.1260E+00
     -6.617  0.0000E+00  0.0000E+00  0.1300E+00  0.1290E+00
     -6.578  0.0000E+00  0.0000E+00  0.1330E+00  0.1320E+00
     -6.539  0.0000E+00  0.0000E+00  0.1350E+00  0.1350E+00
     -6.500  0.0000E+00  0.1164E-11  0.1390E+00  0.1380E+00
     -6.461  0.0000E+00  0.0000E+00  0.1410E+00  0.1410E+00
     -6.422  0.0000E+00  0.0000E+00  0.1440E+00  0.1430E+00
     -6.383  0.0000E+00  0.0000E+00  0.1470E+00  0.1470E+00
     -6.344  0.0000E+00  0.1709E-16  0.1500E+00  0.1480E+00
     -6.305  0.0000E+00  0.0000E+00  0.1520E+00  0.1510E+00
     -6.266  0.0000E+00  0.0000E+00  0.1540E+00  0.1520E+00
     -6.227  0.0000E+00  0.0000E+00  0.1560E+00  0.1560E+00
     -6.188  0.0000E+00  0.0000E+00  0.1570E+00  0.1570E+00
     -6.149  0.0000E+00  0.0000E+00  0.1580E+00  0.1580E+00
     -6.111  0.0000E+00  0.0000E+00  0.1590E+00  0.1590E+00
     -6.072  0.0000E+00  0.0000E+00  0.1590E+00  0.1590E+00
     -6.033  0.0000E+00  0.0000E+00  0.1590E+00  0.1590E+00
     -5.994  0.0000E+00  0.0000E+00  0.1590E+00  0.1590E+00
     -5.955  0.0000E+00  0.0000E+00  0.1590E+00  0.1590E+00
     -5.916  0.0000E+00  0.0000E+00  0.1590E+00  0.1590E+00
     -5.877  0.0000E+00  0.0000E+00  0.1590E+00  0.1590E+00
     -5.838  0.0000E+00  0.0000E+00  0.1600E+00  0.1600E+00
     -5.799  0.0000E+00  0.0000E+00  0.1600E+00  0.1600E+00
     -5.760  0.0000E+00  0.0000E+00  0.1610E+00  0.1600E+00
     -5.721  0.0000E+00  0.0000E+00  0.1610E+00  0.1610E+00
     -5.682  0.0000E+00  0.0000E+00  0.1610E+00  0.1610E+00
     -5.643  0.0000E+00  0.0000E+00  0.1610E+00  0.1610E+00
     -5.604  0.0000E+00  0.0000E+00  0.1610E+00  0.1610E+00
     -5.565  0.0000E+00  0.0000E+00  0.1610E+00  0.1610E+00
     -5.526  0.0000E+00  0.0000E+00  0.1620E+00  0.1610E+00
     -5.487  0.0000E+00  0.0000E+00  0.1620E+00  0.1620E+00
     -5.448  0.0000E+00  0.0000E+00  0.1620E+00  0.1620E+00
     -5.409  0.0000E+00  0.0000E+00  0.1620E+00  0.1620E+00
     -5.370  0.0000E+00  0.0000E+00  0.1620E+00  0.1620E+00
     -5.331  0.0000E+00  0.0000E+00  0.1620E+00  0.1620E+00
     -5.292  0.0000E+00  0.0000E+00  0.1620E+00  0.1620E+00
     -5.253  0.0000E+00  0.0000E+00  0.1620E+00  0.1620E+00
     -5.214  0.0000E+00  0.0000E+00  0.1620E+00  0.1620E+00
     -5.175  0.0000E+00  0.0000E+00  0.1620E+00  0.1620E+00
     -5.136  0.0000E+00  0.0000E+00  0.1620E+00  0.1620E+00
     -5.097  0.0000E+00  0.0000E+00  0.1620E+00  0.1620E+00
     -5.058  0.0000E+00  0.0000E+00  0.1620E+00  0.1620E+00
     -5.019  0.0000E+00  0.0000E+00  0.1620E+00  0.1620E+00
     -4.980  0.0000E+00  0.0000E+00  0.1630E+00  0.1630E+00
     -4.941  0.0000E+00  0.0000E+00  0.1640E+00  0.1630E+00
     -4.902  0.0000E+00  0.0000E+00  0.1640E+00  0.1640E+00
     -4.863  0.0000E+00  0.0000E+00  0.1640E+00  0.1640E+00
     -4.824  0.0000E+00  0.0000E+00  0.1640E+00  0.1640E+00
     -4.785  0.0000E+00  0.0000E+00  0.1640E+00  0.1640E+00
     -4.746  0.0000E+00  0.0000E+00  0.1650E+00  0.1640E+00
     -4.707  0.0000E+00  0.0000E+00  0.1650E+00  0.1650E+00
     -4.668  0.0000E+00  0.0000E+00  0.1650E+00  0.1650E+00
     -4.629  0.0000E+00  0.0000E+00  0.1650E+00  0.1650E+00
     -4.590  0.0000E+00  0.0000E+00  0.1650E+00  0.1650E+00
     -4.551  0.0000E+00  0.0000E+00  0.1650E+00  0.1650E+00
     -4.512  0.0000E+00  0.0000E+00  0.1650E+00  0.1650E+00
     -4.473  0.0000E+00  0.0000E+00  0.1660E+00  0.1650E+00
     -4.434  0.0000E+00  0.0000E+00  0.1660E+00  0.1660E+00
     -4.395  0.0000E+00  0.0000E+00  0.1660E+00  0.1660E+00
     -4.356  0.0000E+00  0.0000E+00  0.1660E+00  0.1660E+00
     -4.317  0.0000E+00  0.0000E+00  0.1670E+00  0.1660E+00
     -4.278  0.0000E+00  0.0000E+00  0.1670E+00  0.1670E+00
     -4.240  0.0000E+00  0.0000E+00  0.1670E+00  0.1670E+00
     -4.201  0.0000E+00  0.0000E+00  0.1670E+00  0.1670E+00
     -4.162  0.0000E+00  0.0000E+00  0.1670E+00  0.1670E+00
     -4.123  0.0000E+00  0.0000E+00  0.1670E+00  0.1670E+00
     -4.084  0.0000E+00  0.0000E+00  0.1670E+00  0.1670E+00
     -4.045  0.0000E+00  0.0000E+00  0.1670E+00  0.1670E+00
     -4.006  0.0000E+00  0.0000E+00  0.1680E+00  0.1670E+00
     -3.967  0.0000E+00  0.0000E+00  0.1680E+00  0.1680E+00
     -3.928  0.0000E+00  0.0000E+00  0.1680E+00  0.1680E+00
     -3.889  0.0000E+00  0.0000E+00  0.1680E+00  0.1680E+00
     -3.850  0.0000E+00  0.0000E+00  0.1690E+00  0.1680E+00
     -3.811  0.0000E+00  0.0000E+00  0.1690E+00  0.1690E+00
     -3.772  0.0000E+00  0.0000E+00  0.1690E+00  0.1690E+00
     -3.733  0.0000E+00  0.0000E+00  0.1690E+00  0.1690E+00
     -3.694  0.0000E+00  0.0000E+00  0.1690E+00  0.1690E+00
     -3.655  0.0000E+00  0.0000E+00  0.1700E+00  0.1690E+00
     -3.616  0.0000E+00  0.0000E+00  0.1700E+00  0.1700E+00
     -3.577  0.0000E+00  0.0000E+00  0.1700E+00  0.1700E+00
     -3.538  0.0000E+00  0.0000E+00  0.1700E+00  0.1700E+00
     -3.499  0.0000E+00  0.0000E+00  0.1700E+00  0.1700E+00
     -3.460  0.0000E+00  0.0000E+00  0.1700E+00  0.1700E+00
     -3.421  0.0000E+00  0.0000E+00  0.1700E+00  0.1700E+00
     -3.382  0.0000E+00  0.0000E+00  0.1700E+00  0.1700E+00
     -3.343  0.0000E+00  0.0000E+00  0.1710E+00  0.1700E+00
     -3.304  0.0000E+00  0.0000E+00  0.1710E+00  0.1700E+00
     -3.265  0.0000E+00  0.0000E+00  0.1710E+00  0.1700E+00
     -3.226  0.0000E+00  0.0000E+00  0.1710E+00  0.1710E+00
     -3.187  0.0000E+00  0.0000E+00  0.1710E+00  0.1710E+00
     -3.148  0.0000E+00  0.0000E+00  0.1710E+00  0.1710E+00
     -3.109  0.0000E+00  0.0000E+00  0.1710E+00  0.1710E+00
     -3.070  0.0000E+00  0.0000E+00  0.1710E+00  0.1710E+00
     -3.031  0.0000E+00  0.0000E+00  0.1710E+00  0.1710E+00
     -2.992  0.0000E+00  0.0000E+00  0.1710E+00  0.1710E+00
     -2.953  0.0000E+00  0.0000E+00  0.1710E+00  0.1710E+00
     -2.914  0.0000E+00  0.0000E+00  0.1720E+00  0.1710E+00
     -2.875  0.0000E+00  0.0000E+00  0.1730E+00  0.1720E+00
     -2.836  0.0000E+00  0.0000E+00  0.1730E+00  0.1730E+00
     -2.797  0.0000E+00  0.0000E+00  0.1730E+00  0.1730E+00
     -2.758  0.0000E+00  0.0000E+00  0.1740E+00  0.1740E+00
     -2.719  0.0000E+00  0.0000E+00  0.1740E+00  0.1740E+00
     -2.680  0.0000E+00  0.0000E+00  0.1740E+00  0.1740E+00
     -2.641  0.0000E+00  0.0000E+00  0.1750E+00  0.1750E+00
     -2.602  0.0000E+00  0.0000E+00  0.1750E+00  0.1750E+00
     -2.563  0.0000E+00  0.0000E+00  0.1760E+00  0.1750E+00
     -2.524  0.0000E+00  0.0000E+00  0.1760E+00  0.1760E+00
     -2.485  0.0000E+00  0.0000E+00  0.1770E+00  0.1760E+00
     -2.446  0.0000E+00  0.0000E+00  0.1770E+00  0.1770E+00
     -2.407  0.0000E+00  0.0000E+00  0.1770E+00  0.1770E+00
     -2.369  0.0000E+00  0.0000E+00  0.1770E+00  0.1770E+00
     -2.330  0.0000E+00  0.0000E+00  0.1770E+00  0.1770E+00
     -2.291  0.0000E+00  0.0000E+00  0.1780E+00  0.1770E+00
     -2.252  0.0000E+00  0.0000E+00  0.1780E+00  0.1780E+00
     -2.213  0.0000E+00  0.0000E+00  0.1780E+00  0.1780E+00
     -2.174  0.0000E+00  0.0000E+00  0.1780E+00  0.1780E+00
     -2.135  0.0000E+00  0.0000E+00  0.1790E+00  0.1780E+00
     -2.096  0.0000E+00  0.0000E+00  0.1790E+00  0.1790E+00
     -2.057  0.0000E+00  0.0000E+00  0.1790E+00  0.1790E+00
     -2.018  0.0000E+00  0.0000E+00  0.1800E+00  0.1790E+00
     -1.979  0.0000E+00  0.0000E+00  0.1800E+00  0.1800E+00
     -1.940  0.0000E+00  0.0000E+00  0.1800E+00  0.1800E+00
     -1.901  0.0000E+00  0.0000E+00  0.1800E+00  0.1800E+00
     -1.862  0.0000E+00  0.0000E+00  0.1810E+00  0.1800E+00
     -1.823  0.0000E+00  0.0000E+00  0.1810E+00  0.1810E+00
     -1.784  0.0000E+00  0.0000E+00  0.1810E+00  0.1810E+00
     -1.745  0.0000E+00  0.0000E+00  0.1810E+00  0.1810E+00
     -1.706  0.0000E+00  0.0000E+00  0.1810E+00  0.1810E+00
     -1.667  0.0000E+00  0.0000E+00  0.1820E+00  0.1810E+00
     -1.628  0.0000E+00  0.0000E+00  0.1820E+00  0.1820E+00
     -1.589  0.0000E+00  0.0000E+00  0.1820E+00  0.1820E+00
     -1.550  0.0000E+00  0.0000E+00  0.1820E+00  0.1820E+00
     -1.511  0.0000E+00  0.0000E+00  0.1830E+00  0.1820E+00
     -1.472  0.0000E+00  0.0000E+00  0.1840E+00  0.1830E+00
     -1.433  0.0000E+00  0.0000E+00  0.1840E+00  0.1840E+00
     -1.394  0.0000E+00  0.0000E+00  0.1840E+00  0.1840E+00
     -1.355  0.0000E+00  0.0000E+00  0.1850E+00  0.1840E+00
     -1.316  0.0000E+00  0.0000E+00  0.1850E+00  0.1840E+00
     -1.277  0.0000E+00  0.0000E+00  0.1850E+00  0.1850E+00
     -1.238  0.0000E+00  0.0000E+00  0.1850E+00  0.1850E+00
     -1.199  0.0000E+00  0.0000E+00  0.1850E+00  0.1850E+00
     -1.160  0.0000E+00  0.0000E+00  0.1850E+00  0.1850E+00
     -1.121  0.0000E+00  0.0000E+00  0.1850E+00  0.1850E+00
     -1.082  0.0000E+00  0.0000E+00  0.1860E+00  0.1850E+00
     -1.043  0.2565E-01  0.0000E+00  0.1870E+00  0.1860E+00
     -1.004  0.0000E+00  0.0000E+00  0.1880E+00  0.1870E+00
     -0.965  0.0000E+00  0.0000E+00  0.1880E+00  0.1880E+00
     -0.926  0.0000E+00  0.0000E+00  0.1880E+00  0.1880E+00
     -0.887  0.0000E+00  0.0000E+00  0.1890E+00  0.1880E+00
     -0.848  0.0000E+00  0.0000E+00  0.1900E+00  0.1890E+00
     -0.809  0.0000E+00  0.0000E+00  0.1900E+00  0.1900E+00
     -0.770  0.0000E+00  0.0000E+00  0.1910E+00  0.1900E+00
     -0.731  0.0000E+00  0.0000E+00  0.1910E+00  0.1910E+00
     -0.692  0.0000E+00  0.0000E+00  0.1920E+00  0.1910E+00
     -0.653  0.0000E+00  0.0000E+00  0.1920E+00  0.1920E+00
     -0.614  0.0000E+00  0.0000E+00  0.1920E+00  0.1920E+00
     -0.575  0.0000E+00  0.0000E+00  0.1920E+00  0.1920E+00
     -0.536  0.0000E+00  0.0000E+00  0.1930E+00  0.1920E+00
     -0.498  0.0000E+00  0.0000E+00  0.1930E+00  0.1930E+00
     -0.459  0.0000E+00  0.0000E+00  0.1940E+00  0.1930E+00
     -0.420  0.0000E+00  0.0000E+00  0.1940E+00  0.1940E+00
     -0.381  0.0000E+00  0.0000E+00  0.1940E+00  0.1940E+00
     -0.342  0.0000E+00  0.0000E+00  0.1960E+00  0.1940E+00
     -0.303  0.0000E+00  0.0000E+00  0.1960E+00  0.1950E+00
     -0.264  0.0000E+00  0.0000E+00  0.1960E+00  0.1960E+00
     -0.225  0.0000E+00  0.0000E+00  0.1960E+00  0.1960E+00
     -0.186  0.0000E+00  0.0000E+00  0.1960E+00  0.1960E+00
     -0.147  0.0000E+00  0.0000E+00  0.1960E+00  0.1960E+00
     -0.108  0.0000E+00  0.0000E+00  0.1970E+00  0.1960E+00
     -0.069  0.0000E+00  0.0000E+00  0.1970E+00  0.1970E+00
     -0.030  0.0000E+00  0.0000E+00  0.1970E+00  0.1970E+00
      0.009  0.0000E+00  0.0000E+00  0.1980E+00  0.1970E+00
      0.048  0.0000E+00  0.0000E+00  0.1980E+00  0.1980E+00
      0.087  0.0000E+00  0.0000E+00  0.1980E+00  0.1980E+00
      0.126  0.0000E+00  0.0000E+00  0.1980E+00  0.1980E+00
      0.165  0.0000E+00  0.0000E+00  0.1980E+00  0.1980E+00
      0.204  0.0000E+00  0.0000E+00  0.1990E+00  0.1980E+00
      0.243  0.0000E+00  0.0000E+00  0.1990E+00  0.1990E+00
      0.282  0.0000E+00  0.0000E+00  0.1990E+00  0.1990E+00
      0.321  0.0000E+00  0.0000E+00  0.2000E+00  0.1990E+00
      0.360  0.0000E+00  0.0000E+00  0.2000E+00  0.2000E+00
      0.399  0.0000E+00  0.0000E+00  0.2010E+00  0.2010E+00
      0.438  0.0000E+00  0.0000E+00  0.2010E+00  0.2010E+00
      0.477  0.0000E+00  0.0000E+00  0.2010E+00  0.2010E+00
      0.516  0.0000E+00  0.0000E+00  0.2020E+00  0.2020E+00
      0.555  0.0000E+00  0.0000E+00  0.2030E+00  0.2020E+00
      0.594  0.0000E+00  0.0000E+00  0.2030E+00  0.2030E+00
      0.633  0.0000E+00  0.0000E+00  0.2050E+00  0.2040E+00
      0.672  0.0000E+00  0.0000E+00  0.2050E+00  0.2050E+00
      0.711  0.0000E+00  0.0000E+00  0.2060E+00  0.2050E+00
      0.750  0.0000E+00  0.0000E+00  0.2070E+00  0.2070E+00
      0.789  0.0000E+00  0.0000E+00  0.2090E+00  0.2080E+00
      0.828  0.0000E+00  0.0000E+00  0.2090E+00  0.2090E+00
      0.867  0.0000E+00  0.0000E+00  0.2100E+00  0.2090E+00
      0.906  0.0000E+00  0.0000E+00  0.2120E+00  0.2100E+00
      0.945  0.0000E+00  0.0000E+00  0.2120E+00  0.2120E+00
      0.984  0.0000E+00  0.0000E+00  0.2130E+00  0.2120E+00
      1.023  0.0000E+00  0.0000E+00  0.2150E+00  0.2140E+00
      1.062  0.0000E+00  0.0000E+00  0.2170E+00  0.2170E+00
      1.101  0.0000E+00  0.0000E+00  0.2200E+00  0.2180E+00
      1.140  0.0000E+00  0.0000E+00  0.2200E+00  0.2200E+00
      1.179  0.0000E+00  0.0000E+00  0.2200E+00  0.2200E+00
      1.218  0.0000E+00  0.0000E+00  0.2200E+00  0.2200E+00
      1.257  0.0000E+00  0.0000E+00  0.2200E+00  0.2200E+00
      1.296  0.0000E+00  0.0000E+00  0.2200E+00  0.2200E+00
      1.335  0.0000E+00  0.0000E+00  0.2200E+00  0.2200E+00
      1.373  0.0000E+00  0.0000E+00  0.2200E+00  0.2200E+00
      1.412  0.0000E+00  0.0000E+00  0.2200E+00  0.2200E+00
      1.451  0.0000E+00  0.0000E+00  0.2200E+00  0.2200E+00
      1.490  0.0000E+00  0.0000E+00  0.2200E+00  0.2200E+00
      1.529  0.0000E+00  0.0000E+00  0.2200E+00  0.2200E+00
      1.568  0.0000E+00  0.0000E+00  0.2200E+00  0.2200E+00
      1.607  0.0000E+00  0.0000E+00  0.2200E+00  0.2200E+00
      1.646  0.0000E+00  0.0000E+00  0.2200E+00  0.2200E+00
