<?xml version="1.0" encoding="ISO-8859-1"?>
<modeling>
 <generator>
  <i name="program" type="string">vasp </i>
  <i name="version" type="string">5.3.5  </i>
  <i name="subversion" type="string">31Mar14 (build Feb 01 2018 12:10:03) gamma-only                       parallel </i>
  <i name="platform" type="string">LinuxIFC </i>
  <i name="date" type="string">2019 03 22 </i>
  <i name="time" type="string">06:46:18 </i>
 </generator>
 <incar>
  <i type="string" name="PREC">normal</i>
  <i type="int" name="ISPIN">     2</i>
  <i type="int" name="IBRION">     2</i>
  <i type="int" name="NSW">  1000</i>
  <i type="int" name="ISIF">     2</i>
  <i name="POTIM">      0.10000000</i>
  <i type="logical" name="LPLANE"> T  </i>
  <i type="int" name="ISMEAR">     0</i>
  <i name="SIGMA">      0.00010000</i>
  <i type="logical" name="LWAVE"> F  </i>
  <i type="logical" name="LCHARG"> F  </i>
  <i type="logical" name="LVTOT"> F  </i>
  <i type="string" name="GGA"> PE</i>
 </incar>
 <kpoints>
  <varray name="kpointlist" >
   <v>       0.00000000       0.00000000       0.00000000 </v>
  </varray>
  <varray name="weights" >
   <v>       1.00000000 </v>
  </varray>
 </kpoints>
 <parameters>
  <separator name="general" >
   <i type="string" name="SYSTEM">unknown system</i>
   <i type="logical" name="LCOMPAT"> F  </i>
  </separator>
  <separator name="electronic" >
   <i type="string" name="PREC">normal</i>
   <i name="ENMAX">    249.84400000</i>
   <i name="ENAUG">    412.49600000</i>
   <i name="EDIFF">      0.00010000</i>
   <i type="int" name="IALGO">    38</i>
   <i type="int" name="IWAVPR">    11</i>
   <i type="int" name="NBANDS">   184</i>
   <i name="NELECT">    286.00000000</i>
   <i type="int" name="TURBO">     0</i>
   <i type="int" name="IRESTART">     0</i>
   <i type="int" name="NREBOOT">     0</i>
   <i type="int" name="NMIN">     0</i>
   <i name="EREF">      0.00000000</i>
   <separator name="electronic smearing" >
    <i type="int" name="ISMEAR">     0</i>
    <i name="SIGMA">      0.00010000</i>
    <i name="KSPACING">      0.50000000</i>
    <i type="logical" name="KGAMMA"> T  </i>
   </separator>
   <separator name="electronic projectors" >
    <i type="logical" name="LREAL"> F  </i>
    <v name="ROPT">      0.00000000</v>
    <i type="int" name="LMAXPAW">  -100</i>
    <i type="int" name="LMAXMIX">     2</i>
    <i type="logical" name="NLSPLINE"> F  </i>
   </separator>
   <separator name="electronic startup" >
    <i type="int" name="ISTART">     0</i>
    <i type="int" name="ICHARG">     2</i>
    <i type="int" name="INIWAV">     1</i>
   </separator>
   <separator name="electronic spin" >
    <i type="int" name="ISPIN">     2</i>
    <i type="logical" name="LNONCOLLINEAR"> F  </i>
    <v name="MAGMOM">      1.00000000      1.00000000      1.00000000      1.00000000      1.00000000      1.00000000      1.00000000      1.00000000      1.00000000      1.00000000      1.00000000      1.00000000      1.00000000      1.00000000      1.00000000      1.00000000      1.00000000      1.00000000      1.00000000      1.00000000
      1.00000000      1.00000000      1.00000000      1.00000000      1.00000000      1.00000000</v>
    <i name="NUPDOWN">     -1.00000000</i>
    <i type="logical" name="LSORBIT"> F  </i>
    <v name="SAXIS">      0.00000000      0.00000000      1.00000000</v>
    <i type="logical" name="LSPIRAL"> F  </i>
    <v name="QSPIRAL">      0.00000000      0.00000000      0.00000000</v>
    <i type="logical" name="LZEROZ"> F  </i>
   </separator>
   <separator name="electronic exchange-correlation" >
    <i type="logical" name="LASPH"> F  </i>
    <i type="logical" name="LMETAGGA"> F  </i>
   </separator>
   <separator name="electronic convergence" >
    <i type="int" name="NELM">    60</i>
    <i type="int" name="NELMDL">    -5</i>
    <i type="int" name="NELMIN">     2</i>
    <i name="ENINI">    249.84400000</i>
    <separator name="electronic convergence detail" >
     <i type="logical" name="LDIAG"> T  </i>
     <i type="logical" name="LSUBROT"> F  </i>
     <i name="WEIMIN">      0.00100000</i>
     <i name="EBREAK">      0.00000014</i>
     <i name="DEPER">      0.30000000</i>
     <i type="int" name="NRMM">     4</i>
     <i name="TIME">      0.40000000</i>
    </separator>
   </separator>
   <separator name="electronic mixer" >
    <i name="AMIX">      0.40000000</i>
    <i name="BMIX">      1.00000000</i>
    <i name="AMIN">      0.10000000</i>
    <i name="AMIX_MAG">      1.60000000</i>
    <i name="BMIX_MAG">      1.00000000</i>
    <separator name="electronic mixer details" >
     <i type="int" name="IMIX">     4</i>
     <i type="int" name="MAXMIX">   -45</i>
     <i name="WC">    100.00000000</i>
     <i type="int" name="INIMIX">     1</i>
     <i type="int" name="MIXPRE">     1</i>
     <i type="int" name="MREMOVE">     5</i>
    </separator>
   </separator>
   <separator name="electronic dipolcorrection" >
    <i type="logical" name="LDIPOL"> F  </i>
    <i type="logical" name="LMONO"> F  </i>
    <i type="int" name="IDIPOL">     0</i>
    <i name="EPSILON">      1.00000000</i>
    <v name="DIPOL">   -100.00000000   -100.00000000   -100.00000000</v>
    <i name="EFIELD">      0.00000000</i>
   </separator>
  </separator>
  <separator name="grids" >
   <i type="int" name="NGX">    84</i>
   <i type="int" name="NGY">    84</i>
   <i type="int" name="NGZ">    84</i>
   <i type="int" name="NGXF">   168</i>
   <i type="int" name="NGYF">   168</i>
   <i type="int" name="NGZF">   168</i>
   <i type="logical" name="ADDGRID"> F  </i>
  </separator>
  <separator name="ionic" >
   <i type="int" name="NSW">  1000</i>
   <i type="int" name="IBRION">     2</i>
   <i type="int" name="ISIF">     2</i>
   <i name="PSTRESS">      0.00000000</i>
   <i name="EDIFFG">      0.00100000</i>
   <i type="int" name="NFREE">     1</i>
   <i name="POTIM">      0.10000000</i>
   <i name="SMASS">     -3.00000000</i>
   <i name="SCALEE">      1.00000000</i>
  </separator>
  <separator name="ionic md" >
   <i name="TEBEG">      0.00010000</i>
   <i name="TEEND">      0.00010000</i>
   <i type="int" name="NBLOCK">     1</i>
   <i type="int" name="KBLOCK">  1000</i>
   <i type="int" name="NPACO">   256</i>
   <i name="APACO">     16.00000000</i>
  </separator>
  <separator name="symmetry" >
   <i type="int" name="ISYM">     2</i>
   <i name="SYMPREC">      0.00001000</i>
  </separator>
  <separator name="dos" >
   <i type="logical" name="LORBIT"> F  </i>
   <v name="RWIGS">     -1.00000000</v>
   <i type="int" name="NEDOS">   301</i>
   <i name="EMIN">     10.00000000</i>
   <i name="EMAX">    -10.00000000</i>
   <i name="EFERMI">      0.00000000</i>
  </separator>
  <separator name="writing" >
   <i type="int" name="NWRITE">     2</i>
   <i type="logical" name="LWAVE"> F  </i>
   <i type="logical" name="LCHARG"> F  </i>
   <i type="logical" name="LPARD"> F  </i>
   <i type="logical" name="LVTOT"> F  </i>
   <i type="logical" name="LVHAR"> F  </i>
   <i type="logical" name="LELF"> F  </i>
   <i type="logical" name="LOPTICS"> F  </i>
   <v name="STM">      0.00000000      0.00000000      0.00000000      0.00000000      0.00000000      0.00000000      0.00000000</v>
  </separator>
  <separator name="performance" >
   <i type="int" name="NPAR">     4</i>
   <i type="int" name="NSIM">     4</i>
   <i type="int" name="NBLK">    -1</i>
   <i type="logical" name="LPLANE"> T  </i>
   <i type="logical" name="LSCALAPACK"> T  </i>
   <i type="logical" name="LSCAAWARE"> F  </i>
   <i type="logical" name="LSCALU"> F  </i>
   <i type="logical" name="LASYNC"> F  </i>
   <i type="logical" name="LORBITALREAL"> F  </i>
  </separator>
  <separator name="miscellaneous" >
   <i type="int" name="IDIOT">     3</i>
   <i type="logical" name="LMUSIC"> F  </i>
   <v name="POMASS">    107.86800000</v>
   <v name="DARWINR">      0.00000000</v>
   <v name="DARWINV">      1.00000000</v>
   <i type="logical" name="LCORR"> T  </i>
  </separator>
  <i type="logical" name="GGA_COMPAT"> T  </i>
  <i type="logical" name="LBERRY"> F  </i>
  <i type="int" name="ICORELEVEL">     0</i>
  <i type="logical" name="LDAU"> F  </i>
  <i type="int" name="I_CONSTRAINED_M">     0</i>
  <separator name="electronic exchange-correlation" >
   <i type="string" name="GGA">PE</i>
   <i type="int" name="VOSKOWN">     0</i>
   <i type="logical" name="LHFCALC"> F  </i>
   <i type="string" name="PRECFOCK"></i>
   <i type="logical" name="LSYMGRAD"> F  </i>
   <i type="logical" name="LHFONE"> F  </i>
   <i type="logical" name="LRHFCALC"> F  </i>
   <i type="logical" name="LTHOMAS"> F  </i>
   <i type="logical" name="LMODELHF"> F  </i>
   <i name="ENCUT4O">     -1.00000000</i>
   <i type="int" name="EXXOEP">     0</i>
   <i type="int" name="FOURORBIT">     0</i>
   <i name="AEXX">      0.00000000</i>
   <i name="HFALPHA">      0.00000000</i>
   <i name="MCALPHA">      0.00000000</i>
   <i name="ALDAX">      1.00000000</i>
   <i name="AGGAX">      1.00000000</i>
   <i name="ALDAC">      1.00000000</i>
   <i name="AGGAC">      1.00000000</i>
   <i type="int" name="NKREDX">     1</i>
   <i type="int" name="NKREDY">     1</i>
   <i type="int" name="NKREDZ">     1</i>
   <i type="logical" name="SHIFTRED"> F  </i>
   <i type="logical" name="ODDONLY"> F  </i>
   <i type="logical" name="EVENONLY"> F  </i>
   <i type="int" name="LMAXFOCK">     0</i>
   <i type="int" name="NMAXFOCKAE">     0</i>
   <i type="logical" name="LFOCKAEDFT"> F  </i>
   <i name="HFSCREEN">      0.00000000</i>
   <i name="HFSCREENC">      0.00000000</i>
   <i type="int" name="NBANDSGWLOW">     0</i>
  </separator>
  <separator name="vdW DFT" >
   <i type="logical" name="LUSE_VDW"> F  </i>
   <i name="Zab_VDW">     -0.84910000</i>
   <i name="PARAM1">      0.12340000</i>
   <i name="PARAM2">      1.00000000</i>
   <i name="PARAM3">      0.00000000</i>
  </separator>
  <separator name="model GW" >
   <i type="int" name="MODEL_GW">     0</i>
   <i name="MODEL_EPS0">    211.93474199</i>
   <i name="MODEL_ALPHA">      1.00000000</i>
  </separator>
  <separator name="linear response parameters" >
   <i type="logical" name="LEPSILON"> F  </i>
   <i type="logical" name="LRPA"> F  </i>
   <i type="logical" name="LNABLA"> F  </i>
   <i type="logical" name="LVEL"> F  </i>
   <i type="int" name="KINTER">     0</i>
   <i name="CSHIFT">      0.10000000</i>
   <i name="OMEGAMAX">     -1.00000000</i>
   <i name="DEG_THRESHOLD">      0.00200000</i>
  </separator>
  <separator name="orbital magnetization" >
   <i type="logical" name="NUCIND"> F  </i>
   <v name="MAGPOS">      0.00000000      0.00000000      0.00000000</v>
   <i type="logical" name="LNICSALL"> T  </i>
   <i type="logical" name="ORBITALMAG"> F  </i>
   <i type="logical" name="LMAGBLOCH"> F  </i>
   <i type="logical" name="LCHIMAG"> F  </i>
   <i type="logical" name="LGAUGE"> T  </i>
   <i type="int" name="MAGATOM">     0</i>
   <v name="MAGDIPOL">      0.00000000      0.00000000      0.00000000</v>
   <v name="AVECCONST">      0.00000000      0.00000000      0.00000000</v>
  </separator>
  <separator name="response functions" >
   <i type="logical" name="LADDER"> F  </i>
   <i type="logical" name="LFXC"> F  </i>
   <i type="logical" name="LHARTREE"> T  </i>
   <i type="int" name="IBSE">     0</i>
   <i type="logical" name="LTCTE"> F  </i>
   <i type="logical" name="LTETE"> F  </i>
   <i type="logical" name="LTRIPLET"> F  </i>
   <i type="logical" name="LFXCEPS"> F  </i>
   <i type="logical" name="LFXHEG"> F  </i>
   <i type="logical" name="L2ORDER"> F  </i>
   <i type="logical" name="LUSEW"> F  </i>
   <i name="ENCUTGW">     -2.00000000</i>
   <i name="ENCUTGWSOFT">     -2.00000000</i>
   <i name="ENCUTLF">     -1.00000000</i>
   <i type="int" name="LMAXMP2">    -1</i>
   <i name="SCISSOR">      0.00000000</i>
   <i type="int" name="NOMEGA">     0</i>
   <i type="int" name="NOMEGAR">     0</i>
   <i type="int" name="NBANDSGW">    -1</i>
   <i type="int" name="NBANDSO">    -1</i>
   <i type="int" name="NBANDSV">    -1</i>
   <i type="int" name="NELM">     1</i>
   <i type="int" name="DIM">     3</i>
   <i type="int" name="ANTIRES">     0</i>
   <i name="OMEGAMAX">    -30.00000000</i>
   <i name="OMEGAMIN">    -30.00000000</i>
   <i name="OMEGATL">   -200.00000000</i>
   <i type="int" name="OMEGAGRID">     0</i>
   <i name="CSHIFT">     -0.10000000</i>
   <i type="logical" name="SELFENERGY"> F  </i>
   <i type="logical" name="LSPECTRAL"> F  </i>
   <i type="logical" name="ODDONLYGW"> F  </i>
   <i type="logical" name="EVENONLYGW"> F  </i>
   <i type="int" name="NKREDLFX">     1</i>
   <i type="int" name="NKREDLFY">     1</i>
   <i type="int" name="NKREDLFZ">     1</i>
   <i type="int" name="MAXMEM">  1800</i>
   <i type="int" name="TELESCOPE">     0</i>
   <i type="int" name="TAUPAR">     1</i>
  </separator>
  <separator name="External order field" >
   <i name="OFIELD_KAPPA">      0.00000000</i>
   <v name="OFIELD_K">      0.00000000      0.00000000      0.00000000</v>
   <i name="OFIELD_Q6_NEAR">      0.00000000</i>
   <i name="OFIELD_Q6_FAR">      0.00000000</i>
   <i name="OFIELD_A">      0.00000000</i>
  </separator>
 </parameters>
 <atominfo>
  <atoms>      26 </atoms>
  <types>       1 </types>
  <array name="atoms" >
   <dimension dim="1">ion</dimension>
   <field type="string">element</field>
   <field type="int">atomtype</field>
   <set>
    <rc><c>Ag</c><c>   1</c></rc>
    <rc><c>Ag</c><c>   1</c></rc>
    <rc><c>Ag</c><c>   1</c></rc>
    <rc><c>Ag</c><c>   1</c></rc>
    <rc><c>Ag</c><c>   1</c></rc>
    <rc><c>Ag</c><c>   1</c></rc>
    <rc><c>Ag</c><c>   1</c></rc>
    <rc><c>Ag</c><c>   1</c></rc>
    <rc><c>Ag</c><c>   1</c></rc>
    <rc><c>Ag</c><c>   1</c></rc>
    <rc><c>Ag</c><c>   1</c></rc>
    <rc><c>Ag</c><c>   1</c></rc>
    <rc><c>Ag</c><c>   1</c></rc>
    <rc><c>Ag</c><c>   1</c></rc>
    <rc><c>Ag</c><c>   1</c></rc>
    <rc><c>Ag</c><c>   1</c></rc>
    <rc><c>Ag</c><c>   1</c></rc>
    <rc><c>Ag</c><c>   1</c></rc>
    <rc><c>Ag</c><c>   1</c></rc>
    <rc><c>Ag</c><c>   1</c></rc>
    <rc><c>Ag</c><c>   1</c></rc>
    <rc><c>Ag</c><c>   1</c></rc>
    <rc><c>Ag</c><c>   1</c></rc>
    <rc><c>Ag</c><c>   1</c></rc>
    <rc><c>Ag</c><c>   1</c></rc>
    <rc><c>Ag</c><c>   1</c></rc>
   </set>
  </array>
  <array name="atomtypes" >
   <dimension dim="1">type</dimension>
   <field type="int">atomspertype</field>
   <field type="string">element</field>
   <field>mass</field>
   <field>valence</field>
   <field type="string">pseudopotential</field>
   <set>
    <rc><c>  26</c><c>Ag</c><c>    107.86800000</c><c>     11.00000000</c><c>  PAW_PBE Ag 02Apr2005                  </c></rc>
   </set>
  </array>
 </atominfo>
 <structure name="initialpos" >
  <crystal>
   <varray name="basis" >
    <v>      20.94151438       0.00000000       0.00000000 </v>
    <v>       0.00000000      20.94151438       0.00000000 </v>
    <v>       0.00000000       0.00000000      20.94151438 </v>
   </varray>
   <i name="volume">   9183.83881973 </i>
   <varray name="rec_basis" >
    <v>       0.04775204       0.00000000       0.00000000 </v>
    <v>       0.00000000       0.04775204       0.00000000 </v>
    <v>       0.00000000       0.00000000       0.04775204 </v>
   </varray>
  </crystal>
  <varray name="positions" >
   <v>       0.51863939       0.33918345       0.43689738 </v>
   <v>       0.43220104       0.33226790       0.53931854 </v>
   <v>       0.44337225       0.39836064       0.64652618 </v>
   <v>       0.53639415       0.40965045       0.55290936 </v>
   <v>       0.55046902       0.47907112       0.66447640 </v>
   <v>       0.62452455       0.41965435       0.45960697 </v>
   <v>       0.64697824       0.48982323       0.57147815 </v>
   <v>       0.51198635       0.59401968       0.71307883 </v>
   <v>       0.56380256       0.40972793       0.32702964 </v>
   <v>       0.43047924       0.42741993       0.32442827 </v>
   <v>       0.38505355       0.39204124       0.43515393 </v>
   <v>       0.39933126       0.46553616       0.53710705 </v>
   <v>       0.72037459       0.51082665       0.46085138 </v>
   <v>       0.49934288       0.47265634       0.43974058 </v>
   <v>       0.41696753       0.52868315       0.64649286 </v>
   <v>       0.51380546       0.54262169       0.55208190 </v>
   <v>       0.60846081       0.52556113       0.37871036 </v>
   <v>       0.62133685       0.59654478       0.48588953 </v>
   <v>       0.60783787       0.61114530       0.61758625 </v>
   <v>       0.54810043       0.72084237       0.66079442 </v>
   <v>       0.38026009       0.52803826       0.41325189 </v>
   <v>       0.48407256       0.54292580       0.32383868 </v>
   <v>       0.39583107       0.59885358       0.52176144 </v>
   <v>       0.43629304       0.65869115       0.62731703 </v>
   <v>       0.49861129       0.61254614       0.42727029 </v>
   <v>       0.52563051       0.67926802       0.52927049 </v>
  </varray>
 </structure>
 <calculation>
  <scstep>
   <time name="dav">    3.03    3.03</time>
   <time name="total">    3.33    3.36</time>
   <energy>
    <i name="alphaZ">     62.60897931 </i>
    <i name="ewald">  52496.53535980 </i>
    <i name="hartreedc"> -78358.72777948 </i>
    <i name="XCdc">   -285.06244809 </i>
    <i name="pawpsdc">  26087.67662981 </i>
    <i name="pawaedc"> -24888.87983085 </i>
    <i name="eentropy">     -0.00000000 </i>
    <i name="bandstr">    426.87524073 </i>
    <i name="atom">  26967.16438225 </i>
    <i name="e_fr_energy">   2508.19053348 </i>
    <i name="e_wo_entrp">   2508.19053348 </i>
    <i name="e_0_energy">   2508.19053348 </i>
   </energy>
  </scstep>
  <scstep>
   <time name="dav">    4.69    4.69</time>
   <time name="total">    4.69    4.70</time>
   <energy>
    <i name="e_fr_energy">    552.64077211 </i>
    <i name="e_wo_entrp">    552.64077211 </i>
    <i name="e_0_energy">    552.64077211 </i>
   </energy>
  </scstep>
  <scstep>
   <time name="dav">    3.72    3.73</time>
   <time name="total">    3.72    3.73</time>
   <energy>
    <i name="e_fr_energy">    -21.70005957 </i>
    <i name="e_wo_entrp">    -21.70005957 </i>
    <i name="e_0_energy">    -21.70005957 </i>
   </energy>
  </scstep>
  <scstep>
   <time name="dav">    3.22    3.22</time>
   <time name="total">    3.23    3.23</time>
   <energy>
    <i name="e_fr_energy">    -52.78191304 </i>
    <i name="e_wo_entrp">    -52.78191304 </i>
    <i name="e_0_energy">    -52.78191304 </i>
   </energy>
  </scstep>
  <scstep>
   <time name="dav">    3.40    3.40</time>
   <time name="total">    3.54    3.55</time>
   <energy>
    <i name="e_fr_energy">    -53.24417891 </i>
    <i name="e_wo_entrp">    -53.24417891 </i>
    <i name="e_0_energy">    -53.24417891 </i>
   </energy>
  </scstep>
  <scstep>
   <time name="dav">    3.03    3.03</time>
   <time name="total">    3.46    3.47</time>
   <energy>
    <i name="e_fr_energy">    -20.85144210 </i>
    <i name="e_wo_entrp">    -20.85144210 </i>
    <i name="e_0_energy">    -20.85144210 </i>
   </energy>
  </scstep>
  <scstep>
   <time name="dav">    3.11    3.11</time>
   <time name="total">    3.54    3.55</time>
   <energy>
    <i name="e_fr_energy">    -15.11745448 </i>
    <i name="e_wo_entrp">    -15.11745448 </i>
    <i name="e_0_energy">    -15.11745448 </i>
   </energy>
  </scstep>
  <scstep>
   <time name="dav">    3.18    3.18</time>
   <time name="total">    3.62    3.62</time>
   <energy>
    <i name="e_fr_energy">    -16.24435735 </i>
    <i name="e_wo_entrp">    -16.24435735 </i>
    <i name="e_0_energy">    -16.24435735 </i>
   </energy>
  </scstep>
  <scstep>
   <time name="dav">    3.28    3.29</time>
   <time name="total">    3.72    3.74</time>
   <energy>
    <i name="e_fr_energy">    -20.09998429 </i>
    <i name="e_wo_entrp">    -20.09998429 </i>
    <i name="e_0_energy">    -20.09998429 </i>
   </energy>
  </scstep>
  <scstep>
   <time name="dav">    3.09    3.09</time>
   <time name="total">    3.52    3.53</time>
   <energy>
    <i name="e_fr_energy">    -28.85084335 </i>
    <i name="e_wo_entrp">    -28.85084335 </i>
    <i name="e_0_energy">    -28.85084335 </i>
   </energy>
  </scstep>
  <scstep>
   <time name="dav">    3.22    3.22</time>
   <time name="total">    3.65    4.69</time>
   <energy>
    <i name="e_fr_energy">    -31.41480318 </i>
    <i name="e_wo_entrp">    -31.41480318 </i>
    <i name="e_0_energy">    -31.41480318 </i>
   </energy>
  </scstep>
  <scstep>
   <time name="dav">    3.09    3.09</time>
   <time name="total">    3.52    3.55</time>
   <energy>
    <i name="e_fr_energy">    -40.15767611 </i>
    <i name="e_wo_entrp">    -40.15767611 </i>
    <i name="e_0_energy">    -40.15767611 </i>
   </energy>
  </scstep>
  <scstep>
   <time name="dav">    3.24    3.24</time>
   <time name="total">    3.68    3.70</time>
   <energy>
    <i name="e_fr_energy">    -42.49027954 </i>
    <i name="e_wo_entrp">    -42.49027954 </i>
    <i name="e_0_energy">    -42.49027954 </i>
   </energy>
  </scstep>
  <scstep>
   <time name="dav">    3.05    3.05</time>
   <time name="total">    3.48    3.68</time>
   <energy>
    <i name="e_fr_energy">    -45.74648255 </i>
    <i name="e_wo_entrp">    -45.74648255 </i>
    <i name="e_0_energy">    -45.74648255 </i>
   </energy>
  </scstep>
  <scstep>
   <time name="dav">    3.07    3.07</time>
   <time name="total">    3.50    3.53</time>
   <energy>
    <i name="e_fr_energy">    -48.96113669 </i>
    <i name="e_wo_entrp">    -48.96113669 </i>
    <i name="e_0_energy">    -48.96113669 </i>
   </energy>
  </scstep>
  <scstep>
   <time name="dav">    3.10    3.10</time>
   <time name="total">    3.53    4.16</time>
   <energy>
    <i name="e_fr_energy">    -50.42551201 </i>
    <i name="e_wo_entrp">    -50.42551201 </i>
    <i name="e_0_energy">    -50.42551201 </i>
   </energy>
  </scstep>
  <scstep>
   <time name="dav">    3.15    3.15</time>
   <time name="total">    3.58    3.59</time>
   <energy>
    <i name="e_fr_energy">    -51.49944119 </i>
    <i name="e_wo_entrp">    -51.49944119 </i>
    <i name="e_0_energy">    -51.49944119 </i>
   </energy>
  </scstep>
  <scstep>
   <time name="dav">    3.18    3.18</time>
   <time name="total">    3.61    3.71</time>
   <energy>
    <i name="e_fr_energy">    -52.12949253 </i>
    <i name="e_wo_entrp">    -52.12949253 </i>
    <i name="e_0_energy">    -52.12949253 </i>
   </energy>
  </scstep>
  <scstep>
   <time name="dav">    3.20    3.20</time>
   <time name="total">    3.64    3.66</time>
   <energy>
    <i name="e_fr_energy">    -52.12510733 </i>
    <i name="e_wo_entrp">    -52.12510733 </i>
    <i name="e_0_energy">    -52.12510733 </i>
   </energy>
  </scstep>
  <scstep>
   <time name="dav">    2.47    2.47</time>
   <time name="total">    2.91    2.91</time>
   <energy>
    <i name="e_fr_energy">    -52.13234309 </i>
    <i name="e_wo_entrp">    -52.13234309 </i>
    <i name="e_0_energy">    -52.13234309 </i>
   </energy>
  </scstep>
  <scstep>
   <time name="dav">    2.28    2.28</time>
   <time name="total">    2.72    2.75</time>
   <energy>
    <i name="e_fr_energy">    -52.13195128 </i>
    <i name="e_wo_entrp">    -52.13195128 </i>
    <i name="e_0_energy">    -52.13195128 </i>
   </energy>
  </scstep>
  <scstep>
   <time name="dav">    2.52    2.52</time>
   <time name="total">    2.96    3.01</time>
   <energy>
    <i name="e_fr_energy">    -52.13343450 </i>
    <i name="e_wo_entrp">    -52.13343450 </i>
    <i name="e_0_energy">    -52.13343450 </i>
   </energy>
  </scstep>
  <scstep>
   <time name="dav">    3.08    3.08</time>
   <time name="total">    3.52    3.52</time>
   <energy>
    <i name="e_fr_energy">    -52.17268679 </i>
    <i name="e_wo_entrp">    -52.17268679 </i>
    <i name="e_0_energy">    -52.17268679 </i>
   </energy>
  </scstep>
  <scstep>
   <time name="dav">    3.13    3.13</time>
   <time name="total">    3.57    3.57</time>
   <energy>
    <i name="e_fr_energy">    -52.29007311 </i>
    <i name="e_wo_entrp">    -52.29007311 </i>
    <i name="e_0_energy">    -52.29007311 </i>
   </energy>
  </scstep>
  <scstep>
   <time name="dav">    3.20    3.21</time>
   <time name="total">    3.65    4.35</time>
   <energy>
    <i name="e_fr_energy">    -52.39417664 </i>
    <i name="e_wo_entrp">    -52.39417664 </i>
    <i name="e_0_energy">    -52.39417664 </i>
   </energy>
  </scstep>
  <scstep>
   <time name="dav">    3.26    3.26</time>
   <time name="total">    3.69    3.72</time>
   <energy>
    <i name="e_fr_energy">    -52.43818366 </i>
    <i name="e_wo_entrp">    -52.43818366 </i>
    <i name="e_0_energy">    -52.43818366 </i>
   </energy>
  </scstep>
  <scstep>
   <time name="dav">    3.25    3.26</time>
   <time name="total">    3.70    3.73</time>
   <energy>
    <i name="e_fr_energy">    -52.44412883 </i>
    <i name="e_wo_entrp">    -52.44412883 </i>
    <i name="e_0_energy">    -52.44412883 </i>
   </energy>
  </scstep>
  <scstep>
   <time name="dav">    3.16    3.16</time>
   <time name="total">    3.60    4.03</time>
   <energy>
    <i name="e_fr_energy">    -52.45488941 </i>
    <i name="e_wo_entrp">    -52.45488941 </i>
    <i name="e_0_energy">    -52.45488941 </i>
   </energy>
  </scstep>
  <scstep>
   <time name="dav">    3.11    3.11</time>
   <time name="total">    3.55    3.58</time>
   <energy>
    <i name="e_fr_energy">    -52.45934516 </i>
    <i name="e_wo_entrp">    -52.45934516 </i>
    <i name="e_0_energy">    -52.45934516 </i>
   </energy>
  </scstep>
  <scstep>
   <time name="dav">    2.45    2.45</time>
   <time name="total">    2.90    2.92</time>
   <energy>
    <i name="e_fr_energy">    -52.45906977 </i>
    <i name="e_wo_entrp">    -52.45906977 </i>
    <i name="e_0_energy">    -52.45906977 </i>
   </energy>
  </scstep>
  <scstep>
   <time name="dav">    2.46    2.45</time>
   <time name="total">    2.90    5.27</time>
   <energy>
    <i name="e_fr_energy">    -52.45973938 </i>
    <i name="e_wo_entrp">    -52.45973938 </i>
    <i name="e_0_energy">    -52.45973938 </i>
   </energy>
  </scstep>
  <scstep>
   <time name="dav">    3.28    3.29</time>
   <time name="total">    3.73    3.75</time>
   <energy>
    <i name="e_fr_energy">    -52.45975738 </i>
    <i name="e_wo_entrp">    -52.45975738 </i>
    <i name="e_0_energy">    -52.45975738 </i>
   </energy>
  </scstep>
  <scstep>
   <time name="dav">    2.38    2.38</time>
   <time name="total">    2.83    2.85</time>
   <energy>
    <i name="e_fr_energy">    -52.46068379 </i>
    <i name="e_wo_entrp">    -52.46068379 </i>
    <i name="e_0_energy">    -52.46068379 </i>
   </energy>
  </scstep>
  <scstep>
   <time name="dav">    2.40    2.41</time>
   <time name="total">    2.85    2.86</time>
   <energy>
    <i name="e_fr_energy">    -52.46398580 </i>
    <i name="e_wo_entrp">    -52.46398580 </i>
    <i name="e_0_energy">    -52.46398580 </i>
   </energy>
  </scstep>
  <scstep>
   <time name="dav">    2.43    2.43</time>
   <time name="total">    2.88    2.90</time>
   <energy>
    <i name="e_fr_energy">    -52.46689577 </i>
    <i name="e_wo_entrp">    -52.46689577 </i>
    <i name="e_0_energy">    -52.46689577 </i>
   </energy>
  </scstep>
  <scstep>
   <time name="dav">    2.43    2.43</time>
   <time name="total">    2.88    3.26</time>
   <energy>
    <i name="e_fr_energy">    -52.46791236 </i>
    <i name="e_wo_entrp">    -52.46791236 </i>
    <i name="e_0_energy">    -52.46791236 </i>
   </energy>
  </scstep>
  <scstep>
   <time name="dav">    2.36    2.36</time>
   <time name="total">    2.82    2.84</time>
   <energy>
    <i name="e_fr_energy">    -52.46815884 </i>
    <i name="e_wo_entrp">    -52.46815884 </i>
    <i name="e_0_energy">    -52.46815884 </i>
   </energy>
  </scstep>
  <scstep>
   <time name="dav">    2.38    2.38</time>
   <time name="total">    2.84    4.32</time>
   <energy>
    <i name="e_fr_energy">    -52.46847418 </i>
    <i name="e_wo_entrp">    -52.46847418 </i>
    <i name="e_0_energy">    -52.46847418 </i>
   </energy>
  </scstep>
  <scstep>
   <time name="dav">    2.33    2.33</time>
   <time name="total">    2.79    2.86</time>
   <energy>
    <i name="e_fr_energy">    -52.46862477 </i>
    <i name="e_wo_entrp">    -52.46862477 </i>
    <i name="e_0_energy">    -52.46862477 </i>
   </energy>
  </scstep>
  <scstep>
   <time name="dav">    2.41    2.41</time>
   <time name="total">    2.87    2.90</time>
   <energy>
    <i name="e_fr_energy">    -52.46874094 </i>
    <i name="e_wo_entrp">    -52.46874094 </i>
    <i name="e_0_energy">    -52.46874094 </i>
   </energy>
  </scstep>
  <scstep>
   <time name="dav">    2.36    2.36</time>
   <time name="total">    2.65    2.68</time>
   <energy>
    <i name="alphaZ">     62.60897931 </i>
    <i name="ewald">  52496.53535980 </i>
    <i name="hartreedc"> -78317.63254649 </i>
    <i name="XCdc">   -294.85290222 </i>
    <i name="pawpsdc">  28189.91964923 </i>
    <i name="pawaedc"> -27038.88890488 </i>
    <i name="eentropy">      0.00000000 </i>
    <i name="bandstr">  -2117.32281177 </i>
    <i name="atom">  26967.16438225 </i>
    <i name="e_fr_energy">    -52.46879476 </i>
    <i name="e_wo_entrp">    -52.46879476 </i>
    <i name="e_0_energy">    -52.46879476 </i>
   </energy>
  </scstep>
  <structure>
   <crystal>
    <varray name="basis" >
     <v>      20.94151438       0.00000000       0.00000000 </v>
     <v>       0.00000000      20.94151438       0.00000000 </v>
     <v>       0.00000000       0.00000000      20.94151438 </v>
    </varray>
    <i name="volume">   9183.83881973 </i>
    <varray name="rec_basis" >
     <v>       0.04775204       0.00000000       0.00000000 </v>
     <v>       0.00000000       0.04775204       0.00000000 </v>
     <v>       0.00000000       0.00000000       0.04775204 </v>
    </varray>
   </crystal>
   <varray name="positions" >
    <v>       0.51863939       0.33918345       0.43689738 </v>
    <v>       0.43220104       0.33226790       0.53931854 </v>
    <v>       0.44337225       0.39836064       0.64652618 </v>
    <v>       0.53639415       0.40965045       0.55290936 </v>
    <v>       0.55046902       0.47907112       0.66447640 </v>
    <v>       0.62452455       0.41965435       0.45960697 </v>
    <v>       0.64697824       0.48982323       0.57147815 </v>
    <v>       0.51198635       0.59401968       0.71307883 </v>
    <v>       0.56380256       0.40972793       0.32702964 </v>
    <v>       0.43047924       0.42741993       0.32442827 </v>
    <v>       0.38505355       0.39204124       0.43515393 </v>
    <v>       0.39933126       0.46553616       0.53710705 </v>
    <v>       0.72037459       0.51082665       0.46085138 </v>
    <v>       0.49934288       0.47265634       0.43974058 </v>
    <v>       0.41696753       0.52868315       0.64649286 </v>
    <v>       0.51380546       0.54262169       0.55208190 </v>
    <v>       0.60846081       0.52556113       0.37871036 </v>
    <v>       0.62133685       0.59654478       0.48588953 </v>
    <v>       0.60783787       0.61114530       0.61758625 </v>
    <v>       0.54810043       0.72084237       0.66079442 </v>
    <v>       0.38026009       0.52803826       0.41325189 </v>
    <v>       0.48407256       0.54292580       0.32383868 </v>
    <v>       0.39583107       0.59885358       0.52176144 </v>
    <v>       0.43629304       0.65869115       0.62731703 </v>
    <v>       0.49861129       0.61254614       0.42727029 </v>
    <v>       0.52563051       0.67926802       0.52927049 </v>
   </varray>
  </structure>
  <varray name="forces" >
   <v>      -0.17113586      -0.04665119      -0.26403111 </v>
   <v>      -0.06413668      -0.51850573      -0.24413064 </v>
   <v>      -0.06465173       0.04529106       0.36555015 </v>
   <v>      -0.00128451      -0.19495318       0.22984428 </v>
   <v>       0.13674143       0.28094670       0.23409662 </v>
   <v>       0.15856440      -0.05282507      -0.42624254 </v>
   <v>      -0.14153743       0.08225623      -0.11721189 </v>
   <v>       0.27425382       0.29546331       0.04585282 </v>
   <v>      -0.01375225      -0.00691456       0.30762099 </v>
   <v>       0.03899433      -0.23767452      -0.50164616 </v>
   <v>      -0.13360883      -0.44015400      -0.24197517 </v>
   <v>      -0.06726888       0.04155884       0.07532820 </v>
   <v>      -0.11401387       0.01047725       0.01089089 </v>
   <v>      -0.00369752      -0.11718347      -0.41744046 </v>
   <v>       0.05565949       0.29897553       0.34574231 </v>
   <v>       0.09451603       0.17715976      -0.10852671 </v>
   <v>      -0.03484169       0.03884320      -0.05783194 </v>
   <v>       0.02161359      -0.04719182       0.00710808 </v>
   <v>       0.00989607       0.01383292       0.50469996 </v>
   <v>      -0.09015770      -0.19314464      -0.04146563 </v>
   <v>       0.12990548       0.08002940      -0.05665110 </v>
   <v>       0.09135535      -0.12816361      -0.33738701 </v>
   <v>      -0.12651110       0.11555060      -0.41348982 </v>
   <v>       0.21762008       0.31190277       0.27496725 </v>
   <v>      -0.18262438      -0.20108132      -0.00124579 </v>
   <v>      -0.01989762       0.39215553       0.82757441 </v>
  </varray>
  <varray name="stress" >
   <v>      -1.72600407       0.22153533       0.33103703 </v>
   <v>       0.22153533      -0.68167172       1.04759324 </v>
   <v>       0.33103702       1.04759324      -0.10356623 </v>
  </varray>
  <energy>
   <i name="e_fr_energy">    -52.46879476 </i>
   <i name="e_wo_entrp">    -52.46879476 </i>
   <i name="e_0_energy">      0.00000000 </i>
  </energy>
  <time name="totalsc">  142.88  150.86</time>
 </calculation>
 <calculation>
  <scstep>
   <time name="dav">    3.19    3.19</time>
   <time name="total">    3.63    3.64</time>
   <energy>
    <i name="alphaZ">     62.60897931 </i>
    <i name="ewald">  52454.04153199 </i>
    <i name="hartreedc"> -78275.48332296 </i>
    <i name="XCdc">   -294.90194183 </i>
    <i name="pawpsdc">  28189.88366887 </i>
    <i name="pawaedc"> -27038.85413720 </i>
    <i name="eentropy">      0.00000000 </i>
    <i name="bandstr">  -2116.96602844 </i>
    <i name="atom">  26967.16438225 </i>
    <i name="e_fr_energy">    -52.50686803 </i>
    <i name="e_wo_entrp">    -52.50686803 </i>
    <i name="e_0_energy">    -52.50686803 </i>
   </energy>
  </scstep>
  <scstep>
   <time name="dav">    3.24    3.24</time>
   <time name="total">    3.67    3.68</time>
   <energy>
    <i name="e_fr_energy">    -52.50809435 </i>
    <i name="e_wo_entrp">    -52.50809435 </i>
    <i name="e_0_energy">    -52.50809435 </i>
   </energy>
  </scstep>
  <scstep>
   <time name="dav">    2.26    2.26</time>
   <time name="total">    2.56    2.56</time>
   <energy>
    <i name="alphaZ">     62.60897931 </i>
    <i name="ewald">  52454.04153199 </i>
    <i name="hartreedc"> -78275.80367412 </i>
    <i name="XCdc">   -294.89595916 </i>
    <i name="pawpsdc">  28185.68472754 </i>
    <i name="pawaedc"> -27034.58552257 </i>
    <i name="eentropy">      0.00000000 </i>
    <i name="bandstr">  -2116.72253417 </i>
    <i name="atom">  26967.16438225 </i>
    <i name="e_fr_energy">    -52.50806894 </i>
    <i name="e_wo_entrp">    -52.50806894 </i>
    <i name="e_0_energy">    -52.50806894 </i>
   </energy>
  </scstep>
  <structure>
   <crystal>
    <varray name="basis" >
     <v>      20.94151438       0.00000000       0.00000000 </v>
     <v>       0.00000000      20.94151438       0.00000000 </v>
     <v>       0.00000000       0.00000000      20.94151438 </v>
    </varray>
    <i name="volume">   9183.83881973 </i>
    <varray name="rec_basis" >
     <v>       0.04775204       0.00000000       0.00000000 </v>
     <v>       0.00000000       0.04775204       0.00000000 </v>
     <v>       0.00000000       0.00000000       0.04775204 </v>
    </varray>
   </crystal>
   <varray name="positions" >
    <v>       0.51856055       0.33916195       0.43677573 </v>
    <v>       0.43217149       0.33202901       0.53920606 </v>
    <v>       0.44334246       0.39838151       0.64669460 </v>
    <v>       0.53639356       0.40956063       0.55301526 </v>
    <v>       0.55053202       0.47920056       0.66458426 </v>
    <v>       0.62459761       0.41963002       0.45941058 </v>
    <v>       0.64691302       0.48986113       0.57142415 </v>
    <v>       0.51211271       0.59415582       0.71309996 </v>
    <v>       0.56379622       0.40972474       0.32717137 </v>
    <v>       0.43049720       0.42731043       0.32419714 </v>
    <v>       0.38499200       0.39183845       0.43504244 </v>
    <v>       0.39930026       0.46555530       0.53714176 </v>
    <v>       0.72032206       0.51083147       0.46085640 </v>
    <v>       0.49934118       0.47260235       0.43954825 </v>
    <v>       0.41699317       0.52882090       0.64665216 </v>
    <v>       0.51384901       0.54270331       0.55203189 </v>
    <v>       0.60844476       0.52557903       0.37868372 </v>
    <v>       0.62134681       0.59652304       0.48589280 </v>
    <v>       0.60784243       0.61115167       0.61781879 </v>
    <v>       0.54805889       0.72075338       0.66077532 </v>
    <v>       0.38031994       0.52807513       0.41322579 </v>
    <v>       0.48411465       0.54286675       0.32368323 </v>
    <v>       0.39577278       0.59890682       0.52157093 </v>
    <v>       0.43639331       0.65883485       0.62744371 </v>
    <v>       0.49852715       0.61245349       0.42726971 </v>
    <v>       0.52562134       0.67944870       0.52965179 </v>
   </varray>
  </structure>
  <varray name="forces" >
   <v>      -0.16408814      -0.04348140      -0.24821581 </v>
   <v>      -0.05292590      -0.47458274      -0.21308108 </v>
   <v>      -0.06283339       0.03890292       0.32152833 </v>
   <v>      -0.00288206      -0.17978671       0.20456411 </v>
   <v>       0.12727931       0.26741805       0.21641196 </v>
   <v>       0.13506040      -0.05718743      -0.39659680 </v>
   <v>      -0.14307099       0.07364959      -0.11878376 </v>
   <v>       0.26114982       0.28471902       0.05560807 </v>
   <v>      -0.01001830      -0.01146937       0.29396631 </v>
   <v>       0.03265439      -0.22896873      -0.47396827 </v>
   <v>      -0.11679930      -0.40455996      -0.22991909 </v>
   <v>      -0.05313983       0.02859442       0.06517966 </v>
   <v>      -0.10511908       0.00987035       0.00850103 </v>
   <v>      -0.00694855      -0.11974654      -0.38178284 </v>
   <v>       0.05864014       0.28475039       0.31803318 </v>
   <v>       0.08220234       0.15906926      -0.10786426 </v>
   <v>      -0.03175475       0.04347527      -0.05575884 </v>
   <v>       0.00641677      -0.03213151       0.01851380 </v>
   <v>       0.01859297       0.00314583       0.47161140 </v>
   <v>      -0.07507173      -0.16650719      -0.02676314 </v>
   <v>       0.12535266       0.06623826      -0.06291597 </v>
   <v>       0.08654786      -0.12249665      -0.32194844 </v>
   <v>      -0.10817970       0.12506320      -0.36741242 </v>
   <v>       0.18025675       0.28361399       0.24867891 </v>
   <v>      -0.16441763      -0.17456522       0.03197208 </v>
   <v>      -0.01690408       0.34697290       0.75044188 </v>
  </varray>
  <varray name="stress" >
   <v>      -1.74668001       0.21775803       0.31873149 </v>
   <v>       0.21775802      -0.72746867       1.01447518 </v>
   <v>       0.31873148       1.01447517      -0.19068620 </v>
  </varray>
  <energy>
   <i name="e_fr_energy">    -52.50806894 </i>
   <i name="e_wo_entrp">    -52.50806894 </i>
   <i name="e_0_energy">      0.00000000 </i>
  </energy>
  <time name="totalsc">   15.34   15.43</time>
 </calculation>
 <calculation>
  <scstep>
   <time name="dav">    3.16    3.16</time>
   <time name="total">    3.60    3.61</time>
   <energy>
    <i name="alphaZ">     62.60897931 </i>
    <i name="ewald">  52327.29742259 </i>
    <i name="hartreedc"> -78150.07803780 </i>
    <i name="XCdc">   -295.03680995 </i>
    <i name="pawpsdc">  28183.14509491 </i>
    <i name="pawaedc"> -27032.00929445 </i>
    <i name="eentropy">      0.00000000 </i>
    <i name="bandstr">  -2115.69245870 </i>
    <i name="atom">  26967.16438225 </i>
    <i name="e_fr_energy">    -52.60072185 </i>
    <i name="e_wo_entrp">    -52.60072185 </i>
    <i name="e_0_energy">    -52.60072185 </i>
   </energy>
  </scstep>
  <scstep>
   <time name="dav">    3.22    3.22</time>
   <time name="total">    3.65    3.68</time>
   <energy>
    <i name="e_fr_energy">    -52.61174314 </i>
    <i name="e_wo_entrp">    -52.61174314 </i>
    <i name="e_0_energy">    -52.61174314 </i>
   </energy>
  </scstep>
  <scstep>
   <time name="dav">    3.32    3.32</time>
   <time name="total">    3.75    3.75</time>
   <energy>
    <i name="e_fr_energy">    -52.61151649 </i>
    <i name="e_wo_entrp">    -52.61151649 </i>
    <i name="e_0_energy">    -52.61151649 </i>
   </energy>
  </scstep>
  <scstep>
   <time name="dav">    3.16    3.16</time>
   <time name="total">    3.60    3.62</time>
   <energy>
    <i name="e_fr_energy">    -52.61138328 </i>
    <i name="e_wo_entrp">    -52.61138328 </i>
    <i name="e_0_energy">    -52.61138328 </i>
   </energy>
  </scstep>
  <scstep>
   <time name="dav">    2.24    2.24</time>
   <time name="total">    2.54    2.54</time>
   <energy>
    <i name="alphaZ">     62.60897931 </i>
    <i name="ewald">  52327.29742259 </i>
    <i name="hartreedc"> -78151.32533790 </i>
    <i name="XCdc">   -295.01252593 </i>
    <i name="pawpsdc">  28160.47883079 </i>
    <i name="pawaedc"> -27008.98604625 </i>
    <i name="eentropy">      0.00000000 </i>
    <i name="bandstr">  -2114.83708135 </i>
    <i name="atom">  26967.16438225 </i>
    <i name="e_fr_energy">    -52.61137649 </i>
    <i name="e_wo_entrp">    -52.61137649 </i>
    <i name="e_0_energy">    -52.61137649 </i>
   </energy>
  </scstep>
  <structure>
   <crystal>
    <varray name="basis" >
     <v>      20.94151438       0.00000000       0.00000000 </v>
     <v>       0.00000000      20.94151438       0.00000000 </v>
     <v>       0.00000000       0.00000000      20.94151438 </v>
    </varray>
    <i name="volume">   9183.83881973 </i>
    <varray name="rec_basis" >
     <v>       0.04775204       0.00000000       0.00000000 </v>
     <v>       0.00000000       0.04775204       0.00000000 </v>
     <v>       0.00000000       0.00000000       0.04775204 </v>
    </varray>
   </crystal>
   <varray name="positions" >
    <v>       0.51832400       0.33909747       0.43641078 </v>
    <v>       0.43208284       0.33131232       0.53886862 </v>
    <v>       0.44325310       0.39844411       0.64719987 </v>
    <v>       0.53639178       0.40929117       0.55333296 </v>
    <v>       0.55072103       0.47958889       0.66490783 </v>
    <v>       0.62481678       0.41955700       0.45882142 </v>
    <v>       0.64671739       0.48997483       0.57126213 </v>
    <v>       0.51249178       0.59456421       0.71316334 </v>
    <v>       0.56377721       0.40971519       0.32759657 </v>
    <v>       0.43055110       0.42698191       0.32350376 </v>
    <v>       0.38480732       0.39123006       0.43470798 </v>
    <v>       0.39920728       0.46561275       0.53724588 </v>
    <v>       0.72016447       0.51084595       0.46087146 </v>
    <v>       0.49933607       0.47244038       0.43897126 </v>
    <v>       0.41707011       0.52923415       0.64713005 </v>
    <v>       0.51397965       0.54294819       0.55188189 </v>
    <v>       0.60839660       0.52563272       0.37860378 </v>
    <v>       0.62137668       0.59645781       0.48590263 </v>
    <v>       0.60785611       0.61117079       0.61851639 </v>
    <v>       0.54793428       0.72048641       0.66071800 </v>
    <v>       0.38049950       0.52818575       0.41314748 </v>
    <v>       0.48424092       0.54268960       0.32321689 </v>
    <v>       0.39559791       0.59906653       0.52099940 </v>
    <v>       0.43669410       0.65926597       0.62782378 </v>
    <v>       0.49827472       0.61217556       0.42726799 </v>
    <v>       0.52559384       0.67999074       0.53079567 </v>
   </varray>
  </structure>
  <varray name="forces" >
   <v>      -0.16149590      -0.03899303      -0.22188837 </v>
   <v>      -0.02754462      -0.39432179      -0.14923295 </v>
   <v>      -0.06170208       0.02646982       0.22911443 </v>
   <v>      -0.00780495      -0.15145187       0.14901286 </v>
   <v>       0.11295737       0.25141481       0.17920091 </v>
   <v>       0.08171790      -0.07091260      -0.34618330 </v>
   <v>      -0.15575951       0.05781734      -0.12761738 </v>
   <v>       0.24309617       0.27545065       0.08603397 </v>
   <v>       0.00028063      -0.02333853       0.27556812 </v>
   <v>       0.01679212      -0.22286776      -0.42652965 </v>
   <v>      -0.07703810      -0.33975753      -0.21570916 </v>
   <v>      -0.01918569      -0.00189226       0.04473593 </v>
   <v>      -0.08932602       0.00935088       0.00274151 </v>
   <v>      -0.01522828      -0.13432963      -0.31240010 </v>
   <v>       0.06945111       0.26429141       0.26816666 </v>
   <v>       0.05347600       0.12184199      -0.11220119 </v>
   <v>      -0.02709881       0.06051846      -0.05511263 </v>
   <v>      -0.03103009       0.00427268       0.04929415 </v>
   <v>       0.04548112      -0.02850406       0.41493700 </v>
   <v>      -0.03700169      -0.09917203       0.01156482 </v>
   <v>       0.12186812       0.03276836      -0.08401011 </v>
   <v>       0.08181664      -0.11573544      -0.30319087 </v>
   <v>      -0.06667569       0.15923375      -0.27295442 </v>
   <v>       0.08830129       0.22695414       0.19747802 </v>
   <v>      -0.12811592      -0.12015104       0.11817903 </v>
   <v>      -0.01023111       0.25104326       0.60100270 </v>
  </varray>
  <varray name="stress" >
   <v>      -1.78468377       0.19449348       0.28751670 </v>
   <v>       0.19449348      -0.82713433       0.93366026 </v>
   <v>       0.28751670       0.93366027      -0.40327572 </v>
  </varray>
  <energy>
   <i name="e_fr_energy">    -52.61137649 </i>
   <i name="e_wo_entrp">    -52.61137649 </i>
   <i name="e_0_energy">      0.00000000 </i>
  </energy>
  <time name="totalsc">   22.61   23.27</time>
 </calculation>
 <calculation>
  <scstep>
   <time name="dav">    3.06    3.06</time>
   <time name="total">    3.50    3.51</time>
   <energy>
    <i name="alphaZ">     62.60897931 </i>
    <i name="ewald">  52077.10537999 </i>
    <i name="hartreedc"> -77902.75292409 </i>
    <i name="XCdc">   -295.26911939 </i>
    <i name="pawpsdc">  28160.36134923 </i>
    <i name="pawaedc"> -27008.86726666 </i>
    <i name="eentropy">     -0.00000000 </i>
    <i name="bandstr">  -2113.06466038 </i>
    <i name="atom">  26967.16438225 </i>
    <i name="e_fr_energy">    -52.71387975 </i>
    <i name="e_wo_entrp">    -52.71387975 </i>
    <i name="e_0_energy">    -52.71387975 </i>
   </energy>
  </scstep>
  <scstep>
   <time name="dav">    3.22    3.22</time>
   <time name="total">    3.65    3.66</time>
   <energy>
    <i name="e_fr_energy">    -52.75815083 </i>
    <i name="e_wo_entrp">    -52.75815083 </i>
    <i name="e_0_energy">    -52.75815083 </i>
   </energy>
  </scstep>
  <scstep>
   <time name="dav">    3.19    3.19</time>
   <time name="total">    3.62    3.63</time>
   <energy>
    <i name="e_fr_energy">    -52.75739487 </i>
    <i name="e_wo_entrp">    -52.75739487 </i>
    <i name="e_0_energy">    -52.75739487 </i>
   </energy>
  </scstep>
  <scstep>
   <time name="dav">    3.21    3.22</time>
   <time name="total">    3.65    3.74</time>
   <energy>
    <i name="e_fr_energy">    -52.75674078 </i>
    <i name="e_wo_entrp">    -52.75674078 </i>
    <i name="e_0_energy">    -52.75674078 </i>
   </energy>
  </scstep>
  <scstep>
   <time name="dav">    2.29    2.29</time>
   <time name="total">    2.59    2.61</time>
   <energy>
    <i name="alphaZ">     62.60897931 </i>
    <i name="ewald">  52077.10537999 </i>
    <i name="hartreedc"> -77905.08567170 </i>
    <i name="XCdc">   -295.22439383 </i>
    <i name="pawpsdc">  28124.15136608 </i>
    <i name="pawaedc"> -26972.05564557 </i>
    <i name="eentropy">      0.00000000 </i>
    <i name="bandstr">  -2111.42113665 </i>
    <i name="atom">  26967.16438225 </i>
    <i name="e_fr_energy">    -52.75674013 </i>
    <i name="e_wo_entrp">    -52.75674013 </i>
    <i name="e_0_energy">    -52.75674013 </i>
   </energy>
  </scstep>
  <structure>
   <crystal>
    <varray name="basis" >
     <v>      20.94151438       0.00000000       0.00000000 </v>
     <v>       0.00000000      20.94151438       0.00000000 </v>
     <v>       0.00000000       0.00000000      20.94151438 </v>
    </varray>
    <i name="volume">   9183.83881973 </i>
    <varray name="rec_basis" >
     <v>       0.04775204       0.00000000       0.00000000 </v>
     <v>       0.00000000       0.04775204       0.00000000 </v>
     <v>       0.00000000       0.00000000       0.04775204 </v>
    </varray>
   </crystal>
   <varray name="positions" >
    <v>       0.51785091       0.33896851       0.43568089 </v>
    <v>       0.43190554       0.32987895       0.53819374 </v>
    <v>       0.44307437       0.39856932       0.64821040 </v>
    <v>       0.53638823       0.40875223       0.55396834 </v>
    <v>       0.55109904       0.48036554       0.66555497 </v>
    <v>       0.62525511       0.41941097       0.45764311 </v>
    <v>       0.64632612       0.49020222       0.57093811 </v>
    <v>       0.51324994       0.59538099       0.71329009 </v>
    <v>       0.56373920       0.40969607       0.32844696 </v>
    <v>       0.43065890       0.42632488       0.32211700 </v>
    <v>       0.38443797       0.39001329       0.43403906 </v>
    <v>       0.39902132       0.46572763       0.53745412 </v>
    <v>       0.71984928       0.51087492       0.46090156 </v>
    <v>       0.49932585       0.47211644       0.43781727 </v>
    <v>       0.41722397       0.53006064       0.64808583 </v>
    <v>       0.51424093       0.54343793       0.55158187 </v>
    <v>       0.60830028       0.52574010       0.37844391 </v>
    <v>       0.62143643       0.59632735       0.48592227 </v>
    <v>       0.60788347       0.61120903       0.61991159 </v>
    <v>       0.54768504       0.71995248       0.66060337 </v>
    <v>       0.38085861       0.52840699       0.41299088 </v>
    <v>       0.48449347       0.54233530       0.32228421 </v>
    <v>       0.39524818       0.59938597       0.51985634 </v>
    <v>       0.43729570       0.66012820       0.62858390 </v>
    <v>       0.49776987       0.61161968       0.42726455 </v>
    <v>       0.52553883       0.68107482       0.53308343 </v>
   </varray>
  </structure>
  <varray name="forces" >
   <v>      -0.15487590      -0.03249136      -0.16166831 </v>
   <v>       0.02020385      -0.24071863      -0.03419095 </v>
   <v>      -0.05279905       0.01181770       0.05724661 </v>
   <v>      -0.02242229      -0.09030324       0.04531215 </v>
   <v>       0.07796951       0.20535138       0.09798780 </v>
   <v>      -0.01718275      -0.09669378      -0.23750356 </v>
   <v>      -0.17504684       0.02280520      -0.13722669 </v>
   <v>       0.19095796       0.24103027       0.15572951 </v>
   <v>       0.02250761      -0.04590622       0.21308499 </v>
   <v>      -0.01269394      -0.20338617      -0.31836117 </v>
   <v>       0.00196761      -0.20294257      -0.18431801 </v>
   <v>       0.04906038      -0.05652845       0.00745856 </v>
   <v>      -0.04824356       0.00857230      -0.00892580 </v>
   <v>      -0.03501777      -0.15613250      -0.16399010 </v>
   <v>       0.08893563       0.21914320       0.16796279 </v>
   <v>      -0.00586321       0.04659300      -0.11274167 </v>
   <v>      -0.01586450       0.09517359      -0.05140662 </v>
   <v>      -0.10144858       0.07790517       0.10586007 </v>
   <v>       0.10633295      -0.09089010       0.28262796 </v>
   <v>       0.05735797       0.06100026       0.11717804 </v>
   <v>       0.10679590      -0.03947519      -0.12737978 </v>
   <v>       0.06741467      -0.09700562      -0.25353710 </v>
   <v>       0.01224917       0.21639975      -0.08195495 </v>
   <v>      -0.11914893       0.10165281       0.10421016 </v>
   <v>      -0.05448016      -0.02565698       0.25023656 </v>
   <v>       0.01333428       0.07068616       0.26830950 </v>
  </varray>
  <varray name="stress" >
   <v>      -1.84545194       0.16004902       0.22722583 </v>
   <v>       0.16004902      -1.01171400       0.78660333 </v>
   <v>       0.22722584       0.78660332      -0.77466406 </v>
  </varray>
  <energy>
   <i name="e_fr_energy">    -52.75674013 </i>
   <i name="e_wo_entrp">    -52.75674013 </i>
   <i name="e_0_energy">      0.00000000 </i>
  </energy>
  <time name="totalsc">   22.50   22.85</time>
 </calculation>
 <calculation>
  <scstep>
   <time name="dav">    3.07    3.07</time>
   <time name="total">    3.50    3.51</time>
   <energy>
    <i name="alphaZ">     62.60897931 </i>
    <i name="ewald">  51589.74694274 </i>
    <i name="hartreedc"> -77420.16197302 </i>
    <i name="XCdc">   -295.63092579 </i>
    <i name="pawpsdc">  28123.82563037 </i>
    <i name="pawaedc"> -26971.72663710 </i>
    <i name="eentropy">      0.00000000 </i>
    <i name="bandstr">  -2108.47101253 </i>
    <i name="atom">  26967.16438225 </i>
    <i name="e_fr_energy">    -52.64461378 </i>
    <i name="e_wo_entrp">    -52.64461378 </i>
    <i name="e_0_energy">    -52.64461378 </i>
   </energy>
  </scstep>
  <scstep>
   <time name="dav">    3.22    3.22</time>
   <time name="total">    3.65    3.66</time>
   <energy>
    <i name="e_fr_energy">    -52.82679020 </i>
    <i name="e_wo_entrp">    -52.82679020 </i>
    <i name="e_0_energy">    -52.82679020 </i>
   </energy>
  </scstep>
  <scstep>
   <time name="dav">    3.21    3.21</time>
   <time name="total">    3.65    3.67</time>
   <energy>
    <i name="e_fr_energy">    -52.82435591 </i>
    <i name="e_wo_entrp">    -52.82435591 </i>
    <i name="e_0_energy">    -52.82435591 </i>
   </energy>
  </scstep>
  <scstep>
   <time name="dav">    3.16    3.17</time>
   <time name="total">    3.60    4.04</time>
   <energy>
    <i name="e_fr_energy">    -52.82137065 </i>
    <i name="e_wo_entrp">    -52.82137065 </i>
    <i name="e_0_energy">    -52.82137065 </i>
   </energy>
  </scstep>
  <scstep>
   <time name="dav">    3.22    3.22</time>
   <time name="total">    3.65    3.68</time>
   <energy>
    <i name="e_fr_energy">    -52.82150049 </i>
    <i name="e_wo_entrp">    -52.82150049 </i>
    <i name="e_0_energy">    -52.82150049 </i>
   </energy>
  </scstep>
  <scstep>
   <time name="dav">    2.38    2.38</time>
   <time name="total">    2.68    2.68</time>
   <energy>
    <i name="alphaZ">     62.60897931 </i>
    <i name="ewald">  51589.74694274 </i>
    <i name="hartreedc"> -77423.87922978 </i>
    <i name="XCdc">   -295.55315213 </i>
    <i name="pawpsdc">  28076.79376850 </i>
    <i name="pawaedc"> -26923.80558047 </i>
    <i name="eentropy">      0.00000000 </i>
    <i name="bandstr">  -2105.89753457 </i>
    <i name="atom">  26967.16438225 </i>
    <i name="e_fr_energy">    -52.82142416 </i>
    <i name="e_wo_entrp">    -52.82142416 </i>
    <i name="e_0_energy">    -52.82142416 </i>
   </energy>
  </scstep>
  <structure>
   <crystal>
    <varray name="basis" >
     <v>      20.94151438       0.00000000       0.00000000 </v>
     <v>       0.00000000      20.94151438       0.00000000 </v>
     <v>       0.00000000       0.00000000      20.94151438 </v>
    </varray>
    <i name="volume">   9183.83881973 </i>
    <varray name="rec_basis" >
     <v>       0.04775204       0.00000000       0.00000000 </v>
     <v>       0.00000000       0.04775204       0.00000000 </v>
     <v>       0.00000000       0.00000000       0.04775204 </v>
    </varray>
   </crystal>
   <varray name="positions" >
    <v>       0.51690472       0.33871058       0.43422110 </v>
    <v>       0.43155094       0.32701221       0.53684398 </v>
    <v>       0.44271692       0.39881972       0.65023147 </v>
    <v>       0.53638113       0.40767437       0.55523912 </v>
    <v>       0.55185506       0.48191885       0.66684925 </v>
    <v>       0.62613179       0.41911891       0.45528648 </v>
    <v>       0.64554358       0.49065700       0.57029006 </v>
    <v>       0.51476624       0.59701456       0.71354360 </v>
    <v>       0.56366316       0.40965784       0.33014775 </v>
    <v>       0.43087449       0.42501081       0.31934347 </v>
    <v>       0.38369927       0.38757975       0.43270122 </v>
    <v>       0.39864940       0.46595741       0.53787059 </v>
    <v>       0.71921892       0.51093285       0.46096178 </v>
    <v>       0.49930540       0.47146855       0.43550931 </v>
    <v>       0.41753171       0.53171363       0.64999738 </v>
    <v>       0.51476350       0.54441742       0.55098185 </v>
    <v>       0.60810765       0.52595485       0.37812417 </v>
    <v>       0.62155593       0.59606643       0.48596157 </v>
    <v>       0.60793818       0.61128551       0.62270200 </v>
    <v>       0.54718657       0.71888461       0.66037412 </v>
    <v>       0.38157684       0.52884946       0.41267766 </v>
    <v>       0.48499856       0.54162671       0.32041885 </v>
    <v>       0.39454872       0.60002483       0.51757022 </v>
    <v>       0.43849889       0.66185266       0.63010415 </v>
    <v>       0.49676017       0.61050794       0.42725766 </v>
    <v>       0.52542882       0.68324299       0.53765896 </v>
   </varray>
  </structure>
  <varray name="forces" >
   <v>      -0.14539277      -0.03473083      -0.04242566 </v>
   <v>       0.10201683      -0.00167158       0.13319074 </v>
   <v>      -0.02969522       0.02402512      -0.21784411 </v>
   <v>      -0.06244219       0.02376504      -0.12517844 </v>
   <v>       0.01028357       0.10796977      -0.05104357 </v>
   <v>      -0.17740529      -0.15035062      -0.01861235 </v>
   <v>      -0.21069027      -0.04514359      -0.13944745 </v>
   <v>       0.05335192       0.14646329       0.32859449 </v>
   <v>       0.07114031      -0.09088733       0.04108612 </v>
   <v>      -0.05744799      -0.16286817      -0.11783065 </v>
   <v>       0.13936326       0.01566897      -0.12331292 </v>
   <v>       0.17300103      -0.13652628      -0.04689628 </v>
   <v>       0.03783294       0.00746489      -0.03115998 </v>
   <v>      -0.08873353      -0.17562280       0.10804986 </v>
   <v>       0.12296844       0.12510136      -0.00988962 </v>
   <v>      -0.11461493      -0.07715188      -0.09993073 </v>
   <v>       0.00712234       0.16892611      -0.04471858 </v>
   <v>      -0.21591455       0.21471789       0.19690771 </v>
   <v>       0.26077293      -0.21688809       0.01761299 </v>
   <v>       0.31289872       0.45421482       0.44090284 </v>
   <v>       0.06585361      -0.19494286      -0.22527088 </v>
   <v>       0.03296728      -0.06940106      -0.15975054 </v>
   <v>       0.13818088       0.31087681       0.24798464 </v>
   <v>      -0.59787605      -0.14359944      -0.01445745 </v>
   <v>       0.07188267       0.09361986       0.38414878 </v>
   <v>       0.10057607      -0.19302940      -0.43070893 </v>
  </varray>
  <varray name="stress" >
   <v>      -1.84525651       0.11899068       0.11399538 </v>
   <v>       0.11899068      -1.24534155       0.56046421 </v>
   <v>       0.11399539       0.56046421      -1.23789160 </v>
  </varray>
  <energy>
   <i name="e_fr_energy">    -52.82142416 </i>
   <i name="e_wo_entrp">    -52.82142416 </i>
   <i name="e_0_energy">      0.00000000 </i>
  </energy>
  <time name="totalsc">   26.21   27.48</time>
 </calculation>
 <calculation>
  <scstep>
   <time name="dav">    3.07    3.07</time>
   <time name="total">    3.50    3.54</time>
   <energy>
    <i name="alphaZ">     62.60897931 </i>
    <i name="ewald">  51718.99598012 </i>
    <i name="hartreedc"> -77552.81312745 </i>
    <i name="XCdc">   -295.45025827 </i>
    <i name="pawpsdc">  28076.02840707 </i>
    <i name="pawaedc"> -26923.03656197 </i>
    <i name="eentropy">      0.00000000 </i>
    <i name="bandstr">  -2106.31765589 </i>
    <i name="atom">  26967.16438225 </i>
    <i name="e_fr_energy">    -52.81985483 </i>
    <i name="e_wo_entrp">    -52.81985483 </i>
    <i name="e_0_energy">    -52.81985483 </i>
   </energy>
  </scstep>
  <scstep>
   <time name="dav">    3.22    3.22</time>
   <time name="total">    3.65    3.88</time>
   <energy>
    <i name="e_fr_energy">    -52.83287163 </i>
    <i name="e_wo_entrp">    -52.83287163 </i>
    <i name="e_0_energy">    -52.83287163 </i>
   </energy>
  </scstep>
  <scstep>
   <time name="dav">    3.27    3.27</time>
   <time name="total">    3.70    3.73</time>
   <energy>
    <i name="e_fr_energy">    -52.83267454 </i>
    <i name="e_wo_entrp">    -52.83267454 </i>
    <i name="e_0_energy">    -52.83267454 </i>
   </energy>
  </scstep>
  <scstep>
   <time name="dav">    3.12    3.12</time>
   <time name="total">    3.55    3.60</time>
   <energy>
    <i name="e_fr_energy">    -52.83256229 </i>
    <i name="e_wo_entrp">    -52.83256229 </i>
    <i name="e_0_energy">    -52.83256229 </i>
   </energy>
  </scstep>
  <scstep>
   <time name="dav">    2.39    2.39</time>
   <time name="total">    2.68    2.69</time>
   <energy>
    <i name="alphaZ">     62.60897931 </i>
    <i name="ewald">  51718.99598012 </i>
    <i name="hartreedc"> -77551.88351501 </i>
    <i name="XCdc">   -295.47491632 </i>
    <i name="pawpsdc">  28085.19498871 </i>
    <i name="pawaedc"> -26932.40248138 </i>
    <i name="eentropy">      0.00000000 </i>
    <i name="bandstr">  -2107.03599945 </i>
    <i name="atom">  26967.16438225 </i>
    <i name="e_fr_energy">    -52.83258179 </i>
    <i name="e_wo_entrp">    -52.83258179 </i>
    <i name="e_0_energy">    -52.83258179 </i>
   </energy>
  </scstep>
  <structure>
   <crystal>
    <varray name="basis" >
     <v>      20.94151438       0.00000000       0.00000000 </v>
     <v>       0.00000000      20.94151438       0.00000000 </v>
     <v>       0.00000000       0.00000000      20.94151438 </v>
    </varray>
    <i name="volume">   9183.83881973 </i>
    <varray name="rec_basis" >
     <v>       0.04775204       0.00000000       0.00000000 </v>
     <v>       0.00000000       0.04775204       0.00000000 </v>
     <v>       0.00000000       0.00000000       0.04775204 </v>
    </varray>
   </crystal>
   <varray name="positions" >
    <v>       0.51715894       0.33877988       0.43461332 </v>
    <v>       0.43164622       0.32778244       0.53720663 </v>
    <v>       0.44281296       0.39875244       0.64968846 </v>
    <v>       0.53638304       0.40796397       0.55489769 </v>
    <v>       0.55165193       0.48150151       0.66650151 </v>
    <v>       0.62589625       0.41919738       0.45591966 </v>
    <v>       0.64575383       0.49053481       0.57046418 </v>
    <v>       0.51435884       0.59657566       0.71347549 </v>
    <v>       0.56368359       0.40966811       0.32969079 </v>
    <v>       0.43081656       0.42536387       0.32008866 </v>
    <v>       0.38389774       0.38823359       0.43306067 </v>
    <v>       0.39874933       0.46589567       0.53775870 </v>
    <v>       0.71938828       0.51091728       0.46094560 </v>
    <v>       0.49931090       0.47164262       0.43612941 </v>
    <v>       0.41744903       0.53126951       0.64948379 </v>
    <v>       0.51462310       0.54415425       0.55114306 </v>
    <v>       0.60815940       0.52589715       0.37821008 </v>
    <v>       0.62152382       0.59613653       0.48595102 </v>
    <v>       0.60792348       0.61126496       0.62195228 </v>
    <v>       0.54732050       0.71917153       0.66043571 </v>
    <v>       0.38138387       0.52873057       0.41276181 </v>
    <v>       0.48486285       0.54181709       0.32092003 </v>
    <v>       0.39473665       0.59985318       0.51818445 </v>
    <v>       0.43817562       0.66138933       0.62969569 </v>
    <v>       0.49703146       0.61080664       0.42725951 </v>
    <v>       0.52545838       0.68266045       0.53642962 </v>
   </varray>
  </structure>
  <varray name="forces" >
   <v>      -0.14635663      -0.03146842      -0.07116388 </v>
   <v>       0.08139125      -0.05633111       0.09714168 </v>
   <v>      -0.03532184       0.01709590      -0.15423198 </v>
   <v>      -0.05157517      -0.00452557      -0.08680504 </v>
   <v>       0.02500431       0.13264906      -0.01479844 </v>
   <v>      -0.14092727      -0.13675692      -0.07465674 </v>
   <v>      -0.20154349      -0.02820318      -0.14139920 </v>
   <v>       0.09290659       0.17311605       0.27768108 </v>
   <v>       0.05878696      -0.07826236       0.09263406 </v>
   <v>      -0.04750747      -0.17186935      -0.16728799 </v>
   <v>       0.10507186      -0.03576734      -0.13737609 </v>
   <v>       0.14257293      -0.11902747      -0.03508956 </v>
   <v>       0.01505441       0.00756092      -0.02564376 </v>
   <v>      -0.07290979      -0.17306881       0.04136688 </v>
   <v>       0.11562674       0.15085195       0.03407010 </v>
   <v>      -0.08793156      -0.04796238      -0.10523263 </v>
   <v>       0.00084470       0.14877585      -0.04642083 </v>
   <v>      -0.18919508       0.18012358       0.17498371 </v>
   <v>       0.21402505      -0.18089280       0.08585747 </v>
   <v>       0.23524443       0.33958877       0.33705934 </v>
   <v>       0.07798501      -0.15370981      -0.19775605 </v>
   <v>       0.04230667      -0.07340727      -0.18283847 </v>
   <v>       0.11030307       0.28597287       0.17098023 </v>
   <v>      -0.46175849      -0.07926145       0.00654379 </v>
   <v>       0.04147480       0.06992881       0.36182803 </v>
   <v>       0.07642801      -0.13514953      -0.23944571 </v>
  </varray>
  <varray name="stress" >
   <v>      -1.85330476       0.12565627       0.14273014 </v>
   <v>       0.12565628      -1.19664565       0.60869896 </v>
   <v>       0.14273013       0.60869896      -1.15137776 </v>
  </varray>
  <energy>
   <i name="e_fr_energy">    -52.83258179 </i>
   <i name="e_wo_entrp">    -52.83258179 </i>
   <i name="e_0_energy">      0.00000000 </i>
  </energy>
  <time name="totalsc">   22.59   24.44</time>
 </calculation>
 <calculation>
  <scstep>
   <time name="dav">    3.06    3.06</time>
   <time name="total">    3.50    3.51</time>
   <energy>
    <i name="alphaZ">     62.60897931 </i>
    <i name="ewald">  51594.65338510 </i>
    <i name="hartreedc"> -77428.45943273 </i>
    <i name="XCdc">   -295.64001045 </i>
    <i name="pawpsdc">  28085.07040280 </i>
    <i name="pawaedc"> -26932.27622871 </i>
    <i name="eentropy">      0.00000000 </i>
    <i name="bandstr">  -2106.00604075 </i>
    <i name="atom">  26967.16438225 </i>
    <i name="e_fr_energy">    -52.88456317 </i>
    <i name="e_wo_entrp">    -52.88456317 </i>
    <i name="e_0_energy">    -52.88456317 </i>
   </energy>
  </scstep>
  <scstep>
   <time name="dav">    3.21    3.21</time>
   <time name="total">    3.64    3.67</time>
   <energy>
    <i name="e_fr_energy">    -52.89960103 </i>
    <i name="e_wo_entrp">    -52.89960103 </i>
    <i name="e_0_energy">    -52.89960103 </i>
   </energy>
  </scstep>
  <scstep>
   <time name="dav">    3.30    3.31</time>
   <time name="total">    3.74    3.77</time>
   <energy>
    <i name="e_fr_energy">    -52.89944141 </i>
    <i name="e_wo_entrp">    -52.89944141 </i>
    <i name="e_0_energy">    -52.89944141 </i>
   </energy>
  </scstep>
  <scstep>
   <time name="dav">    3.16    3.16</time>
   <time name="total">    3.60    3.65</time>
   <energy>
    <i name="e_fr_energy">    -52.89903906 </i>
    <i name="e_wo_entrp">    -52.89903906 </i>
    <i name="e_0_energy">    -52.89903906 </i>
   </energy>
  </scstep>
  <scstep>
   <time name="dav">    2.23    2.23</time>
   <time name="total">    2.53    2.54</time>
   <energy>
    <i name="alphaZ">     62.60897931 </i>
    <i name="ewald">  51594.65338510 </i>
    <i name="hartreedc"> -77429.84143770 </i>
    <i name="XCdc">   -295.60922377 </i>
    <i name="pawpsdc">  28061.34648020 </i>
    <i name="pawaedc"> -26908.16335642 </i>
    <i name="eentropy">      0.00000000 </i>
    <i name="bandstr">  -2105.05826662 </i>
    <i name="atom">  26967.16438225 </i>
    <i name="e_fr_energy">    -52.89905766 </i>
    <i name="e_wo_entrp">    -52.89905766 </i>
    <i name="e_0_energy">    -52.89905766 </i>
   </energy>
  </scstep>
  <structure>
   <crystal>
    <varray name="basis" >
     <v>      20.94151438       0.00000000       0.00000000 </v>
     <v>       0.00000000      20.94151438       0.00000000 </v>
     <v>       0.00000000       0.00000000      20.94151438 </v>
    </varray>
    <i name="volume">   9183.83881973 </i>
    <varray name="rec_basis" >
     <v>       0.04775204       0.00000000       0.00000000 </v>
     <v>       0.00000000       0.04775204       0.00000000 </v>
     <v>       0.00000000       0.00000000       0.04775204 </v>
    </varray>
   </crystal>
   <varray name="positions" >
    <v>       0.51670046       0.33867258       0.43423050 </v>
    <v>       0.43176032       0.32720575       0.53719465 </v>
    <v>       0.44268166       0.39882837       0.64968799 </v>
    <v>       0.53627366       0.40778209       0.55491874 </v>
    <v>       0.55182532       0.48202832       0.66667744 </v>
    <v>       0.62574068       0.41886365       0.45538608 </v>
    <v>       0.64520570       0.49054835       0.57006378 </v>
    <v>       0.51479633       0.59720024       0.71409881 </v>
    <v>       0.56379481       0.40949775       0.33015720 </v>
    <v>       0.43075134       0.42479301       0.31929400 </v>
    <v>       0.38400012       0.38776933       0.43255839 </v>
    <v>       0.39898907       0.46568261       0.53775166 </v>
    <v>       0.71931907       0.51094241       0.46090141 </v>
    <v>       0.49915461       0.47117578       0.43584712 </v>
    <v>       0.41774091       0.53185047       0.64986100 </v>
    <v>       0.51452212       0.54421024       0.55082624 </v>
    <v>       0.60813037       0.52624374       0.37806151 </v>
    <v>       0.62114586       0.59647284       0.48632455 </v>
    <v>       0.60838141       0.61089755       0.62257873 </v>
    <v>       0.54773450       0.71971345       0.66110645 </v>
    <v>       0.38166240       0.52847874       0.41229669 </v>
    <v>       0.48503242       0.54154970       0.32023798 </v>
    <v>       0.39485629       0.60055553       0.51817768 </v>
    <v>       0.43739893       0.66149877       0.62995256 </v>
    <v>       0.49695702       0.61077560       0.42801779 </v>
    <v>       0.52560119       0.68272356       0.53665884 </v>
   </varray>
  </structure>
  <varray name="forces" >
   <v>      -0.14423311      -0.05450912      -0.05911032 </v>
   <v>       0.07409822      -0.03482861       0.08893203 </v>
   <v>      -0.02764424       0.03295072      -0.16365611 </v>
   <v>      -0.04778781       0.01146312      -0.08615297 </v>
   <v>       0.00467745       0.13009377      -0.03060381 </v>
   <v>      -0.12959242      -0.11124410      -0.05211491 </v>
   <v>      -0.18640477      -0.04831709      -0.14966062 </v>
   <v>       0.06152014       0.18087632       0.23580907 </v>
   <v>       0.06346970      -0.07142256       0.05327723 </v>
   <v>      -0.02940898      -0.14228233      -0.14679016 </v>
   <v>       0.11332716      -0.02857423      -0.10064265 </v>
   <v>       0.15084023      -0.08607266      -0.03979841 </v>
   <v>      -0.02212943       0.01030480      -0.02365177 </v>
   <v>      -0.06756730      -0.13066315       0.03705264 </v>
   <v>       0.11872339       0.09924078       0.00491231 </v>
   <v>      -0.09304182      -0.06705235      -0.07398742 </v>
   <v>      -0.00974683       0.14781486      -0.00405051 </v>
   <v>      -0.13744514       0.15606505       0.13807339 </v>
   <v>       0.15800137      -0.13312920       0.08359238 </v>
   <v>       0.16179150       0.23917682       0.26815920 </v>
   <v>       0.08593412      -0.12241150      -0.14138647 </v>
   <v>       0.03979219      -0.05669254      -0.08429252 </v>
   <v>       0.09154974       0.21964496       0.12433264 </v>
   <v>      -0.31330547      -0.01452721       0.03589779 </v>
   <v>       0.02548904      -0.00545120       0.22344931 </v>
   <v>       0.05909306      -0.12045336      -0.13758934 </v>
  </varray>
  <varray name="stress" >
   <v>      -1.93399652       0.09551537       0.10590571 </v>
   <v>       0.09551536      -1.33417837       0.53345777 </v>
   <v>       0.10590571       0.53345776      -1.31939559 </v>
  </varray>
  <energy>
   <i name="e_fr_energy">    -52.89905766 </i>
   <i name="e_wo_entrp">    -52.89905766 </i>
   <i name="e_0_energy">      0.00000000 </i>
  </energy>
  <time name="totalsc">   22.50   22.86</time>
 </calculation>
 <calculation>
  <scstep>
   <time name="dav">    3.06    3.06</time>
   <time name="total">    3.50    3.51</time>
   <energy>
    <i name="alphaZ">     62.60897931 </i>
    <i name="ewald">  51224.64923020 </i>
    <i name="hartreedc"> -77062.21182083 </i>
    <i name="XCdc">   -296.05472305 </i>
    <i name="pawpsdc">  28061.40453938 </i>
    <i name="pawaedc"> -26908.21965811 </i>
    <i name="eentropy">      0.00000000 </i>
    <i name="bandstr">  -2102.20765278 </i>
    <i name="atom">  26967.16438225 </i>
    <i name="e_fr_energy">    -52.86672363 </i>
    <i name="e_wo_entrp">    -52.86672363 </i>
    <i name="e_0_energy">    -52.86672363 </i>
   </energy>
  </scstep>
  <scstep>
   <time name="dav">    3.26    3.26</time>
   <time name="total">    3.69    3.70</time>
   <energy>
    <i name="e_fr_energy">    -53.00322679 </i>
    <i name="e_wo_entrp">    -53.00322679 </i>
    <i name="e_0_energy">    -53.00322679 </i>
   </energy>
  </scstep>
  <scstep>
   <time name="dav">    3.32    3.31</time>
   <time name="total">    3.75    3.79</time>
   <energy>
    <i name="e_fr_energy">    -53.00235977 </i>
    <i name="e_wo_entrp">    -53.00235977 </i>
    <i name="e_0_energy">    -53.00235977 </i>
   </energy>
  </scstep>
  <scstep>
   <time name="dav">    3.16    3.16</time>
   <time name="total">    3.60    3.60</time>
   <energy>
    <i name="e_fr_energy">    -52.99864547 </i>
    <i name="e_wo_entrp">    -52.99864547 </i>
    <i name="e_0_energy">    -52.99864547 </i>
   </energy>
  </scstep>
  <scstep>
   <time name="dav">    3.26    3.26</time>
   <time name="total">    3.69    3.70</time>
   <energy>
    <i name="e_fr_energy">    -52.99858898 </i>
    <i name="e_wo_entrp">    -52.99858898 </i>
    <i name="e_0_energy">    -52.99858898 </i>
   </energy>
  </scstep>
  <scstep>
   <time name="dav">    2.34    2.34</time>
   <time name="total">    2.64    2.65</time>
   <energy>
    <i name="alphaZ">     62.60897931 </i>
    <i name="ewald">  51224.64923020 </i>
    <i name="hartreedc"> -77065.76501900 </i>
    <i name="XCdc">   -295.97101540 </i>
    <i name="pawpsdc">  28002.25836016 </i>
    <i name="pawaedc"> -26848.04952020 </i>
    <i name="eentropy">      0.00000000 </i>
    <i name="bandstr">  -2099.89390312 </i>
    <i name="atom">  26967.16438225 </i>
    <i name="e_fr_energy">    -52.99850581 </i>
    <i name="e_wo_entrp">    -52.99850581 </i>
    <i name="e_0_energy">    -52.99850581 </i>
   </energy>
  </scstep>
  <structure>
   <crystal>
    <varray name="basis" >
     <v>      20.94151438       0.00000000       0.00000000 </v>
     <v>       0.00000000      20.94151438       0.00000000 </v>
     <v>       0.00000000       0.00000000      20.94151438 </v>
    </varray>
    <i name="volume">   9183.83881973 </i>
    <varray name="rec_basis" >
     <v>       0.04775204       0.00000000       0.00000000 </v>
     <v>       0.00000000       0.04775204       0.00000000 </v>
     <v>       0.00000000       0.00000000       0.04775204 </v>
    </varray>
   </crystal>
   <varray name="positions" >
    <v>       0.51532500       0.33835070       0.43308206 </v>
    <v>       0.43210265       0.32547567       0.53715868 </v>
    <v>       0.44228777       0.39905615       0.64968658 </v>
    <v>       0.53594552       0.40723645       0.55498189 </v>
    <v>       0.55234548       0.48360876       0.66720524 </v>
    <v>       0.62527399       0.41786248       0.45378536 </v>
    <v>       0.64356129       0.49058897       0.56886258 </v>
    <v>       0.51610879       0.59907397       0.71596878 </v>
    <v>       0.56412846       0.40898665       0.33155646 </v>
    <v>       0.43055566       0.42308042       0.31691003 </v>
    <v>       0.38430726       0.38637656       0.43105157 </v>
    <v>       0.39970830       0.46504343       0.53773055 </v>
    <v>       0.71911141       0.51101781       0.46076884 </v>
    <v>       0.49868574       0.46977526       0.43500026 </v>
    <v>       0.41861656       0.53359334       0.65099264 </v>
    <v>       0.51421921       0.54437820       0.54987579 </v>
    <v>       0.60804326       0.52728350       0.37761583 </v>
    <v>       0.62001198       0.59748175       0.48744513 </v>
    <v>       0.60975521       0.60979530       0.62445810 </v>
    <v>       0.54897649       0.72133923       0.66311865 </v>
    <v>       0.38249800       0.52772324       0.41090130 </v>
    <v>       0.48554112       0.54074754       0.31819182 </v>
    <v>       0.39521519       0.60266259       0.51815737 </v>
    <v>       0.43506887       0.66182709       0.63072315 </v>
    <v>       0.49673372       0.61068249       0.43029263 </v>
    <v>       0.52602961       0.68291288       0.53734650 </v>
   </varray>
  </structure>
  <varray name="forces" >
   <v>      -0.12061178      -0.13315798       0.01048649 </v>
   <v>       0.05725092       0.04901856       0.06848451 </v>
   <v>      -0.00581499       0.07265194      -0.19337661 </v>
   <v>      -0.03998356       0.05570434      -0.08865260 </v>
   <v>      -0.05140141       0.12430367      -0.07366183 </v>
   <v>      -0.08904413      -0.02658660       0.05112405 </v>
   <v>      -0.12502595      -0.11191223      -0.16735093 </v>
   <v>      -0.02533430       0.18903323       0.11091544 </v>
   <v>       0.06822191      -0.05308133      -0.09823156 </v>
   <v>       0.03039539      -0.06049873      -0.07846684 </v>
   <v>       0.12801415       0.00532589       0.00621326 </v>
   <v>       0.16428748      -0.00269599      -0.05711863 </v>
   <v>      -0.12509767       0.01373892      -0.01667590 </v>
   <v>      -0.05324615       0.00400881       0.03913442 </v>
   <v>       0.12674001      -0.06672189      -0.07278281 </v>
   <v>      -0.11778606      -0.14205146       0.03522217 </v>
   <v>      -0.04192302       0.13868265       0.11749504 </v>
   <v>       0.02882810       0.09103935       0.02702921 </v>
   <v>       0.01290236      -0.00100927       0.06468443 </v>
   <v>      -0.01285705      -0.01543371       0.06320672 </v>
   <v>       0.09955398      -0.03917019       0.00516449 </v>
   <v>       0.02784653      -0.02392524       0.16225780 </v>
   <v>       0.02441061       0.02416503       0.02040501 </v>
   <v>       0.04432454       0.15740820       0.09874798 </v>
   <v>      -0.00990207      -0.17825752      -0.17078743 </v>
   <v>       0.00525215      -0.07057846       0.13653412 </v>
  </varray>
  <varray name="stress" >
   <v>      -2.10773876       0.01651227       0.00556936 </v>
   <v>       0.01651226      -1.64865696       0.32401384 </v>
   <v>       0.00556936       0.32401383      -1.73332575 </v>
  </varray>
  <energy>
   <i name="e_fr_energy">    -52.99850581 </i>
   <i name="e_wo_entrp">    -52.99850581 </i>
   <i name="e_0_energy">      0.00000000 </i>
  </energy>
  <time name="totalsc">   26.35   29.07</time>
 </calculation>
 <calculation>
  <scstep>
   <time name="dav">    3.06    3.06</time>
   <time name="total">    3.50    3.51</time>
   <energy>
[...]
       <r>    -0.6519     0.0000   161.0000 </r>
       <r>    -0.6129     0.0000   161.0000 </r>
       <r>    -0.5739     0.0000   162.0000 </r>
       <r>    -0.5349     0.0000   162.0000 </r>
       <r>    -0.4959     0.0000   163.0000 </r>
       <r>    -0.4569     0.0000   163.0000 </r>
       <r>    -0.4180     0.0000   164.0000 </r>
       <r>    -0.3790     0.0000   164.0000 </r>
       <r>    -0.3400     0.0000   165.0000 </r>
       <r>    -0.3010     0.0000   165.0000 </r>
       <r>    -0.2620     0.0000   165.0000 </r>
       <r>    -0.2230     0.0000   166.0000 </r>
       <r>    -0.1841     0.0000   166.0000 </r>
       <r>    -0.1451     0.0000   166.0000 </r>
       <r>    -0.1061     0.0000   166.0000 </r>
       <r>    -0.0671     0.0000   167.0000 </r>
       <r>    -0.0281     0.0000   167.0000 </r>
       <r>     0.0109     0.0000   167.0000 </r>
       <r>     0.0498     0.0000   167.0000 </r>
       <r>     0.0888     0.0000   168.0000 </r>
       <r>     0.1278     0.0000   168.0000 </r>
       <r>     0.1668     0.0000   169.0000 </r>
       <r>     0.2058     0.0000   169.0000 </r>
       <r>     0.2448     0.0000   169.0000 </r>
       <r>     0.2837     0.0000   169.0000 </r>
       <r>     0.3227     0.0000   169.0000 </r>
       <r>     0.3617     0.0000   170.0000 </r>
       <r>     0.4007     0.0000   170.0000 </r>
       <r>     0.4397     0.0000   170.0000 </r>
       <r>     0.4787     0.0000   170.0000 </r>
       <r>     0.5177     0.0000   171.0000 </r>
       <r>     0.5566     0.0000   171.0000 </r>
       <r>     0.5956     0.0000   172.0000 </r>
       <r>     0.6346     0.0000   172.0000 </r>
       <r>     0.6736     0.0000   173.0000 </r>
       <r>     0.7126     0.0000   174.0000 </r>
       <r>     0.7516     0.0000   175.0000 </r>
       <r>     0.7905     0.0000   177.0000 </r>
       <r>     0.8295     0.0000   178.0000 </r>
       <r>     0.8685     0.0000   179.0000 </r>
       <r>     0.9075     0.0000   180.0000 </r>
       <r>     0.9465     0.0000   180.0000 </r>
       <r>     0.9855     0.0000   181.0000 </r>
       <r>     1.0244     0.0000   182.0000 </r>
       <r>     1.0634     0.0000   184.0000 </r>
       <r>     1.1024     0.0000   184.0000 </r>
       <r>     1.1414     0.0000   184.0000 </r>
       <r>     1.1804     0.0000   184.0000 </r>
       <r>     1.2194     0.0000   184.0000 </r>
       <r>     1.2583     0.0000   184.0000 </r>
       <r>     1.2973     0.0000   184.0000 </r>
       <r>     1.3363     0.0000   184.0000 </r>
       <r>     1.3753     0.0000   184.0000 </r>
       <r>     1.4143     0.0000   184.0000 </r>
       <r>     1.4533     0.0000   184.0000 </r>
       <r>     1.4923     0.0000   184.0000 </r>
       <r>     1.5312     0.0000   184.0000 </r>
       <r>     1.5702     0.0000   184.0000 </r>
      </set>
      <set comment="spin 2">
       <r>   -10.1250     0.0000     0.0000 </r>
       <r>   -10.0860     0.0000     0.0000 </r>
       <r>   -10.0470     0.0000     0.0000 </r>
       <r>   -10.0080     0.0000     0.0000 </r>
       <r>    -9.9691     0.0000     0.0000 </r>
       <r>    -9.9301     0.0000     0.0000 </r>
       <r>    -9.8911     0.0000     0.0000 </r>
       <r>    -9.8521     0.0000     0.0000 </r>
       <r>    -9.8131     0.0000     0.0000 </r>
       <r>    -9.7741     0.0000     0.0000 </r>
       <r>    -9.7351     0.0000     0.0000 </r>
       <r>    -9.6962     0.0000     0.0000 </r>
       <r>    -9.6572     0.0000     0.0000 </r>
       <r>    -9.6182     0.0000     0.0000 </r>
       <r>    -9.5792     0.0000     1.0000 </r>
       <r>    -9.5402     0.0000     1.0000 </r>
       <r>    -9.5012     0.0000     1.0000 </r>
       <r>    -9.4623     0.0000     1.0000 </r>
       <r>    -9.4233     0.0000     1.0000 </r>
       <r>    -9.3843     0.0000     1.0000 </r>
       <r>    -9.3453     0.0000     1.0000 </r>
       <r>    -9.3063     0.0000     1.0000 </r>
       <r>    -9.2673     0.0000     1.0000 </r>
       <r>    -9.2284     0.0000     1.0000 </r>
       <r>    -9.1894     0.0000     1.0000 </r>
       <r>    -9.1504     0.0000     2.0000 </r>
       <r>    -9.1114     0.0000     3.0000 </r>
       <r>    -9.0724     0.0000     4.0000 </r>
       <r>    -9.0334     0.0000     5.0000 </r>
       <r>    -8.9944     0.0000     7.0000 </r>
       <r>    -8.9555     0.0000     8.0000 </r>
       <r>    -8.9165     0.0000     9.0000 </r>
       <r>    -8.8775     0.0000    10.0000 </r>
       <r>    -8.8385     0.0000    10.0000 </r>
       <r>    -8.7995     0.0000    11.0000 </r>
       <r>    -8.7605     0.0000    12.0000 </r>
       <r>    -8.7216     0.0000    12.0000 </r>
       <r>    -8.6826     0.0000    14.0000 </r>
       <r>    -8.6436     0.0000    15.0000 </r>
       <r>    -8.6046     0.0000    17.0000 </r>
       <r>    -8.5656     0.0000    19.0000 </r>
       <r>    -8.5266     0.0000    21.0000 </r>
       <r>    -8.4877     0.0000    22.0000 </r>
       <r>    -8.4487     0.0000    23.0000 </r>
       <r>    -8.4097     0.0000    25.0000 </r>
       <r>    -8.3707     0.0000    26.0000 </r>
       <r>    -8.3317     0.0000    29.0000 </r>
       <r>    -8.2927     0.0000    30.0000 </r>
       <r>    -8.2538     0.0000    32.0000 </r>
       <r>    -8.2148     0.0000    33.0000 </r>
       <r>    -8.1758     0.0000    36.0000 </r>
       <r>    -8.1368     0.0012    37.0000 </r>
       <r>    -8.0978     0.0000    39.0000 </r>
       <r>    -8.0588     0.0000    42.0000 </r>
       <r>    -8.0198     0.0000    44.0000 </r>
       <r>    -7.9809     0.0000    44.0000 </r>
       <r>    -7.9419     0.0000    46.0000 </r>
       <r>    -7.9029     0.0000    47.0000 </r>
       <r>    -7.8639     0.0000    48.0000 </r>
       <r>    -7.8249     0.0000    50.0000 </r>
       <r>    -7.7859     0.0000    51.0000 </r>
       <r>    -7.7470     0.0000    53.0000 </r>
       <r>    -7.7080     0.0000    55.0000 </r>
       <r>    -7.6690     0.0000    56.0000 </r>
       <r>    -7.6300     0.0000    58.0000 </r>
       <r>    -7.5910    25.6515    60.0000 </r>
       <r>    -7.5520     0.0000    63.0000 </r>
       <r>    -7.5131     0.0000    64.0000 </r>
       <r>    -7.4741     0.0000    65.0000 </r>
       <r>    -7.4351     0.0000    66.0000 </r>
       <r>    -7.3961     0.0000    68.0000 </r>
       <r>    -7.3571     0.0000    69.0000 </r>
       <r>    -7.3181     0.0000    71.0000 </r>
       <r>    -7.2792     0.0000    73.0000 </r>
       <r>    -7.2402     0.0000    74.0000 </r>
       <r>    -7.2012     0.0000    75.0000 </r>
       <r>    -7.1622     0.0000    78.0000 </r>
       <r>    -7.1232     0.0000    80.0000 </r>
       <r>    -7.0842     0.0000    83.0000 </r>
       <r>    -7.0452     0.0000    85.0000 </r>
       <r>    -7.0063     0.0000    86.0000 </r>
       <r>    -6.9673     0.0000    88.0000 </r>
       <r>    -6.9283     0.0000    92.0000 </r>
       <r>    -6.8893     0.0000    94.0000 </r>
       <r>    -6.8503     0.0000    96.0000 </r>
       <r>    -6.8113     0.0000    98.0000 </r>
       <r>    -6.7724     0.0000   101.0000 </r>
       <r>    -6.7334     0.0000   104.0000 </r>
       <r>    -6.6944     0.0000   107.0000 </r>
       <r>    -6.6554     0.0000   110.0000 </r>
       <r>    -6.6164     0.0000   112.0000 </r>
       <r>    -6.5774     0.0000   114.0000 </r>
       <r>    -6.5385     0.0000   118.0000 </r>
       <r>    -6.4995     0.0000   119.0000 </r>
       <r>    -6.4605     0.0000   121.0000 </r>
       <r>    -6.4215     0.0000   123.0000 </r>
       <r>    -6.3825     0.0000   126.0000 </r>
       <r>    -6.3435     0.0000   128.0000 </r>
       <r>    -6.3046     0.0000   130.0000 </r>
       <r>    -6.2656     0.0000   132.0000 </r>
       <r>    -6.2266    25.6515   133.0000 </r>
       <r>    -6.1876     0.0000   134.0000 </r>
       <r>    -6.1486     0.0000   134.0000 </r>
       <r>    -6.1096     0.0000   134.0000 </r>
       <r>    -6.0706     0.0000   134.0000 </r>
       <r>    -6.0317     0.0000   134.0000 </r>
       <r>    -5.9927     0.0000   134.0000 </r>
       <r>    -5.9537     0.0000   134.0000 </r>
       <r>    -5.9147     0.0000   134.0000 </r>
       <r>    -5.8757     0.0000   135.0000 </r>
       <r>    -5.8367     0.0000   135.0000 </r>
       <r>    -5.7978     0.0000   135.0000 </r>
       <r>    -5.7588     0.0000   135.0000 </r>
       <r>    -5.7198     0.0000   135.0000 </r>
       <r>    -5.6808     0.0000   135.0000 </r>
       <r>    -5.6418     0.0000   135.0000 </r>
       <r>    -5.6028     0.0000   135.0000 </r>
       <r>    -5.5639     0.0000   135.0000 </r>
       <r>    -5.5249     0.0000   135.0000 </r>
       <r>    -5.4859     0.0000   135.0000 </r>
       <r>    -5.4469     0.0000   135.0000 </r>
       <r>    -5.4079     0.0000   135.0000 </r>
       <r>    -5.3689     0.0000   135.0000 </r>
       <r>    -5.3300     0.0000   135.0000 </r>
       <r>    -5.2910     0.0000   136.0000 </r>
       <r>    -5.2520     0.0000   136.0000 </r>
       <r>    -5.2130     0.0000   136.0000 </r>
       <r>    -5.1740     0.0000   136.0000 </r>
       <r>    -5.1350     0.0001   136.0000 </r>
       <r>    -5.0960     0.0000   137.0000 </r>
       <r>    -5.0571     0.0000   137.0000 </r>
       <r>    -5.0181     0.0000   137.0000 </r>
       <r>    -4.9791     0.0000   137.0000 </r>
       <r>    -4.9401     0.0000   137.0000 </r>
       <r>    -4.9011     0.0000   137.0000 </r>
       <r>    -4.8621     0.0000   137.0000 </r>
       <r>    -4.8232     0.0000   137.0000 </r>
       <r>    -4.7842     0.0000   137.0000 </r>
       <r>    -4.7452     0.0000   138.0000 </r>
       <r>    -4.7062     0.0000   138.0000 </r>
       <r>    -4.6672     0.0000   139.0000 </r>
       <r>    -4.6282     0.0000   139.0000 </r>
       <r>    -4.5893     0.0000   139.0000 </r>
       <r>    -4.5503     0.0000   139.0000 </r>
       <r>    -4.5113     0.0000   139.0000 </r>
       <r>    -4.4723     0.0000   139.0000 </r>
       <r>    -4.4333     0.0000   139.0000 </r>
       <r>    -4.3943     0.0000   139.0000 </r>
       <r>    -4.3554     0.0000   139.0000 </r>
       <r>    -4.3164     0.0000   140.0000 </r>
       <r>    -4.2774     0.0000   140.0000 </r>
       <r>    -4.2384     0.0000   140.0000 </r>
       <r>    -4.1994     0.0000   140.0000 </r>
       <r>    -4.1604     0.0000   140.0000 </r>
       <r>    -4.1214     0.0000   140.0000 </r>
       <r>    -4.0825     0.0000   140.0000 </r>
       <r>    -4.0435     0.0000   140.0000 </r>
       <r>    -4.0045     0.0000   140.0000 </r>
       <r>    -3.9655     0.0000   140.0000 </r>
       <r>    -3.9265     0.0000   141.0000 </r>
       <r>    -3.8875     0.0000   141.0000 </r>
       <r>    -3.8486     0.0000   141.0000 </r>
       <r>    -3.8096     0.0000   142.0000 </r>
       <r>    -3.7706     0.0000   142.0000 </r>
       <r>    -3.7316     0.0000   142.0000 </r>
       <r>    -3.6926     0.0000   142.0000 </r>
       <r>    -3.6536     0.0000   142.0000 </r>
       <r>    -3.6147     0.0000   142.0000 </r>
       <r>    -3.5757     0.0000   143.0000 </r>
       <r>    -3.5367     0.0000   143.0000 </r>
       <r>    -3.4977     0.0000   143.0000 </r>
       <r>    -3.4587     0.0000   143.0000 </r>
       <r>    -3.4197     0.0000   143.0000 </r>
       <r>    -3.3808     0.0000   143.0000 </r>
       <r>    -3.3418     0.0000   143.0000 </r>
       <r>    -3.3028     0.0000   143.0000 </r>
       <r>    -3.2638     0.0000   144.0000 </r>
       <r>    -3.2248     0.0000   144.0000 </r>
       <r>    -3.1858     0.0000   144.0000 </r>
       <r>    -3.1468     0.0000   144.0000 </r>
       <r>    -3.1079     0.0000   144.0000 </r>
       <r>    -3.0689     0.0000   144.0000 </r>
       <r>    -3.0299     0.0000   144.0000 </r>
       <r>    -2.9909     0.0000   145.0000 </r>
       <r>    -2.9519     0.0000   145.0000 </r>
       <r>    -2.9129     0.0000   145.0000 </r>
       <r>    -2.8740     0.0000   145.0000 </r>
       <r>    -2.8350     0.0000   145.0000 </r>
       <r>    -2.7960     0.0000   145.0000 </r>
       <r>    -2.7570     0.0000   145.0000 </r>
       <r>    -2.7180     0.0000   146.0000 </r>
       <r>    -2.6790     0.0000   146.0000 </r>
       <r>    -2.6401     0.0000   147.0000 </r>
       <r>    -2.6011     0.0000   147.0000 </r>
       <r>    -2.5621     0.0000   147.0000 </r>
       <r>    -2.5231     0.0000   148.0000 </r>
       <r>    -2.4841     0.0000   148.0000 </r>
       <r>    -2.4451     0.0000   148.0000 </r>
       <r>    -2.4061     0.0000   149.0000 </r>
       <r>    -2.3672     0.0000   150.0000 </r>
       <r>    -2.3282     0.0000   150.0000 </r>
       <r>    -2.2892     0.0000   150.0000 </r>
       <r>    -2.2502     0.0000   150.0000 </r>
       <r>    -2.2112     0.0000   150.0000 </r>
       <r>    -2.1722     0.0000   151.0000 </r>
       <r>    -2.1333     0.0000   151.0000 </r>
       <r>    -2.0943     0.0000   151.0000 </r>
       <r>    -2.0553     0.0000   152.0000 </r>
       <r>    -2.0163     0.0000   152.0000 </r>
       <r>    -1.9773     0.0000   152.0000 </r>
       <r>    -1.9383     0.0000   152.0000 </r>
       <r>    -1.8994     0.0000   152.0000 </r>
       <r>    -1.8604     0.0000   152.0000 </r>
       <r>    -1.8214     0.0000   152.0000 </r>
       <r>    -1.7824     0.0000   152.0000 </r>
       <r>    -1.7434     0.0000   153.0000 </r>
       <r>    -1.7044     0.0000   154.0000 </r>
       <r>    -1.6655     0.0000   154.0000 </r>
       <r>    -1.6265     0.0000   154.0000 </r>
       <r>    -1.5875     0.0000   154.0000 </r>
       <r>    -1.5485     0.0000   154.0000 </r>
       <r>    -1.5095     0.0000   154.0000 </r>
       <r>    -1.4705     0.0000   154.0000 </r>
       <r>    -1.4315     0.0000   154.0000 </r>
       <r>    -1.3926     0.0000   155.0000 </r>
       <r>    -1.3536     0.0000   155.0000 </r>
       <r>    -1.3146     0.0000   155.0000 </r>
       <r>    -1.2756     0.0000   155.0000 </r>
       <r>    -1.2366     0.0000   155.0000 </r>
       <r>    -1.1976     0.0000   155.0000 </r>
       <r>    -1.1587     0.0000   155.0000 </r>
       <r>    -1.1197     0.0000   156.0000 </r>
       <r>    -1.0807     0.0000   156.0000 </r>
       <r>    -1.0417     0.0000   156.0000 </r>
       <r>    -1.0027     0.0000   157.0000 </r>
       <r>    -0.9637     0.0000   157.0000 </r>
       <r>    -0.9248     0.0000   157.0000 </r>
       <r>    -0.8858     0.0000   158.0000 </r>
       <r>    -0.8468     0.0000   159.0000 </r>
       <r>    -0.8078     0.0000   159.0000 </r>
       <r>    -0.7688     0.0000   160.0000 </r>
       <r>    -0.7298     0.0000   160.0000 </r>
       <r>    -0.6909     0.0000   161.0000 </r>
       <r>    -0.6519     0.0000   161.0000 </r>
       <r>    -0.6129     0.0000   161.0000 </r>
       <r>    -0.5739     0.0000   162.0000 </r>
       <r>    -0.5349     0.0000   162.0000 </r>
       <r>    -0.4959     0.0000   163.0000 </r>
       <r>    -0.4569     0.0000   163.0000 </r>
       <r>    -0.4180     0.0000   164.0000 </r>
       <r>    -0.3790     0.0000   164.0000 </r>
       <r>    -0.3400     0.0000   165.0000 </r>
       <r>    -0.3010     0.0000   165.0000 </r>
       <r>    -0.2620     0.0000   165.0000 </r>
       <r>    -0.2230     0.0000   166.0000 </r>
       <r>    -0.1841     0.0000   166.0000 </r>
       <r>    -0.1451     0.0000   166.0000 </r>
       <r>    -0.1061     0.0000   166.0000 </r>
       <r>    -0.0671     0.0000   167.0000 </r>
       <r>    -0.0281     0.0000   167.0000 </r>
       <r>     0.0109     0.0000   167.0000 </r>
       <r>     0.0498     0.0000   167.0000 </r>
       <r>     0.0888     0.0000   168.0000 </r>
       <r>     0.1278     0.0000   168.0000 </r>
       <r>     0.1668     0.0000   169.0000 </r>
       <r>     0.2058     0.0000   169.0000 </r>
       <r>     0.2448     0.0000   169.0000 </r>
       <r>     0.2837     0.0000   169.0000 </r>
       <r>     0.3227     0.0000   169.0000 </r>
       <r>     0.3617     0.0000   170.0000 </r>
       <r>     0.4007     0.0000   170.0000 </r>
       <r>     0.4397     0.0000   170.0000 </r>
       <r>     0.4787     0.0000   170.0000 </r>
       <r>     0.5177     0.0000   171.0000 </r>
       <r>     0.5566     0.0000   171.0000 </r>
       <r>     0.5956     0.0000   172.0000 </r>
       <r>     0.6346     0.0000   172.0000 </r>
       <r>     0.6736     0.0000   173.0000 </r>
       <r>     0.7126     0.0000   174.0000 </r>
       <r>     0.7516     0.0000   175.0000 </r>
       <r>     0.7905     0.0000   177.0000 </r>
       <r>     0.8295     0.0000   178.0000 </r>
       <r>     0.8685     0.0000   179.0000 </r>
       <r>     0.9075     0.0000   180.0000 </r>
       <r>     0.9465     0.0000   180.0000 </r>
       <r>     0.9855     0.0000   181.0000 </r>
       <r>     1.0244     0.0000   182.0000 </r>
       <r>     1.0634     0.0000   184.0000 </r>
       <r>     1.1024     0.0000   184.0000 </r>
       <r>     1.1414     0.0000   184.0000 </r>
       <r>     1.1804     0.0000   184.0000 </r>
       <r>     1.2194     0.0000   184.0000 </r>
       <r>     1.2583     0.0000   184.0000 </r>
       <r>     1.2973     0.0000   184.0000 </r>
       <r>     1.3363     0.0000   184.0000 </r>
       <r>     1.3753     0.0000   184.0000 </r>
       <r>     1.4143     0.0000   184.0000 </r>
       <r>     1.4533     0.0000   184.0000 </r>
       <r>     1.4923     0.0000   184.0000 </r>
       <r>     1.5312     0.0000   184.0000 </r>
       <r>     1.5702     0.0000   184.0000 </r>
      </set>
     </set>
    </array>
   </total>
  </dos>
 </calculation>
 <structure name="finalpos" >
  <crystal>
   <varray name="basis" >
    <v>      20.94151438       0.00000000       0.00000000 </v>
    <v>       0.00000000      20.94151438       0.00000000 </v>
    <v>       0.00000000       0.00000000      20.94151438 </v>
   </varray>
   <i name="volume">   9183.83881973 </i>
   <varray name="rec_basis" >
    <v>       0.04775204       0.00000000       0.00000000 </v>
    <v>       0.00000000       0.04775204       0.00000000 </v>
    <v>       0.00000000       0.00000000       0.04775204 </v>
   </varray>
  </crystal>
  <varray name="positions" >
   <v>       0.51503934       0.33020930       0.42950947 </v>
   <v>       0.43476880       0.32525880       0.53761629 </v>
   <v>       0.44095913       0.40554639       0.64478875 </v>
   <v>       0.53761261       0.40410588       0.55346686 </v>
   <v>       0.54942490       0.48915795       0.66443541 </v>
   <v>       0.62451687       0.41218585       0.45181551 </v>
   <v>       0.64123182       0.48855995       0.56287147 </v>
   <v>       0.51292127       0.60453873       0.72127000 </v>
   <v>       0.56998492       0.40732341       0.33063092 </v>
   <v>       0.43808284       0.41259040       0.31196858 </v>
   <v>       0.38680185       0.38398110       0.42841766 </v>
   <v>       0.40202285       0.46589672       0.53369197 </v>
   <v>       0.71436950       0.51208499       0.45602033 </v>
   <v>       0.49614534       0.46111362       0.43075316 </v>
   <v>       0.42447875       0.54178958       0.64386169 </v>
   <v>       0.51737264       0.53743462       0.54025155 </v>
   <v>       0.60220926       0.53099702       0.38704337 </v>
   <v>       0.62243309       0.60674666       0.49248158 </v>
   <v>       0.60692534       0.60808228       0.62804805 </v>
   <v>       0.55039053       0.72214025       0.66705820 </v>
   <v>       0.38464594       0.53232684       0.41566074 </v>
   <v>       0.48373721       0.53527769       0.31971337 </v>
   <v>       0.39991409       0.60813244       0.52394049 </v>
   <v>       0.42786205       0.67486659       0.64227316 </v>
   <v>       0.49705810       0.60977368       0.42862810 </v>
   <v>       0.51924753       0.67583972       0.54665112 </v>
  </varray>
 </structure>
</modeling>
