54
Energy = -119.19691048 eV
Ag 15.140860756695531 9.142382471218557 9.107936755746165
Ag 17.247614563200838 13.74993854100126 13.128928843090378
Ag 15.99300128554264 10.69951441639944 11.38041387302708
Ag 15.524019909614555 11.846126509282515 8.759236256239816
Ag 17.256039074829395 13.170237914548522 10.43146169770315
Ag 13.222031103777207 10.547919401284874 7.549055062637231
Ag 14.152939983430587 13.096021917180758 6.695786506675275
Ag 12.400472482836664 8.521438238271637 9.318491147147792
Ag 14.174324393476564 8.51634810094495 11.604622365246543
Ag 15.514455154868461 9.420079969420765 13.915497290683472
Ag 15.838887718752703 14.626193079992117 8.427857033863786
Ag 13.146284755940007 11.238566014781531 10.28245227220631
Ag 12.022399082758234 6.753357357470915 11.562252994445512
Ag 10.436201024471558 10.708385503671792 9.250494806559585
Ag 15.276717743748089 12.358868578456317 14.597815006029878
Ag 14.781345435310913 13.150755770950267 11.877089579658298
Ag 15.962577489170268 15.605275857408921 11.139390599572266
Ag 11.470797648425192 12.676302108528605 7.343352591526013
Ag 13.326752253362779 13.950626321344949 9.530176367771352
Ag 12.56362444900632 15.333890218642205 7.191238668364384
Ag 13.66900909592709 10.22763651670013 15.886829841586943
Ag 12.68820507507868 8.225832366402367 14.025950738169678
Ag 15.065359699552253 15.272417166516128 13.875361728844146
Ag 11.310836525269085 9.546641175667055 11.718101722553811
Ag 13.384536965931254 10.88561346556311 13.081113772246178
Ag 9.482902220002108 11.726591094928338 12.032447570075782
Ag 14.112267631219522 16.67247588652468 9.230796333696416
Ag 7.915619832518587 9.891480590080706 10.405265964390884
Ag 9.775286725222363 7.838461278720542 10.113149419916429
Ag 7.936221274123408 12.642438171987289 9.747370261739237
Ag 12.583895074707813 12.161572644875358 17.749348702652846
Ag 7.358653837653404 7.404359174085963 11.471901397828987
Ag 9.74615837647795 7.545475993523093 12.991447138558026
Ag 11.233781969527149 9.784384249645246 17.138081166284
Ag 12.325803653894177 12.562688896873706 15.036497109801045
Ag 9.774812059559686 14.840219738603574 7.599263599369213
Ag 10.580182396449263 10.317880969486039 14.300002995245572
Ag 11.316847517159887 16.235551910988455 9.576683580773706
Ag 13.19675821224807 15.89909425127881 11.751471537873673
Ag 10.546906452456776 13.477105916028387 9.914815472670654
Ag 11.997315916463137 13.169229066789065 12.258264564833505
Ag 6.498417946379036 11.647697466508097 12.011848008982247
Ag 14.117155760744659 14.30486659921796 16.326330731514147
Ag 10.488055766857602 7.6458421043955145 15.621280360553154
Ag 12.310209742973303 15.355692655519638 14.298937858597583
Ag 7.7353979918326266 9.461415528848248 13.286028631455821
Ag 10.385438574534232 15.495666423224257 12.116218286155545
Ag 9.819809434244236 12.12270526779505 16.5635132186294
Ag 8.514763955183087 15.479835074579157 10.018055084105294
Ag 7.885112501976718 11.982311105607954 14.47645475293787
Ag 11.266652418424089 14.5103019961018 16.787671876336756
Ag 8.514205512498684 9.630366583142441 16.002758045282736
Ag 7.8949517899684 14.065614025275458 12.373435712814882
Ag 9.900255903061757 13.839306031073676 14.313566130875586
