  34  34   0   0
  0.3332451E+03  0.2246023E-08  0.2246023E-08  0.2246023E-08  0.1000000E-15
  1.000000000000000E-004
  CAR 
 unknown system                          
      1.78531871    -10.29454506  301     -3.71101931      1.00000000
    -10.295  0.0000E+00  0.0000E+00  0.0000E+00  0.0000E+00
    -10.254  0.0000E+00  0.0000E+00  0.0000E+00  0.0000E+00
    -10.214  0.0000E+00  0.0000E+00  0.0000E+00  0.0000E+00
    -10.174  0.0000E+00  0.0000E+00  0.0000E+00  0.0000E+00
    -10.133  0.0000E+00  0.0000E+00  0.0000E+00  0.0000E+00
    -10.093  0.0000E+00  0.0000E+00  0.0000E+00  0.0000E+00
    -10.053  0.0000E+00  0.0000E+00  0.0000E+00  0.0000E+00
    -10.013  0.0000E+00  0.0000E+00  0.0000E+00  0.0000E+00
     -9.972  0.0000E+00  0.0000E+00  0.0000E+00  0.0000E+00
     -9.932  0.0000E+00  0.0000E+00  0.0000E+00  0.0000E+00
     -9.892  0.0000E+00  0.0000E+00  0.0000E+00  0.0000E+00
     -9.852  0.0000E+00  0.0000E+00  0.0000E+00  0.0000E+00
     -9.811  0.0000E+00  0.0000E+00  0.0000E+00  0.0000E+00
     -9.771  0.0000E+00  0.0000E+00  0.0000E+00  0.0000E+00
     -9.731  0.0000E+00  0.0000E+00  0.1000E-02  0.1000E-02
     -9.691  0.0000E+00  0.0000E+00  0.1000E-02  0.1000E-02
     -9.650  0.0000E+00  0.0000E+00  0.1000E-02  0.1000E-02
     -9.610  0.0000E+00  0.0000E+00  0.1000E-02  0.1000E-02
     -9.570  0.0000E+00  0.0000E+00  0.1000E-02  0.1000E-02
     -9.529  0.0000E+00  0.0000E+00  0.1000E-02  0.1000E-02
     -9.489  0.0000E+00  0.0000E+00  0.1000E-02  0.1000E-02
     -9.449  0.0000E+00  0.0000E+00  0.1000E-02  0.1000E-02
     -9.409  0.0000E+00  0.0000E+00  0.1000E-02  0.1000E-02
     -9.368  0.0000E+00  0.0000E+00  0.1000E-02  0.1000E-02
     -9.328  0.0000E+00  0.0000E+00  0.1000E-02  0.1000E-02
     -9.288  0.0000E+00  0.0000E+00  0.1000E-02  0.1000E-02
     -9.248  0.0000E+00  0.0000E+00  0.2000E-02  0.2000E-02
     -9.207  0.0000E+00  0.0000E+00  0.3000E-02  0.3000E-02
     -9.167  0.0000E+00  0.0000E+00  0.3000E-02  0.3000E-02
     -9.127  0.2483E-01  0.2483E-01  0.5000E-02  0.5000E-02
     -9.087  0.2757E-17  0.2757E-17  0.6000E-02  0.6000E-02
     -9.046  0.0000E+00  0.0000E+00  0.7000E-02  0.7000E-02
     -9.006  0.0000E+00  0.0000E+00  0.8000E-02  0.8000E-02
     -8.966  0.0000E+00  0.0000E+00  0.8000E-02  0.8000E-02
     -8.925  0.0000E+00  0.0000E+00  0.1000E-01  0.1000E-01
     -8.885  0.0000E+00  0.0000E+00  0.1100E-01  0.1100E-01
     -8.845  0.0000E+00  0.0000E+00  0.1300E-01  0.1300E-01
     -8.805  0.0000E+00  0.0000E+00  0.1400E-01  0.1400E-01
     -8.764  0.0000E+00  0.0000E+00  0.1600E-01  0.1600E-01
     -8.724  0.0000E+00  0.0000E+00  0.1600E-01  0.1600E-01
     -8.684  0.0000E+00  0.0000E+00  0.1800E-01  0.1800E-01
     -8.644  0.0000E+00  0.0000E+00  0.1900E-01  0.1900E-01
     -8.603  0.0000E+00  0.0000E+00  0.2100E-01  0.2100E-01
     -8.563  0.0000E+00  0.0000E+00  0.2200E-01  0.2200E-01
     -8.523  0.0000E+00  0.0000E+00  0.2300E-01  0.2300E-01
     -8.483  0.0000E+00  0.0000E+00  0.2500E-01  0.2500E-01
     -8.442  0.2053E-01  0.2053E-01  0.2783E-01  0.2783E-01
     -8.402  0.0000E+00  0.0000E+00  0.3000E-01  0.3000E-01
     -8.362  0.0000E+00  0.0000E+00  0.3100E-01  0.3100E-01
     -8.322  0.0000E+00  0.0000E+00  0.3300E-01  0.3300E-01
     -8.281  0.0000E+00  0.0000E+00  0.3600E-01  0.3600E-01
     -8.241  0.0000E+00  0.0000E+00  0.3800E-01  0.3800E-01
     -8.201  0.0000E+00  0.0000E+00  0.4000E-01  0.4000E-01
     -8.160  0.0000E+00  0.0000E+00  0.4200E-01  0.4200E-01
     -8.120  0.0000E+00  0.0000E+00  0.4500E-01  0.4500E-01
     -8.080  0.0000E+00  0.0000E+00  0.4700E-01  0.4700E-01
     -8.040  0.0000E+00  0.0000E+00  0.5000E-01  0.5000E-01
     -7.999  0.0000E+00  0.0000E+00  0.5200E-01  0.5200E-01
     -7.959  0.0000E+00  0.0000E+00  0.5400E-01  0.5400E-01
     -7.919  0.0000E+00  0.0000E+00  0.5600E-01  0.5600E-01
     -7.879  0.0000E+00  0.0000E+00  0.5800E-01  0.5800E-01
     -7.838  0.0000E+00  0.0000E+00  0.5900E-01  0.5900E-01
     -7.798  0.2483E-01  0.2483E-01  0.6300E-01  0.6300E-01
     -7.758  0.0000E+00  0.0000E+00  0.6400E-01  0.6400E-01
     -7.718  0.0000E+00  0.0000E+00  0.6700E-01  0.6700E-01
     -7.677  0.0000E+00  0.0000E+00  0.6800E-01  0.6800E-01
     -7.637  0.0000E+00  0.0000E+00  0.7100E-01  0.7100E-01
     -7.597  0.0000E+00  0.0000E+00  0.7400E-01  0.7400E-01
     -7.556  0.0000E+00  0.0000E+00  0.7700E-01  0.7700E-01
     -7.516  0.0000E+00  0.0000E+00  0.7800E-01  0.7800E-01
     -7.476  0.0000E+00  0.0000E+00  0.8000E-01  0.8000E-01
     -7.436  0.0000E+00  0.0000E+00  0.8300E-01  0.8300E-01
     -7.395  0.0000E+00  0.0000E+00  0.8500E-01  0.8500E-01
     -7.355  0.0000E+00  0.0000E+00  0.8700E-01  0.8700E-01
     -7.315  0.0000E+00  0.0000E+00  0.8900E-01  0.8900E-01
     -7.275  0.0000E+00  0.0000E+00  0.9200E-01  0.9200E-01
     -7.234  0.0000E+00  0.0000E+00  0.9400E-01  0.9400E-01
     -7.194  0.0000E+00  0.0000E+00  0.9700E-01  0.9700E-01
     -7.154  0.0000E+00  0.0000E+00  0.9800E-01  0.9800E-01
     -7.114  0.0000E+00  0.0000E+00  0.1000E+00  0.1000E+00
     -7.073  0.0000E+00  0.0000E+00  0.1020E+00  0.1020E+00
     -7.033  0.0000E+00  0.0000E+00  0.1060E+00  0.1060E+00
     -6.993  0.0000E+00  0.0000E+00  0.1070E+00  0.1070E+00
     -6.952  0.0000E+00  0.0000E+00  0.1100E+00  0.1100E+00
     -6.912  0.0000E+00  0.0000E+00  0.1140E+00  0.1140E+00
     -6.872  0.0000E+00  0.0000E+00  0.1180E+00  0.1180E+00
     -6.832  0.0000E+00  0.0000E+00  0.1210E+00  0.1210E+00
     -6.791  0.0000E+00  0.0000E+00  0.1250E+00  0.1250E+00
     -6.751  0.0000E+00  0.0000E+00  0.1270E+00  0.1270E+00
     -6.711  0.0000E+00  0.0000E+00  0.1300E+00  0.1300E+00
     -6.671  0.0000E+00  0.0000E+00  0.1350E+00  0.1350E+00
     -6.630  0.0000E+00  0.0000E+00  0.1380E+00  0.1380E+00
     -6.590  0.5514E-17  0.5514E-17  0.1420E+00  0.1420E+00
     -6.550  0.0000E+00  0.0000E+00  0.1460E+00  0.1460E+00
     -6.510  0.0000E+00  0.0000E+00  0.1490E+00  0.1490E+00
     -6.469  0.0000E+00  0.0000E+00  0.1530E+00  0.1530E+00
     -6.429  0.0000E+00  0.0000E+00  0.1560E+00  0.1560E+00
     -6.389  0.0000E+00  0.0000E+00  0.1580E+00  0.1580E+00
     -6.348  0.0000E+00  0.0000E+00  0.1630E+00  0.1630E+00
     -6.308  0.0000E+00  0.0000E+00  0.1660E+00  0.1660E+00
     -6.268  0.0000E+00  0.0000E+00  0.1670E+00  0.1670E+00
     -6.228  0.0000E+00  0.0000E+00  0.1690E+00  0.1690E+00
     -6.187  0.0000E+00  0.0000E+00  0.1720E+00  0.1720E+00
     -6.147  0.0000E+00  0.0000E+00  0.1730E+00  0.1730E+00
     -6.107  0.0000E+00  0.0000E+00  0.1740E+00  0.1740E+00
     -6.067  0.0000E+00  0.0000E+00  0.1740E+00  0.1740E+00
     -6.026  0.0000E+00  0.0000E+00  0.1740E+00  0.1740E+00
     -5.986  0.0000E+00  0.0000E+00  0.1740E+00  0.1740E+00
     -5.946  0.0000E+00  0.0000E+00  0.1740E+00  0.1740E+00
     -5.906  0.0000E+00  0.0000E+00  0.1740E+00  0.1740E+00
     -5.865  0.0000E+00  0.0000E+00  0.1750E+00  0.1750E+00
     -5.825  0.0000E+00  0.0000E+00  0.1750E+00  0.1750E+00
     -5.785  0.0000E+00  0.0000E+00  0.1750E+00  0.1750E+00
     -5.744  0.0000E+00  0.0000E+00  0.1760E+00  0.1760E+00
     -5.704  0.0000E+00  0.0000E+00  0.1760E+00  0.1760E+00
     -5.664  0.0000E+00  0.0000E+00  0.1770E+00  0.1770E+00
     -5.624  0.0000E+00  0.0000E+00  0.1770E+00  0.1770E+00
     -5.583  0.0000E+00  0.0000E+00  0.1780E+00  0.1780E+00
     -5.543  0.0000E+00  0.0000E+00  0.1780E+00  0.1780E+00
     -5.503  0.0000E+00  0.0000E+00  0.1780E+00  0.1780E+00
     -5.463  0.0000E+00  0.0000E+00  0.1780E+00  0.1780E+00
     -5.422  0.0000E+00  0.0000E+00  0.1780E+00  0.1780E+00
     -5.382  0.0000E+00  0.0000E+00  0.1780E+00  0.1780E+00
     -5.342  0.0000E+00  0.0000E+00  0.1780E+00  0.1780E+00
     -5.302  0.0000E+00  0.0000E+00  0.1780E+00  0.1780E+00
     -5.261  0.0000E+00  0.0000E+00  0.1780E+00  0.1780E+00
     -5.221  0.0000E+00  0.0000E+00  0.1780E+00  0.1780E+00
     -5.181  0.0000E+00  0.0000E+00  0.1780E+00  0.1780E+00
     -5.140  0.0000E+00  0.0000E+00  0.1790E+00  0.1790E+00
     -5.100  0.0000E+00  0.0000E+00  0.1790E+00  0.1790E+00
     -5.060  0.0000E+00  0.0000E+00  0.1790E+00  0.1790E+00
     -5.020  0.0000E+00  0.0000E+00  0.1790E+00  0.1790E+00
     -4.979  0.0000E+00  0.0000E+00  0.1790E+00  0.1790E+00
     -4.939  0.0000E+00  0.0000E+00  0.1790E+00  0.1790E+00
     -4.899  0.0000E+00  0.0000E+00  0.1790E+00  0.1790E+00
     -4.859  0.0000E+00  0.0000E+00  0.1790E+00  0.1790E+00
     -4.818  0.0000E+00  0.0000E+00  0.1800E+00  0.1800E+00
     -4.778  0.0000E+00  0.0000E+00  0.1800E+00  0.1800E+00
     -4.738  0.0000E+00  0.0000E+00  0.1800E+00  0.1800E+00
     -4.698  0.0000E+00  0.0000E+00  0.1800E+00  0.1800E+00
     -4.657  0.0000E+00  0.0000E+00  0.1800E+00  0.1800E+00
     -4.617  0.0000E+00  0.0000E+00  0.1800E+00  0.1800E+00
     -4.577  0.0000E+00  0.0000E+00  0.1800E+00  0.1800E+00
     -4.536  0.0000E+00  0.0000E+00  0.1810E+00  0.1810E+00
     -4.496  0.0000E+00  0.0000E+00  0.1810E+00  0.1810E+00
     -4.456  0.0000E+00  0.0000E+00  0.1810E+00  0.1810E+00
     -4.416  0.0000E+00  0.0000E+00  0.1810E+00  0.1810E+00
     -4.375  0.0000E+00  0.0000E+00  0.1810E+00  0.1810E+00
     -4.335  0.0000E+00  0.0000E+00  0.1810E+00  0.1810E+00
     -4.295  0.0000E+00  0.0000E+00  0.1820E+00  0.1820E+00
     -4.255  0.0000E+00  0.0000E+00  0.1830E+00  0.1830E+00
     -4.214  0.0000E+00  0.0000E+00  0.1830E+00  0.1830E+00
     -4.174  0.0000E+00  0.0000E+00  0.1830E+00  0.1830E+00
     -4.134  0.0000E+00  0.0000E+00  0.1830E+00  0.1830E+00
     -4.094  0.0000E+00  0.0000E+00  0.1830E+00  0.1830E+00
     -4.053  0.0000E+00  0.0000E+00  0.1830E+00  0.1830E+00
     -4.013  0.0000E+00  0.0000E+00  0.1830E+00  0.1830E+00
     -3.973  0.0000E+00  0.0000E+00  0.1830E+00  0.1830E+00
     -3.932  0.0000E+00  0.0000E+00  0.1840E+00  0.1840E+00
     -3.892  0.0000E+00  0.0000E+00  0.1840E+00  0.1840E+00
     -3.852  0.0000E+00  0.0000E+00  0.1850E+00  0.1850E+00
     -3.812  0.0000E+00  0.0000E+00  0.1850E+00  0.1850E+00
     -3.771  0.2483E-01  0.2483E-01  0.1860E+00  0.1860E+00
     -3.731  0.0000E+00  0.0000E+00  0.1860E+00  0.1860E+00
     -3.691  0.0000E+00  0.0000E+00  0.1870E+00  0.1870E+00
     -3.651  0.0000E+00  0.0000E+00  0.1870E+00  0.1870E+00
     -3.610  0.0000E+00  0.0000E+00  0.1870E+00  0.1870E+00
     -3.570  0.0000E+00  0.0000E+00  0.1870E+00  0.1870E+00
     -3.530  0.0000E+00  0.0000E+00  0.1870E+00  0.1870E+00
     -3.490  0.0000E+00  0.0000E+00  0.1870E+00  0.1870E+00
     -3.449  0.0000E+00  0.0000E+00  0.1870E+00  0.1870E+00
     -3.409  0.0000E+00  0.0000E+00  0.1870E+00  0.1870E+00
     -3.369  0.0000E+00  0.0000E+00  0.1870E+00  0.1870E+00
     -3.328  0.0000E+00  0.0000E+00  0.1870E+00  0.1870E+00
     -3.288  0.0000E+00  0.0000E+00  0.1870E+00  0.1870E+00
     -3.248  0.0000E+00  0.0000E+00  0.1870E+00  0.1870E+00
     -3.208  0.0000E+00  0.0000E+00  0.1870E+00  0.1870E+00
     -3.167  0.0000E+00  0.0000E+00  0.1870E+00  0.1870E+00
     -3.127  0.0000E+00  0.0000E+00  0.1870E+00  0.1870E+00
     -3.087  0.0000E+00  0.0000E+00  0.1880E+00  0.1880E+00
     -3.047  0.0000E+00  0.0000E+00  0.1880E+00  0.1880E+00
     -3.006  0.0000E+00  0.0000E+00  0.1880E+00  0.1880E+00
     -2.966  0.0000E+00  0.0000E+00  0.1890E+00  0.1890E+00
     -2.926  0.0000E+00  0.0000E+00  0.1890E+00  0.1890E+00
     -2.886  0.0000E+00  0.0000E+00  0.1890E+00  0.1890E+00
     -2.845  0.0000E+00  0.0000E+00  0.1890E+00  0.1890E+00
     -2.805  0.0000E+00  0.0000E+00  0.1890E+00  0.1890E+00
     -2.765  0.0000E+00  0.0000E+00  0.1900E+00  0.1900E+00
     -2.724  0.0000E+00  0.0000E+00  0.1900E+00  0.1900E+00
     -2.684  0.0000E+00  0.0000E+00  0.1910E+00  0.1910E+00
     -2.644  0.0000E+00  0.0000E+00  0.1910E+00  0.1910E+00
     -2.604  0.0000E+00  0.0000E+00  0.1910E+00  0.1910E+00
     -2.563  0.0000E+00  0.0000E+00  0.1920E+00  0.1920E+00
     -2.523  0.0000E+00  0.0000E+00  0.1920E+00  0.1920E+00
     -2.483  0.0000E+00  0.0000E+00  0.1920E+00  0.1920E+00
     -2.443  0.0000E+00  0.0000E+00  0.1920E+00  0.1920E+00
     -2.402  0.0000E+00  0.0000E+00  0.1930E+00  0.1930E+00
     -2.362  0.0000E+00  0.0000E+00  0.1930E+00  0.1930E+00
     -2.322  0.0000E+00  0.0000E+00  0.1940E+00  0.1940E+00
     -2.282  0.0000E+00  0.0000E+00  0.1940E+00  0.1940E+00
     -2.241  0.1916E-04  0.1915E-04  0.1940E+00  0.1940E+00
     -2.201  0.0000E+00  0.0000E+00  0.1950E+00  0.1950E+00
     -2.161  0.0000E+00  0.0000E+00  0.1960E+00  0.1960E+00
     -2.121  0.0000E+00  0.0000E+00  0.1960E+00  0.1960E+00
     -2.080  0.0000E+00  0.0000E+00  0.1960E+00  0.1960E+00
     -2.040  0.0000E+00  0.0000E+00  0.1960E+00  0.1960E+00
     -2.000  0.0000E+00  0.0000E+00  0.1970E+00  0.1970E+00
     -1.959  0.0000E+00  0.0000E+00  0.1970E+00  0.1970E+00
     -1.919  0.0000E+00  0.0000E+00  0.1970E+00  0.1970E+00
     -1.879  0.0000E+00  0.0000E+00  0.1980E+00  0.1980E+00
     -1.839  0.0000E+00  0.0000E+00  0.1980E+00  0.1980E+00
     -1.798  0.0000E+00  0.0000E+00  0.1980E+00  0.1980E+00
     -1.758  0.0000E+00  0.0000E+00  0.1980E+00  0.1980E+00
     -1.718  0.0000E+00  0.0000E+00  0.1990E+00  0.1990E+00
     -1.678  0.0000E+00  0.0000E+00  0.1990E+00  0.1990E+00
     -1.637  0.0000E+00  0.0000E+00  0.1990E+00  0.1990E+00
     -1.597  0.0000E+00  0.0000E+00  0.2000E+00  0.2000E+00
     -1.557  0.0000E+00  0.0000E+00  0.2000E+00  0.2000E+00
     -1.517  0.0000E+00  0.0000E+00  0.2000E+00  0.2000E+00
     -1.476  0.0000E+00  0.0000E+00  0.2010E+00  0.2010E+00
     -1.436  0.0000E+00  0.0000E+00  0.2010E+00  0.2010E+00
     -1.396  0.0000E+00  0.0000E+00  0.2010E+00  0.2010E+00
     -1.355  0.0000E+00  0.0000E+00  0.2010E+00  0.2010E+00
     -1.315  0.0000E+00  0.0000E+00  0.2020E+00  0.2020E+00
     -1.275  0.0000E+00  0.0000E+00  0.2020E+00  0.2020E+00
     -1.235  0.0000E+00  0.0000E+00  0.2030E+00  0.2030E+00
     -1.194  0.0000E+00  0.0000E+00  0.2040E+00  0.2040E+00
     -1.154  0.0000E+00  0.0000E+00  0.2040E+00  0.2040E+00
     -1.114  0.0000E+00  0.0000E+00  0.2040E+00  0.2040E+00
     -1.074  0.0000E+00  0.0000E+00  0.2040E+00  0.2040E+00
     -1.033  0.0000E+00  0.0000E+00  0.2040E+00  0.2040E+00
     -0.993  0.0000E+00  0.0000E+00  0.2040E+00  0.2040E+00
     -0.953  0.0000E+00  0.0000E+00  0.2040E+00  0.2040E+00
     -0.913  0.0000E+00  0.0000E+00  0.2050E+00  0.2050E+00
     -0.872  0.0000E+00  0.0000E+00  0.2050E+00  0.2050E+00
     -0.832  0.0000E+00  0.0000E+00  0.2060E+00  0.2060E+00
     -0.792  0.0000E+00  0.0000E+00  0.2070E+00  0.2070E+00
     -0.751  0.0000E+00  0.0000E+00  0.2080E+00  0.2080E+00
     -0.711  0.0000E+00  0.0000E+00  0.2080E+00  0.2080E+00
     -0.671  0.0000E+00  0.0000E+00  0.2080E+00  0.2080E+00
     -0.631  0.0000E+00  0.0000E+00  0.2090E+00  0.2090E+00
     -0.590  0.0000E+00  0.0000E+00  0.2090E+00  0.2090E+00
     -0.550  0.0000E+00  0.0000E+00  0.2090E+00  0.2090E+00
     -0.510  0.0000E+00  0.0000E+00  0.2100E+00  0.2100E+00
     -0.470  0.0000E+00  0.0000E+00  0.2110E+00  0.2110E+00
     -0.429  0.0000E+00  0.0000E+00  0.2110E+00  0.2110E+00
     -0.389  0.0000E+00  0.0000E+00  0.2120E+00  0.2120E+00
     -0.349  0.0000E+00  0.0000E+00  0.2130E+00  0.2130E+00
     -0.309  0.0000E+00  0.0000E+00  0.2130E+00  0.2130E+00
     -0.268  0.0000E+00  0.0000E+00  0.2140E+00  0.2140E+00
     -0.228  0.0000E+00  0.0000E+00  0.2150E+00  0.2150E+00
     -0.188  0.0000E+00  0.0000E+00  0.2150E+00  0.2150E+00
     -0.147  0.0000E+00  0.0000E+00  0.2160E+00  0.2160E+00
     -0.107  0.0000E+00  0.0000E+00  0.2160E+00  0.2160E+00
     -0.067  0.0000E+00  0.0000E+00  0.2160E+00  0.2160E+00
     -0.027  0.0000E+00  0.0000E+00  0.2160E+00  0.2160E+00
      0.014  0.0000E+00  0.0000E+00  0.2160E+00  0.2160E+00
      0.054  0.0000E+00  0.0000E+00  0.2170E+00  0.2170E+00
      0.094  0.0000E+00  0.0000E+00  0.2170E+00  0.2170E+00
      0.134  0.0000E+00  0.0000E+00  0.2180E+00  0.2180E+00
      0.175  0.0000E+00  0.0000E+00  0.2180E+00  0.2180E+00
      0.215  0.0000E+00  0.0000E+00  0.2180E+00  0.2180E+00
      0.255  0.0000E+00  0.0000E+00  0.2190E+00  0.2190E+00
      0.295  0.0000E+00  0.0000E+00  0.2190E+00  0.2190E+00
      0.336  0.0000E+00  0.0000E+00  0.2190E+00  0.2190E+00
      0.376  0.0000E+00  0.0000E+00  0.2190E+00  0.2190E+00
      0.416  0.0000E+00  0.0000E+00  0.2200E+00  0.2200E+00
      0.457  0.0000E+00  0.0000E+00  0.2210E+00  0.2210E+00
      0.497  0.0000E+00  0.0000E+00  0.2220E+00  0.2220E+00
      0.537  0.0000E+00  0.0000E+00  0.2220E+00  0.2220E+00
      0.577  0.0000E+00  0.0000E+00  0.2230E+00  0.2230E+00
      0.618  0.0000E+00  0.0000E+00  0.2240E+00  0.2240E+00
      0.658  0.0000E+00  0.0000E+00  0.2240E+00  0.2240E+00
      0.698  0.0000E+00  0.0000E+00  0.2260E+00  0.2260E+00
      0.738  0.0000E+00  0.0000E+00  0.2270E+00  0.2270E+00
      0.779  0.0000E+00  0.0000E+00  0.2280E+00  0.2280E+00
      0.819  0.0000E+00  0.0000E+00  0.2290E+00  0.2290E+00
      0.859  0.0000E+00  0.0000E+00  0.2300E+00  0.2300E+00
      0.899  0.0000E+00  0.0000E+00  0.2310E+00  0.2310E+00
      0.940  0.0000E+00  0.0000E+00  0.2330E+00  0.2330E+00
      0.980  0.0000E+00  0.0000E+00  0.2330E+00  0.2330E+00
      1.020  0.0000E+00  0.0000E+00  0.2350E+00  0.2350E+00
      1.061  0.0000E+00  0.0000E+00  0.2370E+00  0.2370E+00
      1.101  0.0000E+00  0.0000E+00  0.2390E+00  0.2390E+00
      1.141  0.0000E+00  0.0000E+00  0.2410E+00  0.2410E+00
      1.181  0.0000E+00  0.0000E+00  0.2420E+00  0.2420E+00
      1.222  0.0000E+00  0.0000E+00  0.2430E+00  0.2430E+00
      1.262  0.0000E+00  0.0000E+00  0.2440E+00  0.2440E+00
      1.302  0.0000E+00  0.0000E+00  0.2440E+00  0.2440E+00
      1.342  0.0000E+00  0.0000E+00  0.2440E+00  0.2440E+00
      1.383  0.0000E+00  0.0000E+00  0.2440E+00  0.2440E+00
      1.423  0.0000E+00  0.0000E+00  0.2440E+00  0.2440E+00
      1.463  0.0000E+00  0.0000E+00  0.2440E+00  0.2440E+00
      1.503  0.0000E+00  0.0000E+00  0.2440E+00  0.2440E+00
      1.544  0.0000E+00  0.0000E+00  0.2440E+00  0.2440E+00
      1.584  0.0000E+00  0.0000E+00  0.2440E+00  0.2440E+00
      1.624  0.0000E+00  0.0000E+00  0.2440E+00  0.2440E+00
      1.665  0.0000E+00  0.0000E+00  0.2440E+00  0.2440E+00
      1.705  0.0000E+00  0.0000E+00  0.2440E+00  0.2440E+00
      1.745  0.0000E+00  0.0000E+00  0.2440E+00  0.2440E+00
      1.785  0.0000E+00  0.0000E+00  0.2440E+00  0.2440E+00
