  49  49   0   0
  0.2409501E+03  0.2277060E-08  0.2277060E-08  0.2277060E-08  0.1000000E-15
  1.000000000000000E-004
  CAR 
 unknown system                          
      2.15876863    -10.26014427  301     -3.32625124      1.00000000
    -10.260  0.0000E+00  0.0000E+00  0.0000E+00  0.0000E+00
    -10.219  0.0000E+00  0.0000E+00  0.0000E+00  0.0000E+00
    -10.177  0.0000E+00  0.0000E+00  0.0000E+00  0.0000E+00
    -10.136  0.0000E+00  0.0000E+00  0.0000E+00  0.0000E+00
    -10.095  0.0000E+00  0.0000E+00  0.0000E+00  0.0000E+00
    -10.053  0.0000E+00  0.0000E+00  0.0000E+00  0.0000E+00
    -10.012  0.0000E+00  0.0000E+00  0.0000E+00  0.0000E+00
     -9.970  0.0000E+00  0.0000E+00  0.0000E+00  0.0000E+00
     -9.929  0.0000E+00  0.0000E+00  0.0000E+00  0.0000E+00
     -9.888  0.0000E+00  0.0000E+00  0.0000E+00  0.0000E+00
     -9.846  0.0000E+00  0.0000E+00  0.0000E+00  0.0000E+00
     -9.805  0.0000E+00  0.0000E+00  0.0000E+00  0.0000E+00
     -9.763  0.0000E+00  0.0000E+00  0.0000E+00  0.0000E+00
     -9.722  0.0000E+00  0.0000E+00  0.0000E+00  0.0000E+00
     -9.681  0.0000E+00  0.0000E+00  0.1000E-02  0.1000E-02
     -9.639  0.0000E+00  0.0000E+00  0.1000E-02  0.1000E-02
     -9.598  0.0000E+00  0.0000E+00  0.1000E-02  0.1000E-02
     -9.556  0.0000E+00  0.0000E+00  0.1000E-02  0.1000E-02
     -9.515  0.0000E+00  0.0000E+00  0.1000E-02  0.1000E-02
     -9.474  0.0000E+00  0.0000E+00  0.1000E-02  0.1000E-02
     -9.432  0.0000E+00  0.0000E+00  0.1000E-02  0.1000E-02
     -9.391  0.0000E+00  0.0000E+00  0.1000E-02  0.1000E-02
     -9.349  0.0000E+00  0.0000E+00  0.1000E-02  0.1000E-02
     -9.308  0.0000E+00  0.0000E+00  0.1000E-02  0.1000E-02
     -9.267  0.0000E+00  0.0000E+00  0.1000E-02  0.1000E-02
     -9.225  0.0000E+00  0.0000E+00  0.1000E-02  0.1000E-02
     -9.184  0.0000E+00  0.0000E+00  0.2000E-02  0.2000E-02
     -9.142  0.0000E+00  0.0000E+00  0.2000E-02  0.2000E-02
     -9.101  0.0000E+00  0.0000E+00  0.3000E-02  0.3000E-02
     -9.060  0.0000E+00  0.0000E+00  0.3000E-02  0.3000E-02
     -9.018  0.0000E+00  0.0000E+00  0.5000E-02  0.5000E-02
     -8.977  0.0000E+00  0.0000E+00  0.6000E-02  0.6000E-02
     -8.935  0.0000E+00  0.0000E+00  0.7000E-02  0.7000E-02
     -8.894  0.0000E+00  0.0000E+00  0.8000E-02  0.8000E-02
     -8.853  0.0000E+00  0.0000E+00  0.1000E-01  0.1000E-01
     -8.811  0.0000E+00  0.0000E+00  0.1100E-01  0.1100E-01
     -8.770  0.0000E+00  0.0000E+00  0.1400E-01  0.1300E-01
     -8.728  0.0000E+00  0.0000E+00  0.1500E-01  0.1500E-01
     -8.687  0.1953E-08  0.0000E+00  0.1600E-01  0.1600E-01
     -8.646  0.0000E+00  0.0000E+00  0.2000E-01  0.1900E-01
     -8.604  0.0000E+00  0.0000E+00  0.2300E-01  0.2200E-01
     -8.563  0.0000E+00  0.0000E+00  0.2600E-01  0.2600E-01
     -8.521  0.0000E+00  0.0000E+00  0.2900E-01  0.2900E-01
     -8.480  0.1487E-02  0.0000E+00  0.3106E-01  0.3100E-01
     -8.439  0.2416E-01  0.0000E+00  0.3600E-01  0.3400E-01
     -8.397  0.0000E+00  0.0000E+00  0.3800E-01  0.3700E-01
     -8.356  0.0000E+00  0.0000E+00  0.4100E-01  0.4000E-01
     -8.315  0.0000E+00  0.0000E+00  0.4400E-01  0.4300E-01
     -8.273  0.0000E+00  0.0000E+00  0.4800E-01  0.4700E-01
     -8.232  0.2416E-01  0.0000E+00  0.5200E-01  0.4900E-01
     -8.190  0.0000E+00  0.0000E+00  0.5500E-01  0.5400E-01
     -8.149  0.0000E+00  0.0000E+00  0.5800E-01  0.5700E-01
     -8.108  0.0000E+00  0.0000E+00  0.6100E-01  0.6000E-01
     -8.066  0.2072E-01  0.0000E+00  0.6386E-01  0.6300E-01
     -8.025  0.0000E+00  0.0000E+00  0.6600E-01  0.6600E-01
     -7.983  0.2343E-01  0.0000E+00  0.7197E-01  0.7000E-01
     -7.942  0.0000E+00  0.0000E+00  0.7400E-01  0.7300E-01
     -7.901  0.2416E-01  0.1904E-02  0.7700E-01  0.7508E-01
     -7.859  0.0000E+00  0.0000E+00  0.7800E-01  0.7800E-01
     -7.818  0.1392E-04  0.0000E+00  0.8200E-01  0.8200E-01
     -7.776  0.0000E+00  0.0000E+00  0.8500E-01  0.8500E-01
     -7.735  0.2400E-01  0.0000E+00  0.8999E-01  0.8900E-01
     -7.694  0.2416E-01  0.0000E+00  0.9300E-01  0.9200E-01
     -7.652  0.0000E+00  0.0000E+00  0.9600E-01  0.9600E-01
     -7.611  0.1743E-15  0.0000E+00  0.9900E-01  0.9900E-01
     -7.569  0.0000E+00  0.0000E+00  0.1010E+00  0.1010E+00
     -7.528  0.0000E+00  0.0000E+00  0.1030E+00  0.1030E+00
     -7.487  0.1207E-01  0.0000E+00  0.1075E+00  0.1060E+00
     -7.445  0.0000E+00  0.0000E+00  0.1110E+00  0.1100E+00
     -7.404  0.0000E+00  0.0000E+00  0.1140E+00  0.1140E+00
     -7.362  0.0000E+00  0.0000E+00  0.1180E+00  0.1170E+00
     -7.321  0.0000E+00  0.0000E+00  0.1210E+00  0.1200E+00
     -7.280  0.2416E-01  0.0000E+00  0.1250E+00  0.1230E+00
     -7.238  0.0000E+00  0.1140E-12  0.1290E+00  0.1270E+00
     -7.197  0.0000E+00  0.0000E+00  0.1310E+00  0.1300E+00
     -7.155  0.1033E-01  0.1426E-01  0.1344E+00  0.1336E+00
     -7.114  0.0000E+00  0.0000E+00  0.1370E+00  0.1370E+00
     -7.073  0.0000E+00  0.0000E+00  0.1420E+00  0.1420E+00
     -7.031  0.5734E-03  0.0000E+00  0.1440E+00  0.1430E+00
     -6.990  0.0000E+00  0.2416E-01  0.1480E+00  0.1480E+00
     -6.948  0.0000E+00  0.0000E+00  0.1510E+00  0.1510E+00
     -6.907  0.0000E+00  0.2416E-01  0.1550E+00  0.1550E+00
     -6.866  0.0000E+00  0.2416E-01  0.1590E+00  0.1590E+00
     -6.824  0.0000E+00  0.0000E+00  0.1640E+00  0.1630E+00
     -6.783  0.0000E+00  0.9903E-11  0.1680E+00  0.1670E+00
     -6.741  0.0000E+00  0.0000E+00  0.1720E+00  0.1710E+00
     -6.700  0.1734E-08  0.0000E+00  0.1760E+00  0.1760E+00
     -6.659  0.0000E+00  0.2415E-01  0.1800E+00  0.1800E+00
     -6.617  0.0000E+00  0.0000E+00  0.1840E+00  0.1830E+00
     -6.576  0.0000E+00  0.0000E+00  0.1900E+00  0.1890E+00
     -6.534  0.0000E+00  0.0000E+00  0.1960E+00  0.1950E+00
     -6.493  0.0000E+00  0.0000E+00  0.2000E+00  0.1990E+00
     -6.452  0.0000E+00  0.0000E+00  0.2050E+00  0.2040E+00
     -6.410  0.0000E+00  0.0000E+00  0.2100E+00  0.2100E+00
     -6.369  0.0000E+00  0.0000E+00  0.2140E+00  0.2130E+00
     -6.327  0.0000E+00  0.0000E+00  0.2200E+00  0.2190E+00
     -6.286  0.0000E+00  0.1113E-13  0.2250E+00  0.2240E+00
     -6.245  0.0000E+00  0.0000E+00  0.2290E+00  0.2280E+00
     -6.203  0.0000E+00  0.0000E+00  0.2330E+00  0.2320E+00
     -6.162  0.0000E+00  0.0000E+00  0.2360E+00  0.2360E+00
     -6.121  0.0000E+00  0.0000E+00  0.2410E+00  0.2400E+00
     -6.079  0.0000E+00  0.0000E+00  0.2430E+00  0.2430E+00
     -6.038  0.0000E+00  0.0000E+00  0.2470E+00  0.2460E+00
     -5.996  0.0000E+00  0.0000E+00  0.2490E+00  0.2490E+00
     -5.955  0.0000E+00  0.0000E+00  0.2510E+00  0.2510E+00
     -5.914  0.0000E+00  0.0000E+00  0.2520E+00  0.2520E+00
     -5.872  0.0000E+00  0.0000E+00  0.2530E+00  0.2530E+00
     -5.831  0.0000E+00  0.0000E+00  0.2530E+00  0.2530E+00
     -5.789  0.0000E+00  0.0000E+00  0.2540E+00  0.2540E+00
     -5.748  0.0000E+00  0.0000E+00  0.2540E+00  0.2540E+00
     -5.707  0.0000E+00  0.0000E+00  0.2540E+00  0.2540E+00
     -5.665  0.0000E+00  0.0000E+00  0.2540E+00  0.2540E+00
     -5.624  0.0000E+00  0.0000E+00  0.2540E+00  0.2540E+00
     -5.582  0.0000E+00  0.0000E+00  0.2540E+00  0.2540E+00
     -5.541  0.0000E+00  0.0000E+00  0.2540E+00  0.2540E+00
     -5.500  0.0000E+00  0.0000E+00  0.2540E+00  0.2540E+00
     -5.458  0.0000E+00  0.0000E+00  0.2540E+00  0.2540E+00
     -5.417  0.0000E+00  0.0000E+00  0.2550E+00  0.2550E+00
     -5.375  0.0000E+00  0.0000E+00  0.2550E+00  0.2550E+00
     -5.334  0.0000E+00  0.0000E+00  0.2550E+00  0.2550E+00
     -5.293  0.0000E+00  0.0000E+00  0.2550E+00  0.2550E+00
     -5.251  0.0000E+00  0.0000E+00  0.2550E+00  0.2550E+00
     -5.210  0.0000E+00  0.0000E+00  0.2550E+00  0.2550E+00
     -5.168  0.0000E+00  0.0000E+00  0.2560E+00  0.2560E+00
     -5.127  0.0000E+00  0.0000E+00  0.2570E+00  0.2570E+00
     -5.086  0.0000E+00  0.0000E+00  0.2570E+00  0.2570E+00
     -5.044  0.0000E+00  0.0000E+00  0.2570E+00  0.2570E+00
     -5.003  0.0000E+00  0.0000E+00  0.2570E+00  0.2570E+00
     -4.961  0.0000E+00  0.0000E+00  0.2570E+00  0.2570E+00
     -4.920  0.1341E-17  0.0000E+00  0.2570E+00  0.2570E+00
     -4.879  0.0000E+00  0.0000E+00  0.2580E+00  0.2580E+00
     -4.837  0.0000E+00  0.0000E+00  0.2590E+00  0.2590E+00
     -4.796  0.0000E+00  0.0000E+00  0.2590E+00  0.2590E+00
     -4.754  0.0000E+00  0.0000E+00  0.2590E+00  0.2590E+00
     -4.713  0.0000E+00  0.0000E+00  0.2590E+00  0.2590E+00
     -4.672  0.0000E+00  0.0000E+00  0.2610E+00  0.2600E+00
     -4.630  0.0000E+00  0.0000E+00  0.2610E+00  0.2610E+00
     -4.589  0.0000E+00  0.0000E+00  0.2610E+00  0.2610E+00
     -4.547  0.0000E+00  0.0000E+00  0.2610E+00  0.2610E+00
     -4.506  0.0000E+00  0.0000E+00  0.2610E+00  0.2610E+00
     -4.465  0.0000E+00  0.0000E+00  0.2610E+00  0.2610E+00
     -4.423  0.0000E+00  0.0000E+00  0.2620E+00  0.2620E+00
     -4.382  0.0000E+00  0.0000E+00  0.2620E+00  0.2620E+00
     -4.340  0.0000E+00  0.0000E+00  0.2620E+00  0.2620E+00
     -4.299  0.0000E+00  0.0000E+00  0.2620E+00  0.2620E+00
     -4.258  0.0000E+00  0.0000E+00  0.2620E+00  0.2620E+00
     -4.216  0.0000E+00  0.0000E+00  0.2620E+00  0.2620E+00
     -4.175  0.0000E+00  0.0000E+00  0.2620E+00  0.2620E+00
     -4.133  0.0000E+00  0.0000E+00  0.2620E+00  0.2620E+00
     -4.092  0.0000E+00  0.0000E+00  0.2630E+00  0.2620E+00
     -4.051  0.0000E+00  0.0000E+00  0.2630E+00  0.2630E+00
     -4.009  0.0000E+00  0.0000E+00  0.2630E+00  0.2630E+00
     -3.968  0.0000E+00  0.0000E+00  0.2630E+00  0.2630E+00
     -3.926  0.0000E+00  0.0000E+00  0.2640E+00  0.2640E+00
     -3.885  0.0000E+00  0.0000E+00  0.2640E+00  0.2640E+00
     -3.844  0.0000E+00  0.0000E+00  0.2640E+00  0.2640E+00
     -3.802  0.0000E+00  0.0000E+00  0.2640E+00  0.2640E+00
     -3.761  0.0000E+00  0.0000E+00  0.2650E+00  0.2650E+00
     -3.720  0.2416E-01  0.0000E+00  0.2660E+00  0.2650E+00
     -3.678  0.0000E+00  0.0000E+00  0.2660E+00  0.2660E+00
     -3.637  0.0000E+00  0.0000E+00  0.2660E+00  0.2660E+00
     -3.595  0.0000E+00  0.0000E+00  0.2660E+00  0.2660E+00
     -3.554  0.0000E+00  0.0000E+00  0.2670E+00  0.2670E+00
     -3.513  0.0000E+00  0.0000E+00  0.2670E+00  0.2670E+00
     -3.471  0.0000E+00  0.0000E+00  0.2680E+00  0.2680E+00
     -3.430  0.0000E+00  0.0000E+00  0.2680E+00  0.2680E+00
     -3.388  0.0000E+00  0.0000E+00  0.2690E+00  0.2690E+00
     -3.347  0.0000E+00  0.0000E+00  0.2690E+00  0.2690E+00
     -3.306  0.0000E+00  0.0000E+00  0.2700E+00  0.2690E+00
     -3.264  0.0000E+00  0.0000E+00  0.2700E+00  0.2700E+00
     -3.223  0.0000E+00  0.0000E+00  0.2700E+00  0.2700E+00
     -3.181  0.0000E+00  0.0000E+00  0.2700E+00  0.2700E+00
     -3.140  0.0000E+00  0.0000E+00  0.2700E+00  0.2700E+00
     -3.099  0.0000E+00  0.0000E+00  0.2700E+00  0.2700E+00
     -3.057  0.0000E+00  0.0000E+00  0.2710E+00  0.2710E+00
     -3.016  0.0000E+00  0.0000E+00  0.2710E+00  0.2710E+00
     -2.974  0.2416E-01  0.0000E+00  0.2720E+00  0.2710E+00
     -2.933  0.0000E+00  0.0000E+00  0.2730E+00  0.2730E+00
     -2.892  0.0000E+00  0.0000E+00  0.2730E+00  0.2730E+00
     -2.850  0.0000E+00  0.0000E+00  0.2730E+00  0.2730E+00
     -2.809  0.0000E+00  0.0000E+00  0.2730E+00  0.2730E+00
     -2.767  0.0000E+00  0.0000E+00  0.2740E+00  0.2740E+00
     -2.726  0.0000E+00  0.0000E+00  0.2740E+00  0.2740E+00
     -2.685  0.0000E+00  0.0000E+00  0.2740E+00  0.2740E+00
     -2.643  0.0000E+00  0.0000E+00  0.2740E+00  0.2740E+00
     -2.602  0.0000E+00  0.0000E+00  0.2740E+00  0.2740E+00
     -2.560  0.0000E+00  0.0000E+00  0.2750E+00  0.2740E+00
     -2.519  0.0000E+00  0.0000E+00  0.2750E+00  0.2750E+00
     -2.478  0.0000E+00  0.0000E+00  0.2750E+00  0.2750E+00
     -2.436  0.0000E+00  0.0000E+00  0.2750E+00  0.2750E+00
     -2.395  0.0000E+00  0.0000E+00  0.2750E+00  0.2750E+00
     -2.353  0.0000E+00  0.0000E+00  0.2750E+00  0.2750E+00
     -2.312  0.0000E+00  0.0000E+00  0.2760E+00  0.2760E+00
     -2.271  0.0000E+00  0.0000E+00  0.2770E+00  0.2770E+00
     -2.229  0.0000E+00  0.0000E+00  0.2780E+00  0.2780E+00
     -2.188  0.0000E+00  0.0000E+00  0.2790E+00  0.2790E+00
     -2.146  0.0000E+00  0.0000E+00  0.2790E+00  0.2790E+00
     -2.105  0.0000E+00  0.0000E+00  0.2790E+00  0.2790E+00
     -2.064  0.0000E+00  0.0000E+00  0.2800E+00  0.2790E+00
     -2.022  0.0000E+00  0.0000E+00  0.2810E+00  0.2800E+00
     -1.981  0.0000E+00  0.0000E+00  0.2810E+00  0.2810E+00
     -1.939  0.0000E+00  0.0000E+00  0.2820E+00  0.2810E+00
     -1.898  0.0000E+00  0.0000E+00  0.2820E+00  0.2820E+00
     -1.857  0.0000E+00  0.0000E+00  0.2830E+00  0.2830E+00
     -1.815  0.0000E+00  0.0000E+00  0.2840E+00  0.2830E+00
     -1.774  0.0000E+00  0.0000E+00  0.2840E+00  0.2840E+00
     -1.732  0.0000E+00  0.0000E+00  0.2840E+00  0.2840E+00
     -1.691  0.0000E+00  0.0000E+00  0.2850E+00  0.2840E+00
     -1.650  0.0000E+00  0.0000E+00  0.2850E+00  0.2850E+00
     -1.608  0.0000E+00  0.0000E+00  0.2850E+00  0.2850E+00
     -1.567  0.0000E+00  0.0000E+00  0.2860E+00  0.2860E+00
     -1.526  0.0000E+00  0.0000E+00  0.2860E+00  0.2860E+00
     -1.484  0.0000E+00  0.2416E-01  0.2870E+00  0.2870E+00
     -1.443  0.0000E+00  0.0000E+00  0.2870E+00  0.2870E+00
     -1.401  0.0000E+00  0.0000E+00  0.2870E+00  0.2870E+00
     -1.360  0.0000E+00  0.0000E+00  0.2880E+00  0.2880E+00
     -1.319  0.0000E+00  0.0000E+00  0.2880E+00  0.2880E+00
     -1.277  0.0000E+00  0.0000E+00  0.2890E+00  0.2880E+00
     -1.236  0.0000E+00  0.0000E+00  0.2900E+00  0.2890E+00
     -1.194  0.0000E+00  0.0000E+00  0.2900E+00  0.2900E+00
     -1.153  0.0000E+00  0.0000E+00  0.2910E+00  0.2900E+00
     -1.112  0.0000E+00  0.0000E+00  0.2910E+00  0.2910E+00
     -1.070  0.0000E+00  0.0000E+00  0.2920E+00  0.2910E+00
     -1.029  0.0000E+00  0.0000E+00  0.2920E+00  0.2920E+00
     -0.987  0.0000E+00  0.0000E+00  0.2920E+00  0.2920E+00
     -0.946  0.0000E+00  0.0000E+00  0.2930E+00  0.2930E+00
     -0.905  0.0000E+00  0.0000E+00  0.2940E+00  0.2940E+00
     -0.863  0.0000E+00  0.0000E+00  0.2940E+00  0.2940E+00
     -0.822  0.0000E+00  0.0000E+00  0.2940E+00  0.2940E+00
     -0.780  0.0000E+00  0.0000E+00  0.2950E+00  0.2950E+00
     -0.739  0.0000E+00  0.0000E+00  0.2960E+00  0.2950E+00
     -0.698  0.0000E+00  0.0000E+00  0.2960E+00  0.2960E+00
     -0.656  0.0000E+00  0.0000E+00  0.2970E+00  0.2970E+00
     -0.615  0.0000E+00  0.0000E+00  0.2970E+00  0.2970E+00
     -0.573  0.0000E+00  0.0000E+00  0.2970E+00  0.2970E+00
     -0.532  0.0000E+00  0.0000E+00  0.2990E+00  0.2980E+00
     -0.491  0.0000E+00  0.0000E+00  0.2990E+00  0.2990E+00
     -0.449  0.0000E+00  0.0000E+00  0.3000E+00  0.3000E+00
     -0.408  0.0000E+00  0.0000E+00  0.3000E+00  0.3000E+00
     -0.366  0.0000E+00  0.0000E+00  0.3000E+00  0.3000E+00
     -0.325  0.0000E+00  0.0000E+00  0.3010E+00  0.3010E+00
     -0.284  0.0000E+00  0.0000E+00  0.3020E+00  0.3010E+00
     -0.242  0.0000E+00  0.0000E+00  0.3020E+00  0.3020E+00
     -0.201  0.0000E+00  0.0000E+00  0.3020E+00  0.3020E+00
     -0.159  0.0000E+00  0.0000E+00  0.3020E+00  0.3020E+00
     -0.118  0.0000E+00  0.0000E+00  0.3030E+00  0.3020E+00
     -0.077  0.0000E+00  0.0000E+00  0.3040E+00  0.3030E+00
     -0.035  0.0000E+00  0.0000E+00  0.3040E+00  0.3040E+00
      0.006  0.0000E+00  0.0000E+00  0.3050E+00  0.3040E+00
      0.048  0.0000E+00  0.0000E+00  0.3050E+00  0.3050E+00
      0.089  0.0000E+00  0.0000E+00  0.3060E+00  0.3060E+00
      0.130  0.0000E+00  0.0000E+00  0.3060E+00  0.3060E+00
      0.172  0.0000E+00  0.0000E+00  0.3060E+00  0.3060E+00
      0.213  0.0000E+00  0.0000E+00  0.3070E+00  0.3060E+00
      0.255  0.0000E+00  0.0000E+00  0.3070E+00  0.3070E+00
      0.296  0.0000E+00  0.0000E+00  0.3090E+00  0.3080E+00
      0.337  0.0000E+00  0.0000E+00  0.3090E+00  0.3090E+00
      0.379  0.0000E+00  0.0000E+00  0.3090E+00  0.3090E+00
      0.420  0.0000E+00  0.0000E+00  0.3100E+00  0.3090E+00
      0.462  0.0000E+00  0.0000E+00  0.3110E+00  0.3100E+00
      0.503  0.0000E+00  0.0000E+00  0.3120E+00  0.3120E+00
      0.544  0.0000E+00  0.0000E+00  0.3120E+00  0.3120E+00
      0.586  0.0000E+00  0.0000E+00  0.3130E+00  0.3130E+00
      0.627  0.0000E+00  0.0000E+00  0.3130E+00  0.3130E+00
      0.668  0.0000E+00  0.0000E+00  0.3140E+00  0.3140E+00
      0.710  0.0000E+00  0.0000E+00  0.3150E+00  0.3140E+00
      0.751  0.0000E+00  0.0000E+00  0.3160E+00  0.3160E+00
      0.793  0.0000E+00  0.0000E+00  0.3170E+00  0.3160E+00
      0.834  0.0000E+00  0.0000E+00  0.3180E+00  0.3180E+00
      0.875  0.0000E+00  0.0000E+00  0.3190E+00  0.3180E+00
      0.917  0.0000E+00  0.0000E+00  0.3200E+00  0.3190E+00
      0.958  0.0000E+00  0.0000E+00  0.3220E+00  0.3210E+00
      1.000  0.0000E+00  0.0000E+00  0.3220E+00  0.3220E+00
      1.041  0.0000E+00  0.2416E-01  0.3230E+00  0.3230E+00
      1.082  0.0000E+00  0.0000E+00  0.3260E+00  0.3250E+00
      1.124  0.0000E+00  0.0000E+00  0.3280E+00  0.3270E+00
      1.165  0.0000E+00  0.0000E+00  0.3300E+00  0.3290E+00
      1.207  0.0000E+00  0.0000E+00  0.3310E+00  0.3300E+00
      1.248  0.0000E+00  0.0000E+00  0.3330E+00  0.3330E+00
      1.289  0.0000E+00  0.0000E+00  0.3350E+00  0.3350E+00
      1.331  0.0000E+00  0.0000E+00  0.3370E+00  0.3370E+00
      1.372  0.0000E+00  0.0000E+00  0.3380E+00  0.3380E+00
      1.414  0.0000E+00  0.0000E+00  0.3390E+00  0.3380E+00
      1.455  0.0000E+00  0.0000E+00  0.3410E+00  0.3390E+00
      1.496  0.0000E+00  0.0000E+00  0.3420E+00  0.3420E+00
      1.538  0.0000E+00  0.0000E+00  0.3450E+00  0.3450E+00
      1.579  0.0000E+00  0.0000E+00  0.3470E+00  0.3460E+00
      1.621  0.0000E+00  0.0000E+00  0.3480E+00  0.3480E+00
      1.662  0.0000E+00  0.0000E+00  0.3480E+00  0.3480E+00
      1.703  0.0000E+00  0.0000E+00  0.3480E+00  0.3480E+00
      1.745  0.0000E+00  0.0000E+00  0.3480E+00  0.3480E+00
      1.786  0.0000E+00  0.0000E+00  0.3480E+00  0.3480E+00
      1.828  0.0000E+00  0.0000E+00  0.3480E+00  0.3480E+00
      1.869  0.0000E+00  0.0000E+00  0.3480E+00  0.3480E+00
      1.910  0.0000E+00  0.0000E+00  0.3480E+00  0.3480E+00
      1.952  0.0000E+00  0.0000E+00  0.3480E+00  0.3480E+00
      1.993  0.0000E+00  0.0000E+00  0.3480E+00  0.3480E+00
      2.035  0.0000E+00  0.0000E+00  0.3480E+00  0.3480E+00
      2.076  0.0000E+00  0.0000E+00  0.3480E+00  0.3480E+00
      2.117  0.0000E+00  0.0000E+00  0.3480E+00  0.3480E+00
      2.159  0.0000E+00  0.0000E+00  0.3480E+00  0.3480E+00
