unknown system                          
           1
    23.677169    0.000000    0.000000
     0.000000   23.677169    0.000000
     0.000000    0.000000   23.677169
   Ag
  40
Direct configuration=     1
   0.67018107  0.48703350  0.59284759
   0.61419830  0.39712199  0.64387332
   0.71515254  0.56809964  0.52400873
   0.56668858  0.51245282  0.64448436
   0.62080602  0.59966201  0.58799375
   0.62117021  0.40540806  0.52450891
   0.72001686  0.45447053  0.48258149
   0.50335859  0.41586171  0.66932397
   0.53257504  0.34563364  0.56975194
   0.50751852  0.46238028  0.55678278
   0.59456747  0.51910165  0.50349526
   0.45150133  0.52058832  0.66528161
   0.74029027  0.64401126  0.44004786
   0.53307665  0.38618531  0.45737174
   0.50493889  0.59953116  0.60189790
   0.68677572  0.69146132  0.53712462
   0.39082760  0.42658969  0.70322082
   0.62515556  0.44455850  0.40918452
   0.69265543  0.54174323  0.40852103
   0.41645728  0.37875697  0.59873942
   0.62202763  0.62613120  0.46141458
   0.44060521  0.32229806  0.50039983
   0.55660899  0.68588749  0.54172966
   0.53151052  0.43757750  0.34533859
   0.38463685  0.60736231  0.62554577
   0.48863121  0.49399574  0.44406774
   0.35637394  0.48420178  0.60549584
   0.42380411  0.54763174  0.52982623
   0.57758820  0.54884423  0.38142170
   0.40046079  0.43694504  0.49935820
   0.50986194  0.60891056  0.45631343
   0.44175046  0.66855976  0.53103169
   0.43504654  0.38302128  0.39756342
   0.42786411  0.44455233  0.29320537
   0.27743124  0.56594888  0.58304101
   0.33448773  0.63709524  0.51283341
   0.46729883  0.55060238  0.34253792
   0.31452550  0.52215753  0.48074293
   0.39759589  0.59896598  0.42416394
   0.37730144  0.48631418  0.39072307
Direct configuration=     2
   0.67023098  0.48703664  0.59292172
   0.61419160  0.39714813  0.64384313
   0.71515156  0.56817377  0.52395081
   0.56688758  0.51237536  0.64459266
   0.62095016  0.59974058  0.58801121
   0.62137275  0.40533253  0.52458447
   0.71996489  0.45451579  0.48263853
   0.50334179  0.41573012  0.66938815
   0.53249192  0.34559921  0.56992900
   0.50739069  0.46235664  0.55684634
   0.59458806  0.51914663  0.50338833
   0.45144315  0.52053838  0.66535565
   0.74027297  0.64405050  0.44001476
   0.53301754  0.38601310  0.45731897
   0.50488514  0.59961030  0.60189473
   0.68663455  0.69129351  0.53712192
   0.39082846  0.42662166  0.70323317
   0.62525235  0.44452453  0.40926505
   0.69265410  0.54179316  0.40854347
   0.41649347  0.37879842  0.59882701
   0.62227652  0.62624084  0.46140447
   0.44062060  0.32234142  0.50028763
   0.55676094  0.68591791  0.54164047
   0.53140891  0.43768272  0.34528962
   0.38459325  0.60740120  0.62547626
   0.48863362  0.49402996  0.44395685
   0.35633737  0.48410891  0.60544259
   0.42378350  0.54770875  0.52986328
   0.57761736  0.54880465  0.38138010
   0.40031880  0.43682157  0.49932215
   0.50979673  0.60900858  0.45632210
   0.44173714  0.66857731  0.53102384
   0.43498090  0.38302086  0.39745266
   0.42785059  0.44460488  0.29322924
   0.27740516  0.56592290  0.58307629
   0.33439538  0.63708179  0.51287573
   0.46728901  0.55054717  0.34246338
   0.31457589  0.52215395  0.48082494
   0.39758986  0.59898338  0.42413414
   0.37730784  0.48629714  0.39066113
Direct configuration=     3
   0.67038069  0.48704605  0.59314411
   0.61417150  0.39722655  0.64375255
   0.71514864  0.56839615  0.52377706
   0.56748458  0.51214297  0.64491754
   0.62138256  0.59997630  0.58806361
   0.62198035  0.40510594  0.52481115
   0.71980898  0.45465156  0.48280964
   0.50329140  0.41533532  0.66958069
   0.53224257  0.34549593  0.57046016
   0.50700721  0.46228569  0.55703704
   0.59464982  0.51928159  0.50306754
   0.45126863  0.52038855  0.66557776
   0.74022107  0.64416824  0.43991543
   0.53284020  0.38549645  0.45716068
   0.50472389  0.59984773  0.60188520
   0.68621106  0.69079006  0.53711383
   0.39083105  0.42671755  0.70327021
   0.62554273  0.44442261  0.40950664
   0.69265011  0.54194297  0.40861080
   0.41660205  0.37892278  0.59908977
   0.62302318  0.62656976  0.46137416
   0.44066677  0.32247152  0.49995101
   0.55721676  0.68600916  0.54137290
   0.53110408  0.43799835  0.34514272
   0.38446243  0.60751789  0.62526775
   0.48864084  0.49413262  0.44362417
   0.35622765  0.48383029  0.60528285
   0.42372167  0.54793976  0.52997444
   0.57770487  0.54868592  0.38125532
   0.39989283  0.43645113  0.49921399
   0.50960111  0.60930263  0.45634810
   0.44169716  0.66862993  0.53100030
   0.43478395  0.38301959  0.39712039
   0.42781004  0.44476256  0.29330082
   0.27732691  0.56584494  0.58318213
   0.33411832  0.63704145  0.51300267
   0.46725953  0.55038157  0.34223977
   0.31472708  0.52214322  0.48107096
   0.39757175  0.59903557  0.42404473
   0.37732704  0.48624600  0.39047534
Direct configuration=     4
   0.67068011  0.48706488  0.59358889
   0.61413130  0.39738339  0.64357141
   0.71514280  0.56884092  0.52342955
   0.56867859  0.51167819  0.64556731
   0.62224738  0.60044772  0.58816839
   0.62319557  0.40465276  0.52526452
   0.71949714  0.45492311  0.48315186
   0.50319061  0.41454574  0.66996577
   0.53174386  0.34528936  0.57152250
   0.50624025  0.46214380  0.55741843
   0.59477334  0.51955149  0.50242596
   0.45091958  0.52008888  0.66602198
   0.74011725  0.64440371  0.43971679
   0.53248552  0.38446316  0.45684411
   0.50440138  0.60032259  0.60186614
   0.68536408  0.68978316  0.53709765
   0.39083622  0.42690932  0.70334430
   0.62612348  0.44421878  0.40998984
   0.69264214  0.54224257  0.40874546
   0.41681921  0.37917149  0.59961529
   0.62451650  0.62722759  0.46131354
   0.44075911  0.32273172  0.49927776
   0.55812841  0.68619167  0.54083775
   0.53049441  0.43862962  0.34484892
   0.38420080  0.60775127  0.62485072
   0.48865529  0.49433795  0.44295882
   0.35600822  0.48327305  0.60496337
   0.42359801  0.54840178  0.53019674
   0.57787988  0.54844845  0.38100574
   0.39904089  0.43571027  0.49899767
   0.50920986  0.60989073  0.45640010
   0.44161720  0.66873518  0.53095322
   0.43439005  0.38301705  0.39645585
   0.42772894  0.44507791  0.29344399
   0.27717042  0.56568904  0.58339383
   0.33356421  0.63696076  0.51325656
   0.46720059  0.55005036  0.34179254
   0.31502945  0.52212176  0.48156301
   0.39753554  0.59913994  0.42386591
   0.37736544  0.48614374  0.39010376
Direct configuration=     5
   0.67127896  0.48710253  0.59447844
   0.61405090  0.39769706  0.64320912
   0.71513112  0.56973045  0.52273453
   0.57106661  0.51074862  0.64686684
   0.62397702  0.60139057  0.58837797
   0.62562600  0.40374639  0.52617126
   0.71887348  0.45546620  0.48383630
   0.50298903  0.41296656  0.67073593
   0.53074645  0.34487622  0.57364718
   0.50470633  0.46186002  0.55818121
   0.59502037  0.52009131  0.50114280
   0.45022149  0.51948956  0.66691041
   0.73990963  0.64487466  0.43931950
   0.53177616  0.38239658  0.45621095
   0.50375638  0.60127231  0.60182801
   0.68367012  0.68776937  0.53706529
   0.39084657  0.42729288  0.70349249
   0.62728500  0.44381113  0.41095622
   0.69262620  0.54284178  0.40901477
   0.41725353  0.37966892  0.60066633
   0.62750315  0.62854326  0.46119230
   0.44094379  0.32325213  0.49793128
   0.55995170  0.68655669  0.53976746
   0.52927508  0.43989215  0.34426132
   0.38367754  0.60821802  0.62401665
   0.48868420  0.49474860  0.44162812
   0.35556936  0.48215858  0.60432441
   0.42335068  0.54932581  0.53064136
   0.57822991  0.54797352  0.38050660
   0.39733700  0.43422853  0.49856502
   0.50842736  0.61106693  0.45650410
   0.44145730  0.66894568  0.53085906
   0.43360226  0.38301197  0.39512677
   0.42756673  0.44570860  0.29373033
   0.27685742  0.56537722  0.58381721
   0.33245599  0.63679938  0.51376435
   0.46708269  0.54938795  0.34089808
   0.31563418  0.52207883  0.48254709
   0.39746312  0.59934868  0.42350828
   0.37744225  0.48593920  0.38936059
Direct configuration=     6
   0.67102017  0.48708626  0.59409402
   0.61408565  0.39756151  0.64336569
   0.71513617  0.56934604  0.52303488
   0.57003463  0.51115033  0.64630525
   0.62322956  0.60098312  0.58828740
   0.62457569  0.40413808  0.52577941
   0.71914300  0.45523150  0.48354052
   0.50307614  0.41364900  0.67040311
   0.53117748  0.34505476  0.57272901
   0.50536921  0.46198266  0.55785157
   0.59491362  0.51985803  0.50169731
   0.45052317  0.51974856  0.66652648
   0.73999936  0.64467114  0.43949119
   0.53208271  0.38328965  0.45648457
   0.50403512  0.60086189  0.60184449
   0.68440217  0.68863963  0.53707927
   0.39084209  0.42712713  0.70342845
   0.62678305  0.44398729  0.41053860
   0.69263309  0.54258283  0.40889839
   0.41706584  0.37945395  0.60021212
   0.62621247  0.62797469  0.46124470
   0.44086398  0.32302723  0.49851316
   0.55916377  0.68639895  0.54022999
   0.52980201  0.43934655  0.34451525
   0.38390366  0.60801631  0.62437709
   0.48867171  0.49457114  0.44220318
   0.35575901  0.48264020  0.60460053
   0.42345756  0.54892649  0.53044922
   0.57807865  0.54817876  0.38072230
   0.39807334  0.43486886  0.49875199
   0.50876552  0.61055863  0.45645916
   0.44152640  0.66885471  0.53089975
   0.43394271  0.38301416  0.39570113
   0.42763683  0.44543605  0.29360659
   0.27699268  0.56551197  0.58363424
   0.33293491  0.63686912  0.51354491
   0.46713364  0.54967421  0.34128462
   0.31537285  0.52209738  0.48212182
   0.39749441  0.59925847  0.42366283
   0.37740906  0.48602759  0.38968175
Direct configuration=     7
   0.67142124  0.48733841  0.59417014
   0.61406319  0.39756918  0.64334800
   0.71530592  0.56936748  0.52298117
   0.57022727  0.51115784  0.64653368
   0.62335144  0.60088488  0.58865415
   0.62458822  0.40357208  0.52587202
   0.71917074  0.45560408  0.48384873
   0.50318668  0.41327947  0.67086005
   0.53098589  0.34505674  0.57318840
   0.50500555  0.46209124  0.55795070
   0.59485549  0.51992391  0.50149001
   0.45063364  0.51976249  0.66654705
   0.74029742  0.64506627  0.43912749
   0.53240200  0.38294339  0.45656984
   0.50430854  0.60076969  0.60209067
   0.68420118  0.68849552  0.53742158
   0.39068688  0.42722550  0.70366188
   0.62666756  0.44368394  0.41071836
   0.69264412  0.54267265  0.40886407
   0.41714109  0.37947707  0.60023448
   0.62620255  0.62798760  0.46064219
   0.44085812  0.32320338  0.49827779
   0.55957783  0.68642278  0.53983878
   0.52992137  0.43975038  0.34455865
   0.38371018  0.60812043  0.62421271
   0.48858857  0.49452293  0.44229915
   0.35558670  0.48228557  0.60429938
   0.42345078  0.54887888  0.53038148
   0.57815830  0.54817734  0.38070314
   0.39760316  0.43459953  0.49853997
   0.50922004  0.61082544  0.45639578
   0.44141306  0.66912388  0.53086000
   0.43365778  0.38296786  0.39527985
   0.42738157  0.44562282  0.29331589
   0.27679625  0.56531932  0.58391645
   0.33269313  0.63687899  0.51362341
   0.46710613  0.54963994  0.34087819
   0.31568412  0.52197592  0.48237651
   0.39734657  0.59927775  0.42356181
   0.37722281  0.48613231  0.38970236
Direct configuration=     8
   0.67262445  0.48809486  0.59439848
   0.61399582  0.39759221  0.64329495
   0.71581517  0.56943180  0.52282003
   0.57080520  0.51118038  0.64721896
   0.62371710  0.60059016  0.58975441
   0.62462582  0.40187408  0.52614982
   0.71925397  0.45672182  0.48477334
   0.50351830  0.41217087  0.67223088
   0.53041110  0.34506270  0.57456658
   0.50391456  0.46241697  0.55824808
   0.59468112  0.52012154  0.50086810
   0.45096506  0.51980429  0.66660878
   0.74119161  0.64625164  0.43803641
   0.53335985  0.38190460  0.45682565
   0.50512881  0.60049309  0.60282921
   0.68359823  0.68806319  0.53844849
   0.39022122  0.42752063  0.70436215
   0.62632109  0.44277388  0.41125764
   0.69267718  0.54294209  0.40876110
   0.41736684  0.37954642  0.60030156
   0.62617279  0.62802632  0.45883468
   0.44084055  0.32373183  0.49757167
   0.56082003  0.68649426  0.53866517
   0.53027943  0.44096185  0.34468883
   0.38312973  0.60843278  0.62371956
   0.48833914  0.49437832  0.44258703
   0.35506975  0.48122168  0.60339592
   0.42343045  0.54873604  0.53017827
   0.57839726  0.54817310  0.38064565
   0.39619263  0.43379152  0.49790392
   0.51058361  0.61162584  0.45620565
   0.44107305  0.66993138  0.53074075
   0.43280299  0.38282894  0.39401602
   0.42661579  0.44618313  0.29244381
   0.27620695  0.56474137  0.58476305
   0.33196780  0.63690861  0.51385892
   0.46702359  0.54953713  0.33965889
   0.31661793  0.52161152  0.48314060
   0.39690302  0.59933556  0.42325873
   0.37666408  0.48644646  0.38976418
Direct configuration=     9
   0.67298359  0.48832065  0.59446664
   0.61397571  0.39759908  0.64327912
   0.71596717  0.56945100  0.52277193
   0.57097770  0.51118710  0.64742351
   0.62382625  0.60050219  0.59008282
   0.62463704  0.40136725  0.52623275
   0.71927882  0.45705546  0.48504933
   0.50361729  0.41183997  0.67264006
   0.53023953  0.34506447  0.57497795
   0.50358892  0.46251420  0.55833685
   0.59462907  0.52018053  0.50068246
   0.45106398  0.51981677  0.66662721
   0.74145851  0.64660546  0.43771073
   0.53364576  0.38159453  0.45690200
   0.50537365  0.60041053  0.60304965
   0.68341826  0.68793414  0.53875502
   0.39008223  0.42760872  0.70457117
   0.62621767  0.44250224  0.41141861
   0.69268705  0.54302251  0.40873037
   0.41743422  0.37956712  0.60032158
   0.62616391  0.62803787  0.45829516
   0.44083530  0.32388957  0.49736091
   0.56119081  0.68651560  0.53831486
   0.53038631  0.44132346  0.34472769
   0.38295647  0.60852601  0.62357236
   0.48826469  0.49433516  0.44267296
   0.35491545  0.48090412  0.60312625
   0.42342438  0.54869340  0.53011761
   0.57846859  0.54817183  0.38062849
   0.39577161  0.43355034  0.49771407
   0.51099062  0.61186475  0.45614890
   0.44097156  0.67017240  0.53070516
   0.43254785  0.38278748  0.39363878
   0.42638721  0.44635038  0.29218350
   0.27603105  0.56456885  0.58501575
   0.33175129  0.63691745  0.51392922
   0.46699896  0.54950644  0.33929494
   0.31689666  0.52150275  0.48336867
   0.39677062  0.59935282  0.42316827
   0.37649731  0.48654022  0.38978264
Direct configuration=    10
   0.67302719  0.48825315  0.59435787
   0.61415090  0.39777728  0.64328967
   0.71621558  0.57007564  0.52247946
   0.57076327  0.51102820  0.64745539
   0.62373399  0.60010171  0.59047412
   0.62461402  0.40110906  0.52637808
   0.71909023  0.45736759  0.48546688
   0.50353914  0.41181856  0.67328942
   0.53010974  0.34511351  0.57510274
   0.50346528  0.46272232  0.55855404
   0.59455766  0.51994815  0.50099591
   0.45111170  0.51966708  0.66632871
   0.74150015  0.64684757  0.43758424
   0.53363471  0.38151074  0.45683920
   0.50557146  0.60047295  0.60291370
   0.68348323  0.68777402  0.53887429
   0.38996342  0.42782048  0.70456074
   0.62613696  0.44229495  0.41169923
   0.69283781  0.54299392  0.40863594
   0.41744378  0.37963061  0.60027434
   0.62654477  0.62820325  0.45760850
   0.44087718  0.32411953  0.49730801
   0.56120173  0.68621402  0.53806208
   0.53030286  0.44165964  0.34477461
   0.38301131  0.60836965  0.62339554
   0.48803680  0.49428324  0.44296088
   0.35487535  0.48059439  0.60296736
   0.42374334  0.54881457  0.53002126
   0.57831023  0.54809445  0.38050480
   0.39554755  0.43326072  0.49742851
   0.51090778  0.61186054  0.45609831
   0.44123401  0.67003506  0.53066876
   0.43271657  0.38292848  0.39344422
   0.42620049  0.44660052  0.29188464
   0.27587732  0.56432006  0.58528433
   0.33165044  0.63684669  0.51399098
   0.46697558  0.54951297  0.33914092
   0.31692961  0.52148734  0.48379495
   0.39700045  0.59939649  0.42324057
   0.37642944  0.48672578  0.38966276
Direct configuration=    11
   0.67315797  0.48805064  0.59403155
   0.61467645  0.39831186  0.64332134
   0.71696079  0.57194954  0.52160203
   0.57011998  0.51055150  0.64755105
   0.62345720  0.59890030  0.59164800
   0.62454496  0.40033447  0.52681406
   0.71852447  0.45830397  0.48671953
   0.50330471  0.41175432  0.67523749
   0.52972039  0.34526060  0.57547712
   0.50309435  0.46334668  0.55920562
   0.59434345  0.51925099  0.50193624
   0.45125487  0.51921799  0.66543323
   0.74162507  0.64757390  0.43720477
   0.53360156  0.38125936  0.45665081
   0.50616492  0.60066022  0.60250585
   0.68367813  0.68729366  0.53923210
   0.38960701  0.42845574  0.70452944
   0.62589481  0.44167310  0.41254107
   0.69329008  0.54290814  0.40835266
   0.41747247  0.37982107  0.60013261
   0.62768738  0.62869936  0.45554851
   0.44100284  0.32480944  0.49714934
   0.56123450  0.68530928  0.53730375
   0.53005253  0.44266816  0.34491536
   0.38317585  0.60790056  0.62286511
   0.48735312  0.49412747  0.44382462
   0.35475505  0.47966520  0.60249069
   0.42470020  0.54917809  0.52973219
   0.57783516  0.54786231  0.38013371
   0.39487537  0.43239186  0.49657184
   0.51065925  0.61184788  0.45594652
   0.44202137  0.66962303  0.53055956
   0.43322274  0.38335150  0.39286055
   0.42564034  0.44735095  0.29098806
   0.27541616  0.56357366  0.58609005
   0.33134786  0.63663440  0.51417627
   0.46690545  0.54953255  0.33867885
   0.31702847  0.52144110  0.48507381
   0.39768994  0.59952753  0.42345748
   0.37622585  0.48728244  0.38930312
Direct configuration=    12
   0.67305592  0.48827450  0.59370643
   0.61447370  0.39853225  0.64361902
   0.71689788  0.57261950  0.52171112
   0.56985499  0.51004798  0.64762993
   0.62384251  0.59859313  0.59173991
   0.62445485  0.40003257  0.52692325
   0.71804855  0.45884930  0.48733205
   0.50337638  0.41165226  0.67589686
   0.52966882  0.34564533  0.57569053
   0.50297471  0.46329199  0.55976627
   0.59433357  0.51930725  0.50235603
   0.45114574  0.51908566  0.66465604
   0.74188280  0.64814930  0.43673375
   0.53350256  0.38138872  0.45655348
   0.50614760  0.60058898  0.60236941
   0.68349819  0.68680944  0.53927444
   0.38925061  0.42873537  0.70431440
   0.62585279  0.44180039  0.41298610
   0.69340665  0.54258342  0.40805574
   0.41762957  0.37999110  0.60029197
   0.62759177  0.62887230  0.45475742
   0.44108050  0.32481857  0.49718015
   0.56166340  0.68442647  0.53685570
   0.52966010  0.44303952  0.34491573
   0.38338717  0.60736355  0.62259450
   0.48716199  0.49407465  0.44389442
   0.35470005  0.47951959  0.60206050
   0.42498853  0.54919025  0.52973692
   0.57782721  0.54767180  0.38038041
   0.39456385  0.43238568  0.49629272
   0.51121227  0.61144978  0.45552604
   0.44200459  0.66936488  0.53049625
   0.43372583  0.38387687  0.39246410
   0.42550615  0.44779418  0.29071729
   0.27534737  0.56328834  0.58660442
   0.33154670  0.63636969  0.51439787
   0.46679452  0.54958094  0.33881204
   0.31719893  0.52130173  0.48561940
   0.39793422  0.59964986  0.42367118
   0.37612951  0.48763773  0.38921219
Direct configuration=    13
   0.67297337  0.48845558  0.59344345
   0.61430970  0.39871052  0.64385980
   0.71684699  0.57316142  0.52179936
   0.56964065  0.50964069  0.64769373
   0.62415419  0.59834466  0.59181425
   0.62438195  0.39978836  0.52701157
   0.71766359  0.45929042  0.48782751
   0.50343434  0.41156971  0.67643022
   0.52962711  0.34595653  0.57586316
   0.50287794  0.46324774  0.56021978
   0.59432558  0.51935275  0.50269559
   0.45105746  0.51897862  0.66402738
   0.74209127  0.64861473  0.43635275
   0.53342248  0.38149336  0.45647474
   0.50613359  0.60053136  0.60225905
   0.68335264  0.68641776  0.53930868
   0.38896232  0.42896157  0.70414046
   0.62581880  0.44190335  0.41334608
   0.69350094  0.54232076  0.40781557
   0.41775664  0.38012864  0.60042088
   0.62751443  0.62901219  0.45411751
   0.44114332  0.32482595  0.49720506
   0.56201033  0.68371237  0.53649328
   0.52934267  0.44333992  0.34491603
   0.38355811  0.60692917  0.62237560
   0.48700739  0.49403192  0.44395088
   0.35465556  0.47940180  0.60171252
   0.42522176  0.54920009  0.52974074
   0.57782078  0.54751770  0.38057996
   0.39431186  0.43238069  0.49606693
   0.51165961  0.61112777  0.45518591
   0.44199101  0.66915607  0.53044504
   0.43413278  0.38430184  0.39214342
   0.42539761  0.44815271  0.29049827
   0.27529173  0.56305755  0.58702049
   0.33170755  0.63615558  0.51457712
   0.46670479  0.54962008  0.33891977
   0.31733682  0.52118899  0.48606072
   0.39813181  0.59974882  0.42384404
   0.37605158  0.48792512  0.38913864
Direct configuration=    14
   0.67264097  0.48861509  0.59372616
   0.61411652  0.39869520  0.64413180
   0.71668949  0.57311821  0.52164035
   0.56988352  0.50978538  0.64775797
   0.62422920  0.59835503  0.59198524
   0.62431808  0.39971776  0.52708433
   0.71751957  0.45952712  0.48789107
   0.50326391  0.41139541  0.67658484
   0.52969809  0.34621078  0.57601171
   0.50280413  0.46295582  0.56025703
   0.59417481  0.51975021  0.50277738
   0.45086199  0.51863050  0.66362399
   0.74197380  0.64865668  0.43603633
   0.53337822  0.38176680  0.45661359
   0.50638022  0.60033782  0.60230872
   0.68319783  0.68631032  0.53903150
   0.38859831  0.42906874  0.70389825
   0.62564638  0.44225360  0.41341017
   0.69363226  0.54250002  0.40782577
   0.41788195  0.38025642  0.60053275
   0.62775765  0.62895349  0.45360828
   0.44118609  0.32476747  0.49724826
   0.56217698  0.68308876  0.53633897
   0.52940789  0.44341122  0.34478544
   0.38348678  0.60664340  0.62246450
   0.48710236  0.49389557  0.44393592
   0.35454513  0.47948431  0.60137120
   0.42533565  0.54881548  0.52966375
   0.57816878  0.54718474  0.38073808
   0.39444950  0.43237067  0.49611884
   0.51181096  0.61088489  0.45493763
   0.44210246  0.66902762  0.53011848
   0.43434010  0.38468753  0.39203426
   0.42535110  0.44844719  0.29039938
   0.27528782  0.56317757  0.58738099
   0.33181079  0.63583694  0.51483059
   0.46666675  0.54988973  0.33926067
   0.31739626  0.52109281  0.48613478
   0.39816813  0.59994430  0.42408351
   0.37588263  0.48814424  0.38921347
Direct configuration=    15
   0.67211758  0.48886626  0.59417131
   0.61381236  0.39867108  0.64456009
   0.71644149  0.57305017  0.52138999
   0.57026595  0.51001320  0.64785913
   0.62434730  0.59837134  0.59225448
   0.62421752  0.39960661  0.52719889
   0.71729281  0.45989981  0.48799113
   0.50299555  0.41112097  0.67682829
   0.52980986  0.34661113  0.57624560
   0.50268792  0.46249617  0.56031568
   0.59393740  0.52037605  0.50290618
   0.45055419  0.51808236  0.66298883
   0.74178885  0.64872272  0.43553811
   0.53330852  0.38219734  0.45683220
   0.50676857  0.60003309  0.60238694
   0.68295407  0.68614116  0.53859506
   0.38802515  0.42923748  0.70351688
   0.62537488  0.44280509  0.41351107
   0.69383902  0.54278226  0.40784182
   0.41807926  0.38045761  0.60070890
   0.62814062  0.62886106  0.45280646
   0.44125343  0.32467539  0.49731628
   0.56243938  0.68210685  0.53609599
   0.52951056  0.44352349  0.34457983
   0.38337447  0.60619343  0.62260448
   0.48725191  0.49368088  0.44391235
   0.35437126  0.47961423  0.60083377
   0.42551499  0.54820987  0.52954254
   0.57871672  0.54666046  0.38098705
   0.39466621  0.43235490  0.49620057
   0.51204927  0.61050246  0.45454669
   0.44227795  0.66882536  0.52960430
   0.43466654  0.38529483  0.39186237
   0.42527787  0.44891088  0.29024369
   0.27528165  0.56336657  0.58794863
   0.33197334  0.63533523  0.51522969
   0.46660685  0.55031432  0.33979744
   0.31748985  0.52094138  0.48625138
   0.39822530  0.60025210  0.42446057
   0.37561662  0.48848926  0.38933129
Direct configuration=    16
   0.67198839  0.48883115  0.59432449
   0.61372218  0.39863958  0.64480541
   0.71629235  0.57293826  0.52129805
   0.57014831  0.51007608  0.64811040
   0.62455235  0.59858349  0.59255020
   0.62433186  0.39981688  0.52731642
   0.71715445  0.45991731  0.48803127
   0.50283023  0.41104047  0.67700212
   0.52986502  0.34658527  0.57635529
   0.50285397  0.46231640  0.56024276
   0.59368987  0.52073018  0.50309637
   0.45058527  0.51770312  0.66262853
   0.74176083  0.64872385  0.43524053
   0.53324665  0.38242690  0.45708038
   0.50668980  0.59981850  0.60239335
   0.68289674  0.68617571  0.53823419
   0.38750192  0.42924330  0.70337945
   0.62536929  0.44294717  0.41365370
   0.69421437  0.54284764  0.40767781
   0.41802261  0.38051812  0.60069540
   0.62817799  0.62897663  0.45234155
   0.44134076  0.32470503  0.49733213
   0.56242063  0.68164606  0.53588056
   0.52963256  0.44357970  0.34426885
   0.38341488  0.60595659  0.62268080
   0.48742554  0.49352081  0.44377852
   0.35414742  0.47959782  0.60060914
   0.42571425  0.54804912  0.52961401
   0.57885463  0.54648283  0.38078468
   0.39493263  0.43219791  0.49619619
   0.51209693  0.61035498  0.45426717
   0.44251015  0.66848605  0.52930147
   0.43470959  0.38558760  0.39188272
   0.42530182  0.44927495  0.29029015
   0.27514201  0.56357354  0.58829791
   0.33201344  0.63510289  0.51551244
   0.46670277  0.55060515  0.34025095
   0.31733441  0.52090626  0.48633154
   0.39818072  0.60050066  0.42471308
   0.37555352  0.48867088  0.38934596
Direct configuration=    17
   0.67160083  0.48872581  0.59478402
   0.61345163  0.39854508  0.64554135
   0.71584491  0.57260252  0.52102224
   0.56979539  0.51026470  0.64886421
   0.62516749  0.59921994  0.59343736
   0.62467488  0.40044771  0.52766904
   0.71673937  0.45996982  0.48815168
   0.50233426  0.41079898  0.67752360
   0.53003049  0.34650769  0.57668435
   0.50335213  0.46177709  0.56002399
   0.59294727  0.52179257  0.50366695
   0.45067849  0.51656537  0.66154762
   0.74167677  0.64872725  0.43434780
   0.53306106  0.38311558  0.45782491
   0.50645349  0.59917471  0.60241260
   0.68272474  0.68627938  0.53715158
   0.38593220  0.42926077  0.70296716
   0.62535250  0.44337341  0.41408159
   0.69534042  0.54304379  0.40718577
   0.41785268  0.38069966  0.60065488
   0.62829010  0.62932336  0.45094680
   0.44160274  0.32479395  0.49737967
   0.56236437  0.68026367  0.53523430
   0.52999853  0.44374832  0.34333591
   0.38353613  0.60524608  0.62290976
   0.48794642  0.49304059  0.44337701
   0.35347588  0.47954860  0.59993525
   0.42631203  0.54756685  0.52982844
   0.57926835  0.54594994  0.38017757
   0.39573187  0.43172694  0.49618304
   0.51223991  0.60991255  0.45342861
   0.44320676  0.66746811  0.52839300
   0.43483873  0.38646593  0.39194379
   0.42537365  0.45036717  0.29042956
   0.27472308  0.56419445  0.58934573
   0.33213372  0.63440587  0.51636068
   0.46699054  0.55147763  0.34161150
   0.31686809  0.52080090  0.48657203
   0.39804696  0.60124633  0.42547064
   0.37536422  0.48921575  0.38938998
Direct configuration=    18
   0.67157997  0.48874545  0.59481744
   0.61335766  0.39858798  0.64569744
   0.71553006  0.57276115  0.52093821
   0.56960485  0.51016020  0.64923431
   0.62539012  0.59939113  0.59405664
   0.62453711  0.40076594  0.52810313
   0.71686927  0.45986825  0.48812896
   0.50211596  0.41064823  0.67775171
   0.53009891  0.34619148  0.57689299
   0.50396215  0.46164496  0.55992448
   0.59270149  0.52227547  0.50406974
   0.45051388  0.51589730  0.66131219
   0.74185284  0.64874202  0.43409174
   0.53321578  0.38327667  0.45817086
   0.50649072  0.59910379  0.60239496
   0.68277377  0.68628697  0.53657801
   0.38526429  0.42923691  0.70280406
   0.62539835  0.44330050  0.41430131
   0.69574308  0.54280492  0.40674346
   0.41769404  0.38071076  0.60071425
   0.62813288  0.62943407  0.45024055
   0.44176870  0.32462065  0.49737759
   0.56232176  0.67991034  0.53492207
   0.53026025  0.44378218  0.34291485
   0.38369769  0.60497749  0.62300997
   0.48815713  0.49291358  0.44321317
   0.35301130  0.47941172  0.59974815
   0.42638809  0.54726704  0.52972284
   0.57963324  0.54614648  0.37962329
   0.39574649  0.43207832  0.49599436
   0.51238265  0.60971408  0.45263472
   0.44318071  0.66706581  0.52815872
   0.43483120  0.38659595  0.39192479
   0.42551872  0.45097266  0.29060551
   0.27435297  0.56436682  0.58981537
   0.33213414  0.63438970  0.51682298
   0.46710391  0.55187552  0.34208692
   0.31682078  0.52067275  0.48689365
   0.39778171  0.60147406  0.42576410
   0.37540448  0.48958555  0.38959645
Direct configuration=    19
   0.67154707  0.48877642  0.59487015
   0.61320946  0.39865563  0.64594363
   0.71503350  0.57301135  0.52080569
   0.56930433  0.50999538  0.64981802
   0.62574124  0.59966111  0.59503331
   0.62431982  0.40126783  0.52878776
   0.71707413  0.45970806  0.48809313
   0.50177168  0.41041047  0.67811147
   0.53020681  0.34569279  0.57722204
   0.50492422  0.46143657  0.55976755
   0.59231387  0.52303707  0.50470499
   0.45025427  0.51484366  0.66094089
   0.74213054  0.64876532  0.43368790
   0.53345979  0.38353072  0.45871646
   0.50654942  0.59899195  0.60236714
   0.68285110  0.68629893  0.53567342
   0.38421091  0.42919927  0.70254682
   0.62547066  0.44318552  0.41464785
   0.69637812  0.54242819  0.40604588
   0.41744385  0.38072827  0.60080788
   0.62788492  0.62960867  0.44912670
   0.44203044  0.32434733  0.49737431
   0.56225456  0.67935310  0.53442966
   0.53067303  0.44383559  0.34225077
   0.38395249  0.60455389  0.62316801
   0.48848944  0.49271325  0.44295476
   0.35227860  0.47919585  0.59945307
   0.42650805  0.54679422  0.52955631
   0.58020871  0.54645644  0.37874912
   0.39576953  0.43263249  0.49569680
   0.51260777  0.60940106  0.45138264
   0.44313962  0.66643132  0.52778922
   0.43481932  0.38680100  0.39189483
   0.42574752  0.45192758  0.29088300
   0.27376925  0.56463866  0.59055606
   0.33213480  0.63436421  0.51755208
   0.46728272  0.55250305  0.34283673
   0.31674616  0.52047064  0.48740089
   0.39736338  0.60183322  0.42622691
   0.37546797  0.49016876  0.38992208
Direct configuration=    20
   0.67159447  0.48909295  0.59482761
   0.61303340  0.39875857  0.64613663
   0.71444601  0.57317938  0.52042061
   0.56935338  0.50990911  0.65014150
   0.62580652  0.59979877  0.59574542
   0.62405211  0.40171946  0.52929464
   0.71737206  0.45972523  0.48809420
   0.50158214  0.40993402  0.67827949
   0.53000111  0.34523732  0.57763115
   0.50564673  0.46116877  0.55977503