 vasp.5.3.5 31Mar14 (build Feb 01 2018 12:10:03) gamma-only                     
  
 executed on             LinuxIFC date 2019.03.20  17:27:25
 running on   32 total cores
 distrk:  each k-point on   32 cores,    1 groups
 distr:  one band on NCORES_PER_BAND=   8 cores,    4 groups


--------------------------------------------------------------------------------------------------------


 INCAR:
 POTCAR:    PAW_PBE Ag 02Apr2005                  
 POTCAR:    PAW_PBE Ag 02Apr2005                  
   VRHFIN =Ag : s1 d10                                                          
   LEXCH  = PE                                                                  
   EATOM  =  1037.2675 eV,   76.2370 Ry                                         
                                                                                
   TITEL  = PAW_PBE Ag 02Apr2005                                                
   LULTRA =        F    use ultrasoft PP ?                                      
   IUNSCR =        1    unscreen: 0-lin 1-nonlin 2-no                           
   RPACOR =    2.000    partial core radius                                     
   POMASS =  107.868; ZVAL   =   11.000    mass and valenz                      
   RCORE  =    2.500    outmost cutoff radius                                   
   RWIGS  =    2.840; RWIGS  =    1.503    wigner-seitz radius (au A)           
   ENMAX  =  249.844; ENMIN  =  187.383 eV                                      
   ICORE  =        3    local potential                                         
   LCOR   =        T    correct aug charges                                     
   LPAW   =        T    paw PP                                                  
   EAUG   =  412.496                                                            
   DEXC   =    0.000                                                            
   RMAX   =    2.560    core radius for proj-oper                               
   RAUG   =    1.300    factor for augmentation sphere                          
   RDEP   =    2.576    radius for radial grids                                 
   RDEPT  =    2.072    core radius for aug-charge                              
                                                                                
   Atomic configuration                                                         
   12 entries                                                                   
     n  l   j            E        occ.                                          
     1  0  0.50    -25324.9161   2.0000                                         
     2  0  0.50     -3728.5341   2.0000                                         
     2  1  1.50     -3344.0404   6.0000                                         
     3  0  0.50      -683.5581   2.0000                                         
     3  1  1.50      -557.3225   6.0000                                         
     3  2  2.50      -358.3853  10.0000                                         
     4  0  0.50       -95.0341   2.0000                                         
     4  1  1.50       -58.5511   6.0000                                         
     4  2  2.50        -7.4440  10.0000                                         
     5  0  0.50        -4.4045   1.0000                                         
     5  1  0.50        -1.3606   0.0000                                         
     4  3  2.50        -1.3606   0.0000                                         
   Description                                                                  
     l       E           TYP  RCUT    TYP  RCUT                                 
     2     -7.4439781     23  2.400                                             
     2     -8.8045607     23  2.400                                             
     0     -4.4044681     23  2.400                                             
     0      1.9520038     23  2.400                                             
     1     -1.3605826     23  2.500                                             
     1     27.2116520     23  2.500                                             
     3     -4.0817478     23  2.400                                             
  local pseudopotential read in
  partial core-charges read in
  partial kinetic energy density read in
  atomic valenz-charges read in
  non local Contribution for L=           2  read in
    real space projection operators read in
  non local Contribution for L=           2  read in
    real space projection operators read in
  non local Contribution for L=           0  read in
    real space projection operators read in
  non local Contribution for L=           0  read in
    real space projection operators read in
  non local Contribution for L=           1  read in
    real space projection operators read in
  non local Contribution for L=           1  read in
    real space projection operators read in
    PAW grid and wavefunctions read in
 
   number of l-projection  operators is LMAX  =           6
   number of lm-projection operators is LMMAX =          18
 
  PAW_PBE Ag 02Apr2005                  :
 energy of atom  1       EATOM=-1037.2675
 kinetic energy error for atom=    0.0689 (will be added to EATOM!!)
 
 
 POSCAR: Pt5, -17.68026473 <s> Ag </s>           
  positions in direct lattice
  No initial velocities read in
 exchange correlation table for  LEXCH =        8
   RHO(1)=    0.500       N(1)  =     2000
   RHO(2)=  100.500       N(2)  =     4000
 


--------------------------------------------------------------------------------------------------------


 ion  position               nearest neighbor table
   1  0.619  0.536  0.447-   4 2.67   3 2.68   2 2.68
   2  0.593  0.462  0.599-   4 2.67   1 2.68   5 2.69
   3  0.468  0.614  0.461-   4 2.67   1 2.68   5 2.69
   4  0.478  0.445  0.475-   1 2.67   2 2.67   5 2.67   3 2.67
   5  0.440  0.538  0.612-   4 2.67   3 2.69   2 2.69
 
  LATTYP: Found a simple cubic cell.
 ALAT       =    15.6890505870
  
  Lattice vectors:
  
 A1 = (  15.6890505870,   0.0000000000,   0.0000000000)
 A2 = (   0.0000000000,  15.6890505870,   0.0000000000)
 A3 = (   0.0000000000,   0.0000000000,  15.6890505870)


Analysis of symmetry for initial positions (statically):
=====================================================================
 Subroutine PRICEL returns:
 Original cell was already a primitive cell.
 

 Routine SETGRP: Setting up the symmetry group for a 
 simple cubic supercell.


 Subroutine GETGRP returns: Found  1 space group operations
 (whereof  1 operations were pure point group operations)
 out of a pool of 48 trial point group operations.


The static configuration has the point symmetry C_1 .


Analysis of symmetry for dynamics (positions and initial velocities):
=====================================================================
 Subroutine PRICEL returns:
 Original cell was already a primitive cell.
 

 Routine SETGRP: Setting up the symmetry group for a 
 simple cubic supercell.


 Subroutine GETGRP returns: Found  1 space group operations
 (whereof  1 operations were pure point group operations)
 out of a pool of 48 trial point group operations.


The dynamic configuration has the point symmetry C_1 .


Analysis of magnetic symmetry:
=====================================================================
 Subroutine PRICEL returns:
 Original cell was already a primitive cell.
 

 Subroutine MAGSYM returns: Found  1 space group operations
 (whereof  1 operations were pure point group operations)
 out of a pool of  1 trial space group operations
 (whereof  1 operations were pure point group operations)
 and found also     1 'primitive' translations


The magnetic configuration has the point symmetry C_1 .
 
 
 KPOINTS: Gamma-point only                        
  k-points in reciprocal lattice
Space group operators:
 irot       det(A)        alpha          n_x          n_y          n_z        tau_x        tau_y        tau_z
    1     1.000000     0.000001     1.000000     0.000000     0.000000     0.000000     0.000000     0.000000


--------------------------------------------------------------------------------------------------------




 Dimension of arrays:
   k-points           NKPTS =      1   k-points in BZ     NKDIM =      1   number of bands    NBANDS=     36
   number of dos      NEDOS =    301   number of ions     NIONS =      5
   non local maximal  LDIM  =      6   non local SUM 2l+1 LMDIM =     18
   total plane-waves  NPLWV = 262144
   max r-space proj   IRMAX =      1   max aug-charges    IRDMAX=   3537
   dimension x,y,z NGX =    64 NGY =   64 NGZ =   64
   dimension x,y,z NGXF=   128 NGYF=  128 NGZF=  128
   support grid    NGXF=   128 NGYF=  128 NGZF=  128
   ions per type =               5
 NGX,Y,Z   is equivalent  to a cutoff of   6.78,  6.78,  6.78 a.u.
 NGXF,Y,Z  is equivalent  to a cutoff of  13.56, 13.56, 13.56 a.u.


 I would recommend the setting:
   dimension x,y,z NGX =    61 NGY =   61 NGZ =   61
 SYSTEM =  unknown system                          
 POSCAR =  Pt5, -17.68026473 <s> Ag </s>           

 Startparameter for this run:
   NWRITE =      2    write-flag & timer
   PREC   = normal    normal or accurate (medium, high low for compatibility)
   ISTART =      0    job   : 0-new  1-cont  2-samecut
   ICHARG =      2    charge: 1-file 2-atom 10-const
   ISPIN  =      2    spin polarized calculation?
   LNONCOLLINEAR =      F non collinear calculations
   LSORBIT =      F    spin-orbit coupling
   INIWAV =      1    electr: 0-lowe 1-rand  2-diag
   LASPH  =      F    aspherical Exc in radial PAW
   METAGGA=      F    non-selfconsistent MetaGGA calc.

 Electronic Relaxation 1
   ENCUT  =  249.8 eV  18.36 Ry    4.29 a.u.  20.22 20.22 20.22*2*pi/ulx,y,z
   ENINI  =  249.8     initial cutoff
   ENAUG  =  412.5 eV  augmentation charge cutoff
   NELM   =     60;   NELMIN=  2; NELMDL= -5     # of ELM steps 
   EDIFF  = 0.1E-03   stopping-criterion for ELM
   LREAL  =      F    real-space projection
   NLSPLINE    = F    spline interpolate recip. space projectors
   LCOMPAT=      F    compatible to vasp.4.4
   GGA_COMPAT  = T    GGA compatible to vasp.4.4-vasp.4.6
   LMAXPAW     = -100 max onsite density
   LMAXMIX     =    2 max onsite mixed and CHGCAR
   VOSKOWN=      0    Vosko Wilk Nusair interpolation
   ROPT   =    0.00000
 Ionic relaxation
   EDIFFG = 0.1E-02   stopping-criterion for IOM
   NSW    =   1000    number of steps for IOM
   NBLOCK =      1;   KBLOCK =   1000    inner block; outer block 
   IBRION =      2    ionic relax: 0-MD 1-quasi-New 2-CG
   NFREE  =      1    steps in history (QN), initial steepest desc. (CG)
   ISIF   =      2    stress and relaxation
   IWAVPR =     11    prediction:  0-non 1-charg 2-wave 3-comb
   ISYM   =      2    0-nonsym 1-usesym 2-fastsym
   LCORR  =      T    Harris-Foulkes like correction to forces

   POTIM  = 0.1000    time-step for ionic-motion
   TEIN   =    0.0    initial temperature
   TEBEG  =    0.0;   TEEND  =   0.0 temperature during run
   SMASS  =  -3.00    Nose mass-parameter (am)
   estimated Nose-frequenzy (Omega)   =  0.10E-29 period in steps =****** mass=  -0.563E-26a.u.
   SCALEE = 1.0000    scale energy and forces
   NPACO  =    256;   APACO  = 16.0  distance and # of slots for P.C.
   PSTRESS=    0.0 pullay stress

  Mass of Ions in am
   POMASS = 107.87
  Ionic Valenz
   ZVAL   =  11.00
  Atomic Wigner-Seitz radii
   RWIGS  =  -1.00
  virtual crystal weights 
   VCA    =   1.00
   NELECT =      55.0000    total number of electrons
   NUPDOWN=      -1.0000    fix difference up-down

 DOS related values:
   EMIN   =  10.00;   EMAX   =-10.00  energy-range for DOS
   EFERMI =   0.00
   ISMEAR =     0;   SIGMA  =   0.00  broadening in eV -4-tet -1-fermi 0-gaus

 Electronic relaxation 2 (details)
   IALGO  =     38    algorithm
   LDIAG  =      T    sub-space diagonalisation (order eigenvalues)
   LSUBROT=      F    optimize rotation matrix (better conditioning)
   TURBO    =      0    0=normal 1=particle mesh
   IRESTART =      0    0=no restart 2=restart with 2 vectors
   NREBOOT  =      0    no. of reboots
   NMIN     =      0    reboot dimension
   EREF     =   0.00    reference energy to select bands
   IMIX   =      4    mixing-type and parameters
     AMIX     =   0.40;   BMIX     =  1.00
     AMIX_MAG =   1.60;   BMIX_MAG =  1.00
     AMIN     =   0.10
     WC   =   100.;   INIMIX=   1;  MIXPRE=   1;  MAXMIX= -45

 Intra band minimization:
   WEIMIN = 0.0010     energy-eigenvalue tresh-hold
   EBREAK =  0.69E-06  absolut break condition
   DEPER  =   0.30     relativ break condition  

   TIME   =   0.40     timestep for ELM

  volume/ion in A,a.u.               =     772.36      5212.15
  Fermi-wavevector in a.u.,A,eV,Ry     =   0.396825  0.749891  2.142511  0.157470
  Thomas-Fermi vector in A             =   1.343239
 
 Write flags
   LWAVE  =      F    write WAVECAR
   LCHARG =      F    write CHGCAR
   LVTOT  =      F    write LOCPOT, total local potential
   LVHAR  =      F    write LOCPOT, Hartree potential only
   LELF   =      F    write electronic localiz. function (ELF)
   LORBIT =      0    0 simple, 1 ext, 2 COOP (PROOUT)


 Dipole corrections
   LMONO  =      F    monopole corrections only (constant potential shift)
   LDIPOL =      F    correct potential (dipole corrections)
   IDIPOL =      0    1-x, 2-y, 3-z, 4-all directions 
   EPSILON=  1.0000000 bulk dielectric constant

 Exchange correlation treatment:
   GGA     =    PE    GGA type
   LEXCH   =     8    internal setting for exchange type
   VOSKOWN=      0    Vosko Wilk Nusair interpolation
   LHFCALC =     F    Hartree Fock is set to
   LHFONE  =     F    Hartree Fock one center treatment
   AEXX    =    0.0000 exact exchange contribution

 Linear response parameters
   LEPSILON=     F    determine dielectric tensor
   LRPA    =     F    only Hartree local field effects (RPA)
   LNABLA  =     F    use nabla operator in PAW spheres
   LVEL    =     F    velocity operator in full k-point grid
   LINTERFAST=   F  fast interpolation
   KINTER  =     0    interpolate to denser k-point grid
   CSHIFT  =0.1000    complex shift for real part using Kramers Kronig
   OMEGAMAX=  -1.0    maximum frequency
   DEG_THRESHOLD= 0.2000000E-02 threshold for treating states as degnerate
   RTIME   =    0.100 relaxation time in fs

 Orbital magnetization related:
   ORBITALMAG=     F  switch on orbital magnetization
   LCHIMAG   =     F  perturbation theory with respect to B field
   DQ        =  0.001000  dq finite difference perturbation B field



--------------------------------------------------------------------------------------------------------


 conjugate gradient relaxation of ions
 charge density and potential will be updated during run
 spin polarized calculation
 Variant of blocked Davidson
 Davidson routine will perform the subspace rotation
 perform sub-space diagonalisation
    after iterative eigenvector-optimisation
 modified Broyden-mixing scheme, WC =      100.0
 initial mixing is a Kerker type mixing with AMIX =  0.4000 and BMIX =      1.0000
 Hartree-type preconditioning will be used
 using additional bands            8
 reciprocal scheme for non local part
 use partial core corrections
 calculate Harris-corrections to forces 
   (improved forces if not selfconsistent)
 use gradient corrections 
 use of overlap-Matrix (Vanderbilt PP)
 Gauss-broadening in eV      SIGMA  =   0.00


--------------------------------------------------------------------------------------------------------


  energy-cutoff  :      249.84
  volume of cell :     3861.80
      direct lattice vectors                 reciprocal lattice vectors
    15.689050587  0.000000000  0.000000000     0.063738720  0.000000000  0.000000000
     0.000000000 15.689050587  0.000000000     0.000000000  0.063738720  0.000000000
     0.000000000  0.000000000 15.689050587     0.000000000  0.000000000  0.063738720

  length of vectors
    15.689050587 15.689050587 15.689050587     0.063738720  0.063738720  0.063738720


 
 k-points in units of 2pi/SCALE and weight: Gamma-point only                        
   0.00000000  0.00000000  0.00000000       1.000
 
 k-points in reciprocal lattice and weights: Gamma-point only                        
   0.00000000  0.00000000  0.00000000       1.000
 
 position of ions in fractional coordinates (direct lattice) 
   0.61910052  0.53586283  0.44712700
   0.59309314  0.46162534  0.59907494
   0.46773586  0.61434786  0.46079120
   0.47818465  0.44484797  0.47467536
   0.44000996  0.53805119  0.61189546
 
 position of ions in cartesian coordinates  (Angst):
   9.71309935  8.40717902  7.01499807
   9.30506830  7.24246337  9.39891708
   7.33833156  9.63853469  7.22937645
   7.50226323  6.97924238  7.44720572
   6.90333848  8.44151235  9.60005880
 


--------------------------------------------------------------------------------------------------------


 use parallel FFT for wavefunctions z direction half grid
 k-point  1 :   0.0000 0.0000 0.0000  plane waves:   17253

 maximum and minimum number of plane-waves per node :      2160     2151

 maximum number of plane-waves:     17253
 maximum index in each direction: 
   IXMAX=   20   IYMAX=   20   IZMAX=   20
   IXMIN=  -20   IYMIN=  -20   IZMIN=    0

 WARNING: aliasing errors must be expected set NGX to  82 to avoid them
 WARNING: aliasing errors must be expected set NGY to  82 to avoid them
 WARNING: aliasing errors must be expected set NGZ to  82 to avoid them
 aliasing errors are usually negligible using standard VASP settings
 and one can safely disregard these warnings

 parallel 3D FFT for wavefunctions:
    minimum data exchange during FFTs selected (reduces bandwidth)
 parallel 3D FFT for charge:
    minimum data exchange during FFTs selected (reduces bandwidth)


 total amount of memory used by VASP on root node    41478. kBytes
========================================================================

   base      :      30000. kBytes
   nonl-proj :        482. kBytes
   fftplans  :       2946. kBytes
   grid      :       7413. kBytes
   one-center:         15. kBytes
   wavefun   :        622. kBytes
 
     INWAV:  cpu time    0.00: real time    0.00
 Broyden mixing: mesh for mixing (old mesh)
   NGX = 41   NGY = 41   NGZ = 41
  (NGX  =128   NGY  =128   NGZ  =128)
  gives a total of  68921 points

 initial charge density was supplied:
 charge density of overlapping atoms calculated
 number of electron      55.0000000 magnetization       5.0000000
 keeping initial charge density in first step


--------------------------------------------------------------------------------------------------------


 Maximum index for augmentation-charges          237 (set IRDMAX)


--------------------------------------------------------------------------------------------------------


 First call to EWALD:  gamma=   0.113
 Maximum number of real-space cells 3x 3x 3
 Maximum number of reciprocal cells 3x 3x 3

 FEWALD executed in parallel
    FEWALD:  cpu time    0.00: real time    0.00


----------------------------------------- Iteration    1(   1)  ---------------------------------------


    POTLOK:  cpu time    0.10: real time    0.10
    SETDIJ:  cpu time    0.01: real time    0.01
     EDDAV:  cpu time    0.12: real time    0.12
       DOS:  cpu time    0.00: real time    0.00
    --------------------------------------------
      LOOP:  cpu time    0.23: real time    0.25

 eigenvalue-minimisations  :   144
 total energy-change (2. order) : 0.4771783E+03  (-0.7811324E+03)
 number of electron      55.0000000 magnetization       5.0000000
 augmentation part       55.0000000 magnetization       5.0000000

 Free energy of the ion-electron system (eV)
  ---------------------------------------------------
  alpha Z        PSCENC =         5.50635490
  Ewald energy   TEWEN  =      2262.00259884
  -Hartree energ DENC   =     -7220.73575110
  -exchange      EXHF   =         0.00000000
  -V(xc)+E(xc)   XCENC  =       -56.79318996
  PAW double counting   =      5016.86089035    -4786.32304439
  entropy T*S    EENTRO =         0.00000000
  eigenvalues    EBANDS =        70.66728004
  atomic energy  EATOM  =      5185.99315043
  ---------------------------------------------------
  free energy    TOTEN  =       477.17828911 eV

  energy without entropy =      477.17828911  energy(sigma->0) =      477.17828911


--------------------------------------------------------------------------------------------------------




----------------------------------------- Iteration    1(   2)  ---------------------------------------


     EDDAV:  cpu time    0.21: real time    0.21
       DOS:  cpu time    0.00: real time    0.00
    --------------------------------------------
      LOOP:  cpu time    0.21: real time    0.22

 eigenvalue-minimisations  :   280
 total energy-change (2. order) :-0.2718893E+03  (-0.2482148E+03)
 number of electron      55.0000000 magnetization       5.0000000
 augmentation part       55.0000000 magnetization       5.0000000

 Free energy of the ion-electron system (eV)
  ---------------------------------------------------
  alpha Z        PSCENC =         5.50635490
  Ewald energy   TEWEN  =      2262.00259884
  -Hartree energ DENC   =     -7220.73575110
  -exchange      EXHF   =         0.00000000
  -V(xc)+E(xc)   XCENC  =       -56.79318996
  PAW double counting   =      5016.86089035    -4786.32304439
  entropy T*S    EENTRO =         0.00000000
  eigenvalues    EBANDS =      -201.22204913
  atomic energy  EATOM  =      5185.99315043
  ---------------------------------------------------
  free energy    TOTEN  =       205.28895994 eV

  energy without entropy =      205.28895994  energy(sigma->0) =      205.28895994


--------------------------------------------------------------------------------------------------------




----------------------------------------- Iteration    1(   3)  ---------------------------------------


     EDDAV:  cpu time    0.17: real time    0.17
       DOS:  cpu time    0.00: real time    0.00
    --------------------------------------------
      LOOP:  cpu time    0.17: real time    0.18

 eigenvalue-minimisations  :   224
 total energy-change (2. order) :-0.1902584E+03  (-0.1843657E+03)
 number of electron      55.0000000 magnetization       5.0000000
 augmentation part       55.0000000 magnetization       5.0000000

 Free energy of the ion-electron system (eV)
  ---------------------------------------------------
  alpha Z        PSCENC =         5.50635490
  Ewald energy   TEWEN  =      2262.00259884
  -Hartree energ DENC   =     -7220.73575110
  -exchange      EXHF   =         0.00000000
  -V(xc)+E(xc)   XCENC  =       -56.79318996
  PAW double counting   =      5016.86089035    -4786.32304439
  entropy T*S    EENTRO =         0.00000000
  eigenvalues    EBANDS =      -391.48043158
  atomic energy  EATOM  =      5185.99315043
  ---------------------------------------------------
  free energy    TOTEN  =        15.03057750 eV

  energy without entropy =       15.03057750  energy(sigma->0) =       15.03057750


--------------------------------------------------------------------------------------------------------




----------------------------------------- Iteration    1(   4)  ---------------------------------------


     EDDAV:  cpu time    0.12: real time    0.12
       DOS:  cpu time    0.00: real time    0.00
    --------------------------------------------
      LOOP:  cpu time    0.12: real time    0.13

 eigenvalue-minimisations  :   148
 total energy-change (2. order) :-0.2124218E+02  (-0.2113412E+02)
 number of electron      55.0000000 magnetization       5.0000000
 augmentation part       55.0000000 magnetization       5.0000000

 Free energy of the ion-electron system (eV)
  ---------------------------------------------------
  alpha Z        PSCENC =         5.50635490
  Ewald energy   TEWEN  =      2262.00259884
  -Hartree energ DENC   =     -7220.73575110
  -exchange      EXHF   =         0.00000000
  -V(xc)+E(xc)   XCENC  =       -56.79318996
  PAW double counting   =      5016.86089035    -4786.32304439
  entropy T*S    EENTRO =         0.00000000
  eigenvalues    EBANDS =      -412.72260879
  atomic energy  EATOM  =      5185.99315043
  ---------------------------------------------------
  free energy    TOTEN  =        -6.21159972 eV

  energy without entropy =       -6.21159972  energy(sigma->0) =       -6.21159972


--------------------------------------------------------------------------------------------------------




----------------------------------------- Iteration    1(   5)  ---------------------------------------


     EDDAV:  cpu time    0.12: real time    0.12
       DOS:  cpu time    0.00: real time    0.00
    CHARGE:  cpu time    0.01: real time    0.01
    MIXING:  cpu time    0.00: real time    0.00
    --------------------------------------------
      LOOP:  cpu time    0.14: real time    0.15

 eigenvalue-minimisations  :   152
 total energy-change (2. order) :-0.3826952E+00  (-0.3821699E+00)
 number of electron      55.0000161 magnetization       4.1154062
 augmentation part       26.1572324 magnetization       3.2363218

 Broyden mixing:
  rms(total) = 0.11754E+01    rms(broyden)= 0.11752E+01
  rms(prec ) = 0.12119E+01
  weight for this iteration     100.00

 Free energy of the ion-electron system (eV)
  ---------------------------------------------------
  alpha Z        PSCENC =         5.50635490
  Ewald energy   TEWEN  =      2262.00259884
  -Hartree energ DENC   =     -7220.73575110
  -exchange      EXHF   =         0.00000000
  -V(xc)+E(xc)   XCENC  =       -56.79318996
  PAW double counting   =      5016.86089035    -4786.32304439
  entropy T*S    EENTRO =         0.00000000
  eigenvalues    EBANDS =      -413.10530397
  atomic energy  EATOM  =      5185.99315043
  ---------------------------------------------------
  free energy    TOTEN  =        -6.59429490 eV

  energy without entropy =       -6.59429490  energy(sigma->0) =       -6.59429490


--------------------------------------------------------------------------------------------------------




----------------------------------------- Iteration    1(   6)  ---------------------------------------


    POTLOK:  cpu time    0.09: real time    0.09
    SETDIJ:  cpu time    0.00: real time    0.01
     EDDAV:  cpu time    0.12: real time    0.12
       DOS:  cpu time    0.00: real time    0.00
    CHARGE:  cpu time    0.02: real time    0.01
    MIXING:  cpu time    0.00: real time    0.00
    --------------------------------------------
      LOOP:  cpu time    0.23: real time    0.24

 eigenvalue-minimisations  :   148
 total energy-change (2. order) : 0.4718065E+01  (-0.1498370E+01)
 number of electron      55.0000163 magnetization       3.8925355
 augmentation part       26.5701822 magnetization       0.5399039

 Broyden mixing:
  rms(total) = 0.48752E+00    rms(broyden)= 0.48741E+00
  rms(prec ) = 0.50442E+00
  weight for this iteration     100.00

 eigenvalues of (default mixing * dielectric matrix)
  average eigenvalue GAMMA=   0.8375
  0.8375

 Free energy of the ion-electron system (eV)
  ---------------------------------------------------
  alpha Z        PSCENC =         5.50635490
  Ewald energy   TEWEN  =      2262.00259884
  -Hartree energ DENC   =     -7209.23376541
  -exchange      EXHF   =         0.00000000
  -V(xc)+E(xc)   XCENC  =       -54.23623532
  PAW double counting   =      5155.55290752    -4927.90330102
  entropy T*S    EENTRO =         0.00000000
  eigenvalues    EBANDS =      -419.55794024
  atomic energy  EATOM  =      5185.99315043
  ---------------------------------------------------
  free energy    TOTEN  =        -1.87623029 eV

  energy without entropy =       -1.87623029  energy(sigma->0) =       -1.87623029


--------------------------------------------------------------------------------------------------------




----------------------------------------- Iteration    1(   7)  ---------------------------------------


    POTLOK:  cpu time    0.09: real time    0.09
    SETDIJ:  cpu time    0.01: real time    0.01
     EDDAV:  cpu time    0.12: real time    0.12
       DOS:  cpu time    0.00: real time    0.00
    CHARGE:  cpu time    0.01: real time    0.01
    MIXING:  cpu time    0.00: real time    0.00
    --------------------------------------------
      LOOP:  cpu time    0.24: real time    0.24

 eigenvalue-minimisations  :   148
 total energy-change (2. order) :-0.1492260E+01  (-0.1024706E+00)
 number of electron      55.0000162 magnetization       3.6383541
 augmentation part       26.5080392 magnetization       0.3737627

 Broyden mixing:
  rms(total) = 0.24436E+00    rms(broyden)= 0.24434E+00
  rms(prec ) = 0.25346E+00
  weight for this iteration     100.00

 eigenvalues of (default mixing * dielectric matrix)
  average eigenvalue GAMMA=   0.9088
  0.7634  1.0541

 Free energy of the ion-electron system (eV)
  ---------------------------------------------------
  alpha Z        PSCENC =         5.50635490
  Ewald energy   TEWEN  =      2262.00259884
  -Hartree energ DENC   =     -7214.55648255
  -exchange      EXHF   =         0.00000000
  -V(xc)+E(xc)   XCENC  =       -55.41652297
  PAW double counting   =      5227.07348836    -5000.90138324
  entropy T*S    EENTRO =        -0.00000000
  eigenvalues    EBANDS =      -413.06969429
  atomic energy  EATOM  =      5185.99315043
  ---------------------------------------------------
  free energy    TOTEN  =        -3.36849053 eV

  energy without entropy =       -3.36849053  energy(sigma->0) =       -3.36849053


--------------------------------------------------------------------------------------------------------




----------------------------------------- Iteration    1(   8)  ---------------------------------------


    POTLOK:  cpu time    0.09: real time    0.09
    SETDIJ:  cpu time    0.00: real time    0.01
     EDDAV:  cpu time    0.12: real time    0.12
       DOS:  cpu time    0.00: real time    0.00
    CHARGE:  cpu time    0.01: real time    0.01
    MIXING:  cpu time    0.00: real time    0.00
    --------------------------------------------
      LOOP:  cpu time    0.24: real time    0.28

 eigenvalue-minimisations  :   148
 total energy-change (2. order) :-0.9854210E+00  (-0.4468598E-01)
 number of electron      55.0000164 magnetization       3.3401628
 augmentation part       26.5112313 magnetization       2.1364511

 Broyden mixing:
  rms(total) = 0.29287E+00    rms(broyden)= 0.29275E+00
  rms(prec ) = 0.32298E+00
  weight for this iteration     100.00

 eigenvalues of (default mixing * dielectric matrix)
  average eigenvalue GAMMA=   0.8490
  1.3479  0.7830  0.4160

 Free energy of the ion-electron system (eV)
  ---------------------------------------------------
  alpha Z        PSCENC =         5.50635490
  Ewald energy   TEWEN  =      2262.00259884
  -Hartree energ DENC   =     -7215.08294603
  -exchange      EXHF   =         0.00000000
  -V(xc)+E(xc)   XCENC  =       -56.29967212
  PAW double counting   =      5290.88931078    -5065.93763409
  entropy T*S    EENTRO =         0.00000000
  eigenvalues    EBANDS =      -411.42507428
  atomic energy  EATOM  =      5185.99315043
  ---------------------------------------------------
  free energy    TOTEN  =        -4.35391156 eV

  energy without entropy =       -4.35391156  energy(sigma->0) =       -4.35391156


--------------------------------------------------------------------------------------------------------




----------------------------------------- Iteration    1(   9)  ---------------------------------------


    POTLOK:  cpu time    0.09: real time    0.09
    SETDIJ:  cpu time    0.00: real time    0.01
     EDDAV:  cpu time    0.12: real time    0.12
       DOS:  cpu time    0.00: real time    0.00
    CHARGE:  cpu time    0.02: real time    0.01
    MIXING:  cpu time    0.00: real time    0.00
    --------------------------------------------
      LOOP:  cpu time    0.24: real time    0.25

 eigenvalue-minimisations  :   156
 total energy-change (2. order) : 0.1146080E+01  (-0.3253838E-01)
 number of electron      55.0000162 magnetization       3.1509982
 augmentation part       26.5086711 magnetization      -0.0549729

 Broyden mixing:
  rms(total) = 0.10824E+00    rms(broyden)= 0.10803E+00
  rms(prec ) = 0.11693E+00
  weight for this iteration     100.00

 eigenvalues of (default mixing * dielectric matrix)
  average eigenvalue GAMMA=   0.9571
  2.0081  0.8805  0.6502  0.2896

 Free energy of the ion-electron system (eV)
  ---------------------------------------------------
  alpha Z        PSCENC =         5.50635490
  Ewald energy   TEWEN  =      2262.00259884
  -Hartree energ DENC   =     -7216.86163255
  -exchange      EXHF   =         0.00000000
  -V(xc)+E(xc)   XCENC  =       -55.32582714
  PAW double counting   =      5316.41985536    -5091.99765902
  entropy T*S    EENTRO =         0.00000000
  eigenvalues    EBANDS =      -408.94467244
  atomic energy  EATOM  =      5185.99315043
  ---------------------------------------------------
  free energy    TOTEN  =        -3.20783162 eV

  energy without entropy =       -3.20783162  energy(sigma->0) =       -3.20783162


--------------------------------------------------------------------------------------------------------




----------------------------------------- Iteration    1(  10)  ---------------------------------------


    POTLOK:  cpu time    0.09: real time    0.09
    SETDIJ:  cpu time    0.00: real time    0.01
     EDDAV:  cpu time    0.12: real time    0.12
       DOS:  cpu time    0.00: real time    0.00
    CHARGE:  cpu time    0.02: real time    0.01
    MIXING:  cpu time    0.00: real time    0.00
    --------------------------------------------
      LOOP:  cpu time    0.24: real time    0.24

 eigenvalue-minimisations  :   144
 total energy-change (2. order) :-0.1487657E+01  (-0.2961690E-01)
 number of electron      55.0000165 magnetization       2.9550516
 augmentation part       26.5064149 magnetization       1.7857166

 Broyden mixing:
  rms(total) = 0.20582E+00    rms(broyden)= 0.20570E+00
  rms(prec ) = 0.23631E+00
  weight for this iteration     100.00

 eigenvalues of (default mixing * dielectric matrix)
  average eigenvalue GAMMA=   0.9730
  2.2116  0.9579  0.8206  0.6338  0.2413

 Free energy of the ion-electron system (eV)
  ---------------------------------------------------
  alpha Z        PSCENC =         5.50635490
  Ewald energy   TEWEN  =      2262.00259884
  -Hartree energ DENC   =     -7216.80132556
  -exchange      EXHF   =         0.00000000
  -V(xc)+E(xc)   XCENC  =       -56.46737770
  PAW double counting   =      5335.67194447    -5111.68705461
  entropy T*S    EENTRO =         0.00000000
  eigenvalues    EBANDS =      -408.91377892
  atomic energy  EATOM  =      5185.99315043
  ---------------------------------------------------
  free energy    TOTEN  =        -4.69548814 eV

  energy without entropy =       -4.69548814  energy(sigma->0) =       -4.69548814


--------------------------------------------------------------------------------------------------------




----------------------------------------- Iteration    1(  11)  ---------------------------------------


    POTLOK:  cpu time    0.09: real time    0.09
    SETDIJ:  cpu time    0.00: real time    0.01
     EDDAV:  cpu time    0.13: real time    0.13
       DOS:  cpu time    0.00: real time    0.00
    CHARGE:  cpu time    0.02: real time    0.01
    MIXING:  cpu time    0.00: real time    0.00
    --------------------------------------------
      LOOP:  cpu time    0.24: real time    0.25

 eigenvalue-minimisations  :   160
 total energy-change (2. order) :-0.2225497E+00  (-0.5674203E-02)
 number of electron      55.0000165 magnetization       2.5816734
 augmentation part       26.5014109 magnetization       1.4310532

 Broyden mixing:
  rms(total) = 0.17964E+00    rms(broyden)= 0.17964E+00
  rms(prec ) = 0.20806E+00
  weight for this iteration     100.00

 eigenvalues of (default mixing * dielectric matrix)
  average eigenvalue GAMMA=   1.0048
  2.1485  1.3900  0.7987  0.7987  0.6397  0.2532

 Free energy of the ion-electron system (eV)
  ---------------------------------------------------
  alpha Z        PSCENC =         5.50635490
  Ewald energy   TEWEN  =      2262.00259884
  -Hartree energ DENC   =     -7217.28820059
  -exchange      EXHF   =         0.00000000
  -V(xc)+E(xc)   XCENC  =       -56.63002883
  PAW double counting   =      5340.82018069    -5116.96141540
  entropy T*S    EENTRO =         0.00000000
  eigenvalues    EBANDS =      -408.36067793
  atomic energy  EATOM  =      5185.99315043
  ---------------------------------------------------
  free energy    TOTEN  =        -4.91803789 eV

  energy without entropy =       -4.91803789  energy(sigma->0) =       -4.91803789


--------------------------------------------------------------------------------------------------------




----------------------------------------- Iteration    1(  12)  ---------------------------------------


    POTLOK:  cpu time    0.09: real time    0.09
    SETDIJ:  cpu time    0.01: real time    0.01
     EDDAV:  cpu time    0.13: real time    0.13
       DOS:  cpu time    0.00: real time    0.00
    CHARGE:  cpu time    0.01: real time    0.01
    MIXING:  cpu time    0.00: real time    0.00
    --------------------------------------------
      LOOP:  cpu time    0.24: real time    0.25

 eigenvalue-minimisations  :   160
 total energy-change (2. order) :-0.4069124E+00  (-0.1010903E-01)
 number of electron      55.0000165 magnetization       2.1273341
 augmentation part       26.5043069 magnetization       1.0027567

 Broyden mixing:
  rms(total) = 0.13939E+00    rms(broyden)= 0.13939E+00
  rms(prec ) = 0.16189E+00
  weight for this iteration     100.00

 eigenvalues of (default mixing * dielectric matrix)
  average eigenvalue GAMMA=   1.2539
  3.0645  2.2172  1.1373  0.8749  0.2510  0.6367  0.5958

 Free energy of the ion-electron system (eV)
  ---------------------------------------------------
  alpha Z        PSCENC =         5.50635490
  Ewald energy   TEWEN  =      2262.00259884
  -Hartree energ DENC   =     -7217.55213018
  -exchange      EXHF   =         0.00000000
  -V(xc)+E(xc)   XCENC  =       -56.97750766
  PAW double counting   =      5339.98125188    -5116.18198116
  entropy T*S    EENTRO =         0.00000000
  eigenvalues    EBANDS =      -408.09668739
  atomic energy  EATOM  =      5185.99315043
  ---------------------------------------------------
  free energy    TOTEN  =        -5.32495034 eV

  energy without entropy =       -5.32495034  energy(sigma->0) =       -5.32495034


--------------------------------------------------------------------------------------------------------




----------------------------------------- Iteration    1(  13)  ---------------------------------------


    POTLOK:  cpu time    0.09: real time    0.09
    SETDIJ:  cpu time    0.00: real time    0.01
     EDDAV:  cpu time    0.12: real time    0.12
       DOS:  cpu time    0.00: real time    0.00
    CHARGE:  cpu time    0.01: real time    0.01
    MIXING:  cpu time    0.00: real time    0.00
    --------------------------------------------
      LOOP:  cpu time    0.24: real time    0.24

 eigenvalue-minimisations  :   152
 total energy-change (2. order) :-0.4283334E+00  (-0.1141659E-01)
 number of electron      55.0000165 magnetization       2.0402437
 augmentation part       26.5052119 magnetization       0.9428970

 Broyden mixing:
  rms(total) = 0.96657E-01    rms(broyden)= 0.96641E-01
  rms(prec ) = 0.11409E+00
  weight for this iteration     100.00

 eigenvalues of (default mixing * dielectric matrix)
  average eigenvalue GAMMA=   1.1742
  3.2886  2.0737  1.3444  0.8646  0.6505  0.6369  0.2521  0.2824

 Free energy of the ion-electron system (eV)
  ---------------------------------------------------
  alpha Z        PSCENC =         5.50635490
  Ewald energy   TEWEN  =      2262.00259884
  -Hartree energ DENC   =     -7218.18709767
  -exchange      EXHF   =         0.00000000
  -V(xc)+E(xc)   XCENC  =       -57.35185220
  PAW double counting   =      5340.80768768    -5117.10493279
  entropy T*S    EENTRO =         0.00000000
  eigenvalues    EBANDS =      -407.41919296
  atomic energy  EATOM  =      5185.99315043
  ---------------------------------------------------
  free energy    TOTEN  =        -5.75328377 eV

  energy without entropy =       -5.75328377  energy(sigma->0) =       -5.75328377


--------------------------------------------------------------------------------------------------------




----------------------------------------- Iteration    1(  14)  ---------------------------------------


    POTLOK:  cpu time    0.09: real time    0.09
    SETDIJ:  cpu time    0.01: real time    0.01
     EDDAV:  cpu time    0.12: real time    0.13
       DOS:  cpu time    0.00: real time    0.00
    CHARGE:  cpu time    0.01: real time    0.01
    MIXING:  cpu time    0.00: real time    0.00
    --------------------------------------------
      LOOP:  cpu time    0.24: real time    0.25

 eigenvalue-minimisations  :   156
 total energy-change (2. order) :-0.8671372E-01  (-0.9509502E-03)
 number of electron      55.0000165 magnetization       1.7986267
 augmentation part       26.5024289 magnetization       0.7048221

 Broyden mixing:
  rms(total) = 0.84591E-01    rms(broyden)= 0.84587E-01
  rms(prec ) = 0.10051E+00
  weight for this iteration     100.00

 eigenvalues of (default mixing * dielectric matrix)
  average eigenvalue GAMMA=   1.1819
  3.4081  1.8108  1.8108  1.0039  0.8629  0.6235  0.5861  0.2509  0.2797

 Free energy of the ion-electron system (eV)
  ---------------------------------------------------
  alpha Z        PSCENC =         5.50635490
  Ewald energy   TEWEN  =      2262.00259884
  -Hartree energ DENC   =     -7218.43797657
  -exchange      EXHF   =         0.00000000
  -V(xc)+E(xc)   XCENC  =       -57.42631544
  PAW double counting   =      5341.32148920    -5117.63801735
  entropy T*S    EENTRO =         0.00000000
  eigenvalues    EBANDS =      -407.16128151
  atomic energy  EATOM  =      5185.99315043
  ---------------------------------------------------
  free energy    TOTEN  =        -5.83999750 eV

  energy without entropy =       -5.83999750  energy(sigma->0) =       -5.83999750


--------------------------------------------------------------------------------------------------------




----------------------------------------- Iteration    1(  15)  ---------------------------------------


    POTLOK:  cpu time    0.09: real time    0.09
    SETDIJ:  cpu time    0.00: real time    0.01
     EDDAV:  cpu time    0.12: real time    0.12
       DOS:  cpu time    0.00: real time    0.00
    CHARGE:  cpu time    0.01: real time    0.01
    MIXING:  cpu time    0.00: real time    0.00
    --------------------------------------------
      LOOP:  cpu time    0.24: real time    0.24

 eigenvalue-minimisations  :   148
 total energy-change (2. order) :-0.2411903E+00  (-0.3495340E-02)
 number of electron      55.0000163 magnetization       1.8023787
 augmentation part       26.5010692 magnetization       0.7158042

 Broyden mixing:
  rms(total) = 0.16047E+00    rms(broyden)= 0.16019E+00
  rms(prec ) = 0.19559E+00
  weight for this iteration     100.00

 eigenvalues of (default mixing * dielectric matrix)
  average eigenvalue GAMMA=   1.0651
  3.4010  1.8173  1.8173  1.0051  0.8645  0.6231  0.5823  0.2509  0.2814  0.0086

 Free energy of the ion-electron system (eV)
  ---------------------------------------------------
  alpha Z        PSCENC =         5.50635490
  Ewald energy   TEWEN  =      2262.00259884
  -Hartree energ DENC   =     -7218.88984245
  -exchange      EXHF   =         0.00000000
  -V(xc)+E(xc)   XCENC  =       -57.63897560
  PAW double counting   =      5340.32025455    -5116.63233918
  entropy T*S    EENTRO =        -0.00000001
  eigenvalues    EBANDS =      -406.74238932
  atomic energy  EATOM  =      5185.99315043
  ---------------------------------------------------
  free energy    TOTEN  =        -6.08118784 eV

  energy without entropy =       -6.08118782  energy(sigma->0) =       -6.08118783


--------------------------------------------------------------------------------------------------------




----------------------------------------- Iteration    1(  16)  ---------------------------------------


    POTLOK:  cpu time    0.09: real time    0.09
    SETDIJ:  cpu time    0.00: real time    0.01
     EDDAV:  cpu time    0.12: real time    0.12
       DOS:  cpu time    0.00: real time    0.00
    CHARGE:  cpu time    0.01: real time    0.01
    MIXING:  cpu time    0.01: real time    0.01
    --------------------------------------------
      LOOP:  cpu time    0.24: real time    0.24

 eigenvalue-minimisations  :   152
 total energy-change (2. order) :-0.3515015E-02  (-0.2071789E-03)
 number of electron      55.0000163 magnetization       1.7583305
 augmentation part       26.5011371 magnetization       0.6715503

 Broyden mixing:
  rms(total) = 0.16929E+00    rms(broyden)= 0.16926E+00
  rms(prec ) = 0.20624E+00
  weight for this iteration     100.00

 eigenvalues of (default mixing * dielectric matrix)
  average eigenvalue GAMMA=   0.9996
  3.6010  1.8341  1.8341  0.9413  0.8722  0.6195  0.5937  0.2513  0.1562  0.1562
  0.1359

 Free energy of the ion-electron system (eV)
  ---------------------------------------------------
  alpha Z        PSCENC =         5.50635490
  Ewald energy   TEWEN  =      2262.00259884
  -Hartree energ DENC   =     -7218.88412096
  -exchange      EXHF   =         0.00000000
  -V(xc)+E(xc)   XCENC  =       -57.64056952
  PAW double counting   =      5340.30021638    -5116.61129168
  entropy T*S    EENTRO =        -0.00000000
  eigenvalues    EBANDS =      -406.75104125
  atomic energy  EATOM  =      5185.99315043
  ---------------------------------------------------
  free energy    TOTEN  =        -6.08470285 eV

  energy without entropy =       -6.08470285  energy(sigma->0) =       -6.08470285


--------------------------------------------------------------------------------------------------------




----------------------------------------- Iteration    1(  17)  ---------------------------------------


    POTLOK:  cpu time    0.09: real time    0.09
    SETDIJ:  cpu time    0.01: real time    0.01
     EDDAV:  cpu time    0.12: real time    0.12
       DOS:  cpu time    0.00: real time    0.00
    CHARGE:  cpu time    0.02: real time    0.01
    MIXING:  cpu time    0.00: real time    0.01
    --------------------------------------------
      LOOP:  cpu time    0.24: real time    0.25

 eigenvalue-minimisations  :   148
 total energy-change (2. order) :-0.2803006E-01  (-0.3949091E-03)
 number of electron      55.0000162 magnetization       1.5466830
 augmentation part       26.5007677 magnetization       0.4620253

 Broyden mixing:
  rms(total) = 0.17305E+00    rms(broyden)= 0.17303E+00
  rms(prec ) = 0.21061E+00
  weight for this iteration     100.00

 eigenvalues of (default mixing * dielectric matrix)
  average eigenvalue GAMMA=   1.0882
  4.3124  1.9350  1.9350  0.9100  0.9100  0.6251  0.5811  0.5811  0.2512  0.4736
  0.4736  0.0699

 Free energy of the ion-electron system (eV)
  ---------------------------------------------------
  alpha Z        PSCENC =         5.50635490
  Ewald energy   TEWEN  =      2262.00259884
  -Hartree energ DENC   =     -7219.03635897
  -exchange      EXHF   =         0.00000000
  -V(xc)+E(xc)   XCENC  =       -57.66328990
  PAW double counting   =      5340.68238482    -5117.00993680
  entropy T*S    EENTRO =        -0.00000000
  eigenvalues    EBANDS =      -406.58763624
  atomic energy  EATOM  =      5185.99315043
  ---------------------------------------------------
  free energy    TOTEN  =        -6.11273291 eV

  energy without entropy =       -6.11273291  energy(sigma->0) =       -6.11273291


--------------------------------------------------------------------------------------------------------




----------------------------------------- Iteration    1(  18)  ---------------------------------------


    POTLOK:  cpu time    0.09: real time    0.09
    SETDIJ:  cpu time    0.00: real time    0.01
     EDDAV:  cpu time    0.12: real time    0.12
       DOS:  cpu time    0.00: real time    0.00
    CHARGE:  cpu time    0.01: real time    0.01
    MIXING:  cpu time    0.00: real time    0.01
    --------------------------------------------
      LOOP:  cpu time    0.24: real time    0.24

 eigenvalue-minimisations  :   148
 total energy-change (2. order) :-0.1492295E+00  (-0.2578947E-02)
 number of electron      55.0000162 magnetization       1.4872408
 augmentation part       26.4993255 magnetization       0.4118530

 Broyden mixing:
  rms(total) = 0.17232E+00    rms(broyden)= 0.17232E+00
  rms(prec ) = 0.21019E+00
  weight for this iteration     100.00

 eigenvalues of (default mixing * dielectric matrix)
  average eigenvalue GAMMA=   1.0832
  4.4981  2.2065  1.5685  1.1130  0.5695  0.5695  0.8764  0.2512  0.5849  0.5849
  0.6148  0.5744  0.0706

 Free energy of the ion-electron system (eV)
  ---------------------------------------------------
  alpha Z        PSCENC =         5.50635490
  Ewald energy   TEWEN  =      2262.00259884
  -Hartree energ DENC   =     -7219.53934011
  -exchange      EXHF   =         0.00000000
  -V(xc)+E(xc)   XCENC  =       -57.79128215
  PAW double counting   =      5339.89850827    -5116.23935625
  entropy T*S    EENTRO =        -0.00000000
  eigenvalues    EBANDS =      -406.09259631
  atomic energy  EATOM  =      5185.99315043
  ---------------------------------------------------
  free energy    TOTEN  =        -6.26196238 eV

  energy without entropy =       -6.26196238  energy(sigma->0) =       -6.26196238


--------------------------------------------------------------------------------------------------------




----------------------------------------- Iteration    1(  19)  ---------------------------------------


    POTLOK:  cpu time    0.09: real time    0.09
    SETDIJ:  cpu time    0.00: real time    0.01
     EDDAV:  cpu time    0.12: real time    0.12
       DOS:  cpu time    0.00: real time    0.00
    CHARGE:  cpu time    0.01: real time    0.01
    MIXING:  cpu time    0.01: real time    0.01
    --------------------------------------------
      LOOP:  cpu time    0.24: real time    0.24

 eigenvalue-minimisations  :   148
 total energy-change (2. order) :-0.3728945E-01  (-0.8167631E-03)
 number of electron      55.0000162 magnetization       1.4631137
 augmentation part       26.4987614 magnetization       0.3905051

 Broyden mixing:
  rms(total) = 0.17362E+00    rms(broyden)= 0.17362E+00
  rms(prec ) = 0.21207E+00
  weight for this iteration     100.00

 eigenvalues of (default mixing * dielectric matrix)
  average eigenvalue GAMMA=   1.0890
  4.3350  2.3256  1.3730  1.3730  0.9359  0.9359  0.8613  0.4988  0.4988  0.5845
  0.5845  0.6179  0.2512  0.0705

 Free energy of the ion-electron system (eV)
  ---------------------------------------------------
  alpha Z        PSCENC =         5.50635490
  Ewald energy   TEWEN  =      2262.00259884
  -Hartree energ DENC   =     -7219.62821794
  -exchange      EXHF   =         0.00000000
  -V(xc)+E(xc)   XCENC  =       -57.82123787
  PAW double counting   =      5339.24026362    -5115.57230911
  entropy T*S    EENTRO =         0.00000000
  eigenvalues    EBANDS =      -406.01985471
  atomic energy  EATOM  =      5185.99315043
  ---------------------------------------------------
  free energy    TOTEN  =        -6.29925183 eV

  energy without entropy =       -6.29925183  energy(sigma->0) =       -6.29925183


--------------------------------------------------------------------------------------------------------




----------------------------------------- Iteration    1(  20)  ---------------------------------------


    POTLOK:  cpu time    0.09: real time    0.09
    SETDIJ:  cpu time    0.00: real time    0.01
     EDDAV:  cpu time    0.12: real time    0.12
       DOS:  cpu time    0.00: real time    0.00
    CHARGE:  cpu time    0.01: real time    0.01
    MIXING:  cpu time    0.01: real time    0.01
    --------------------------------------------
      LOOP:  cpu time    0.24: real time    0.25

 eigenvalue-minimisations  :   148
 total energy-change (2. order) :-0.1166306E-01  (-0.4149396E-03)
 number of electron      55.0000162 magnetization       1.2669902
 augmentation part       26.4985083 magnetization       0.1953226

 Broyden mixing:
  rms(total) = 0.17568E+00    rms(broyden)= 0.17568E+00
  rms(prec ) = 0.21467E+00
  weight for this iteration     100.00

 eigenvalues of (default mixing * dielectric matrix)
  average eigenvalue GAMMA=   1.2767
  3.7982  3.7982  2.8808  1.3308  1.3308  1.1925  0.5000  0.5000  0.8115  0.7390
  0.7390  0.6039  0.6039  0.2512  0.0705

 Free energy of the ion-electron system (eV)
  ---------------------------------------------------
  alpha Z        PSCENC =         5.50635490
  Ewald energy   TEWEN  =      2262.00259884
  -Hartree energ DENC   =     -7219.63731302
  -exchange      EXHF   =         0.00000000
  -V(xc)+E(xc)   XCENC  =       -57.83010751
  PAW double counting   =      5339.48912634    -5115.82215856
  entropy T*S    EENTRO =         0.00000000
  eigenvalues    EBANDS =      -406.01256632
  atomic energy  EATOM  =      5185.99315043
  ---------------------------------------------------
  free energy    TOTEN  =        -6.31091490 eV

  energy without entropy =       -6.31091490  energy(sigma->0) =       -6.31091490


--------------------------------------------------------------------------------------------------------




----------------------------------------- Iteration    1(  21)  ---------------------------------------


    POTLOK:  cpu time    0.09: real time    0.09
    SETDIJ:  cpu time    0.00: real time    0.01
     EDDAV:  cpu time    0.12: real time    0.12
       DOS:  cpu time    0.00: real time    0.00
    CHARGE:  cpu time    0.02: real time    0.01
    MIXING:  cpu time    0.00: real time    0.01
    --------------------------------------------
      LOOP:  cpu time    0.24: real time    0.27

 eigenvalue-minimisations  :   148
 total energy-change (2. order) :-0.7923789E-01  (-0.1038922E-01)
 number of electron      55.0000162 magnetization       1.1036377
 augmentation part       26.4995983 magnetization       0.0401539

 Broyden mixing:
  rms(total) = 0.19606E+00    rms(broyden)= 0.19602E+00
  rms(prec ) = 0.24159E+00
  weight for this iteration     100.00

 eigenvalues of (default mixing * dielectric matrix)
  average eigenvalue GAMMA=   1.3406
  5.2159  3.2318  3.2318  1.5540  1.5540  1.2921  0.4975  0.4975  0.8566  0.2512
  0.6967  0.6967  0.6014  0.6014  0.6008  0.0705

 Free energy of the ion-electron system (eV)
  ---------------------------------------------------
  alpha Z        PSCENC =         5.50635490
  Ewald energy   TEWEN  =      2262.00259884
  -Hartree energ DENC   =     -7219.41842587
  -exchange      EXHF   =         0.00000000
  -V(xc)+E(xc)   XCENC  =       -57.89198865
  PAW double counting   =      5340.31153761    -5116.66047001
  entropy T*S    EENTRO =         0.00000000
  eigenvalues    EBANDS =      -406.23291003
  atomic energy  EATOM  =      5185.99315043
  ---------------------------------------------------
  free energy    TOTEN  =        -6.39015278 eV

  energy without entropy =       -6.39015278  energy(sigma->0) =       -6.39015278


--------------------------------------------------------------------------------------------------------




----------------------------------------- Iteration    1(  22)  ---------------------------------------


    POTLOK:  cpu time    0.09: real time    0.09
    SETDIJ:  cpu time    0.00: real time    0.01
     EDDAV:  cpu time    0.12: real time    0.12
       DOS:  cpu time    0.00: real time    0.00
    CHARGE:  cpu time    0.02: real time    0.01
    MIXING:  cpu time    0.00: real time    0.01
    --------------------------------------------
      LOOP:  cpu time    0.24: real time    0.24

 eigenvalue-minimisations  :   144
 total energy-change (2. order) :-0.5072368E-01  (-0.1037304E-02)
 number of electron      55.0000162 magnetization       1.0621194
 augmentation part       26.5003770 magnetization       0.0062875

 Broyden mixing:
  rms(total) = 0.19054E+00    rms(broyden)= 0.19054E+00
  rms(prec ) = 0.23610E+00
  weight for this iteration     100.00

 eigenvalues of (default mixing * dielectric matrix)
  average eigenvalue GAMMA=   1.3375
  6.3241  2.4380  2.4380  2.0109  2.0109  1.2668  0.4966  0.4966  0.2512  0.7963
  0.7963  0.8379  0.6575  0.6575  0.5940  0.5940  0.0705

 Free energy of the ion-electron system (eV)
  ---------------------------------------------------
  alpha Z        PSCENC =         5.50635490
  Ewald energy   TEWEN  =      2262.00259884
  -Hartree energ DENC   =     -7219.39919354
  -exchange      EXHF   =         0.00000000
  -V(xc)+E(xc)   XCENC  =       -57.94133959
  PAW double counting   =      5339.31276811    -5115.66234940
  entropy T*S    EENTRO =         0.00000000
  eigenvalues    EBANDS =      -406.25286622
  atomic energy  EATOM  =      5185.99315043
  ---------------------------------------------------
  free energy    TOTEN  =        -6.44087646 eV

  energy without entropy =       -6.44087646  energy(sigma->0) =       -6.44087646


--------------------------------------------------------------------------------------------------------




----------------------------------------- Iteration    1(  23)  ---------------------------------------


    POTLOK:  cpu time    0.09: real time    0.09
    SETDIJ:  cpu time    0.01: real time    0.01
     EDDAV:  cpu time    0.12: real time    0.12
       DOS:  cpu time    0.00: real time    0.00
    CHARGE:  cpu time    0.01: real time    0.01
    MIXING:  cpu time    0.01: real time    0.01
    --------------------------------------------
      LOOP:  cpu time    0.24: real time    0.25

 eigenvalue-minimisations  :   152
 total energy-change (2. order) :-0.9787392E-02  (-0.8906202E-03)
 number of electron      55.0000162 magnetization       1.0644734
 augmentation part       26.5004762 magnetization       0.0110089

 Broyden mixing:
  rms(total) = 0.17785E+00    rms(broyden)= 0.17785E+00
  rms(prec ) = 0.22080E+00
  weight for this iteration     100.00

 eigenvalues of (default mixing * dielectric matrix)
  average eigenvalue GAMMA=   1.2956
  6.2171  2.4900  2.4900  1.9636  1.9636  1.2835  0.4968  0.4968  0.2512  0.8462
  0.8462  0.8349  0.6636  0.6636  0.5784  0.5784  0.5855  0.0705

 Free energy of the ion-electron system (eV)
  ---------------------------------------------------
  alpha Z        PSCENC =         5.50635490
  Ewald energy   TEWEN  =      2262.00259884
  -Hartree energ DENC   =     -7219.43038170
  -exchange      EXHF   =         0.00000000
  -V(xc)+E(xc)   XCENC  =       -57.96121640
  PAW double counting   =      5338.92004256    -5115.26944577
  entropy T*S    EENTRO =         0.00000000
  eigenvalues    EBANDS =      -406.21176671
  atomic energy  EATOM  =      5185.99315043
  ---------------------------------------------------
  free energy    TOTEN  =        -6.45066385 eV

  energy without entropy =       -6.45066385  energy(sigma->0) =       -6.45066385


--------------------------------------------------------------------------------------------------------




----------------------------------------- Iteration    1(  24)  ---------------------------------------


    POTLOK:  cpu time    0.09: real time    0.09
    SETDIJ:  cpu time    0.01: real time    0.01
     EDDAV:  cpu time    0.11: real time    0.11
       DOS:  cpu time    0.00: real time    0.00
    CHARGE:  cpu time    0.01: real time    0.01
    MIXING:  cpu time    0.01: real time    0.01
    --------------------------------------------
      LOOP:  cpu time    0.23: real time    0.24

 eigenvalue-minimisations  :   132
 total energy-change (2. order) : 0.1150666E-03  (-0.9879746E-04)
 number of electron      55.0000162 magnetization       1.0365192
 augmentation part       26.5003810 magnetization      -0.0167433

 Broyden mixing:
  rms(total) = 0.17301E+00    rms(broyden)= 0.17301E+00
  rms(prec ) = 0.21479E+00
  weight for this iteration     100.00

 eigenvalues of (default mixing * dielectric matrix)
  average eigenvalue GAMMA=   1.3119
  6.3080  2.4539  2.4539  2.0564  2.0564  1.2699  1.0504  1.0504  0.4970  0.4970
  0.2512  0.7929  0.7929  0.8234  0.6487  0.6487  0.6021  0.6021  0.0705

 Free energy of the ion-electron system (eV)
  ---------------------------------------------------
  alpha Z        PSCENC =         5.50635490
  Ewald energy   TEWEN  =      2262.00259884
  -Hartree energ DENC   =     -7219.43053034
  -exchange      EXHF   =         0.00000000
  -V(xc)+E(xc)   XCENC  =       -57.96421642
  PAW double counting   =      5339.15536399    -5115.50456498
  entropy T*S    EENTRO =         0.00000000
  eigenvalues    EBANDS =      -406.20870521
  atomic energy  EATOM  =      5185.99315043
  ---------------------------------------------------
  free energy    TOTEN  =        -6.45054879 eV

  energy without entropy =       -6.45054879  energy(sigma->0) =       -6.45054879


--------------------------------------------------------------------------------------------------------




----------------------------------------- Iteration    1(  25)  ---------------------------------------


    POTLOK:  cpu time    0.09: real time    0.09
    SETDIJ:  cpu time    0.01: real time    0.01
     EDDAV:  cpu time    0.12: real time    0.12
       DOS:  cpu time    0.00: real time    0.00
    CHARGE:  cpu time    0.02: real time    0.01
    MIXING:  cpu time    0.01: real time    0.01
    --------------------------------------------
      LOOP:  cpu time    0.24: real time    0.27

 eigenvalue-minimisations  :   148
 total energy-change (2. order) :-0.4556391E-02  (-0.4181775E-03)
 number of electron      55.0000162 magnetization       1.0084699
 augmentation part       26.4999468 magnetization      -0.0429843

 Broyden mixing:
  rms(total) = 0.16169E+00    rms(broyden)= 0.16169E+00
  rms(prec ) = 0.20075E+00
  weight for this iteration     100.00

 eigenvalues of (default mixing * dielectric matrix)
  average eigenvalue GAMMA=   1.3560
  6.3841  2.3710  2.3710  2.5837  2.5837  1.5052  0.4970  0.4970  1.1610  1.1610
  0.2512  0.8664  0.8664  0.8104  0.6818  0.6818  0.5948  0.5948  0.5870  0.0705

 Free energy of the ion-electron system (eV)
  ---------------------------------------------------
  alpha Z        PSCENC =         5.50635490
  Ewald energy   TEWEN  =      2262.00259884
  -Hartree energ DENC   =     -7219.49611876
  -exchange      EXHF   =         0.00000000
  -V(xc)+E(xc)   XCENC  =       -57.97509645
  PAW double counting   =      5339.66034875    -5116.01533044
  entropy T*S    EENTRO =         0.00000000
  eigenvalues    EBANDS =      -406.13101244
  atomic energy  EATOM  =      5185.99315043
  ---------------------------------------------------
  free energy    TOTEN  =        -6.45510518 eV

  energy without entropy =       -6.45510518  energy(sigma->0) =       -6.45510518


--------------------------------------------------------------------------------------------------------




----------------------------------------- Iteration    1(  26)  ---------------------------------------


    POTLOK:  cpu time    0.09: real time    0.09
    SETDIJ:  cpu time    0.00: real time    0.01
     EDDAV:  cpu time    0.12: real time    0.12
       DOS:  cpu time    0.00: real time    0.00
    CHARGE:  cpu time    0.01: real time    0.01
    MIXING:  cpu time    0.01: real time    0.01
    --------------------------------------------
      LOOP:  cpu time    0.24: real time    0.28

 eigenvalue-minimisations  :   148
 total energy-change (2. order) :-0.2196856E-02  (-0.4894526E-03)
 number of electron      55.0000162 magnetization       0.9975941
 augmentation part       26.4996931 magnetization      -0.0520364

 Broyden mixing:
  rms(total) = 0.14869E+00    rms(broyden)= 0.14869E+00
  rms(prec ) = 0.18490E+00
  weight for this iteration     100.00

 eigenvalues of (default mixing * dielectric matrix)
  average eigenvalue GAMMA=   1.5041
  6.1695  4.1377  4.1377  2.2982  1.9141  1.9141  1.6433  1.6433  0.4970  0.4970
  0.2512  0.8304  0.8304  0.8075  0.7481  0.7481  0.6243  0.6243  0.6000  0.6000
  0.0705

 Free energy of the ion-electron system (eV)
  ---------------------------------------------------
  alpha Z        PSCENC =         5.50635490
  Ewald energy   TEWEN  =      2262.00259884
  -Hartree energ DENC   =     -7219.50909636
  -exchange      EXHF   =         0.00000000
  -V(xc)+E(xc)   XCENC  =       -57.98466653
  PAW double counting   =      5339.78336219    -5116.14076904
  entropy T*S    EENTRO =         0.00000000
  eigenvalues    EBANDS =      -406.10823646
  atomic energy  EATOM  =      5185.99315043
  ---------------------------------------------------
  free energy    TOTEN  =        -6.45730203 eV

  energy without entropy =       -6.45730203  energy(sigma->0) =       -6.45730203


--------------------------------------------------------------------------------------------------------




----------------------------------------- Iteration    1(  27)  ---------------------------------------


    POTLOK:  cpu time    0.09: real time    0.09
    SETDIJ:  cpu time    0.00: real time    0.01
     EDDAV:  cpu time    0.12: real time    0.12
       DOS:  cpu time    0.00: real time    0.00
    CHARGE:  cpu time    0.01: real time    0.01
    MIXING:  cpu time    0.01: real time    0.01
    --------------------------------------------
      LOOP:  cpu time    0.24: real time    0.25

 eigenvalue-minimisations  :   148
 total energy-change (2. order) :-0.9213228E-04  (-0.9142419E-03)
 number of electron      55.0000163 magnetization       1.0005557
 augmentation part       26.4995111 magnetization      -0.0481265

 Broyden mixing:
  rms(total) = 0.12849E+00    rms(broyden)= 0.12848E+00
  rms(prec ) = 0.16022E+00
  weight for this iteration     100.00

 eigenvalues of (default mixing * dielectric matrix)
  average eigenvalue GAMMA=   1.5975
  5.6572  5.6572  5.5889  2.5664  1.8953  1.8953  1.8825  1.4300  0.4970  0.4970
  0.2512  0.8772  0.8772  0.8297  0.7618  0.7618  0.6677  0.6677  0.6004  0.6004
  0.6124  0.0705

 Free energy of the ion-electron system (eV)
  ---------------------------------------------------
  alpha Z        PSCENC =         5.50635490
  Ewald energy   TEWEN  =      2262.00259884
  -Hartree energ DENC   =     -7219.49340731
  -exchange      EXHF   =         0.00000000
  -V(xc)+E(xc)   XCENC  =       -57.99354220
  PAW double counting   =      5339.28426325    -5115.63846650
  entropy T*S    EENTRO =        -0.00000000
  eigenvalues    EBANDS =      -406.11834559
  atomic energy  EATOM  =      5185.99315043
  ---------------------------------------------------
  free energy    TOTEN  =        -6.45739417 eV

  energy without entropy =       -6.45739417  energy(sigma->0) =       -6.45739417


--------------------------------------------------------------------------------------------------------




----------------------------------------- Iteration    1(  28)  ---------------------------------------


    POTLOK:  cpu time    0.09: real time    0.09
    SETDIJ:  cpu time    0.00: real time    0.01
     EDDAV:  cpu time    0.12: real time    0.12
       DOS:  cpu time    0.00: real time    0.00
    CHARGE:  cpu time    0.01: real time    0.01
    MIXING:  cpu time    0.01: real time    0.01
    --------------------------------------------
      LOOP:  cpu time    0.24: real time    0.25

 eigenvalue-minimisations  :   152
 total energy-change (2. order) : 0.5935591E-03  (-0.7799413E-03)
 number of electron      55.0000163 magnetization       0.9953160
 augmentation part       26.4995863 magnetization      -0.0530678

 Broyden mixing:
  rms(total) = 0.10503E+00    rms(broyden)= 0.10500E+00
  rms(prec ) = 0.13105E+00
  weight for this iteration     100.00

 eigenvalues of (default mixing * dielectric matrix)
  average eigenvalue GAMMA=   1.5935
  6.2507  5.7327  5.7327  2.6267  1.8580  1.8580  1.7728  1.4488  0.4970  0.4970
  0.9620  0.9620  0.2512  0.8483  0.7359  0.7359  0.7132  0.7132  0.6065  0.6065
  0.6090  0.5617  0.0705

 Free energy of the ion-electron system (eV)
  ---------------------------------------------------
  alpha Z        PSCENC =         5.50635490
  Ewald energy   TEWEN  =      2262.00259884
  -Hartree energ DENC   =     -7219.42439803
  -exchange      EXHF   =         0.00000000
  -V(xc)+E(xc)   XCENC  =       -57.99907136
  PAW double counting   =      5338.70816800    -5115.05422297
  entropy T*S    EENTRO =        -0.00000000
  eigenvalues    EBANDS =      -406.18938042
  atomic energy  EATOM  =      5185.99315043
  ---------------------------------------------------
  free energy    TOTEN  =        -6.45680061 eV

  energy without entropy =       -6.45680061  energy(sigma->0) =       -6.45680061


--------------------------------------------------------------------------------------------------------




----------------------------------------- Iteration    1(  29)  ---------------------------------------


    POTLOK:  cpu time    0.09: real time    0.09
    SETDIJ:  cpu time    0.01: real time    0.01
     EDDAV:  cpu time    0.12: real time    0.12
       DOS:  cpu time    0.00: real time    0.00
    CHARGE:  cpu time    0.02: real time    0.01
    MIXING:  cpu time    0.01: real time    0.01
    --------------------------------------------
      LOOP:  cpu time    0.24: real time    0.24

 eigenvalue-minimisations  :   144
 total energy-change (2. order) :-0.1119722E-02  (-0.2266990E-03)
 number of electron      55.0000163 magnetization       0.9919027
 augmentation part       26.4997694 magnetization      -0.0563188

 Broyden mixing:
  rms(total) = 0.10489E+00    rms(broyden)= 0.10488E+00
  rms(prec ) = 0.13090E+00
  weight for this iteration     100.00

 eigenvalues of (default mixing * dielectric matrix)
  average eigenvalue GAMMA=   1.6393
  6.4353  6.3792  6.3792  2.8520  1.8389  1.8389  1.7895  1.5116  1.1429  1.1429
  0.4970  0.4970  0.2512  0.7656  0.7656  0.8473  0.7150  0.7150  0.6132  0.6132
  0.5968  0.5968  0.4886  0.0705

 Free energy of the ion-electron system (eV)
  ---------------------------------------------------
  alpha Z        PSCENC =         5.50635490
  Ewald energy   TEWEN  =      2262.00259884
  -Hartree energ DENC   =     -7219.41118539
  -exchange      EXHF   =         0.00000000
  -V(xc)+E(xc)   XCENC  =       -58.00156758
  PAW double counting   =      5338.56533988    -5114.90657273
  entropy T*S    EENTRO =        -0.00000000
  eigenvalues    EBANDS =      -406.20603868
  atomic energy  EATOM  =      5185.99315043
  ---------------------------------------------------
  free energy    TOTEN  =        -6.45792033 eV

  energy without entropy =       -6.45792033  energy(sigma->0) =       -6.45792033


--------------------------------------------------------------------------------------------------------




----------------------------------------- Iteration    1(  30)  ---------------------------------------


    POTLOK:  cpu time    0.09: real time    0.09
    SETDIJ:  cpu time    0.00: real time    0.01
     EDDAV:  cpu time    0.12: real time    0.12
       DOS:  cpu time    0.00: real time    0.00
    CHARGE:  cpu time    0.02: real time    0.01
    MIXING:  cpu time    0.01: real time    0.01
    --------------------------------------------
      LOOP:  cpu time    0.24: real time    0.25

 eigenvalue-minimisations  :   152
 total energy-change (2. order) : 0.4149507E-03  (-0.1247313E-02)
 number of electron      55.0000165 magnetization       0.9970492
 augmentation part       26.4996526 magnetization      -0.0506244

 Broyden mixing:
  rms(total) = 0.77931E-01    rms(broyden)= 0.77514E-01
  rms(prec ) = 0.97110E-01
  weight for this iteration     100.00

 eigenvalues of (default mixing * dielectric matrix)
  average eigenvalue GAMMA=   1.5644
  6.3830  6.0922  6.0922  2.9059  1.8090  1.8090  1.8776  1.5596  1.1401  1.1401
  0.4970  0.4970  0.2512  0.7730  0.7730  0.8448  0.7146  0.7146  0.6332  0.6332
  0.5995  0.5933  0.5933  0.0705  0.1135

 Free energy of the ion-electron system (eV)
  ---------------------------------------------------
  alpha Z        PSCENC =         5.50635490
  Ewald energy   TEWEN  =      2262.00259884
  -Hartree energ DENC   =     -7219.36704194
  -exchange      EXHF   =         0.00000000
  -V(xc)+E(xc)   XCENC  =       -58.00341959
  PAW double counting   =      5338.55983083    -5114.89799648
  entropy T*S    EENTRO =        -0.00000000
  eigenvalues    EBANDS =      -406.25098237
  atomic energy  EATOM  =      5185.99315043
  ---------------------------------------------------
  free energy    TOTEN  =        -6.45750538 eV

  energy without entropy =       -6.45750538  energy(sigma->0) =       -6.45750538


--------------------------------------------------------------------------------------------------------




----------------------------------------- Iteration    1(  31)  ---------------------------------------


    POTLOK:  cpu time    0.09: real time    0.09
    SETDIJ:  cpu time    0.00: real time    0.01
     EDDAV:  cpu time    0.12: real time    0.12
       DOS:  cpu time    0.00: real time    0.00
    CHARGE:  cpu time    0.01: real time    0.01
    MIXING:  cpu time    0.01: real time    0.01
    --------------------------------------------
      LOOP:  cpu time    0.24: real time    0.26

 eigenvalue-minimisations  :   144
 total energy-change (2. order) :-0.3157211E-02  (-0.3921185E-03)
 number of electron      55.0000165 magnetization       1.0001723
 augmentation part       26.4995528 magnetization      -0.0475870

 Broyden mixing:
  rms(total) = 0.61231E-01    rms(broyden)= 0.61149E-01
  rms(prec ) = 0.75215E-01
  weight for this iteration     100.00

 eigenvalues of (default mixing * dielectric matrix)
  average eigenvalue GAMMA=   1.5659
  6.5322  6.1950  6.1950  2.9007  1.9201  1.9201  1.9261  1.4706  1.3294  1.3294
  0.4970  0.4970  0.2512  0.8179  0.8179  0.8437  0.7281  0.7281  0.6652  0.6652
  0.6072  0.6072  0.6047  0.0705  0.2968  0.2968

 Free energy of the ion-electron system (eV)
  ---------------------------------------------------
  alpha Z        PSCENC =         5.50635490
  Ewald energy   TEWEN  =      2262.00259884
  -Hartree energ DENC   =     -7219.31548087
  -exchange      EXHF   =         0.00000000
  -V(xc)+E(xc)   XCENC  =       -58.00559980
  PAW double counting   =      5338.62812117    -5114.97000408
  entropy T*S    EENTRO =        -0.00000000
  eigenvalues    EBANDS =      -406.29980318
  atomic energy  EATOM  =      5185.99315043
  ---------------------------------------------------
  free energy    TOTEN  =        -6.46066259 eV

  energy without entropy =       -6.46066259  energy(sigma->0) =       -6.46066259


--------------------------------------------------------------------------------------------------------




----------------------------------------- Iteration    1(  32)  ---------------------------------------


    POTLOK:  cpu time    0.09: real time    0.09
    SETDIJ:  cpu time    0.01: real time    0.01
     EDDAV:  cpu time    0.11: real time    0.11
       DOS:  cpu time    0.00: real time    0.00
    CHARGE:  cpu time    0.02: real time    0.01
    MIXING:  cpu time    0.01: real time    0.01
    --------------------------------------------
      LOOP:  cpu time    0.23: real time    0.24

 eigenvalue-minimisations  :   128
 total energy-change (2. order) :-0.1327931E-03  (-0.1099305E-02)
 number of electron      55.0000163 magnetization       1.0056837
 augmentation part       26.5002610 magnetization      -0.0431610

 Broyden mixing:
  rms(total) = 0.11322E+00    rms(broyden)= 0.11295E+00
  rms(prec ) = 0.14071E+00
  weight for this iteration     100.00

 eigenvalues of (default mixing * dielectric matrix)
  average eigenvalue GAMMA=   1.4944
  6.0736  5.5789  5.5789  3.1347  1.7044  1.7044  2.0219  1.5943  1.5943  1.6069
  0.4970  0.4970  0.8843  0.8843  0.2512  0.7677  0.7677  0.8254  0.7134  0.7134
  0.6166  0.6166  0.6009  0.6009  0.0705  0.2247  0.2247

 Free energy of the ion-electron system (eV)
  ---------------------------------------------------
  alpha Z        PSCENC =         5.50635490
  Ewald energy   TEWEN  =      2262.00259884
  -Hartree energ DENC   =     -7219.28862289
  -exchange      EXHF   =         0.00000000
  -V(xc)+E(xc)   XCENC  =       -58.00479008
  PAW double counting   =      5338.58393217    -5114.92383902
  entropy T*S    EENTRO =        -0.00000000
  eigenvalues    EBANDS =      -406.32957974
  atomic energy  EATOM  =      5185.99315043
  ---------------------------------------------------
  free energy    TOTEN  =        -6.46079538 eV

  energy without entropy =       -6.46079538  energy(sigma->0) =       -6.46079538


--------------------------------------------------------------------------------------------------------




----------------------------------------- Iteration    1(  33)  ---------------------------------------


    POTLOK:  cpu time    0.09: real time    0.09
    SETDIJ:  cpu time    0.01: real time    0.01
     EDDAV:  cpu time    0.12: real time    0.12
       DOS:  cpu time    0.00: real time    0.00
    CHARGE:  cpu time    0.02: real time    0.01
    MIXING:  cpu time    0.01: real time    0.01
    --------------------------------------------
      LOOP:  cpu time    0.25: real time    0.25

 eigenvalue-minimisations  :   148
 total energy-change (2. order) : 0.6275685E-03  (-0.3056165E-02)
 number of electron      55.0000165 magnetization       1.0053790
 augmentation part       26.4997046 magnetization      -0.0430157

 Broyden mixing:
  rms(total) = 0.64935E-01    rms(broyden)= 0.64548E-01
  rms(prec ) = 0.79615E-01
  weight for this iteration     100.00

 eigenvalues of (default mixing * dielectric matrix)
  average eigenvalue GAMMA=   1.5034
  4.9904  4.9904  5.0580  5.0580  1.8033  1.8033  2.0310  2.0310  1.9663  1.5660
  0.4970  0.4970  1.0427  1.0427  0.2512  0.7807  0.7807  0.8411  0.7351  0.7351
  0.6283  0.6283  0.6215  0.6020  0.6020  0.0705  0.2213  0.2213

 Free energy of the ion-electron system (eV)
  ---------------------------------------------------
  alpha Z        PSCENC =         5.50635490
  Ewald energy   TEWEN  =      2262.00259884
  -Hartree energ DENC   =     -7219.18858267
  -exchange      EXHF   =         0.00000000
  -V(xc)+E(xc)   XCENC  =       -58.00603894
  PAW double counting   =      5338.40351568    -5114.74521748
  entropy T*S    EENTRO =        -0.00000000
  eigenvalues    EBANDS =      -406.42594858
  atomic energy  EATOM  =      5185.99315043
  ---------------------------------------------------
  free energy    TOTEN  =        -6.46016781 eV

  energy without entropy =       -6.46016781  energy(sigma->0) =       -6.46016781


--------------------------------------------------------------------------------------------------------




----------------------------------------- Iteration    1(  34)  ---------------------------------------


    POTLOK:  cpu time    0.09: real time    0.09
    SETDIJ:  cpu time    0.00: real time    0.01
     EDDAV:  cpu time    0.12: real time    0.11
       DOS:  cpu time    0.00: real time    0.00
    CHARGE:  cpu time    0.01: real time    0.01
    MIXING:  cpu time    0.01: real time    0.01
    --------------------------------------------
      LOOP:  cpu time    0.23: real time    0.24

 eigenvalue-minimisations  :   136
[...]
    SETDIJ:  cpu time    0.01: real time    0.01
     EDDAV:  cpu time    0.12: real time    0.12
       DOS:  cpu time    0.00: real time    0.00
    CHARGE:  cpu time    0.02: real time    0.01
    MIXING:  cpu time    0.00: real time    0.00
    --------------------------------------------
      LOOP:  cpu time    0.23: real time    0.25

 eigenvalue-minimisations  :   148
 total energy-change (2. order) :-0.1556928E-03  (-0.1295657E-02)
 number of electron      54.9999917 magnetization       1.0000001
 augmentation part       26.5556731 magnetization      -0.0614123

 Broyden mixing:
  rms(total) = 0.12759E-02    rms(broyden)= 0.12729E-02
  rms(prec ) = 0.14529E-02
  weight for this iteration     100.00

 Free energy of the ion-electron system (eV)
  ---------------------------------------------------
  alpha Z        PSCENC =         5.50635490
  Ewald energy   TEWEN  =      1956.74070487
  -Hartree energ DENC   =     -6925.19156020
  -exchange      EXHF   =         0.00000000
  -V(xc)+E(xc)   XCENC  =       -58.43132155
  PAW double counting   =      5267.69037419    -5042.60949936
  entropy T*S    EENTRO =         0.00000000
  eigenvalues    EBANDS =      -396.39883743
  atomic energy  EATOM  =      5185.99315043
  ---------------------------------------------------
  free energy    TOTEN  =        -6.70063414 eV

  energy without entropy =       -6.70063414  energy(sigma->0) =       -6.70063414


--------------------------------------------------------------------------------------------------------




----------------------------------------- Iteration   15(   2)  ---------------------------------------


    POTLOK:  cpu time    0.09: real time    0.09
    SETDIJ:  cpu time    0.01: real time    0.01
     EDDAV:  cpu time    0.10: real time    0.10
       DOS:  cpu time    0.00: real time    0.00
    --------------------------------------------
      LOOP:  cpu time    0.20: real time    0.20

 eigenvalue-minimisations  :   112
 total energy-change (2. order) :-0.3819490E-04  (-0.6274631E-05)
 number of electron      54.9999917 magnetization       1.0000001
 augmentation part       26.5556731 magnetization      -0.0614123

 Free energy of the ion-electron system (eV)
  ---------------------------------------------------
  alpha Z        PSCENC =         5.50635490
  Ewald energy   TEWEN  =      1956.74070487
  -Hartree energ DENC   =     -6925.20112635
  -exchange      EXHF   =         0.00000000
  -V(xc)+E(xc)   XCENC  =       -58.43087139
  PAW double counting   =      5267.47564625    -5042.39120323
  entropy T*S    EENTRO =         0.00000000
  eigenvalues    EBANDS =      -396.39332781
  atomic energy  EATOM  =      5185.99315043
  ---------------------------------------------------
  free energy    TOTEN  =        -6.70067233 eV

  energy without entropy =       -6.70067233  energy(sigma->0) =       -6.70067233


--------------------------------------------------------------------------------------------------------




 average (electrostatic) potential at core
  the test charge radii are     1.1249
  (the norm of the test charge is              1.0000)
       1 -82.0643       2 -82.0961       3 -82.0972       4 -82.6435       5 -82.0637
 
 
 
 E-fermi :  -4.0230     XC(G=0):  -0.7509     alpha+bet : -0.2972


 spin component 1

 k-point     1 :       0.0000    0.0000    0.0000
  band No.  band energies     occupation 
      1      -8.7586      1.00000
      2      -8.6946      1.00000
      3      -8.5542      1.00000
      4      -8.4132      1.00000
      5      -8.3226      1.00000
      6      -8.0931      1.00000
      7      -7.9378      1.00000
      8      -7.7786      1.00000
      9      -7.6035      1.00000
     10      -7.5031      1.00000
     11      -7.4072      1.00000
     12      -7.2515      1.00000
     13      -7.1708      1.00000
     14      -7.1304      1.00000
     15      -7.1036      1.00000
     16      -7.0772      1.00000
     17      -7.0071      1.00000
     18      -6.9762      1.00000
     19      -6.9095      1.00000
     20      -6.8887      1.00000
     21      -6.7922      1.00000
     22      -6.7668      1.00000
     23      -6.6643      1.00000
     24      -6.6391      1.00000
     25      -6.6060      1.00000
     26      -6.5072      1.00000
     27      -4.3002      1.00000
     28      -4.0450      1.00000
     29      -3.1726      0.00000
     30      -2.2784      0.00000
     31      -1.4381      0.00000
     32      -1.1671      0.00000
     33      -0.8720      0.00000
     34      -0.6792      0.00000
     35      -0.3118      0.00000
     36       0.0087      0.00000

 spin component 2

 k-point     1 :       0.0000    0.0000    0.0000
  band No.  band energies     occupation 
      1      -8.7355      1.00000
      2      -8.6624      1.00000
      3      -8.4984      1.00000
      4      -8.3740      1.00000
      5      -8.2899      1.00000
      6      -8.0371      1.00000
      7      -7.8776      1.00000
      8      -7.7082      1.00000
      9      -7.5451      1.00000
     10      -7.4573      1.00000
     11      -7.3550      1.00000
     12      -7.2139      1.00000
     13      -7.1351      1.00000
     14      -7.0860      1.00000
     15      -7.0558      1.00000
     16      -7.0427      1.00000
     17      -6.9702      1.00000
     18      -6.9070      1.00000
     19      -6.8448      1.00000
     20      -6.8413      1.00000
     21      -6.7404      1.00000
     22      -6.7400      1.00000
     23      -6.6055      1.00000
     24      -6.5935      1.00000
     25      -6.4958      1.00000
     26      -6.4450      1.00000
     27      -4.2338      1.00000
     28      -3.7002      0.00000
     29      -3.0635      0.00000
     30      -2.0422      0.00000
     31      -1.3120      0.00000
     32      -0.8681      0.00000
     33      -0.7732      0.00000
     34      -0.4588      0.00000
     35      -0.1960      0.00000
     36       0.1722      0.00000


--------------------------------------------------------------------------------------------------------


 soft charge-density along one line, spin component           1
         0         1         2         3         4         5         6         7         8         9
 total charge-density along one line
 
 soft charge-density along one line, spin component           2
         0         1         2         3         4         5         6         7         8         9
 total charge-density along one line
 
 pseudopotential strength for first ion, spin component:           1
-10.271   0.010   0.007  -0.000   0.002 -10.248   0.010   0.007
  0.010 -10.234   0.001  -0.006  -0.001   0.010 -10.212   0.001
  0.007   0.001 -10.238   0.002   0.011   0.007   0.001 -10.216
 -0.000  -0.006   0.002 -10.245   0.009  -0.000  -0.006   0.002
  0.002  -0.001   0.011   0.009 -10.261   0.002  -0.001   0.011
-10.248   0.010   0.007  -0.000   0.002 -10.200   0.010   0.006
  0.010 -10.212   0.001  -0.006  -0.001   0.010 -10.166   0.001
  0.007   0.001 -10.216   0.002   0.011   0.006   0.001 -10.169
 -0.000  -0.006   0.002 -10.223   0.008  -0.000  -0.006   0.002
  0.002  -0.001   0.011   0.008 -10.238   0.002  -0.001   0.010
  0.002  -0.002  -0.006  -0.004   0.004   0.002  -0.002  -0.006
  0.003  -0.004  -0.011  -0.006   0.007   0.003  -0.004  -0.010
  0.032  -0.004  -0.000   0.000  -0.000   0.031  -0.003  -0.000
  0.000   0.000  -0.005   0.033   0.000   0.000   0.000  -0.005
  0.000   0.000  -0.018  -0.003   0.032   0.000   0.000  -0.017
  0.039  -0.004  -0.000   0.000   0.000   0.038  -0.004  -0.000
  0.000  -0.000  -0.006   0.040   0.000   0.000  -0.000  -0.005
  0.000   0.000  -0.022  -0.003   0.039   0.000   0.000  -0.021
 pseudopotential strength for first ion, spin component:           2
-10.268   0.008   0.010   0.001  -0.001 -10.245   0.008   0.010
  0.008 -10.232  -0.001  -0.007   0.001   0.008 -10.211  -0.001
  0.010  -0.001 -10.236   0.003   0.008   0.010  -0.001 -10.214
  0.001  -0.007   0.003 -10.246   0.008   0.001  -0.006   0.003
 -0.001   0.001   0.008   0.008 -10.259  -0.001   0.001   0.008
-10.245   0.008   0.010   0.001  -0.001 -10.198   0.007   0.009
  0.008 -10.211  -0.001  -0.006   0.001   0.007 -10.165  -0.001
  0.010  -0.001 -10.214   0.003   0.008   0.009  -0.001 -10.168
  0.001  -0.006   0.003 -10.224   0.008   0.001  -0.006   0.003
 -0.001   0.001   0.008   0.008 -10.236  -0.001   0.001   0.008
  0.002  -0.001  -0.007  -0.003   0.005   0.002  -0.001  -0.007
  0.003  -0.001  -0.012  -0.005   0.008   0.003  -0.001  -0.011
  0.032  -0.005  -0.000   0.000  -0.001   0.031  -0.005  -0.000
  0.000   0.001  -0.006   0.033   0.001   0.000   0.001  -0.006
  0.000   0.000  -0.018  -0.004   0.032   0.000   0.000  -0.018
  0.040  -0.006  -0.000   0.000  -0.002   0.038  -0.006  -0.000
  0.000   0.001  -0.007   0.040   0.001   0.000   0.001  -0.007
 -0.000   0.000  -0.023  -0.005   0.040   0.000   0.000  -0.022
 total augmentation occupancy for first ion, spin component:           1
  2.377  -0.108   0.106  -0.072  -0.034  -0.507   0.143  -0.086   0.087   0.038  -0.023   0.030   0.076  -0.042  -0.014   0.014
 -0.108   2.339  -0.069   0.066   0.023   0.143  -0.289   0.076  -0.068  -0.029   0.169  -0.030  -0.051   0.046  -0.004  -0.000
  0.106  -0.069   2.446  -0.007  -0.178  -0.086   0.076  -0.433  -0.006   0.221   0.495  -0.075   0.043  -0.034  -0.097  -0.002
 -0.072   0.066  -0.007   2.425  -0.098   0.087  -0.068  -0.006  -0.403   0.122   0.257  -0.082  -0.023   0.057  -0.066   0.002
 -0.034   0.023  -0.178  -0.098   2.476   0.039  -0.030   0.221   0.122  -0.477  -0.424   0.086  -0.022  -0.006   0.112  -0.000
 -0.507   0.143  -0.086   0.087   0.039   0.598  -0.172   0.069  -0.100  -0.042   0.010  -0.014  -0.120   0.037   0.009   0.008
  0.143  -0.289   0.076  -0.068  -0.030  -0.172   0.227  -0.080   0.071   0.033  -0.156   0.034   0.058  -0.047   0.007  -0.003
 -0.086   0.076  -0.433  -0.006   0.221   0.069  -0.080   0.402   0.017  -0.258  -0.399   0.048  -0.036   0.040   0.120   0.001
  0.087  -0.068  -0.006  -0.403   0.122  -0.100   0.071   0.017   0.369  -0.143  -0.224   0.066   0.022  -0.076   0.074  -0.002
  0.038  -0.029   0.221   0.122  -0.477  -0.042   0.033  -0.258  -0.143   0.462   0.360  -0.071   0.023   0.006  -0.137  -0.001
 -0.023   0.169   0.495   0.257  -0.424   0.010  -0.156  -0.399  -0.224   0.360   1.636  -0.162  -0.019   0.060  -0.223   0.002
  0.030  -0.030  -0.075  -0.082   0.086  -0.014   0.034   0.048   0.066  -0.071  -0.162   0.032   0.006  -0.018   0.038  -0.000
  0.076  -0.051   0.043  -0.023  -0.022  -0.120   0.058  -0.036   0.022   0.023  -0.019   0.006   0.033  -0.016  -0.007  -0.002
 -0.042   0.046  -0.034   0.057  -0.006   0.037  -0.047   0.040  -0.076   0.006   0.060  -0.018  -0.016   0.030  -0.008   0.001
 -0.014  -0.004  -0.097  -0.066   0.112   0.009   0.007   0.120   0.074  -0.137  -0.223   0.038  -0.007  -0.008   0.064   0.000
  0.014  -0.000  -0.002   0.002  -0.000   0.008  -0.003   0.001  -0.002  -0.001   0.002  -0.000  -0.002   0.001   0.000   0.000
  0.002  -0.001  -0.003   0.015   0.002  -0.002   0.003  -0.002   0.005  -0.001  -0.006   0.001   0.001  -0.002   0.001  -0.000
  0.000   0.002  -0.004   0.003   0.011   0.000  -0.002  -0.008  -0.006   0.010   0.019  -0.003  -0.000   0.001  -0.005   0.000
 total augmentation occupancy for first ion, spin component:           2
 -0.015  -0.047   0.035   0.020  -0.053  -0.002   0.034  -0.026  -0.015   0.039  -0.075  -0.009   0.022  -0.008  -0.020  -0.001
 -0.047  -0.003  -0.045  -0.004   0.050   0.034  -0.011   0.034   0.005  -0.037   0.076   0.004  -0.018   0.007   0.016   0.001
  0.035  -0.045  -0.005   0.016  -0.041  -0.026   0.034  -0.008  -0.012   0.031  -0.074  -0.008   0.018  -0.007  -0.016  -0.000
  0.020  -0.004   0.016  -0.056  -0.019  -0.015   0.005  -0.012   0.028   0.014  -0.030  -0.005   0.008  -0.000  -0.005  -0.000
 -0.053   0.050  -0.041  -0.019  -0.017   0.039  -0.037   0.031   0.014  -0.002   0.085   0.009  -0.016   0.010   0.020   0.001
 -0.002   0.034  -0.026  -0.015   0.039   0.022  -0.024   0.021   0.011  -0.028   0.056   0.003  -0.013   0.006   0.012   0.001
  0.034  -0.011   0.034   0.005  -0.037  -0.024   0.026  -0.025  -0.008   0.028  -0.058  -0.001   0.014  -0.008  -0.012  -0.000
 -0.026   0.034  -0.008  -0.012   0.031   0.021  -0.025   0.024   0.010  -0.024   0.057   0.003  -0.012   0.007   0.010   0.000
 -0.015   0.005  -0.012   0.028   0.014   0.011  -0.008   0.010  -0.001  -0.010   0.027   0.001  -0.006   0.003   0.005   0.000
  0.039  -0.037   0.031   0.014  -0.002  -0.028   0.028  -0.024  -0.010   0.024  -0.068  -0.003   0.015  -0.008  -0.012  -0.000
 -0.075   0.076  -0.074  -0.030   0.085   0.056  -0.058   0.057   0.027  -0.068   0.154  -0.000  -0.039   0.018   0.037   0.001
 -0.009   0.004  -0.008  -0.005   0.009   0.003  -0.001   0.003   0.001  -0.003  -0.000   0.002  -0.001   0.000   0.002  -0.000
  0.022  -0.018   0.018   0.008  -0.016  -0.013   0.014  -0.012  -0.006   0.015  -0.039  -0.001   0.008  -0.004  -0.006  -0.000
 -0.008   0.007  -0.007  -0.000   0.010   0.006  -0.008   0.007   0.003  -0.008   0.018   0.000  -0.004   0.002   0.003   0.000
 -0.020   0.016  -0.016  -0.005   0.020   0.012  -0.012   0.010   0.005  -0.012   0.037   0.002  -0.006   0.003   0.005   0.000
 -0.001   0.001  -0.000  -0.000   0.001   0.001  -0.000   0.000   0.000  -0.000   0.001  -0.000  -0.000   0.000   0.000   0.000
  0.000  -0.001   0.001  -0.000  -0.000  -0.000   0.000  -0.000   0.000   0.000  -0.001  -0.000   0.000  -0.000  -0.000  -0.000
 -0.000   0.000  -0.000  -0.000   0.000  -0.000  -0.000  -0.000   0.000   0.000  -0.000   0.000  -0.000  -0.000   0.000  -0.000


------------------------ aborting loop because EDIFF is reached ----------------------------------------


    CHARGE:  cpu time    0.01: real time    0.01
    FORLOC:  cpu time    0.00: real time    0.00
    FORNL :  cpu time    0.04: real time    0.03
    STRESS:  cpu time    0.05: real time    0.05
    FORCOR:  cpu time    0.09: real time    0.09
    FORHAR:  cpu time    0.01: real time    0.01
    MIXING:  cpu time    0.00: real time    0.00
    OFIELD:  cpu time    0.00: real time    0.00

  FORCE on cell =-STRESS in cart. coord.  units (eV):
  Direction    XX          YY          ZZ          XY          YZ          ZX
  --------------------------------------------------------------------------------------
  Alpha Z     5.50635     5.50635     5.50635
  Ewald     793.54742   249.20808   913.98351  -369.60958  -459.59611  -304.50294
  Hartree  2395.62023  1964.14069  2565.51317  -292.05992  -402.41746  -255.99626
  E(xc)    -289.15721  -289.65845  -289.54325    -0.33400    -0.13744    -0.16592
  Local   -3986.92669 -3015.10995 -4285.51568   659.33093   864.45445   560.79881
  n-local   -63.64967   -62.51747   -60.67215     0.67652    -1.09450    -0.32007
  augment   457.89456   458.83450   459.42943     0.56361    -0.31614     0.07208
  Kinetic   685.32579   687.79978   689.58268     1.46489    -0.97637     0.10697
  Fock        0.00000     0.00000     0.00000     0.00000     0.00000     0.00000
  -------------------------------------------------------------------------------------
  Total      -1.83922    -1.79648    -1.71593     0.03245    -0.08356    -0.00733
  in kB      -0.76305    -0.74532    -0.71190     0.01346    -0.03467    -0.00304
  external pressure =       -0.74 kB  Pullay stress =        0.00 kB


 VOLUME and BASIS-vectors are now :
 -----------------------------------------------------------------------------
  energy-cutoff  :      249.84
  volume of cell :     3861.80
      direct lattice vectors                 reciprocal lattice vectors
    15.689050587  0.000000000  0.000000000     0.063738720  0.000000000  0.000000000
     0.000000000 15.689050587  0.000000000     0.000000000  0.063738720  0.000000000
     0.000000000  0.000000000 15.689050587     0.000000000  0.000000000  0.063738720

  length of vectors
    15.689050587 15.689050587 15.689050587     0.063738720  0.063738720  0.063738720


 FORCES acting on ions
    electron-ion (+dipol)            ewald-force                    non-local-force                 convergence-correction
 -----------------------------------------------------------------------------------------------
   -.487E+03 -.840E+02 0.304E+03   0.481E+03 0.837E+02 -.303E+03   0.591E+01 0.298E+00 -.857E+00   0.542E-02 0.654E-02 -.334E-02
   -.381E+03 0.225E+03 -.377E+03   0.376E+03 -.224E+03 0.375E+03   0.543E+01 -.766E+00 0.219E+01   0.307E-02 0.181E-02 0.695E-02
   0.236E+03 -.482E+03 0.223E+03   -.233E+03 0.477E+03 -.224E+03   -.300E+01 0.506E+01 0.374E+00   0.196E-02 0.675E-02 -.152E-02
   0.261E+03 0.465E+03 0.278E+03   -.258E+03 -.460E+03 -.274E+03   -.325E+01 -.579E+01 -.346E+01   0.499E-02 0.105E-01 0.672E-02
   0.370E+03 -.126E+03 -.429E+03   -.366E+03 0.123E+03 0.426E+03   -.381E+01 0.341E+01 0.306E+01   -.103E-03 0.239E-02 0.886E-02
 -----------------------------------------------------------------------------------------------
   -.126E+01 -.223E+01 -.134E+01   0.171E-12 0.000E+00 0.568E-13   0.128E+01 0.221E+01 0.132E+01   0.153E-01 0.280E-01 0.177E-01
 
 
 POSITION                                       TOTAL-FORCE (eV/Angst)
 -----------------------------------------------------------------------------------
      9.76181      8.45836      6.74859        -0.018176      0.007388     -0.015017
      9.25594      7.14328      9.59346        -0.013887     -0.013947      0.010696
      7.37727      9.72677      7.03562         0.006329     -0.001718     -0.012946
      7.56219      7.08800      7.50753         0.013789      0.022004      0.015627
      6.80488      8.29252      9.80536         0.011945     -0.013728      0.001640
 -----------------------------------------------------------------------------------
    total drift:                                0.029519      0.006176     -0.007635


--------------------------------------------------------------------------------------------------------



  FREE ENERGIE OF THE ION-ELECTRON SYSTEM (eV)
  ---------------------------------------------------
  free  energy   TOTEN  =        -6.70067233 eV

  energy  without entropy=       -6.70067233  energy(sigma->0) =       -6.70067233
 
 d Force = 0.1518964E-04[ 0.181E-04, 0.123E-04]  d Energy = 0.1556593E-03-0.140E-03
 d Force = 0.1051871E+01[ 0.105E+01, 0.105E+01]  d Ewald  = 0.1051871E+01 0.272E-07


--------------------------------------------------------------------------------------------------------


    POTLOK:  cpu time    0.10: real time    0.10


--------------------------------------------------------------------------------------------------------




--------------------------------------------------------------------------------------------------------


  
 reached required accuracy - stopping structural energy minimisation
     LOOP+:  cpu time    0.74: real time    0.85
    4ORBIT:  cpu time    0.00: real time    0.00

 total amount of memory used by VASP on root node    41478. kBytes
========================================================================

   base      :      30000. kBytes
   nonl-proj :        482. kBytes
   fftplans  :       2946. kBytes
   grid      :       7413. kBytes
   one-center:         15. kBytes
   wavefun   :        622. kBytes
 
  
  
 General timing and accounting informations for this job:
 ========================================================
  
                  Total CPU time used (sec):       47.375
                            User time (sec):       45.647
                          System time (sec):        1.728
                         Elapsed time (sec):       53.874
  
                   Maximum memory used (kb):       43140.
                   Average memory used (kb):           0.
  
                          Minor page faults:       290578
                          Major page faults:            0
                 Voluntary context switches:         5855
