  42  42   0   0
  0.3075732E+03  0.2346385E-08  0.2346385E-08  0.2346385E-08  0.1000000E-15
  1.000000000000000E-004
  CAR 
 unknown system                          
      1.88239333    -10.36311906  301     -3.61788265      1.00000000
    -10.363  0.0000E+00  0.0000E+00  0.0000E+00  0.0000E+00
    -10.322  0.0000E+00  0.0000E+00  0.0000E+00  0.0000E+00
    -10.281  0.0000E+00  0.0000E+00  0.0000E+00  0.0000E+00
    -10.241  0.0000E+00  0.0000E+00  0.0000E+00  0.0000E+00
    -10.200  0.0000E+00  0.0000E+00  0.0000E+00  0.0000E+00
    -10.159  0.0000E+00  0.0000E+00  0.0000E+00  0.0000E+00
    -10.118  0.0000E+00  0.0000E+00  0.0000E+00  0.0000E+00
    -10.077  0.0000E+00  0.0000E+00  0.0000E+00  0.0000E+00
    -10.037  0.0000E+00  0.0000E+00  0.0000E+00  0.0000E+00
     -9.996  0.0000E+00  0.0000E+00  0.0000E+00  0.0000E+00
     -9.955  0.0000E+00  0.0000E+00  0.0000E+00  0.0000E+00
     -9.914  0.0000E+00  0.0000E+00  0.0000E+00  0.0000E+00
     -9.873  0.0000E+00  0.0000E+00  0.0000E+00  0.0000E+00
     -9.832  0.0000E+00  0.0000E+00  0.0000E+00  0.0000E+00
     -9.792  0.0000E+00  0.0000E+00  0.1000E-02  0.1000E-02
     -9.751  0.0000E+00  0.0000E+00  0.1000E-02  0.1000E-02
     -9.710  0.0000E+00  0.0000E+00  0.1000E-02  0.1000E-02
     -9.669  0.0000E+00  0.0000E+00  0.1000E-02  0.1000E-02
     -9.628  0.0000E+00  0.0000E+00  0.1000E-02  0.1000E-02
     -9.588  0.0000E+00  0.0000E+00  0.1000E-02  0.1000E-02
     -9.547  0.0000E+00  0.0000E+00  0.1000E-02  0.1000E-02
     -9.506  0.0000E+00  0.0000E+00  0.1000E-02  0.1000E-02
     -9.465  0.0000E+00  0.0000E+00  0.1000E-02  0.1000E-02
     -9.424  0.0000E+00  0.0000E+00  0.1000E-02  0.1000E-02
     -9.383  0.0000E+00  0.0000E+00  0.1000E-02  0.1000E-02
     -9.343  0.0000E+00  0.0000E+00  0.1000E-02  0.1000E-02
     -9.302  0.0000E+00  0.0000E+00  0.1000E-02  0.1000E-02
     -9.261  0.0000E+00  0.0000E+00  0.1000E-02  0.1000E-02
     -9.220  0.0000E+00  0.0000E+00  0.2000E-02  0.2000E-02
     -9.179  0.0000E+00  0.0000E+00  0.2000E-02  0.2000E-02
     -9.139  0.0000E+00  0.0000E+00  0.2000E-02  0.2000E-02
     -9.098  0.0000E+00  0.0000E+00  0.4000E-02  0.4000E-02
     -9.057  0.0000E+00  0.0000E+00  0.6000E-02  0.6000E-02
     -9.016  0.0000E+00  0.0000E+00  0.8000E-02  0.8000E-02
     -8.975  0.0000E+00  0.0000E+00  0.1100E-01  0.1100E-01
     -8.934  0.0000E+00  0.0000E+00  0.1200E-01  0.1200E-01
     -8.894  0.0000E+00  0.0000E+00  0.1400E-01  0.1400E-01
     -8.853  0.0000E+00  0.0000E+00  0.1600E-01  0.1600E-01
     -8.812  0.0000E+00  0.0000E+00  0.1700E-01  0.1700E-01
     -8.771  0.0000E+00  0.0000E+00  0.1900E-01  0.1900E-01
     -8.730  0.0000E+00  0.0000E+00  0.2300E-01  0.2300E-01
     -8.690  0.0000E+00  0.0000E+00  0.2700E-01  0.2700E-01
     -8.649  0.0000E+00  0.0000E+00  0.2800E-01  0.2800E-01
     -8.608  0.0000E+00  0.0000E+00  0.3200E-01  0.3200E-01
     -8.567  0.0000E+00  0.0000E+00  0.3300E-01  0.3300E-01
     -8.526  0.0000E+00  0.0000E+00  0.3500E-01  0.3500E-01
     -8.485  0.0000E+00  0.0000E+00  0.3700E-01  0.3700E-01
     -8.445  0.0000E+00  0.0000E+00  0.3900E-01  0.3900E-01
     -8.404  0.0000E+00  0.0000E+00  0.4100E-01  0.4100E-01
     -8.363  0.0000E+00  0.0000E+00  0.4400E-01  0.4400E-01
     -8.322  0.0000E+00  0.0000E+00  0.4500E-01  0.4500E-01
     -8.281  0.0000E+00  0.0000E+00  0.4900E-01  0.4900E-01
     -8.241  0.0000E+00  0.0000E+00  0.5100E-01  0.5100E-01
     -8.200  0.0000E+00  0.0000E+00  0.5400E-01  0.5400E-01
     -8.159  0.0000E+00  0.0000E+00  0.5700E-01  0.5700E-01
     -8.118  0.7296E-02  0.7297E-02  0.5930E-01  0.5930E-01
     -8.077  0.8160E-17  0.8160E-17  0.6200E-01  0.6200E-01
     -8.036  0.0000E+00  0.0000E+00  0.6500E-01  0.6500E-01
     -7.996  0.0000E+00  0.0000E+00  0.6700E-01  0.6700E-01
     -7.955  0.0000E+00  0.0000E+00  0.7000E-01  0.7000E-01
     -7.914  0.0000E+00  0.0000E+00  0.7300E-01  0.7300E-01
     -7.873  0.0000E+00  0.0000E+00  0.7600E-01  0.7600E-01
     -7.832  0.0000E+00  0.0000E+00  0.7800E-01  0.7800E-01
     -7.792  0.6800E-17  0.6800E-17  0.8100E-01  0.8100E-01
     -7.751  0.0000E+00  0.0000E+00  0.8300E-01  0.8300E-01
     -7.710  0.0000E+00  0.0000E+00  0.8700E-01  0.8700E-01
     -7.669  0.0000E+00  0.0000E+00  0.9000E-01  0.9000E-01
     -7.628  0.0000E+00  0.0000E+00  0.9300E-01  0.9300E-01
     -7.587  0.0000E+00  0.0000E+00  0.9600E-01  0.9600E-01
     -7.547  0.2450E-01  0.2450E-01  0.9800E-01  0.9800E-01
     -7.506  0.0000E+00  0.0000E+00  0.1020E+00  0.1020E+00
     -7.465  0.0000E+00  0.0000E+00  0.1040E+00  0.1040E+00
     -7.424  0.3130E-04  0.3130E-04  0.1060E+00  0.1060E+00
     -7.383  0.0000E+00  0.0000E+00  0.1100E+00  0.1100E+00
     -7.343  0.0000E+00  0.0000E+00  0.1130E+00  0.1130E+00
     -7.302  0.0000E+00  0.0000E+00  0.1150E+00  0.1150E+00
     -7.261  0.0000E+00  0.0000E+00  0.1190E+00  0.1190E+00
     -7.220  0.0000E+00  0.0000E+00  0.1210E+00  0.1210E+00
     -7.179  0.0000E+00  0.0000E+00  0.1240E+00  0.1240E+00
     -7.138  0.2449E-01  0.2449E-01  0.1260E+00  0.1260E+00
     -7.098  0.0000E+00  0.0000E+00  0.1290E+00  0.1290E+00
     -7.057  0.0000E+00  0.0000E+00  0.1330E+00  0.1330E+00
     -7.016  0.0000E+00  0.0000E+00  0.1360E+00  0.1360E+00
     -6.975  0.0000E+00  0.0000E+00  0.1400E+00  0.1400E+00
     -6.934  0.0000E+00  0.0000E+00  0.1450E+00  0.1450E+00
     -6.894  0.0000E+00  0.0000E+00  0.1500E+00  0.1500E+00
     -6.853  0.0000E+00  0.0000E+00  0.1550E+00  0.1550E+00
     -6.812  0.0000E+00  0.0000E+00  0.1580E+00  0.1580E+00
     -6.771  0.0000E+00  0.0000E+00  0.1620E+00  0.1620E+00
     -6.730  0.0000E+00  0.0000E+00  0.1650E+00  0.1650E+00
     -6.689  0.0000E+00  0.0000E+00  0.1690E+00  0.1690E+00
     -6.649  0.0000E+00  0.0000E+00  0.1730E+00  0.1730E+00
     -6.608  0.0000E+00  0.0000E+00  0.1770E+00  0.1770E+00
     -6.567  0.0000E+00  0.0000E+00  0.1810E+00  0.1810E+00
     -6.526  0.0000E+00  0.0000E+00  0.1870E+00  0.1870E+00
     -6.485  0.0000E+00  0.0000E+00  0.1900E+00  0.1900E+00
     -6.445  0.0000E+00  0.0000E+00  0.1930E+00  0.1930E+00
     -6.404  0.0000E+00  0.0000E+00  0.1970E+00  0.1970E+00
     -6.363  0.3796E-06  0.3799E-06  0.2000E+00  0.2000E+00
     -6.322  0.0000E+00  0.0000E+00  0.2030E+00  0.2030E+00
     -6.281  0.1741E-02  0.1741E-02  0.2061E+00  0.2061E+00
     -6.240  0.3917E-02  0.3917E-02  0.2082E+00  0.2082E+00
     -6.200  0.0000E+00  0.0000E+00  0.2110E+00  0.2110E+00
     -6.159  0.0000E+00  0.0000E+00  0.2150E+00  0.2150E+00
     -6.118  0.0000E+00  0.0000E+00  0.2160E+00  0.2160E+00
     -6.077  0.0000E+00  0.0000E+00  0.2160E+00  0.2160E+00
     -6.036  0.0000E+00  0.0000E+00  0.2160E+00  0.2160E+00
     -5.996  0.0000E+00  0.0000E+00  0.2160E+00  0.2160E+00
     -5.955  0.0000E+00  0.0000E+00  0.2160E+00  0.2160E+00
     -5.914  0.0000E+00  0.0000E+00  0.2160E+00  0.2160E+00
     -5.873  0.0000E+00  0.0000E+00  0.2160E+00  0.2160E+00
     -5.832  0.0000E+00  0.0000E+00  0.2160E+00  0.2160E+00
     -5.791  0.0000E+00  0.0000E+00  0.2170E+00  0.2170E+00
     -5.751  0.0000E+00  0.0000E+00  0.2170E+00  0.2170E+00
     -5.710  0.0000E+00  0.0000E+00  0.2170E+00  0.2170E+00
     -5.669  0.0000E+00  0.0000E+00  0.2180E+00  0.2180E+00
     -5.628  0.0000E+00  0.0000E+00  0.2190E+00  0.2190E+00
     -5.587  0.0000E+00  0.0000E+00  0.2190E+00  0.2190E+00
     -5.547  0.0000E+00  0.0000E+00  0.2190E+00  0.2190E+00
     -5.506  0.0000E+00  0.0000E+00  0.2200E+00  0.2200E+00
     -5.465  0.0000E+00  0.0000E+00  0.2200E+00  0.2200E+00
     -5.424  0.0000E+00  0.0000E+00  0.2200E+00  0.2200E+00
     -5.383  0.0000E+00  0.0000E+00  0.2200E+00  0.2200E+00
     -5.342  0.0000E+00  0.0000E+00  0.2200E+00  0.2200E+00
     -5.302  0.0000E+00  0.0000E+00  0.2200E+00  0.2200E+00
     -5.261  0.0000E+00  0.0000E+00  0.2200E+00  0.2200E+00
     -5.220  0.0000E+00  0.0000E+00  0.2210E+00  0.2210E+00
     -5.179  0.0000E+00  0.0000E+00  0.2210E+00  0.2210E+00
     -5.138  0.0000E+00  0.0000E+00  0.2210E+00  0.2210E+00
     -5.098  0.0000E+00  0.0000E+00  0.2220E+00  0.2220E+00
     -5.057  0.0000E+00  0.0000E+00  0.2220E+00  0.2220E+00
     -5.016  0.0000E+00  0.0000E+00  0.2220E+00  0.2220E+00
     -4.975  0.0000E+00  0.0000E+00  0.2220E+00  0.2220E+00
     -4.934  0.0000E+00  0.0000E+00  0.2220E+00  0.2220E+00
     -4.893  0.0000E+00  0.0000E+00  0.2220E+00  0.2220E+00
     -4.853  0.0000E+00  0.0000E+00  0.2220E+00  0.2220E+00
     -4.812  0.0000E+00  0.0000E+00  0.2220E+00  0.2220E+00
     -4.771  0.0000E+00  0.0000E+00  0.2220E+00  0.2220E+00
     -4.730  0.0000E+00  0.0000E+00  0.2220E+00  0.2220E+00
     -4.689  0.0000E+00  0.0000E+00  0.2220E+00  0.2220E+00
     -4.649  0.0000E+00  0.0000E+00  0.2220E+00  0.2220E+00
     -4.608  0.0000E+00  0.0000E+00  0.2220E+00  0.2220E+00
     -4.567  0.0000E+00  0.0000E+00  0.2220E+00  0.2220E+00
     -4.526  0.0000E+00  0.0000E+00  0.2230E+00  0.2230E+00
     -4.485  0.0000E+00  0.0000E+00  0.2240E+00  0.2240E+00
     -4.444  0.0000E+00  0.0000E+00  0.2240E+00  0.2240E+00
     -4.404  0.0000E+00  0.0000E+00  0.2250E+00  0.2250E+00
     -4.363  0.0000E+00  0.0000E+00  0.2250E+00  0.2250E+00
     -4.322  0.0000E+00  0.0000E+00  0.2250E+00  0.2250E+00
     -4.281  0.0000E+00  0.0000E+00  0.2250E+00  0.2250E+00
     -4.240  0.0000E+00  0.0000E+00  0.2250E+00  0.2250E+00
     -4.200  0.0000E+00  0.0000E+00  0.2250E+00  0.2250E+00
     -4.159  0.0000E+00  0.0000E+00  0.2250E+00  0.2250E+00
     -4.118  0.0000E+00  0.0000E+00  0.2250E+00  0.2250E+00
     -4.077  0.0000E+00  0.0000E+00  0.2260E+00  0.2260E+00
     -4.036  0.0000E+00  0.0000E+00  0.2260E+00  0.2260E+00
     -3.995  0.0000E+00  0.0000E+00  0.2270E+00  0.2270E+00
     -3.955  0.0000E+00  0.0000E+00  0.2270E+00  0.2270E+00
     -3.914  0.0000E+00  0.0000E+00  0.2270E+00  0.2270E+00
     -3.873  0.0000E+00  0.0000E+00  0.2270E+00  0.2270E+00
     -3.832  0.0000E+00  0.0000E+00  0.2280E+00  0.2280E+00
     -3.791  0.0000E+00  0.0000E+00  0.2280E+00  0.2280E+00
     -3.751  0.0000E+00  0.0000E+00  0.2290E+00  0.2290E+00
     -3.710  0.0000E+00  0.0000E+00  0.2290E+00  0.2290E+00
     -3.669  0.0000E+00  0.0000E+00  0.2300E+00  0.2300E+00
     -3.628  0.0000E+00  0.0000E+00  0.2310E+00  0.2310E+00
     -3.587  0.0000E+00  0.0000E+00  0.2310E+00  0.2310E+00
     -3.546  0.0000E+00  0.0000E+00  0.2310E+00  0.2310E+00
     -3.506  0.0000E+00  0.0000E+00  0.2310E+00  0.2310E+00
     -3.465  0.0000E+00  0.0000E+00  0.2310E+00  0.2310E+00
     -3.424  0.0000E+00  0.0000E+00  0.2310E+00  0.2310E+00
     -3.383  0.0000E+00  0.0000E+00  0.2310E+00  0.2310E+00
     -3.342  0.0000E+00  0.0000E+00  0.2310E+00  0.2310E+00
     -3.302  0.0000E+00  0.0000E+00  0.2310E+00  0.2310E+00
     -3.261  0.0000E+00  0.0000E+00  0.2310E+00  0.2310E+00
     -3.220  0.0000E+00  0.0000E+00  0.2320E+00  0.2320E+00
     -3.179  0.0000E+00  0.0000E+00  0.2330E+00  0.2330E+00
     -3.138  0.0000E+00  0.0000E+00  0.2330E+00  0.2330E+00
     -3.097  0.0000E+00  0.0000E+00  0.2330E+00  0.2330E+00
     -3.057  0.0000E+00  0.0000E+00  0.2330E+00  0.2330E+00
     -3.016  0.0000E+00  0.0000E+00  0.2340E+00  0.2340E+00
     -2.975  0.0000E+00  0.0000E+00  0.2350E+00  0.2350E+00
     -2.934  0.0000E+00  0.0000E+00  0.2350E+00  0.2350E+00
     -2.893  0.0000E+00  0.0000E+00  0.2350E+00  0.2350E+00
     -2.853  0.0000E+00  0.0000E+00  0.2350E+00  0.2350E+00
     -2.812  0.0000E+00  0.0000E+00  0.2350E+00  0.2350E+00
     -2.771  0.0000E+00  0.0000E+00  0.2350E+00  0.2350E+00
     -2.730  0.0000E+00  0.0000E+00  0.2350E+00  0.2350E+00
     -2.689  0.0000E+00  0.0000E+00  0.2350E+00  0.2350E+00
     -2.648  0.0000E+00  0.0000E+00  0.2350E+00  0.2350E+00
     -2.608  0.0000E+00  0.0000E+00  0.2350E+00  0.2350E+00
     -2.567  0.0000E+00  0.0000E+00  0.2360E+00  0.2360E+00
     -2.526  0.0000E+00  0.0000E+00  0.2360E+00  0.2360E+00
     -2.485  0.0000E+00  0.0000E+00  0.2370E+00  0.2370E+00
     -2.444  0.0000E+00  0.0000E+00  0.2380E+00  0.2380E+00
     -2.404  0.0000E+00  0.0000E+00  0.2380E+00  0.2380E+00
     -2.363  0.0000E+00  0.0000E+00  0.2380E+00  0.2380E+00
     -2.322  0.0000E+00  0.0000E+00  0.2390E+00  0.2390E+00
     -2.281  0.0000E+00  0.0000E+00  0.2390E+00  0.2390E+00
     -2.240  0.0000E+00  0.0000E+00  0.2400E+00  0.2400E+00
     -2.199  0.0000E+00  0.0000E+00  0.2400E+00  0.2400E+00
     -2.159  0.0000E+00  0.0000E+00  0.2400E+00  0.2400E+00
     -2.118  0.0000E+00  0.0000E+00  0.2410E+00  0.2410E+00
     -2.077  0.0000E+00  0.0000E+00  0.2410E+00  0.2410E+00
     -2.036  0.0000E+00  0.0000E+00  0.2420E+00  0.2420E+00
     -1.995  0.0000E+00  0.0000E+00  0.2430E+00  0.2430E+00
     -1.955  0.0000E+00  0.0000E+00  0.2430E+00  0.2430E+00
     -1.914  0.0000E+00  0.0000E+00  0.2440E+00  0.2440E+00
     -1.873  0.0000E+00  0.0000E+00  0.2440E+00  0.2440E+00
     -1.832  0.0000E+00  0.0000E+00  0.2450E+00  0.2450E+00
     -1.791  0.0000E+00  0.0000E+00  0.2460E+00  0.2460E+00
     -1.750  0.0000E+00  0.0000E+00  0.2460E+00  0.2460E+00
     -1.710  0.0000E+00  0.0000E+00  0.2470E+00  0.2470E+00
     -1.669  0.0000E+00  0.0000E+00  0.2470E+00  0.2470E+00
     -1.628  0.0000E+00  0.0000E+00  0.2480E+00  0.2480E+00
     -1.587  0.0000E+00  0.0000E+00  0.2480E+00  0.2480E+00
     -1.546  0.0000E+00  0.0000E+00  0.2480E+00  0.2480E+00
     -1.506  0.0000E+00  0.0000E+00  0.2490E+00  0.2490E+00
     -1.465  0.0000E+00  0.0000E+00  0.2490E+00  0.2490E+00
     -1.424  0.0000E+00  0.0000E+00  0.2490E+00  0.2490E+00
     -1.383  0.0000E+00  0.0000E+00  0.2500E+00  0.2500E+00
     -1.342  0.0000E+00  0.0000E+00  0.2500E+00  0.2500E+00
     -1.301  0.0000E+00  0.0000E+00  0.2500E+00  0.2500E+00
     -1.261  0.0000E+00  0.0000E+00  0.2500E+00  0.2500E+00
     -1.220  0.0000E+00  0.0000E+00  0.2500E+00  0.2500E+00
     -1.179  0.0000E+00  0.0000E+00  0.2510E+00  0.2510E+00
     -1.138  0.0000E+00  0.0000E+00  0.2510E+00  0.2510E+00
     -1.097  0.0000E+00  0.0000E+00  0.2510E+00  0.2510E+00
     -1.057  0.0000E+00  0.0000E+00  0.2510E+00  0.2510E+00
     -1.016  0.1197E-07  0.1225E-07  0.2510E+00  0.2510E+00
     -0.975  0.0000E+00  0.0000E+00  0.2520E+00  0.2520E+00
     -0.934  0.0000E+00  0.0000E+00  0.2530E+00  0.2530E+00
     -0.893  0.0000E+00  0.0000E+00  0.2540E+00  0.2540E+00
     -0.852  0.0000E+00  0.0000E+00  0.2540E+00  0.2540E+00
     -0.812  0.0000E+00  0.0000E+00  0.2540E+00  0.2540E+00
     -0.771  0.0000E+00  0.0000E+00  0.2550E+00  0.2550E+00
     -0.730  0.0000E+00  0.0000E+00  0.2550E+00  0.2550E+00
     -0.689  0.0000E+00  0.0000E+00  0.2560E+00  0.2560E+00
     -0.648  0.0000E+00  0.0000E+00  0.2570E+00  0.2570E+00
     -0.608  0.0000E+00  0.0000E+00  0.2570E+00  0.2570E+00
     -0.567  0.0000E+00  0.0000E+00  0.2570E+00  0.2570E+00
     -0.526  0.0000E+00  0.0000E+00  0.2580E+00  0.2580E+00
     -0.485  0.0000E+00  0.0000E+00  0.2580E+00  0.2580E+00
     -0.444  0.0000E+00  0.0000E+00  0.2590E+00  0.2590E+00
     -0.403  0.0000E+00  0.0000E+00  0.2590E+00  0.2590E+00
     -0.363  0.0000E+00  0.0000E+00  0.2590E+00  0.2590E+00
     -0.322  0.0000E+00  0.0000E+00  0.2600E+00  0.2600E+00
     -0.281  0.0000E+00  0.0000E+00  0.2600E+00  0.2600E+00
     -0.240  0.7805E-10  0.7852E-10  0.2600E+00  0.2600E+00
     -0.199  0.0000E+00  0.0000E+00  0.2610E+00  0.2610E+00
     -0.159  0.0000E+00  0.0000E+00  0.2620E+00  0.2620E+00
     -0.118  0.0000E+00  0.0000E+00  0.2630E+00  0.2630E+00
     -0.077  0.0000E+00  0.0000E+00  0.2630E+00  0.2630E+00
     -0.036  0.0000E+00  0.0000E+00  0.2640E+00  0.2640E+00
      0.005  0.0000E+00  0.0000E+00  0.2640E+00  0.2640E+00
      0.046  0.0000E+00  0.0000E+00  0.2660E+00  0.2660E+00
      0.086  0.0000E+00  0.0000E+00  0.2670E+00  0.2670E+00
      0.127  0.0000E+00  0.0000E+00  0.2680E+00  0.2680E+00
      0.168  0.0000E+00  0.0000E+00  0.2680E+00  0.2680E+00
      0.209  0.0000E+00  0.0000E+00  0.2690E+00  0.2690E+00
      0.250  0.0000E+00  0.0000E+00  0.2690E+00  0.2690E+00
      0.290  0.0000E+00  0.0000E+00  0.2700E+00  0.2700E+00
      0.331  0.0000E+00  0.0000E+00  0.2700E+00  0.2700E+00
      0.372  0.0000E+00  0.0000E+00  0.2700E+00  0.2700E+00
      0.413  0.0000E+00  0.0000E+00  0.2720E+00  0.2720E+00
      0.454  0.0000E+00  0.0000E+00  0.2720E+00  0.2720E+00
      0.495  0.0000E+00  0.0000E+00  0.2720E+00  0.2720E+00
      0.535  0.0000E+00  0.0000E+00  0.2720E+00  0.2720E+00
      0.576  0.0000E+00  0.0000E+00  0.2730E+00  0.2730E+00
      0.617  0.0000E+00  0.0000E+00  0.2730E+00  0.2730E+00
      0.658  0.0000E+00  0.0000E+00  0.2730E+00  0.2730E+00
      0.699  0.0000E+00  0.0000E+00  0.2740E+00  0.2740E+00
      0.739  0.0000E+00  0.0000E+00  0.2750E+00  0.2750E+00
      0.780  0.0000E+00  0.0000E+00  0.2760E+00  0.2760E+00
      0.821  0.0000E+00  0.0000E+00  0.2780E+00  0.2780E+00
      0.862  0.0000E+00  0.0000E+00  0.2790E+00  0.2790E+00
      0.903  0.0000E+00  0.0000E+00  0.2800E+00  0.2800E+00
      0.944  0.0000E+00  0.0000E+00  0.2820E+00  0.2820E+00
      0.984  0.0000E+00  0.0000E+00  0.2830E+00  0.2830E+00
      1.025  0.0000E+00  0.0000E+00  0.2850E+00  0.2850E+00
      1.066  0.0000E+00  0.0000E+00  0.2880E+00  0.2880E+00
      1.107  0.0000E+00  0.0000E+00  0.2890E+00  0.2890E+00
      1.148  0.0000E+00  0.0000E+00  0.2900E+00  0.2900E+00
      1.188  0.0000E+00  0.0000E+00  0.2910E+00  0.2910E+00
      1.229  0.0000E+00  0.0000E+00  0.2930E+00  0.2930E+00
      1.270  0.0000E+00  0.0000E+00  0.2960E+00  0.2960E+00
      1.311  0.0000E+00  0.0000E+00  0.2980E+00  0.2980E+00
      1.352  0.0000E+00  0.0000E+00  0.3000E+00  0.3000E+00
      1.393  0.0000E+00  0.0000E+00  0.3000E+00  0.3000E+00
      1.433  0.0000E+00  0.0000E+00  0.3000E+00  0.3000E+00
      1.474  0.0000E+00  0.0000E+00  0.3000E+00  0.3000E+00
      1.515  0.0000E+00  0.0000E+00  0.3000E+00  0.3000E+00
      1.556  0.0000E+00  0.0000E+00  0.3000E+00  0.3000E+00
      1.597  0.0000E+00  0.0000E+00  0.3000E+00  0.3000E+00
      1.637  0.0000E+00  0.0000E+00  0.3000E+00  0.3000E+00
      1.678  0.0000E+00  0.0000E+00  0.3000E+00  0.3000E+00
      1.719  0.0000E+00  0.0000E+00  0.3000E+00  0.3000E+00
      1.760  0.0000E+00  0.0000E+00  0.3000E+00  0.3000E+00
      1.801  0.0000E+00  0.0000E+00  0.3000E+00  0.3000E+00
      1.842  0.0000E+00  0.0000E+00  0.3000E+00  0.3000E+00
      1.882  0.0000E+00  0.0000E+00  0.3000E+00  0.3000E+00
