40
Energy = -86.02223534 eV
Ag 13.207527039313018 7.989267870379851 10.100729488156391
Ag 11.430215333179266 12.694455177708377 8.806112457627863
Ag 6.687205553759006 12.502775686757158 10.251593979152494
Ag 14.187174579941292 15.679538777865707 11.731162372763043
Ag 13.581178717029953 10.873581074292863 14.451606827238928
Ag 8.535183928996709 8.674097454862777 10.142686326368835
Ag 6.4718773495121775 10.045108508644983 11.601227896323135
Ag 9.61002682078003 16.29237761762516 11.774147157038621
Ag 10.753706757037362 7.658721708046314 8.715356639760559
Ag 11.774416636069045 15.153194816038283 10.336155559058941
Ag 9.2831349208929 13.990688433052897 13.292592305793422
Ag 13.133353325986102 8.228898147461294 7.328388187453042
Ag 11.48094805854475 12.72005959292011 11.746260816042497
Ag 8.63671207976001 8.814564554479347 12.954207022455474
Ag 8.898368637665476 11.409228929451348 8.686769589413752
Ag 7.141034939951838 14.953387235683014 11.721993211543088
Ag 11.52499834374657 12.835133929957367 14.677081220889118
Ag 15.59060227049847 8.82507553498146 11.49175820495731
Ag 13.881222062661793 13.270520186089037 10.122601456667875
Ag 15.941782050750904 11.303695257466584 12.941593070205029
Ag 11.153399101126778 10.211616539597758 13.07953965705744
Ag 8.957575121693752 11.353853046947672 11.626669484742418
Ag 13.557397730341481 10.757996194404505 11.561381246758508
Ag 11.817277564058596 15.242083021655379 13.203370692645096
Ag 10.776145375075174 7.568121894807272 11.55268231608947
Ag 9.248258551000756 13.889265607316416 10.200492130429733
Ag 6.827534794097288 12.514649845820188 13.054422555842311
Ag 13.968195700238983 13.380974197592275 13.264354906489489
Ag 11.1230169684534 10.148199243488376 10.205519333473312
Ag 13.205166554488795 8.230288254312816 12.897138200103857
Ag 16.216418663545195 13.727121123355095 11.583593415323143
Ag 11.070573353585285 10.169999892387228 7.377276798856187
Ag 13.539793242394342 10.783802313475073 8.621803469512498
Ag 9.02739076610066 11.47946879116416 14.519930668727959
Ag 8.566846118847405 8.832057341485095 7.371368332206199
Ag 6.461374967423832 10.02619062006512 8.794692857325579
Ag 15.516871998357413 8.790923642319804 8.705747856881208
Ag 16.017796249566455 11.251939867023566 10.113113484622264
Ag 11.224773794602505 10.318098957000995 15.885560196442615
Ag 10.832166210013872 7.7319922647004775 14.352882282659202
