10
Energy = -93.33858421 eV
Re 10.727192680343643 8.392897730340705 7.841801782662803
Re 11.541790256572957 9.961282246171557 9.724878626733087
Re 8.820280758461344 9.459576143744886 6.779537286641146
Re 9.322421947072254 10.421035671364326 8.908294036252201
Re 9.966411296082976 9.865881659782087 11.558006690087392
Re 9.665557707653516 7.998689246009071 10.025809613656273
Re 8.762346068260582 6.866732927981923 7.98360773580007
Re 8.01842181264688 11.050105941427447 10.864203005931268
Re 7.4752680535434015 8.947767702382233 9.895300293579373
Re 6.947351091164005 8.223985788279787 7.645188866795868
