12
Energy = -115.08889859 eV
Re 8.713166402646797 8.789593333665588 7.414253020246225
Re 11.202536494253993 9.228328065652065 6.979089188590036
Re 10.288222512766664 9.72137456867524 9.260462558264521
Re 7.690088491273785 10.228616704631243 11.996494768998923
Re 9.0343478143956 6.792791091712101 11.183433053407644
Re 10.461648942380537 7.07632504614223 6.719174876372299
Re 10.116117894814849 7.295644722270719 9.127918459138263
Re 9.204635438101867 11.155213622793198 7.426159594600353
Re 7.030194146364519 10.575776184834567 8.14434452827013
Re 8.409044727867167 11.22494033526397 10.056637703889296
Re 9.642441586715181 8.978694502877252 11.681518940494504
Re 7.987509548419029 8.71265582148143 9.790467307728187
