4
Energy = -30.78572893 eV
Re 8.723464241109392 8.994518757844416 7.603875670994957
Re 10.191815002163713 7.050089997833758 9.338786431671435
Re 8.715426419602593 8.431644518783598 9.862417617481277
Re 7.31118297821227 10.439252986816777 8.146940998847743
