6
Energy = -53.76193664 eV
Re 6.505372088683708 7.750509828088919 8.871087686436955
Re 9.333897353835834 8.088677154662722 6.968172109434742
Re 7.142900523127061 9.073736266613917 6.920043683040116
Re 8.497568879097566 9.160315563853953 8.949773254686502
Re 8.696386591787078 6.76552151662449 8.919151815977251
Re 7.3416035634688654 6.678968670155998 6.889500450424436
