8
Energy = -73.30984218 eV
Re 6.395064157466978 8.457842459152497 7.069682763516318
Re 8.299725553607614 9.93501223751169 6.738556686316191
Re 9.766880058705986 8.20853497598819 7.308219638859852
Re 7.960362632645968 6.6747610986585695 7.080412091483074
Re 6.677147974425571 7.963958026410644 9.35175841189307
Re 9.940841839628312 8.303529535795795 9.685573382433342
Re 8.211944865490521 9.76860485769898 9.11745738169616
Re 8.460592916246236 6.400316810566561 9.360899643802115
