8
Energy = -70.9160804 eV
Re 7.151360203661451 7.0560428662469725 7.2106929434270635
Re 9.667955441178256 6.2470801504689435 7.97739022321501
Re 9.105242339010923 8.184378778610625 6.9233614664046295
Re 9.648844015515921 8.108665986740432 9.458398686180606
Re 10.01885495721029 10.045064426914738 10.789430538148247
Re 9.326604339168236 10.563715021477648 8.685004823851887
Re 7.433239886628879 8.80301139131972 8.79942963680631
Re 7.504353510972576 10.84849607156732 10.01274637531314
