 vasp.5.3.5 31Mar14 (build Feb 01 2018 12:10:03) gamma-only                     
  
 executed on             LinuxIFC date 2019.04.09  01:53:30
 running on   32 total cores
 distrk:  each k-point on   32 cores,    1 groups
 distr:  one band on NCORES_PER_BAND=   8 cores,    4 groups


--------------------------------------------------------------------------------------------------------


 INCAR:
 POTCAR:    PAW_PBE Pd 04Jan2005                  
 POTCAR:    PAW_PBE Pd 04Jan2005                  
   VRHFIN =Pd : s1 d9                                                           
   LEXCH  = PE                                                                  
   EATOM  =   809.7530 eV,   59.5152 Ry                                         
                                                                                
   TITEL  = PAW_PBE Pd 04Jan2005                                                
   LULTRA =        F    use ultrasoft PP ?                                      
   IUNSCR =        1    unscreen: 0-lin 1-nonlin 2-no                           
   RPACOR =    2.000    partial core radius                                     
   POMASS =  106.420; ZVAL   =   10.000    mass and valenz                      
   RCORE  =    2.600    outmost cutoff radius                                   
   RWIGS  =    2.710; RWIGS  =    1.434    wigner-seitz radius (au A)           
   ENMAX  =  250.925; ENMIN  =  188.194 eV                                      
   ICORE  =        3    local potential                                         
   LCOR   =        T    correct aug charges                                     
   LPAW   =        T    paw PP                                                  
   EAUG   =  416.230                                                            
   DEXC   =    0.000                                                            
   RMAX   =    2.653    core radius for proj-oper                               
   RAUG   =    1.300    factor for augmentation sphere                          
   RDEP   =    2.734    radius for radial grids                                 
   RDEPT  =    2.103    core radius for aug-charge                              
                                                                                
   Atomic configuration                                                         
   12 entries                                                                   
     n  l   j            E        occ.                                          
     1  0  0.50    -24164.6631   2.0000                                         
     2  0  0.50     -3530.9218   2.0000                                         
     2  1  1.50     -3165.6822   6.0000                                         
     3  0  0.50      -639.4577   2.0000                                         
     3  1  1.50      -519.4532   6.0000                                         
     3  2  2.50      -328.9757  10.0000                                         
     4  0  0.50       -88.7014   2.0000                                         
     4  1  1.50       -54.4540   6.0000                                         
     4  2  2.50        -6.6878   9.0000                                         
     5  0  0.50        -4.3543   1.0000                                         
     5  1  0.50        -1.3606   0.0000                                         
     4  3  2.50        -1.3606   0.0000                                         
   Description                                                                  
     l       E           TYP  RCUT    TYP  RCUT                                 
     2     -6.6878251     23  2.400                                             
     2     -8.0484077     23  2.400                                             
     0     -4.3542939     23  2.400                                             
     0      4.3406793     23  2.400                                             
     1     -4.0817478     23  2.600                                             
     1     15.8380318     23  2.600                                             
     3     -4.0817478     23  2.400                                             
  local pseudopotential read in
  partial core-charges read in
  partial kinetic energy density read in
  atomic valenz-charges read in
  non local Contribution for L=           2  read in
    real space projection operators read in
  non local Contribution for L=           2  read in
    real space projection operators read in
  non local Contribution for L=           0  read in
    real space projection operators read in
  non local Contribution for L=           0  read in
    real space projection operators read in
  non local Contribution for L=           1  read in
    real space projection operators read in
  non local Contribution for L=           1  read in
    real space projection operators read in
    PAW grid and wavefunctions read in
 
   number of l-projection  operators is LMAX  =           6
   number of lm-projection operators is LMMAX =          18
 
  PAW_PBE Pd 04Jan2005                  :
 energy of atom  1       EATOM= -809.7530
 kinetic energy error for atom=    0.0653 (will be added to EATOM!!)
 
 
 POSCAR: Ag11, -948.0 <s> Pd </s>                
  positions in direct lattice
  No initial velocities read in
 exchange correlation table for  LEXCH =        8
   RHO(1)=    0.500       N(1)  =     2000
   RHO(2)=  100.500       N(2)  =     4000
 


--------------------------------------------------------------------------------------------------------


 ion  position               nearest neighbor table
   1  0.500  0.500  0.619-   2 2.69   4 2.69   5 2.69   9 2.69
   2  0.568  0.566  0.529-   3 2.69   1 2.69   9 2.71   8 2.72   7 2.75   4 2.80
   3  0.500  0.676  0.541-   7 2.68   4 2.69   2 2.69
   4  0.432  0.566  0.529-   3 2.69   1 2.69   5 2.71   6 2.72   7 2.75   2 2.80
   5  0.432  0.434  0.529-  11 2.69   1 2.69   4 2.71   6 2.72  10 2.75   9 2.80
   6  0.435  0.500  0.415-   8 2.70   5 2.72   4 2.72   7 2.76  10 2.76
   7  0.500  0.616  0.426-   3 2.68   2 2.75   4 2.75   6 2.76   8 2.76
   8  0.565  0.500  0.415-   6 2.70   2 2.72   9 2.72   7 2.76  10 2.76
   9  0.568  0.434  0.529-  11 2.69   1 2.69   2 2.71   8 2.72  10 2.75   5 2.80
  10  0.500  0.384  0.426-  11 2.68   9 2.75   5 2.75   6 2.76   8 2.76
  11  0.500  0.324  0.541-  10 2.68   9 2.69   5 2.69
 
  LATTYP: Found a simple cubic cell.
 ALAT       =    20.6401160000
  
  Lattice vectors:
  
 A1 = (  20.6401160000,   0.0000000000,   0.0000000000)
 A2 = (   0.0000000000,  20.6401160000,   0.0000000000)
 A3 = (   0.0000000000,   0.0000000000,  20.6401160000)


Analysis of symmetry for initial positions (statically):
=====================================================================
 Subroutine PRICEL returns:
 Original cell was already a primitive cell.
 

 Routine SETGRP: Setting up the symmetry group for a 
 simple cubic supercell.


 Subroutine GETGRP returns: Found  4 space group operations
 (whereof  4 operations were pure point group operations)
 out of a pool of 48 trial point group operations.


The static configuration has the point symmetry C_2v.


Analysis of symmetry for dynamics (positions and initial velocities):
=====================================================================
 Subroutine PRICEL returns:
 Original cell was already a primitive cell.
 

 Routine SETGRP: Setting up the symmetry group for a 
 simple cubic supercell.


 Subroutine GETGRP returns: Found  4 space group operations
 (whereof  4 operations were pure point group operations)
 out of a pool of 48 trial point group operations.


The dynamic configuration has the point symmetry C_2v.


Analysis of magnetic symmetry:
=====================================================================
 Subroutine PRICEL returns:
 Original cell was already a primitive cell.
 

 Subroutine MAGSYM returns: Found  4 space group operations
 (whereof  4 operations were pure point group operations)
 out of a pool of  4 trial space group operations
 (whereof  4 operations were pure point group operations)
 and found also     1 'primitive' translations


The magnetic configuration has the point symmetry C_2v.
 
 
 KPOINTS: Gamma-point only                        
  k-points in reciprocal lattice
Space group operators:
 irot       det(A)        alpha          n_x          n_y          n_z        tau_x        tau_y        tau_z
    1     1.000000     0.000001     1.000000     0.000000     0.000000     0.000000     0.000000     0.000000
    2     1.000000   180.000000     0.000000     0.000000     1.000000     0.000000     0.000000     0.000000
    3    -1.000000   180.000000     1.000000     0.000000     0.000000     0.000000     0.000000     0.000000
    4    -1.000000   180.000000     0.000000     1.000000     0.000000     0.000000     0.000000     0.000000


--------------------------------------------------------------------------------------------------------




 Dimension of arrays:
   k-points           NKPTS =      1   k-points in BZ     NKDIM =      1   number of bands    NBANDS=     72
   number of dos      NEDOS =    301   number of ions     NIONS =     11
   non local maximal  LDIM  =      6   non local SUM 2l+1 LMDIM =     18
   total plane-waves  NPLWV = 512000
   max r-space proj   IRMAX =      1   max aug-charges    IRDMAX=   3024
   dimension x,y,z NGX =    80 NGY =   80 NGZ =   80
   dimension x,y,z NGXF=   160 NGYF=  160 NGZF=  160
   support grid    NGXF=   160 NGYF=  160 NGZF=  160
   ions per type =              11
 NGX,Y,Z   is equivalent  to a cutoff of   6.44,  6.44,  6.44 a.u.
 NGXF,Y,Z  is equivalent  to a cutoff of  12.89, 12.89, 12.89 a.u.


 I would recommend the setting:
   dimension x,y,z NGX =    80 NGY =   80 NGZ =   80
 SYSTEM =  unknown system                          
 POSCAR =  Ag11, -948.0 <s> Pd </s>                

 Startparameter for this run:
   NWRITE =      2    write-flag & timer
   PREC   = normal    normal or accurate (medium, high low for compatibility)
   ISTART =      0    job   : 0-new  1-cont  2-samecut
   ICHARG =      2    charge: 1-file 2-atom 10-const
   ISPIN  =      2    spin polarized calculation?
   LNONCOLLINEAR =      F non collinear calculations
   LSORBIT =      F    spin-orbit coupling
   INIWAV =      1    electr: 0-lowe 1-rand  2-diag
   LASPH  =      F    aspherical Exc in radial PAW
   METAGGA=      F    non-selfconsistent MetaGGA calc.

 Electronic Relaxation 1
   ENCUT  =  250.9 eV  18.44 Ry    4.29 a.u.  26.66 26.66 26.66*2*pi/ulx,y,z
   ENINI  =  250.9     initial cutoff
   ENAUG  =  416.2 eV  augmentation charge cutoff
   NELM   =     60;   NELMIN=  2; NELMDL= -5     # of ELM steps 
   EDIFF  = 0.1E-03   stopping-criterion for ELM
   LREAL  =      F    real-space projection
   NLSPLINE    = F    spline interpolate recip. space projectors
   LCOMPAT=      F    compatible to vasp.4.4
   GGA_COMPAT  = T    GGA compatible to vasp.4.4-vasp.4.6
   LMAXPAW     = -100 max onsite density
   LMAXMIX     =    2 max onsite mixed and CHGCAR
   VOSKOWN=      0    Vosko Wilk Nusair interpolation
   ROPT   =    0.00000
 Ionic relaxation
   EDIFFG = 0.1E-02   stopping-criterion for IOM
   NSW    =   1000    number of steps for IOM
   NBLOCK =      1;   KBLOCK =   1000    inner block; outer block 
   IBRION =      2    ionic relax: 0-MD 1-quasi-New 2-CG
   NFREE  =      1    steps in history (QN), initial steepest desc. (CG)
   ISIF   =      2    stress and relaxation
   IWAVPR =     11    prediction:  0-non 1-charg 2-wave 3-comb
   ISYM   =      2    0-nonsym 1-usesym 2-fastsym
   LCORR  =      T    Harris-Foulkes like correction to forces

   POTIM  = 0.1000    time-step for ionic-motion
   TEIN   =    0.0    initial temperature
   TEBEG  =    0.0;   TEEND  =   0.0 temperature during run
   SMASS  =  -3.00    Nose mass-parameter (am)
   estimated Nose-frequenzy (Omega)   =  0.10E-29 period in steps =****** mass=  -0.974E-26a.u.
   SCALEE = 1.0000    scale energy and forces
   NPACO  =    256;   APACO  = 16.0  distance and # of slots for P.C.
   PSTRESS=    0.0 pullay stress

  Mass of Ions in am
   POMASS = 106.42
  Ionic Valenz
   ZVAL   =  10.00
  Atomic Wigner-Seitz radii
   RWIGS  =  -1.00
  virtual crystal weights 
   VCA    =   1.00
   NELECT =     110.0000    total number of electrons
   NUPDOWN=      -1.0000    fix difference up-down

 DOS related values:
   EMIN   =  10.00;   EMAX   =-10.00  energy-range for DOS
   EFERMI =   0.00
   ISMEAR =     0;   SIGMA  =   0.00  broadening in eV -4-tet -1-fermi 0-gaus

 Electronic relaxation 2 (details)
   IALGO  =     38    algorithm
   LDIAG  =      T    sub-space diagonalisation (order eigenvalues)
   LSUBROT=      F    optimize rotation matrix (better conditioning)
   TURBO    =      0    0=normal 1=particle mesh
   IRESTART =      0    0=no restart 2=restart with 2 vectors
   NREBOOT  =      0    no. of reboots
   NMIN     =      0    reboot dimension
   EREF     =   0.00    reference energy to select bands
   IMIX   =      4    mixing-type and parameters
     AMIX     =   0.40;   BMIX     =  1.00
     AMIX_MAG =   1.60;   BMIX_MAG =  1.00
     AMIN     =   0.10
     WC   =   100.;   INIMIX=   1;  MIXPRE=   1;  MAXMIX= -45

 Intra band minimization:
   WEIMIN = 0.0010     energy-eigenvalue tresh-hold
   EBREAK =  0.35E-06  absolut break condition
   DEPER  =   0.30     relativ break condition  

   TIME   =   0.40     timestep for ELM

  volume/ion in A,a.u.               =     799.36      5394.36
  Fermi-wavevector in a.u.,A,eV,Ry     =   0.380038  0.718168  1.965073  0.144429
  Thomas-Fermi vector in A             =   1.314520
 
 Write flags
   LWAVE  =      F    write WAVECAR
   LCHARG =      F    write CHGCAR
   LVTOT  =      F    write LOCPOT, total local potential
   LVHAR  =      F    write LOCPOT, Hartree potential only
   LELF   =      F    write electronic localiz. function (ELF)
   LORBIT =      0    0 simple, 1 ext, 2 COOP (PROOUT)


 Dipole corrections
   LMONO  =      F    monopole corrections only (constant potential shift)
   LDIPOL =      F    correct potential (dipole corrections)
   IDIPOL =      0    1-x, 2-y, 3-z, 4-all directions 
   EPSILON=  1.0000000 bulk dielectric constant

 Exchange correlation treatment:
   GGA     =    PE    GGA type
   LEXCH   =     8    internal setting for exchange type
   VOSKOWN=      0    Vosko Wilk Nusair interpolation
   LHFCALC =     F    Hartree Fock is set to
   LHFONE  =     F    Hartree Fock one center treatment
   AEXX    =    0.0000 exact exchange contribution

 Linear response parameters
   LEPSILON=     F    determine dielectric tensor
   LRPA    =     F    only Hartree local field effects (RPA)
   LNABLA  =     F    use nabla operator in PAW spheres
   LVEL    =     F    velocity operator in full k-point grid
   LINTERFAST=   F  fast interpolation
   KINTER  =     0    interpolate to denser k-point grid
   CSHIFT  =0.1000    complex shift for real part using Kramers Kronig
   OMEGAMAX=  -1.0    maximum frequency
   DEG_THRESHOLD= 0.2000000E-02 threshold for treating states as degnerate
   RTIME   =    0.100 relaxation time in fs

 Orbital magnetization related:
   ORBITALMAG=     F  switch on orbital magnetization
   LCHIMAG   =     F  perturbation theory with respect to B field
   DQ        =  0.001000  dq finite difference perturbation B field



--------------------------------------------------------------------------------------------------------


 conjugate gradient relaxation of ions
 charge density and potential will be updated during run
 spin polarized calculation
 Variant of blocked Davidson
 Davidson routine will perform the subspace rotation
 perform sub-space diagonalisation
    after iterative eigenvector-optimisation
 modified Broyden-mixing scheme, WC =      100.0
 initial mixing is a Kerker type mixing with AMIX =  0.4000 and BMIX =      1.0000
 Hartree-type preconditioning will be used
 using additional bands           17
 reciprocal scheme for non local part
 use partial core corrections
 calculate Harris-corrections to forces 
   (improved forces if not selfconsistent)
 use gradient corrections 
 use of overlap-Matrix (Vanderbilt PP)
 Gauss-broadening in eV      SIGMA  =   0.00


--------------------------------------------------------------------------------------------------------


  energy-cutoff  :      250.93
  volume of cell :     8792.99
      direct lattice vectors                 reciprocal lattice vectors
    20.640116000  0.000000000  0.000000000     0.048449340  0.000000000  0.000000000
     0.000000000 20.640116000  0.000000000     0.000000000  0.048449340  0.000000000
     0.000000000  0.000000000 20.640116000     0.000000000  0.000000000  0.048449340

  length of vectors
    20.640116000 20.640116000 20.640116000     0.048449340  0.048449340  0.048449340


 
 k-points in units of 2pi/SCALE and weight: Gamma-point only                        
   0.00000000  0.00000000  0.00000000       1.000
 
 k-points in reciprocal lattice and weights: Gamma-point only                        
   0.00000000  0.00000000  0.00000000       1.000
 
 position of ions in fractional coordinates (direct lattice) 
   0.50000000  0.50000000  0.61918126
   0.56774885  0.56554442  0.52895057
   0.50000000  0.67604350  0.54143564
   0.43225115  0.56554442  0.52895057
   0.43225115  0.43445558  0.52895057
   0.43465107  0.50000000  0.41480920
   0.50000000  0.61610524  0.42626338
   0.56534893  0.50000000  0.41480920
   0.56774885  0.43445558  0.52895057
   0.50000000  0.38389476  0.42626338
   0.50000000  0.32395650  0.54143564
 
 position of ions in cartesian coordinates  (Angst):
  10.32005800 10.32005800 12.77997309
  11.71840212 11.67290248 10.91760116
  10.32005800 13.95361616 11.17529452
   8.92171388 11.67290248 10.91760116
   8.92171388  8.96721352 10.91760116
   8.97124842 10.32005800  8.56171010
  10.32005800 12.71648354  8.79812559
  11.66886758 10.32005800  8.56171010
  11.71840212  8.96721352 10.91760116
  10.32005800  7.92363246  8.79812559
  10.32005800  6.68649984 11.17529452
 


--------------------------------------------------------------------------------------------------------


 use parallel FFT for wavefunctions z direction half grid
 k-point  1 :   0.0000 0.0000 0.0000  plane waves:   39751

 maximum and minimum number of plane-waves per node :      4973     4962

 maximum number of plane-waves:     39751
 maximum index in each direction: 
   IXMAX=   26   IYMAX=   26   IZMAX=   26
   IXMIN=  -26   IYMIN=  -26   IZMIN=    0

 WARNING: aliasing errors must be expected set NGX to 106 to avoid them
 WARNING: aliasing errors must be expected set NGY to 106 to avoid them
 WARNING: aliasing errors must be expected set NGZ to 106 to avoid them
 aliasing errors are usually negligible using standard VASP settings
 and one can safely disregard these warnings

 parallel 3D FFT for wavefunctions:
    minimum data exchange during FFTs selected (reduces bandwidth)
 parallel 3D FFT for charge:
    minimum data exchange during FFTs selected (reduces bandwidth)


 total amount of memory used by VASP on root node    54724. kBytes
========================================================================

   base      :      30000. kBytes
   nonl-proj :       1591. kBytes
   fftplans  :       5777. kBytes
   grid      :      14451. kBytes
   one-center:         31. kBytes
   wavefun   :       2874. kBytes
 
     INWAV:  cpu time    0.00: real time    0.00
 Broyden mixing: mesh for mixing (old mesh)
   NGX = 53   NGY = 53   NGZ = 53
  (NGX  =160   NGY  =160   NGZ  =160)
  gives a total of 148877 points

 initial charge density was supplied:
 charge density of overlapping atoms calculated
 number of electron     110.0000000 magnetization      11.0000000
 keeping initial charge density in first step


--------------------------------------------------------------------------------------------------------


 Maximum index for augmentation-charges          152 (set IRDMAX)


--------------------------------------------------------------------------------------------------------


 First call to EWALD:  gamma=   0.086
 Maximum number of real-space cells 3x 3x 3
 Maximum number of reciprocal cells 3x 3x 3

 FEWALD executed in parallel
    FEWALD:  cpu time    0.00: real time    0.00


----------------------------------------- Iteration    1(   1)  ---------------------------------------


    POTLOK:  cpu time    0.23: real time    0.23
    SETDIJ:  cpu time    0.01: real time    0.01
     EDDAV:  cpu time    0.73: real time    0.73
       DOS:  cpu time    0.00: real time    0.00
    --------------------------------------------
      LOOP:  cpu time    0.98: real time    0.99

 eigenvalue-minimisations  :   288
 total energy-change (2. order) : 0.9182187E+03  (-0.1504738E+04)
 number of electron     110.0000000 magnetization      11.0000000
 augmentation part      110.0000000 magnetization      11.0000000

 Free energy of the ion-electron system (eV)
  ---------------------------------------------------
  alpha Z        PSCENC =         8.96874153
  Ewald energy   TEWEN  =     11392.85160614
  -Hartree energ DENC   =    -19888.44620688
  -exchange      EXHF   =         0.00000000
  -V(xc)+E(xc)   XCENC  =      -333.41581557
  PAW double counting   =      8873.12721117    -8188.75509675
  entropy T*S    EENTRO =        -0.00000000
  eigenvalues    EBANDS =       147.32307973
  atomic energy  EATOM  =      8906.56515536
  ---------------------------------------------------
  free energy    TOTEN  =       918.21867472 eV

  energy without entropy =      918.21867472  energy(sigma->0) =      918.21867472


--------------------------------------------------------------------------------------------------------




----------------------------------------- Iteration    1(   2)  ---------------------------------------


     EDDAV:  cpu time    1.21: real time    1.21
       DOS:  cpu time    0.00: real time    0.00
    --------------------------------------------
      LOOP:  cpu time    1.21: real time    1.22

 eigenvalue-minimisations  :   544
 total energy-change (2. order) :-0.4500875E+03  (-0.4041093E+03)
 number of electron     110.0000000 magnetization      11.0000000
 augmentation part      110.0000000 magnetization      11.0000000

 Free energy of the ion-electron system (eV)
  ---------------------------------------------------
  alpha Z        PSCENC =         8.96874153
  Ewald energy   TEWEN  =     11392.85160614
  -Hartree energ DENC   =    -19888.44620688
  -exchange      EXHF   =         0.00000000
  -V(xc)+E(xc)   XCENC  =      -333.41581557
  PAW double counting   =      8873.12721117    -8188.75509675
  entropy T*S    EENTRO =         0.00000000
  eigenvalues    EBANDS =      -302.76437484
  atomic energy  EATOM  =      8906.56515536
  ---------------------------------------------------
  free energy    TOTEN  =       468.13122015 eV

  energy without entropy =      468.13122015  energy(sigma->0) =      468.13122015


--------------------------------------------------------------------------------------------------------




----------------------------------------- Iteration    1(   3)  ---------------------------------------


     EDDAV:  cpu time    1.12: real time    1.12
       DOS:  cpu time    0.00: real time    0.00
    --------------------------------------------
      LOOP:  cpu time    1.12: real time    1.13

 eigenvalue-minimisations  :   496
 total energy-change (2. order) :-0.3940393E+03  (-0.3700912E+03)
 number of electron     110.0000000 magnetization      11.0000000
 augmentation part      110.0000000 magnetization      11.0000000

 Free energy of the ion-electron system (eV)
  ---------------------------------------------------
  alpha Z        PSCENC =         8.96874153
  Ewald energy   TEWEN  =     11392.85160614
  -Hartree energ DENC   =    -19888.44620688
  -exchange      EXHF   =         0.00000000
  -V(xc)+E(xc)   XCENC  =      -333.41581557
  PAW double counting   =      8873.12721117    -8188.75509675
  entropy T*S    EENTRO =        -0.00000000
  eigenvalues    EBANDS =      -696.80372017
  atomic energy  EATOM  =      8906.56515536
  ---------------------------------------------------
  free energy    TOTEN  =        74.09187482 eV

  energy without entropy =       74.09187482  energy(sigma->0) =       74.09187482


--------------------------------------------------------------------------------------------------------




----------------------------------------- Iteration    1(   4)  ---------------------------------------


     EDDAV:  cpu time    0.92: real time    0.92
       DOS:  cpu time    0.00: real time    0.00
    --------------------------------------------
      LOOP:  cpu time    0.93: real time    0.93

 eigenvalue-minimisations  :   392
 total energy-change (2. order) :-0.1026904E+03  (-0.9270643E+02)
 number of electron     110.0000000 magnetization      11.0000000
 augmentation part      110.0000000 magnetization      11.0000000

 Free energy of the ion-electron system (eV)
  ---------------------------------------------------
  alpha Z        PSCENC =         8.96874153
  Ewald energy   TEWEN  =     11392.85160614
  -Hartree energ DENC   =    -19888.44620688
  -exchange      EXHF   =         0.00000000
  -V(xc)+E(xc)   XCENC  =      -333.41581557
  PAW double counting   =      8873.12721117    -8188.75509675
  entropy T*S    EENTRO =        -0.00000000
  eigenvalues    EBANDS =      -799.49415979
  atomic energy  EATOM  =      8906.56515536
  ---------------------------------------------------
  free energy    TOTEN  =       -28.59856480 eV

  energy without entropy =      -28.59856480  energy(sigma->0) =      -28.59856480


--------------------------------------------------------------------------------------------------------




----------------------------------------- Iteration    1(   5)  ---------------------------------------


     EDDAV:  cpu time    0.84: real time    0.83
       DOS:  cpu time    0.00: real time    0.00
    CHARGE:  cpu time    0.15: real time    0.15
    MIXING:  cpu time    0.00: real time    0.01
    --------------------------------------------
      LOOP:  cpu time    0.99: real time    1.00

 eigenvalue-minimisations  :   344
 total energy-change (2. order) :-0.1339228E+02  (-0.1089873E+02)
 number of electron     109.9999913 magnetization      10.3215212
 augmentation part       47.1425030 magnetization       7.3333266

 Broyden mixing:
  rms(total) = 0.14570E+01    rms(broyden)= 0.14539E+01
  rms(prec ) = 0.15324E+01
  weight for this iteration     100.00

 Free energy of the ion-electron system (eV)
  ---------------------------------------------------
  alpha Z        PSCENC =         8.96874153
  Ewald energy   TEWEN  =     11392.85160614
  -Hartree energ DENC   =    -19888.44620688
  -exchange      EXHF   =         0.00000000
  -V(xc)+E(xc)   XCENC  =      -333.41581557
  PAW double counting   =      8873.12721117    -8188.75509675
  entropy T*S    EENTRO =         0.00000000
  eigenvalues    EBANDS =      -812.88644385
  atomic energy  EATOM  =      8906.56515536
  ---------------------------------------------------
  free energy    TOTEN  =       -41.99084885 eV

  energy without entropy =      -41.99084885  energy(sigma->0) =      -41.99084885


--------------------------------------------------------------------------------------------------------




----------------------------------------- Iteration    1(   6)  ---------------------------------------


    POTLOK:  cpu time    0.22: real time    0.23
    SETDIJ:  cpu time    0.01: real time    0.01
     EDDAV:  cpu time    0.78: real time    0.78
       DOS:  cpu time    0.00: real time    0.00
    CHARGE:  cpu time    0.14: real time    0.14
    MIXING:  cpu time    0.01: real time    0.01
    --------------------------------------------
      LOOP:  cpu time    1.16: real time    1.17

 eigenvalue-minimisations  :   312
 total energy-change (2. order) : 0.3505549E+01  (-0.1716232E+01)
 number of electron     109.9999917 magnetization       9.7427475
 augmentation part       47.4173968 magnetization       6.2312020

 Broyden mixing:
  rms(total) = 0.79984E+00    rms(broyden)= 0.79836E+00
  rms(prec ) = 0.85511E+00
  weight for this iteration     100.00

 eigenvalues of (default mixing * dielectric matrix)
  average eigenvalue GAMMA=   0.8002
  0.8002

 Free energy of the ion-electron system (eV)
  ---------------------------------------------------
  alpha Z        PSCENC =         8.96874153
  Ewald energy   TEWEN  =     11392.85160614
  -Hartree energ DENC   =    -19941.79855669
  -exchange      EXHF   =         0.00000000
  -V(xc)+E(xc)   XCENC  =      -332.25129232
  PAW double counting   =      9317.88984243    -8636.94185580
  entropy T*S    EENTRO =         0.00000000
  eigenvalues    EBANDS =      -753.76894088
  atomic energy  EATOM  =      8906.56515536
  ---------------------------------------------------
  free energy    TOTEN  =       -38.48530023 eV

  energy without entropy =      -38.48530023  energy(sigma->0) =      -38.48530023


--------------------------------------------------------------------------------------------------------




----------------------------------------- Iteration    1(   7)  ---------------------------------------


    POTLOK:  cpu time    0.23: real time    0.23
    SETDIJ:  cpu time    0.00: real time    0.01
     EDDAV:  cpu time    0.76: real time    0.76
       DOS:  cpu time    0.00: real time    0.00
    CHARGE:  cpu time    0.14: real time    0.14
    MIXING:  cpu time    0.00: real time    0.01
    --------------------------------------------
      LOOP:  cpu time    1.14: real time    2.88

 eigenvalue-minimisations  :   312
 total energy-change (2. order) : 0.3067796E+01  (-0.5094228E+00)
 number of electron     109.9999929 magnetization       9.3129283
 augmentation part       47.1849749 magnetization       5.8131914

 Broyden mixing:
  rms(total) = 0.97172E+00    rms(broyden)= 0.96906E+00
  rms(prec ) = 0.10621E+01
  weight for this iteration     100.00

 eigenvalues of (default mixing * dielectric matrix)
  average eigenvalue GAMMA=   0.7582
  0.3929  1.1236

 Free energy of the ion-electron system (eV)
  ---------------------------------------------------
  alpha Z        PSCENC =         8.96874153
  Ewald energy   TEWEN  =     11392.85160614
  -Hartree energ DENC   =    -19983.04028913
  -exchange      EXHF   =         0.00000000
  -V(xc)+E(xc)   XCENC  =      -328.83551988
  PAW double counting   =      9544.67191499    -8864.76353030
  entropy T*S    EENTRO =         0.00000000
  eigenvalues    EBANDS =      -711.83558251
  atomic energy  EATOM  =      8906.56515536
  ---------------------------------------------------
  free energy    TOTEN  =       -35.41750381 eV

  energy without entropy =      -35.41750381  energy(sigma->0) =      -35.41750381


--------------------------------------------------------------------------------------------------------




----------------------------------------- Iteration    1(   8)  ---------------------------------------


    POTLOK:  cpu time    0.22: real time    0.22
    SETDIJ:  cpu time    0.01: real time    0.01
     EDDAV:  cpu time    0.76: real time    0.76
       DOS:  cpu time    0.00: real time    0.00
    CHARGE:  cpu time    0.14: real time    0.14
    MIXING:  cpu time    0.01: real time    0.01
    --------------------------------------------
      LOOP:  cpu time    1.14: real time    1.62

 eigenvalue-minimisations  :   312
 total energy-change (2. order) : 0.1474235E+01  (-0.4304836E+00)
 number of electron     109.9999871 magnetization       9.0736445
 augmentation part       47.2683199 magnetization       5.5679801

 Broyden mixing:
  rms(total) = 0.61623E+00    rms(broyden)= 0.60973E+00
  rms(prec ) = 0.66096E+00
  weight for this iteration     100.00

 eigenvalues of (default mixing * dielectric matrix)
  average eigenvalue GAMMA=   0.6942
  1.2933  0.5207  0.2688

 Free energy of the ion-electron system (eV)
  ---------------------------------------------------
  alpha Z        PSCENC =         8.96874153
  Ewald energy   TEWEN  =     11392.85160614
  -Hartree energ DENC   =    -20004.36453275
  -exchange      EXHF   =         0.00000000
  -V(xc)+E(xc)   XCENC  =      -327.77824496
  PAW double counting   =      9676.66724045    -8997.55755996
  entropy T*S    EENTRO =         0.00000000
  eigenvalues    EBANDS =      -689.29567449
  atomic energy  EATOM  =      8906.56515536
  ---------------------------------------------------
  free energy    TOTEN  =       -33.94326869 eV

  energy without entropy =      -33.94326869  energy(sigma->0) =      -33.94326869


--------------------------------------------------------------------------------------------------------




----------------------------------------- Iteration    1(   9)  ---------------------------------------


    POTLOK:  cpu time    0.23: real time    0.23
    SETDIJ:  cpu time    0.01: real time    0.01
     EDDAV:  cpu time    0.77: real time    0.77
       DOS:  cpu time    0.00: real time    0.00
    CHARGE:  cpu time    0.14: real time    0.14
    MIXING:  cpu time    0.00: real time    0.01
    --------------------------------------------
      LOOP:  cpu time    1.16: real time    2.48

 eigenvalue-minimisations  :   312
 total energy-change (2. order) :-0.1938572E+00  (-0.1196308E+00)
 number of electron     109.9999930 magnetization       8.7297189
 augmentation part       47.2008560 magnetization       5.2896122

 Broyden mixing:
  rms(total) = 0.34353E+00    rms(broyden)= 0.33743E+00
  rms(prec ) = 0.36296E+00
  weight for this iteration     100.00

 eigenvalues of (default mixing * dielectric matrix)
  average eigenvalue GAMMA=   0.7268
  1.5982  0.6583  0.4185  0.2320

 Free energy of the ion-electron system (eV)
  ---------------------------------------------------
  alpha Z        PSCENC =         8.96874153
  Ewald energy   TEWEN  =     11392.85160614
  -Hartree energ DENC   =    -20012.97535745
  -exchange      EXHF   =         0.00000000
  -V(xc)+E(xc)   XCENC  =      -327.91770151
  PAW double counting   =      9724.69188153    -9045.77472879
  entropy T*S    EENTRO =         0.00000000
  eigenvalues    EBANDS =      -680.54672270
  atomic energy  EATOM  =      8906.56515536
  ---------------------------------------------------
  free energy    TOTEN  =       -34.13712589 eV

  energy without entropy =      -34.13712589  energy(sigma->0) =      -34.13712589


--------------------------------------------------------------------------------------------------------




----------------------------------------- Iteration    1(  10)  ---------------------------------------


    POTLOK:  cpu time    0.22: real time    0.23
    SETDIJ:  cpu time    0.01: real time    0.01
     EDDAV:  cpu time    0.77: real time    0.77
       DOS:  cpu time    0.00: real time    0.00
    CHARGE:  cpu time    0.14: real time    0.14
    MIXING:  cpu time    0.00: real time    0.01
    --------------------------------------------
      LOOP:  cpu time    1.16: real time    1.16

 eigenvalue-minimisations  :   312
 total energy-change (2. order) :-0.4625870E+00  (-0.5732641E-01)
 number of electron     109.9999897 magnetization       8.5363820
 augmentation part       47.1844484 magnetization       5.1461883

 Broyden mixing:
  rms(total) = 0.30798E+00    rms(broyden)= 0.30448E+00
  rms(prec ) = 0.32956E+00
  weight for this iteration     100.00

 eigenvalues of (default mixing * dielectric matrix)
  average eigenvalue GAMMA=   0.6733
  1.6386  0.6994  0.5443  0.2049  0.2794

 Free energy of the ion-electron system (eV)
  ---------------------------------------------------
  alpha Z        PSCENC =         8.96874153
  Ewald energy   TEWEN  =     11392.85160614
  -Hartree energ DENC   =    -20024.28949237
  -exchange      EXHF   =         0.00000000
  -V(xc)+E(xc)   XCENC  =      -328.11225378
  PAW double counting   =      9774.33887920    -9095.64359886
  entropy T*S    EENTRO =        -0.00000000
  eigenvalues    EBANDS =      -669.27875011
  atomic energy  EATOM  =      8906.56515536
  ---------------------------------------------------
  free energy    TOTEN  =       -34.59971289 eV

  energy without entropy =      -34.59971289  energy(sigma->0) =      -34.59971289


--------------------------------------------------------------------------------------------------------




----------------------------------------- Iteration    1(  11)  ---------------------------------------


    POTLOK:  cpu time    0.22: real time    0.23
    SETDIJ:  cpu time    0.01: real time    0.01
     EDDAV:  cpu time    0.79: real time    0.79
       DOS:  cpu time    0.00: real time    0.00
    CHARGE:  cpu time    0.14: real time    0.14
    MIXING:  cpu time    0.01: real time    0.01
    --------------------------------------------
      LOOP:  cpu time    1.18: real time    1.18

 eigenvalue-minimisations  :   320
 total energy-change (2. order) :-0.4490218E+00  (-0.2337120E-01)
 number of electron     109.9999928 magnetization       8.2228678
 augmentation part       47.1581434 magnetization       4.8849386

 Broyden mixing:
  rms(total) = 0.20553E+00    rms(broyden)= 0.20217E+00
  rms(prec ) = 0.22176E+00
  weight for this iteration     100.00

 eigenvalues of (default mixing * dielectric matrix)
  average eigenvalue GAMMA=   0.7008
  1.7986  0.8817  0.6513  0.3445  0.3445  0.1840

 Free energy of the ion-electron system (eV)
  ---------------------------------------------------
  alpha Z        PSCENC =         8.96874153
  Ewald energy   TEWEN  =     11392.85160614
  -Hartree energ DENC   =    -20029.20490874
  -exchange      EXHF   =         0.00000000
  -V(xc)+E(xc)   XCENC  =      -328.43616358
  PAW double counting   =      9787.81499777    -9109.22067318
  entropy T*S    EENTRO =         0.00000000
  eigenvalues    EBANDS =      -664.38749002
  atomic energy  EATOM  =      8906.56515536
  ---------------------------------------------------
  free energy    TOTEN  =       -35.04873474 eV

  energy without entropy =      -35.04873474  energy(sigma->0) =      -35.04873474


--------------------------------------------------------------------------------------------------------




----------------------------------------- Iteration    1(  12)  ---------------------------------------


    POTLOK:  cpu time    0.22: real time    0.23
    SETDIJ:  cpu time    0.01: real time    0.01
     EDDAV:  cpu time    0.76: real time    0.76
       DOS:  cpu time    0.00: real time    0.00
    CHARGE:  cpu time    0.14: real time    0.14
    MIXING:  cpu time    0.01: real time    0.01
    --------------------------------------------
      LOOP:  cpu time    1.14: real time    1.15

 eigenvalue-minimisations  :   304
 total energy-change (2. order) :-0.7766327E+00  (-0.3701610E-01)
 number of electron     109.9999924 magnetization       7.8753127
 augmentation part       47.1631594 magnetization       4.5892731

 Broyden mixing:
  rms(total) = 0.22742E+00    rms(broyden)= 0.22613E+00
  rms(prec ) = 0.25396E+00
  weight for this iteration     100.00

 eigenvalues of (default mixing * dielectric matrix)
  average eigenvalue GAMMA=   0.7247
  1.9195  1.1947  0.6767  0.5409  0.3295  0.2411  0.1708

 Free energy of the ion-electron system (eV)
  ---------------------------------------------------
  alpha Z        PSCENC =         8.96874153
  Ewald energy   TEWEN  =     11392.85160614
  -Hartree energ DENC   =    -20035.60773078
  -exchange      EXHF   =         0.00000000
  -V(xc)+E(xc)   XCENC  =      -328.98007023
  PAW double counting   =      9802.49857151    -9124.05387104
  entropy T*S    EENTRO =         0.00000000
  eigenvalues    EBANDS =      -658.06776995
  atomic energy  EATOM  =      8906.56515536
  ---------------------------------------------------
  free energy    TOTEN  =       -35.82536745 eV

  energy without entropy =      -35.82536745  energy(sigma->0) =      -35.82536745


--------------------------------------------------------------------------------------------------------




----------------------------------------- Iteration    1(  13)  ---------------------------------------


    POTLOK:  cpu time    0.22: real time    0.23
    SETDIJ:  cpu time    0.01: real time    0.01
     EDDAV:  cpu time    0.77: real time    0.77
       DOS:  cpu time    0.00: real time    0.00
    CHARGE:  cpu time    0.14: real time    0.14
    MIXING:  cpu time    0.01: real time    0.01
    --------------------------------------------
      LOOP:  cpu time    1.16: real time    1.16

 eigenvalue-minimisations  :   312
 total energy-change (2. order) :-0.7659872E+00  (-0.3261495E-01)
 number of electron     109.9999929 magnetization       7.7271350
 augmentation part       47.1545975 magnetization       4.5170086

 Broyden mixing:
  rms(total) = 0.22714E+00    rms(broyden)= 0.22330E+00
  rms(prec ) = 0.24075E+00
  weight for this iteration     100.00

 eigenvalues of (default mixing * dielectric matrix)
  average eigenvalue GAMMA=   0.6942
  1.9821  1.0492  0.7166  0.7166  0.3591  0.3591  0.2174  0.1535

 Free energy of the ion-electron system (eV)
  ---------------------------------------------------
  alpha Z        PSCENC =         8.96874153
  Ewald energy   TEWEN  =     11392.85160614
  -Hartree energ DENC   =    -20042.05160608
  -exchange      EXHF   =         0.00000000
  -V(xc)+E(xc)   XCENC  =      -329.54568139
  PAW double counting   =      9808.91026623    -9130.61584608
  entropy T*S    EENTRO =         0.00000000
  eigenvalues    EBANDS =      -651.67399038
  atomic energy  EATOM  =      8906.56515536
  ---------------------------------------------------
  free energy    TOTEN  =       -36.59135468 eV

  energy without entropy =      -36.59135468  energy(sigma->0) =      -36.59135468


--------------------------------------------------------------------------------------------------------




----------------------------------------- Iteration    1(  14)  ---------------------------------------


    POTLOK:  cpu time    0.23: real time    0.23
    SETDIJ:  cpu time    0.01: real time    0.01
     EDDAV:  cpu time    0.76: real time    0.76
       DOS:  cpu time    0.00: real time    0.00
    CHARGE:  cpu time    0.14: real time    0.14
    MIXING:  cpu time    0.01: real time    0.01
    --------------------------------------------
      LOOP:  cpu time    1.15: real time    2.09

 eigenvalue-minimisations  :   304
 total energy-change (2. order) :-0.3864019E+00  (-0.7494633E-02)
 number of electron     109.9999912 magnetization       7.6746797
 augmentation part       47.1518587 magnetization       4.4926199

 Broyden mixing:
  rms(total) = 0.25589E+00    rms(broyden)= 0.25461E+00
  rms(prec ) = 0.27397E+00
  weight for this iteration     100.00

 eigenvalues of (default mixing * dielectric matrix)
  average eigenvalue GAMMA=   0.6863
  2.0573  1.2320  0.5361  0.5361  0.6223  0.4653  0.3268  0.2375  0.1634

 Free energy of the ion-electron system (eV)
  ---------------------------------------------------
  alpha Z        PSCENC =         8.96874153
  Ewald energy   TEWEN  =     11392.85160614
  -Hartree energ DENC   =    -20044.81036743
  -exchange      EXHF   =         0.00000000
  -V(xc)+E(xc)   XCENC  =      -329.84636832
  PAW double counting   =      9809.38706777    -9131.16069430
  entropy T*S    EENTRO =         0.00000000
  eigenvalues    EBANDS =      -648.93289737
  atomic energy  EATOM  =      8906.56515536
  ---------------------------------------------------
  free energy    TOTEN  =       -36.97775663 eV

  energy without entropy =      -36.97775663  energy(sigma->0) =      -36.97775663


--------------------------------------------------------------------------------------------------------




----------------------------------------- Iteration    1(  15)  ---------------------------------------


    POTLOK:  cpu time    0.22: real time    0.23
    SETDIJ:  cpu time    0.01: real time    0.01
     EDDAV:  cpu time    0.83: real time    0.83
       DOS:  cpu time    0.00: real time    0.00
    CHARGE:  cpu time    0.14: real time    0.14
    MIXING:  cpu time    0.01: real time    0.01
    --------------------------------------------
      LOOP:  cpu time    1.22: real time    2.60

 eigenvalue-minimisations  :   344
 total energy-change (2. order) :-0.3724168E-01  (-0.2487771E-02)
 number of electron     109.9999926 magnetization       7.5085398
 augmentation part       47.1448501 magnetization       4.3440960

 Broyden mixing:
  rms(total) = 0.19423E+00    rms(broyden)= 0.19396E+00
  rms(prec ) = 0.20891E+00
  weight for this iteration     100.00

 eigenvalues of (default mixing * dielectric matrix)
  average eigenvalue GAMMA=   0.7265
  2.0532  1.2615  0.8220  0.8220  0.6003  0.6003  0.3543  0.3543  0.2357  0.1618

 Free energy of the ion-electron system (eV)
  ---------------------------------------------------
  alpha Z        PSCENC =         8.96874153
  Ewald energy   TEWEN  =     11392.85160614
  -Hartree energ DENC   =    -20045.57284956
  -exchange      EXHF   =         0.00000000
  -V(xc)+E(xc)   XCENC  =      -329.85545935
  PAW double counting   =      9810.09371404    -9131.88530816
  entropy T*S    EENTRO =         0.00000000
  eigenvalues    EBANDS =      -648.18059831
  atomic energy  EATOM  =      8906.56515536
  ---------------------------------------------------
  free energy    TOTEN  =       -37.01499830 eV

  energy without entropy =      -37.01499830  energy(sigma->0) =      -37.01499830


--------------------------------------------------------------------------------------------------------




----------------------------------------- Iteration    1(  16)  ---------------------------------------


    POTLOK:  cpu time    0.23: real time    0.23
    SETDIJ:  cpu time    0.00: real time    0.01
     EDDAV:  cpu time    0.76: real time    0.76
       DOS:  cpu time    0.00: real time    0.00
    CHARGE:  cpu time    0.14: real time    0.14
    MIXING:  cpu time    0.01: real time    0.01
    --------------------------------------------
      LOOP:  cpu time    1.15: real time    1.15

 eigenvalue-minimisations  :   304
 total energy-change (2. order) :-0.4938730E+00  (-0.5889539E-02)
 number of electron     109.9999936 magnetization       7.1979388
 augmentation part       47.1423864 magnetization       4.0658706

 Broyden mixing:
  rms(total) = 0.13407E+00    rms(broyden)= 0.13244E+00
  rms(prec ) = 0.14179E+00
  weight for this iteration     100.00

 eigenvalues of (default mixing * dielectric matrix)
  average eigenvalue GAMMA=   0.7816
  2.4256  1.5778  0.7173  0.7173  0.6957  0.6957  0.6240  0.4111  0.3370  0.2345
  0.1620

 Free energy of the ion-electron system (eV)
  ---------------------------------------------------
  alpha Z        PSCENC =         8.96874153
  Ewald energy   TEWEN  =     11392.85160614
  -Hartree energ DENC   =    -20047.24365586
  -exchange      EXHF   =         0.00000000
  -V(xc)+E(xc)   XCENC  =      -330.27834396
  PAW double counting   =      9803.00226341    -9124.84734079
  entropy T*S    EENTRO =         0.00000000
  eigenvalues    EBANDS =      -646.52729711
  atomic energy  EATOM  =      8906.56515536
  ---------------------------------------------------
  free energy    TOTEN  =       -37.50887128 eV

  energy without entropy =      -37.50887128  energy(sigma->0) =      -37.50887128


--------------------------------------------------------------------------------------------------------




----------------------------------------- Iteration    1(  17)  ---------------------------------------


    POTLOK:  cpu time    0.22: real time    0.23
    SETDIJ:  cpu time    0.00: real time    0.01
     EDDAV:  cpu time    0.80: real time    0.80
       DOS:  cpu time    0.00: real time    0.00
    CHARGE:  cpu time    0.14: real time    0.14
    MIXING:  cpu time    0.01: real time    0.01
    --------------------------------------------
      LOOP:  cpu time    1.19: real time    1.20

 eigenvalue-minimisations  :   328
 total energy-change (2. order) :-0.7113433E+00  (-0.1316469E-01)
 number of electron     109.9999925 magnetization       7.0696267
 augmentation part       47.1377010 magnetization       3.9848497

 Broyden mixing:
  rms(total) = 0.16747E+00    rms(broyden)= 0.16401E+00
  rms(prec ) = 0.17335E+00
  weight for this iteration     100.00

 eigenvalues of (default mixing * dielectric matrix)
  average eigenvalue GAMMA=   0.7915
  2.5365  1.7661  0.7156  0.7156  0.6838  0.6838  0.6725  0.5867  0.4046  0.3358
  0.2348  0.1620

 Free energy of the ion-electron system (eV)
  ---------------------------------------------------
  alpha Z        PSCENC =         8.96874153
  Ewald energy   TEWEN  =     11392.85160614
  -Hartree energ DENC   =    -20051.29167042
  -exchange      EXHF   =         0.00000000
  -V(xc)+E(xc)   XCENC  =      -330.85867523
  PAW double counting   =      9795.30670211    -9117.25781299
  entropy T*S    EENTRO =         0.00000000
  eigenvalues    EBANDS =      -642.50426108
  atomic energy  EATOM  =      8906.56515536
  ---------------------------------------------------
  free energy    TOTEN  =       -38.22021459 eV

  energy without entropy =      -38.22021459  energy(sigma->0) =      -38.22021459


--------------------------------------------------------------------------------------------------------




----------------------------------------- Iteration    1(  18)  ---------------------------------------


    POTLOK:  cpu time    0.22: real time    0.23
    SETDIJ:  cpu time    0.01: real time    0.01
     EDDAV:  cpu time    0.85: real time    0.85
       DOS:  cpu time    0.00: real time    0.00
    CHARGE:  cpu time    0.14: real time    0.14
    MIXING:  cpu time    0.01: real time    0.01
    --------------------------------------------
      LOOP:  cpu time    1.24: real time    1.24

 eigenvalue-minimisations  :   352
 total energy-change (2. order) :-0.2788178E+00  (-0.3077612E-02)
 number of electron     109.9999933 magnetization       6.7619866
 augmentation part       47.1367467 magnetization       3.7009253

 Broyden mixing:
  rms(total) = 0.99413E-01    rms(broyden)= 0.99096E-01
  rms(prec ) = 0.10521E+00
  weight for this iteration     100.00

 eigenvalues of (default mixing * dielectric matrix)
  average eigenvalue GAMMA=   0.8441
  2.6113  2.0673  0.7933  0.7933  0.8739  0.8739  0.6755  0.5726  0.5726  0.4063
  0.3362  0.2346  0.1620

 Free energy of the ion-electron system (eV)
  ---------------------------------------------------
  alpha Z        PSCENC =         8.96874153
  Ewald energy   TEWEN  =     11392.85160614
  -Hartree energ DENC   =    -20052.22065585
  -exchange      EXHF   =         0.00000000
  -V(xc)+E(xc)   XCENC  =      -331.10745823
  PAW double counting   =      9788.96850574    -9110.96526593
  entropy T*S    EENTRO =         0.00000000
  eigenvalues    EBANDS =      -641.55966112
  atomic energy  EATOM  =      8906.56515536
  ---------------------------------------------------
  free energy    TOTEN  =       -38.49903236 eV

  energy without entropy =      -38.49903236  energy(sigma->0) =      -38.49903236


--------------------------------------------------------------------------------------------------------




----------------------------------------- Iteration    1(  19)  ---------------------------------------


    POTLOK:  cpu time    0.22: real time    0.23
    SETDIJ:  cpu time    0.01: real time    0.01
     EDDAV:  cpu time    0.77: real time    0.77
       DOS:  cpu time    0.00: real time    0.00
    CHARGE:  cpu time    0.14: real time    0.14
    MIXING:  cpu time    0.01: real time    0.01
    --------------------------------------------
      LOOP:  cpu time    1.16: real time    1.17

 eigenvalue-minimisations  :   312
 total energy-change (2. order) :-0.5993719E+00  (-0.6675217E-02)
 number of electron     109.9999936 magnetization       6.4631954
 augmentation part       47.1361570 magnetization       3.4414510

 Broyden mixing:
  rms(total) = 0.89000E-01    rms(broyden)= 0.87403E-01
  rms(prec ) = 0.92618E-01
  weight for this iteration     100.00

 eigenvalues of (default mixing * dielectric matrix)
  average eigenvalue GAMMA=   0.9587
  3.3980  2.2608  1.5642  0.7890  0.7890  1.0012  0.5848  0.5848  0.6814  0.6292
  0.4064  0.3363  0.2346  0.1620

 Free energy of the ion-electron system (eV)
  ---------------------------------------------------
  alpha Z        PSCENC =         8.96874153
  Ewald energy   TEWEN  =     11392.85160614
  -Hartree energ DENC   =    -20054.51176464
  -exchange      EXHF   =         0.00000000
  -V(xc)+E(xc)   XCENC  =      -331.64704232
  PAW double counting   =      9775.94729897    -9098.03141114
  entropy T*S    EENTRO =        -0.00000000
  eigenvalues    EBANDS =      -639.24098811
  atomic energy  EATOM  =      8906.56515536
  ---------------------------------------------------
  free energy    TOTEN  =       -39.09840422 eV

  energy without entropy =      -39.09840422  energy(sigma->0) =      -39.09840422


--------------------------------------------------------------------------------------------------------




----------------------------------------- Iteration    1(  20)  ---------------------------------------


    POTLOK:  cpu time    0.22: real time    0.23
    SETDIJ:  cpu time    0.01: real time    0.01
     EDDAV:  cpu time    0.83: real time    0.83
       DOS:  cpu time    0.00: real time    0.00
    CHARGE:  cpu time    0.14: real time    0.14
    MIXING:  cpu time    0.02: real time    0.01
    --------------------------------------------
      LOOP:  cpu time    1.23: real time    1.23

 eigenvalue-minimisations  :   344
 total energy-change (2. order) :-0.4482357E+00  (-0.5447838E-02)
 number of electron     109.9999926 magnetization       6.3177836
 augmentation part       47.1344311 magnetization       3.3278231

 Broyden mixing:
  rms(total) = 0.11317E+00    rms(broyden)= 0.11073E+00
  rms(prec ) = 0.11638E+00
  weight for this iteration     100.00

 eigenvalues of (default mixing * dielectric matrix)
  average eigenvalue GAMMA=   1.0071
  4.3514  2.2916  1.6154  0.7890  0.7890  1.0053  0.5658  0.5658  0.6922  0.6922
  0.6093  0.4063  0.3363  0.2346  0.1620

 Free energy of the ion-electron system (eV)
  ---------------------------------------------------
  alpha Z        PSCENC =         8.96874153
  Ewald energy   TEWEN  =     11392.85160614
  -Hartree energ DENC   =    -20056.53515576
  -exchange      EXHF   =         0.00000000
  -V(xc)+E(xc)   XCENC  =      -332.06022827
  PAW double counting   =      9767.72793806    -9089.88340380
  entropy T*S    EENTRO =         0.00000000
  eigenvalues    EBANDS =      -637.18129314
  atomic energy  EATOM  =      8906.56515536
  ---------------------------------------------------
  free energy    TOTEN  =       -39.54663988 eV

  energy without entropy =      -39.54663988  energy(sigma->0) =      -39.54663988


--------------------------------------------------------------------------------------------------------




----------------------------------------- Iteration    1(  21)  ---------------------------------------


    POTLOK:  cpu time    0.23: real time    0.23
    SETDIJ:  cpu time    0.00: real time    0.01
     EDDAV:  cpu time    0.84: real time    0.84
       DOS:  cpu time    0.00: real time    0.00
    CHARGE:  cpu time    0.14: real time    0.14
    MIXING:  cpu time    0.01: real time    0.01
    --------------------------------------------
      LOOP:  cpu time    1.22: real time    1.23

 eigenvalue-minimisations  :   344
 total energy-change (2. order) :-0.2147708E+00  (-0.3575734E-02)
 number of electron     109.9999915 magnetization       6.2858335
 augmentation part       47.1408501 magnetization       3.3077688

 Broyden mixing:
  rms(total) = 0.24932E+00    rms(broyden)= 0.24456E+00
  rms(prec ) = 0.25617E+00
  weight for this iteration     100.00

 eigenvalues of (default mixing * dielectric matrix)
  average eigenvalue GAMMA=   0.9731
  4.4502  2.2895  1.5911  0.7951  0.7951  0.9343  0.7494  0.7494  0.5736  0.5736
  0.6114  0.4065  0.1620  0.2346  0.3360  0.3177

 Free energy of the ion-electron system (eV)
  ---------------------------------------------------
  alpha Z        PSCENC =         8.96874153
  Ewald energy   TEWEN  =     11392.85160614
  -Hartree energ DENC   =    -20056.93336066
  -exchange      EXHF   =         0.00000000
  -V(xc)+E(xc)   XCENC  =      -332.27342857
  PAW double counting   =      9765.57115574    -9087.75483731
  entropy T*S    EENTRO =        -0.00000000
  eigenvalues    EBANDS =      -636.75644289
  atomic energy  EATOM  =      8906.56515536
  ---------------------------------------------------
  free energy    TOTEN  =       -39.76141067 eV

  energy without entropy =      -39.76141067  energy(sigma->0) =      -39.76141067


--------------------------------------------------------------------------------------------------------




----------------------------------------- Iteration    1(  22)  ---------------------------------------


    POTLOK:  cpu time    0.23: real time    0.23
    SETDIJ:  cpu time    0.00: real time    0.01
     EDDAV:  cpu time    0.78: real time    0.78
       DOS:  cpu time    0.00: real time    0.00
    CHARGE:  cpu time    0.14: real time    0.14
    MIXING:  cpu time    0.02: real time    0.01
    --------------------------------------------
      LOOP:  cpu time    1.17: real time    2.31

 eigenvalue-minimisations  :   312
 total energy-change (2. order) :-0.4144974E-01  (-0.1246881E-01)
 number of electron     109.9999913 magnetization       6.2561923
 augmentation part       47.1424161 magnetization       3.2823655

 Broyden mixing:
  rms(total) = 0.18462E+00    rms(broyden)= 0.17735E+00
  rms(prec ) = 0.18683E+00
  weight for this iteration     100.00

 eigenvalues of (default mixing * dielectric matrix)
  average eigenvalue GAMMA=   0.9618
  4.4512  2.3080  1.5826  0.7911  0.7911  0.8864  0.8864  0.6092  0.6092  0.7991
  0.6381  0.6381  0.4062  0.3363  0.1620  0.2346  0.2203

 Free energy of the ion-electron system (eV)
  ---------------------------------------------------
  alpha Z        PSCENC =         8.96874153
  Ewald energy   TEWEN  =     11392.85160614
  -Hartree energ DENC   =    -20056.95540582
  -exchange      EXHF   =         0.00000000
  -V(xc)+E(xc)   XCENC  =      -332.32930988
  PAW double counting   =      9765.28416594    -9087.47089196
  entropy T*S    EENTRO =         0.00000000
  eigenvalues    EBANDS =      -636.71692172
  atomic energy  EATOM  =      8906.56515536
  ---------------------------------------------------
  free energy    TOTEN  =       -39.80286041 eV

  energy without entropy =      -39.80286041  energy(sigma->0) =      -39.80286041


--------------------------------------------------------------------------------------------------------




----------------------------------------- Iteration    1(  23)  ---------------------------------------


    POTLOK:  cpu time    0.23: real time    0.23
    SETDIJ:  cpu time    0.00: real time    0.01
     EDDAV:  cpu time    0.76: real time    0.76
       DOS:  cpu time    0.00: real time    0.00
    CHARGE:  cpu time    0.14: real time    0.14
    MIXING:  cpu time    0.01: real time    0.01
    --------------------------------------------
      LOOP:  cpu time    1.15: real time    1.16

 eigenvalue-minimisations  :   304
 total energy-change (2. order) :-0.5957597E-01  (-0.4300649E-02)
 number of electron     109.9999932 magnetization       6.1776744
 augmentation part       47.1367477 magnetization       3.2074398

 Broyden mixing:
  rms(total) = 0.15398E+00    rms(broyden)= 0.14810E+00
  rms(prec ) = 0.15582E+00
  weight for this iteration     100.00

 eigenvalues of (default mixing * dielectric matrix)
  average eigenvalue GAMMA=   0.9927
  4.9702  2.2841  1.8126  0.7961  0.7961  0.8650  0.8650  0.6067  0.6067  0.7734
  0.7734  0.7527  0.6282  0.4061  0.3363  0.1620  0.2346  0.1987

 Free energy of the ion-electron system (eV)
  ---------------------------------------------------
  alpha Z        PSCENC =         8.96874153
  Ewald energy   TEWEN  =     11392.85160614
  -Hartree energ DENC   =    -20056.94934509
  -exchange      EXHF   =         0.00000000
  -V(xc)+E(xc)   XCENC  =      -332.38519009
  PAW double counting   =      9766.09974045    -9088.28110779
  entropy T*S    EENTRO =        -0.00000000
  eigenvalues    EBANDS =      -636.73203688
  atomic energy  EATOM  =      8906.56515536
  ---------------------------------------------------
  free energy    TOTEN  =       -39.86243638 eV

  energy without entropy =      -39.86243638  energy(sigma->0) =      -39.86243638


--------------------------------------------------------------------------------------------------------




----------------------------------------- Iteration    1(  24)  ---------------------------------------


    POTLOK:  cpu time    0.22: real time    0.23
    SETDIJ:  cpu time    0.01: real time    0.01
     EDDAV:  cpu time    0.76: real time    0.76
       DOS:  cpu time    0.00: real time    0.00
    CHARGE:  cpu time    0.14: real time    0.14
    MIXING:  cpu time    0.02: real time    0.01
    --------------------------------------------
      LOOP:  cpu time    1.16: real time    1.18

 eigenvalue-minimisations  :   304
 total energy-change (2. order) :-0.9460695E-01  (-0.7164690E-02)
 number of electron     109.9999911 magnetization       6.1320484
 augmentation part       47.1393864 magnetization       3.1657025

 Broyden mixing:
  rms(total) = 0.17789E+00    rms(broyden)= 0.17227E+00
  rms(prec ) = 0.18148E+00
  weight for this iteration     100.00

 eigenvalues of (default mixing * dielectric matrix)
  average eigenvalue GAMMA=   1.0338
  5.3610  2.2625  1.9515  1.2859  1.2859  0.7944  0.7944  0.9736  0.5896  0.5896
  0.6982  0.6982  0.6130  0.1620  0.2346  0.3363  0.4179  0.4066  0.1869

 Free energy of the ion-electron system (eV)
  ---------------------------------------------------
  alpha Z        PSCENC =         8.96874153
  Ewald energy   TEWEN  =     11392.85160614
  -Hartree energ DENC   =    -20057.26834664
  -exchange      EXHF   =         0.00000000
  -V(xc)+E(xc)   XCENC  =      -332.48045094
  PAW double counting   =      9765.96765626    -9088.15123338
  entropy T*S    EENTRO =        -0.00000000
  eigenvalues    EBANDS =      -636.41017166
  atomic energy  EATOM  =      8906.56515536
  ---------------------------------------------------
  free energy    TOTEN  =       -39.95704333 eV

  energy without entropy =      -39.95704333  energy(sigma->0) =      -39.95704333


--------------------------------------------------------------------------------------------------------




----------------------------------------- Iteration    1(  25)  ---------------------------------------


    POTLOK:  cpu time    0.22: real time    0.23
    SETDIJ:  cpu time    0.01: real time    0.01
     EDDAV:  cpu time    0.78: real time    0.78
       DOS:  cpu time    0.00: real time    0.00
    CHARGE:  cpu time    0.14: real time    0.14
    MIXING:  cpu time    0.02: real time    0.02
    --------------------------------------------
      LOOP:  cpu time    1.17: real time    1.21

 eigenvalue-minimisations  :   312
 total energy-change (2. order) :-0.4083878E-01  (-0.6118585E-02)
 number of electron     109.9999934 magnetization       6.0815970
 augmentation part       47.1353785 magnetization       3.1202353

 Broyden mixing:
  rms(total) = 0.14221E+00    rms(broyden)= 0.13601E+00
  rms(prec ) = 0.14336E+00
  weight for this iteration     100.00

 eigenvalues of (default mixing * dielectric matrix)
  average eigenvalue GAMMA=   1.0621
  5.7943  2.3295  2.0578  1.3117  1.3117  0.7939  0.7939  0.9765  0.9765  0.5922
  0.5922  0.6899  0.6899  0.6149  0.1620  0.2346  0.3363  0.4058  0.3923  0.1857

 Free energy of the ion-electron system (eV)
  ---------------------------------------------------
  alpha Z        PSCENC =         8.96874153
  Ewald energy   TEWEN  =     11392.85160614
  -Hartree energ DENC   =    -20057.25328907
  -exchange      EXHF   =         0.00000000
  -V(xc)+E(xc)   XCENC  =      -332.52662403
  PAW double counting   =      9766.46502242    -9088.64954708
  entropy T*S    EENTRO =        -0.00000000
  eigenvalues    EBANDS =      -636.41894738
  atomic energy  EATOM  =      8906.56515536
  ---------------------------------------------------
  free energy    TOTEN  =       -39.99788211 eV

  energy without entropy =      -39.99788211  energy(sigma->0) =      -39.99788211


--------------------------------------------------------------------------------------------------------




----------------------------------------- Iteration    1(  26)  ---------------------------------------


    POTLOK:  cpu time    0.22: real time    0.23
    SETDIJ:  cpu time    0.01: real time    0.01
     EDDAV:  cpu time    0.74: real time    0.75
       DOS:  cpu time    0.00: real time    0.00
    CHARGE:  cpu time    0.15: real time    0.14
    MIXING:  cpu time    0.02: real time    0.02
    --------------------------------------------
      LOOP:  cpu time    1.14: real time    1.16

 eigenvalue-minimisations  :   296
 total energy-change (2. order) :-0.4725724E-01  (-0.5242421E-02)
 number of electron     109.9999916 magnetization       6.0545967
 augmentation part       47.1373883 magnetization       3.0944139

 Broyden mixing:
  rms(total) = 0.15108E+00    rms(broyden)= 0.14589E+00
  rms(prec ) = 0.15382E+00
  weight for this iteration     100.00

 eigenvalues of (default mixing * dielectric matrix)
  average eigenvalue GAMMA=   1.0865
  6.0885  2.5592  2.1169  1.5920  1.1738  1.1738  0.7944  0.7944  0.8903  0.8903
  0.5922  0.5922  0.6425  0.6425  0.6021  0.4062  0.1620  0.2346  0.3365  0.3472
  0.1850

 Free energy of the ion-electron system (eV)
  ---------------------------------------------------
  alpha Z        PSCENC =         8.96874153
  Ewald energy   TEWEN  =     11392.85160614
  -Hartree energ DENC   =    -20057.30326137
  -exchange      EXHF   =         0.00000000
  -V(xc)+E(xc)   XCENC  =      -332.57542959
  PAW double counting   =      9767.33062887    -9089.50801096
  entropy T*S    EENTRO =         0.00000000
  eigenvalues    EBANDS =      -636.37456933
  atomic energy  EATOM  =      8906.56515536
  ---------------------------------------------------
  free energy    TOTEN  =       -40.04513935 eV

  energy without entropy =      -40.04513935  energy(sigma->0) =      -40.04513935


--------------------------------------------------------------------------------------------------------




----------------------------------------- Iteration    1(  27)  ---------------------------------------


    POTLOK:  cpu time    0.23: real time    0.23
    SETDIJ:  cpu time    0.00: real time    0.01
     EDDAV:  cpu time    0.76: real time    0.76
       DOS:  cpu time    0.00: real time    0.00
    CHARGE:  cpu time    0.14: real time    0.14
    MIXING:  cpu time    0.02: real time    0.02
    --------------------------------------------
      LOOP:  cpu time    1.16: real time    1.17

 eigenvalue-minimisations  :   304
 total energy-change (2. order) :-0.1360370E-01  (-0.4958076E-02)
 number of electron     109.9999935 magnetization       6.0334201
 augmentation part       47.1341629 magnetization       3.0759269

 Broyden mixing:
  rms(total) = 0.13316E+00    rms(broyden)= 0.12759E+00
  rms(prec ) = 0.13441E+00
  weight for this iteration     100.00

 eigenvalues of (default mixing * dielectric matrix)
  average eigenvalue GAMMA=   1.1264
  6.4236  3.0349  2.2801  1.6787  1.3407  1.3407  0.7942  0.7942  0.5906  0.5906
  0.8588  0.8588  0.6292  0.6292  0.6703  0.6042  0.4062  0.1620  0.2346  0.3370
  0.3370  0.1849

 Free energy of the ion-electron system (eV)
  ---------------------------------------------------
  alpha Z        PSCENC =         8.96874153
  Ewald energy   TEWEN  =     11392.85160614
  -Hartree energ DENC   =    -20057.17711907
  -exchange      EXHF   =         0.00000000
  -V(xc)+E(xc)   XCENC  =      -332.59406245
  PAW double counting   =      9767.74856769    -9089.92620108
  entropy T*S    EENTRO =         0.00000000
  eigenvalues    EBANDS =      -636.49543115
  atomic energy  EATOM  =      8906.56515536
  ---------------------------------------------------
  free energy    TOTEN  =       -40.05874305 eV

  energy without entropy =      -40.05874305  energy(sigma->0) =      -40.05874305


--------------------------------------------------------------------------------------------------------




----------------------------------------- Iteration    1(  28)  ---------------------------------------


    POTLOK:  cpu time    0.23: real time    0.23
    SETDIJ:  cpu time    0.00: real time    0.01
     EDDAV:  cpu time    0.75: real time    0.75
       DOS:  cpu time    0.00: real time    0.00
    CHARGE:  cpu time    0.14: real time    0.14
    MIXING:  cpu time    0.02: real time    0.02
    --------------------------------------------
      LOOP:  cpu time    1.14: real time    1.23

 eigenvalue-minimisations  :   296
 total energy-change (2. order) :-0.1517823E-01  (-0.4019706E-02)
 number of electron     109.9999919 magnetization       6.0222766
 augmentation part       47.1369576 magnetization       3.0647575

 Broyden mixing:
  rms(total) = 0.13377E+00    rms(broyden)= 0.12891E+00
  rms(prec ) = 0.13588E+00
  weight for this iteration     100.00

 eigenvalues of (default mixing * dielectric matrix)
  average eigenvalue GAMMA=   1.1481
  6.7948  3.1751  2.1908  1.8215  1.4188  1.4188  0.7942  0.7942  0.9556  0.9556
  0.8402  0.5920  0.5920  0.6515  0.6515  0.5879  0.5219  0.4063  0.1620  0.2346
  0.3362  0.3258  0.1849

 Free energy of the ion-electron system (eV)
  ---------------------------------------------------
  alpha Z        PSCENC =         8.96874153
  Ewald energy   TEWEN  =     11392.85160614
  -Hartree energ DENC   =    -20057.11714545
  -exchange      EXHF   =         0.00000000
  -V(xc)+E(xc)   XCENC  =      -332.61155755
  PAW double counting   =      9767.90335184    -9090.07727672
  entropy T*S    EENTRO =        -0.00000000
  eigenvalues    EBANDS =      -636.55679643
  atomic energy  EATOM  =      8906.56515536
  ---------------------------------------------------
  free energy    TOTEN  =       -40.07392128 eV

  energy without entropy =      -40.07392128  energy(sigma->0) =      -40.07392128


--------------------------------------------------------------------------------------------------------




----------------------------------------- Iteration    1(  29)  ---------------------------------------


    POTLOK:  cpu time    0.23: real time    0.23
    SETDIJ:  cpu time    0.01: real time    0.01
     EDDAV:  cpu time    0.77: real time    0.78
       DOS:  cpu time    0.00: real time    0.00
    CHARGE:  cpu time    0.14: real time    0.14
    MIXING:  cpu time    0.02: real time    0.02
    --------------------------------------------
      LOOP:  cpu time    1.18: real time    1.24

 eigenvalue-minimisations  :   312
 total energy-change (2. order) :-0.3666064E-02  (-0.3989566E-02)
 number of electron     109.9999935 magnetization       6.0152476
 augmentation part       47.1345217 magnetization       3.0595665

 Broyden mixing:
  rms(total) = 0.13154E+00    rms(broyden)= 0.12648E+00
  rms(prec ) = 0.13331E+00
  weight for this iteration     100.00

 eigenvalues of (default mixing * dielectric matrix)
  average eigenvalue GAMMA=   1.1674
  7.0757  3.4013  2.3544  1.7214  1.5504  1.5504  0.7943  0.7943  1.0019  1.0019
  0.5925  0.5925  0.7801  0.7801  0.6663  0.6663  0.6044  0.1620  0.2346  0.4063
  0.4482  0.3363  0.3184  0.1848

 Free energy of the ion-electron system (eV)
  ---------------------------------------------------
  alpha Z        PSCENC =         8.96874153
  Ewald energy   TEWEN  =     11392.85160614
  -Hartree energ DENC   =    -20057.02967360
  -exchange      EXHF   =         0.00000000
  -V(xc)+E(xc)   XCENC  =      -332.61625606
  PAW double counting   =      9767.86928089    -9090.04536388
  entropy T*S    EENTRO =        -0.00000000
  eigenvalues    EBANDS =      -636.64107773
  atomic energy  EATOM  =      8906.56515536
  ---------------------------------------------------
  free energy    TOTEN  =       -40.07758734 eV

  energy without entropy =      -40.07758734  energy(sigma->0) =      -40.07758734


--------------------------------------------------------------------------------------------------------




----------------------------------------- Iteration    1(  30)  ---------------------------------------


    POTLOK:  cpu time    0.23: real time    0.23
    SETDIJ:  cpu time    0.00: real time    0.01
     EDDAV:  cpu time    0.78: real time    0.78
       DOS:  cpu time    0.00: real time    0.00
    CHARGE:  cpu time    0.14: real time    0.14
    MIXING:  cpu time    0.02: real time    0.02
    --------------------------------------------
      LOOP:  cpu time    1.17: real time    1.18

 eigenvalue-minimisations  :   312
 total energy-change (2. order) :-0.3609082E-02  (-0.3798813E-02)
 number of electron     109.9999919 magnetization       6.0112931
 augmentation part       47.1371007 magnetization       3.0549057

 Broyden mixing:
  rms(total) = 0.13282E+00    rms(broyden)= 0.12790E+00
  rms(prec ) = 0.13481E+00
  weight for this iteration     100.00

 eigenvalues of (default mixing * dielectric matrix)
  average eigenvalue GAMMA=   1.1653
  7.1503  3.6471  2.3714  1.6373  1.4646  1.4646  0.7942  0.7942  1.1689  1.1689
  0.8510  0.8510  0.5921  0.5921  0.6397  0.6397  0.6486  0.6079  0.1620  0.2346
  0.4067  0.4116  0.3363  0.3138  0.1848

 Free energy of the ion-electron system (eV)
  ---------------------------------------------------
  alpha Z        PSCENC =         8.96874153
  Ewald energy   TEWEN  =     11392.85160614
  -Hartree energ DENC   =    -20056.98942536
  -exchange      EXHF   =         0.00000000
  -V(xc)+E(xc)   XCENC  =      -332.62162375
  PAW double counting   =      9767.95280991    -9090.12595237
  entropy T*S    EENTRO =        -0.00000000
  eigenvalues    EBANDS =      -636.68250788
  atomic energy  EATOM  =      8906.56515536
  ---------------------------------------------------
  free energy    TOTEN  =       -40.08119643 eV

  energy without entropy =      -40.08119643  energy(sigma->0) =      -40.08119643


--------------------------------------------------------------------------------------------------------




----------------------------------------- Iteration    1(  31)  ---------------------------------------


    POTLOK:  cpu time    0.23: real time    0.23
    SETDIJ:  cpu time    0.00: real time    0.01
     EDDAV:  cpu time    0.78: real time    0.78
       DOS:  cpu time    0.00: real time    0.00
    CHARGE:  cpu time    0.14: real time    0.14
    MIXING:  cpu time    0.02: real time    0.02
    --------------------------------------------
      LOOP:  cpu time    1.18: real time    1.18

 eigenvalue-minimisations  :   312
 total energy-change (2. order) :-0.1037356E-02  (-0.3913964E-02)
 number of electron     109.9999935 magnetization       6.0082438
 augmentation part       47.1346715 magnetization       3.0532267

 Broyden mixing:
  rms(total) = 0.13310E+00    rms(broyden)= 0.12808E+00
  rms(prec ) = 0.13499E+00
  weight for this iteration     100.00

 eigenvalues of (default mixing * dielectric matrix)
  average eigenvalue GAMMA=   1.1723
  7.1461  3.7452  2.3942  1.6332  1.6332  0.7942  0.7942  1.4161  1.2601  1.2601
  0.9875  0.9875  0.5920  0.5920  0.6343  0.6343  0.6819  0.6568  0.6058  0.1620
  0.2346  0.3363  0.4061  0.3951  0.3113  0.1848

 Free energy of the ion-electron system (eV)
  ---------------------------------------------------
  alpha Z        PSCENC =         8.96874153
  Ewald energy   TEWEN  =     11392.85160614
  -Hartree energ DENC   =    -20056.91867461
  -exchange      EXHF   =         0.00000000
  -V(xc)+E(xc)   XCENC  =      -332.62239415
  PAW double counting   =      9767.91848955    -9090.09390243
  entropy T*S    EENTRO =         0.00000000
  eigenvalues    EBANDS =      -636.75125518
  atomic energy  EATOM  =      8906.56515536
  ---------------------------------------------------
  free energy    TOTEN  =       -40.08223378 eV

  energy without entropy =      -40.08223378  energy(sigma->0) =      -40.08223378


--------------------------------------------------------------------------------------------------------




----------------------------------------- Iteration    1(  32)  ---------------------------------------


    POTLOK:  cpu time    0.23: real time    0.23
    SETDIJ:  cpu time    0.01: real time    0.01
     EDDAV:  cpu time    0.76: real time    0.76
       DOS:  cpu time    0.00: real time    0.00
    CHARGE:  cpu time    0.14: real time    0.14
    MIXING:  cpu time    0.02: real time    0.02
    --------------------------------------------
      LOOP:  cpu time    1.16: real time    1.17

 eigenvalue-minimisations  :   304
 total energy-change (2. order) :-0.7523300E-03  (-0.3826765E-02)
 number of electron     109.9999919 magnetization       6.0066896
 augmentation part       47.1372979 magnetization       3.0507935

 Broyden mixing:
  rms(total) = 0.13297E+00    rms(broyden)= 0.12794E+00
  rms(prec ) = 0.13485E+00
  weight for this iteration     100.00

 eigenvalues of (default mixing * dielectric matrix)
  average eigenvalue GAMMA=   1.1911
  7.1642  3.9890  2.4774  1.8626  1.8626  1.4379  1.3722  1.3722  0.7942  0.7942
  0.9271  0.9271  0.5922  0.5922  0.7960  0.6675  0.6675  0.6405  0.6405  0.5663
  0.1620  0.2346  0.4062  0.3363  0.3834  0.3099  0.1848

 Free energy of the ion-electron system (eV)
  ---------------------------------------------------
  alpha Z        PSCENC =         8.96874153
  Ewald energy   TEWEN  =     11392.85160614
  -Hartree energ DENC   =    -20056.88978735
  -exchange      EXHF   =         0.00000000
  -V(xc)+E(xc)   XCENC  =      -332.62493711
  PAW double counting   =      9767.95604293    -9090.12887546
  entropy T*S    EENTRO =         0.00000000
  eigenvalues    EBANDS =      -636.78093215
  atomic energy  EATOM  =      8906.56515536
  ---------------------------------------------------
  free energy    TOTEN  =       -40.08298611 eV

  energy without entropy =      -40.08298611  energy(sigma->0) =      -40.08298611


--------------------------------------------------------------------------------------------------------




----------------------------------------- Iteration    1(  33)  ---------------------------------------


    POTLOK:  cpu time    0.23: real time    0.23
    SETDIJ:  cpu time    0.00: real time    0.01
     EDDAV:  cpu time    0.76: real time    0.76
       DOS:  cpu time    0.00: real time    0.00
    CHARGE:  cpu time    0.14: real time    0.14
    MIXING:  cpu time    0.02: real time    0.02
    --------------------------------------------
      LOOP:  cpu time    1.16: real time    1.17

 eigenvalue-minimisations  :   304
 total energy-change (2. order) :-0.5220219E-03  (-0.3943662E-02)
 number of electron     109.9999935 magnetization       6.0050478
 augmentation part       47.1347644 magnetization       3.0503353

 Broyden mixing:
  rms(total) = 0.13376E+00    rms(broyden)= 0.12872E+00
  rms(prec ) = 0.13568E+00
  weight for this iteration     100.00

 eigenvalues of (default mixing * dielectric matrix)
  average eigenvalue GAMMA=   1.2173
  7.1950  4.3385  2.6148  2.1884  2.1884  1.3794  1.3794  1.3829  0.7942  0.7942
  0.9299  0.9299  0.8620  0.8620  0.5922  0.5922  0.6447  0.6447  0.6437  0.6142
  0.1620  0.2346  0.5042  0.4062  0.3363  0.3751  0.3092  0.1848

 Free energy of the ion-electron system (eV)
  ---------------------------------------------------
[...]
     10      -7.5009      1.00000
     11      -7.4078      1.00000
     12      -7.3854      1.00000
     13      -7.3409      1.00000
     14      -7.2733      1.00000
     15      -7.2684      1.00000
     16      -6.8271      1.00000
     17      -6.7803      1.00000
     18      -6.6958      1.00000
     19      -6.6520      1.00000
     20      -6.4543      1.00000
     21      -6.4533      1.00000
     22      -6.4132      1.00000
     23      -6.3920      1.00000
     24      -6.3203      1.00000
     25      -6.0832      1.00000
     26      -6.0823      1.00000
     27      -6.0645      1.00000
     28      -6.0610      1.00000
     29      -5.6483      1.00000
     30      -5.6101      1.00000
     31      -5.4578      1.00000
     32      -5.4322      1.00000
     33      -5.3913      1.00000
     34      -5.3473      1.00000
     35      -5.3293      1.00000
     36      -5.2828      1.00000
     37      -5.2664      1.00000
     38      -5.1561      1.00000
     39      -5.1344      1.00000
     40      -5.1179      1.00000
     41      -4.9859      1.00000
     42      -4.9791      1.00000
     43      -4.9172      1.00000
     44      -4.9001      1.00000
     45      -4.8437      1.00000
     46      -4.8391      1.00000
     47      -4.7628      1.00000
     48      -4.7191      1.00000
     49      -4.6993      1.00000
     50      -4.6508      1.00000
     51      -4.6289      1.00000
     52      -4.5638      1.00000
     53      -4.4994      1.00000
     54      -4.4819      1.00000
     55      -4.4756      1.00000
     56      -4.4650      1.00000
     57      -4.2043      1.00000
     58      -4.1807      1.00000
     59      -3.7957      0.00000
     60      -3.5692      0.00000
     61      -2.7850      0.00000
     62      -2.1945      0.00000
     63      -2.0652      0.00000
     64      -1.8568      0.00000
     65      -1.4988      0.00000
     66      -1.3638      0.00000
     67      -1.1051      0.00000
     68      -0.4170      0.00000
     69      -0.1510      0.00000
     70      -0.1478      0.00000
     71      -0.0663      0.00000
     72       0.2313      0.00000

 spin component 2

 k-point     1 :       0.0000    0.0000    0.0000
  band No.  band energies     occupation 
      1      -8.2172      1.00000
      2      -7.7993      1.00000
      3      -7.7026      1.00000
      4      -7.5161      1.00000
      5      -7.4694      1.00000
      6      -7.4483      1.00000
      7      -7.3405      1.00000
      8      -7.2110      1.00000
      9      -7.2032      1.00000
     10      -7.1710      1.00000
     11      -7.1573      1.00000
     12      -7.0464      1.00000
     13      -6.9975      1.00000
     14      -6.9392      1.00000
     15      -6.9363      1.00000
     16      -6.5116      1.00000
     17      -6.4239      1.00000
     18      -6.3522      1.00000
     19      -6.3346      1.00000
     20      -6.1429      1.00000
     21      -6.1222      1.00000
     22      -6.0586      1.00000
     23      -6.0517      1.00000
     24      -5.9506      1.00000
     25      -5.8402      1.00000
     26      -5.8132      1.00000
     27      -5.7299      1.00000
     28      -5.7027      1.00000
     29      -5.4227      1.00000
     30      -5.3319      1.00000
     31      -5.1970      1.00000
     32      -5.1359      1.00000
     33      -5.1340      1.00000
     34      -5.0453      1.00000
     35      -4.9946      1.00000
     36      -4.9820      1.00000
     37      -4.9757      1.00000
     38      -4.8498      1.00000
     39      -4.8478      1.00000
     40      -4.7734      1.00000
     41      -4.7502      1.00000
     42      -4.6691      1.00000
     43      -4.5860      1.00000
     44      -4.5681      1.00000
     45      -4.5369      1.00000
     46      -4.5225      1.00000
     47      -4.4256      1.00000
     48      -4.3947      1.00000
     49      -4.3187      1.00000
     50      -4.3134      1.00000
     51      -4.1894      1.00000
     52      -4.1165      1.00000
     53      -4.0876      0.00000
     54      -4.0733      0.00000
     55      -4.0606      0.00000
     56      -3.9837      0.00000
     57      -3.8354      0.00000
     58      -3.7544      0.00000
     59      -3.5900      0.00000
     60      -3.3913      0.00000
     61      -2.5235      0.00000
     62      -1.9243      0.00000
     63      -1.9159      0.00000
     64      -1.6428      0.00000
     65      -1.3097      0.00000
     66      -1.2425      0.00000
     67      -0.8852      0.00000
     68      -0.3375      0.00000
     69       0.0477      0.00000
     70       0.0520      0.00000
     71       0.0817      0.00000
     72       0.2376      0.00000


--------------------------------------------------------------------------------------------------------


 soft charge-density along one line, spin component           1
         0         1         2         3         4         5         6         7         8         9
 total charge-density along one line
 
 soft charge-density along one line, spin component           2
         0         1         2         3         4         5         6         7         8         9
 total charge-density along one line
 
 pseudopotential strength for first ion, spin component:           1
 -8.545   0.000  -0.000   0.000   0.000  -8.514   0.000  -0.000
  0.000  -8.685  -0.000   0.000  -0.000   0.000  -8.648  -0.000
 -0.000  -0.000  -8.538   0.000  -0.029  -0.000  -0.000  -8.507
  0.000   0.000   0.000  -8.510   0.000   0.000   0.000   0.000
  0.000  -0.000  -0.029   0.000  -8.481   0.000  -0.000  -0.028
 -8.514   0.000  -0.000   0.000   0.000  -8.460   0.000  -0.000
  0.000  -8.648  -0.000   0.000  -0.000   0.000  -8.589  -0.000
 -0.000  -0.000  -8.507   0.000  -0.028  -0.000  -0.000  -8.454
  0.000   0.000   0.000  -8.481   0.000   0.000   0.000   0.000
  0.000  -0.000  -0.028   0.000  -8.452   0.000  -0.000  -0.026
 -0.000  -0.000   0.013  -0.000  -0.027  -0.000  -0.000   0.013
 -0.000  -0.000   0.023  -0.000  -0.045  -0.000  -0.000   0.022
 -0.000   0.028   0.000  -0.000   0.000  -0.000   0.027   0.000
 -0.000  -0.000   0.035  -0.000   0.001  -0.000  -0.000   0.034
 -0.000  -0.000   0.000   0.029  -0.000  -0.000  -0.000   0.000
 -0.000   0.030   0.000  -0.000   0.000  -0.000   0.029   0.000
 -0.000  -0.000   0.038  -0.000   0.001  -0.000  -0.000   0.036
 -0.000  -0.000   0.000   0.032  -0.000  -0.000  -0.000   0.000
 pseudopotential strength for first ion, spin component:           2
 -8.351   0.000  -0.000   0.000   0.000  -8.328   0.000  -0.000
  0.000  -8.394  -0.000   0.000  -0.000   0.000  -8.370  -0.000
 -0.000  -0.000  -8.394   0.000  -0.037  -0.000  -0.000  -8.369
  0.000   0.000   0.000  -8.383   0.000   0.000   0.000   0.000
  0.000  -0.000  -0.037   0.000  -8.364   0.000  -0.000  -0.036
 -8.328   0.000  -0.000   0.000   0.000  -8.283   0.000  -0.000
  0.000  -8.370  -0.000   0.000  -0.000   0.000  -8.323  -0.000
 -0.000  -0.000  -8.369   0.000  -0.036  -0.000  -0.000  -8.322
  0.000   0.000   0.000  -8.359   0.000   0.000   0.000   0.000
  0.000  -0.000  -0.036   0.000  -8.341   0.000  -0.000  -0.034
 -0.000  -0.000   0.010  -0.000  -0.007  -0.000  -0.000   0.010
 -0.000  -0.000   0.017  -0.000  -0.011  -0.000  -0.000   0.016
 -0.000   0.036   0.000  -0.000   0.000  -0.000   0.035   0.000
 -0.000  -0.000   0.039  -0.000  -0.002  -0.000  -0.000   0.037
 -0.000  -0.000   0.000   0.033  -0.000  -0.000  -0.000   0.000
 -0.000   0.042   0.000  -0.000   0.000  -0.000   0.040   0.000
 -0.000  -0.000   0.044  -0.000  -0.002  -0.000  -0.000   0.042
 -0.000  -0.000   0.000   0.038  -0.000  -0.000  -0.000   0.000
 total augmentation occupancy for first ion, spin component:           1
  1.662   0.000   0.000   0.000   0.000  -0.347   0.000   0.000   0.000   0.000   0.000   0.000   0.000   0.000   0.000   0.000
  0.000   1.942   0.000   0.000   0.000   0.000  -0.844   0.000   0.000   0.000   0.000   0.000   0.167   0.000   0.000   0.030
  0.000   0.000   2.304   0.000   0.055   0.000   0.000  -0.720   0.000  -0.032  -0.493   0.140   0.000   0.179   0.000   0.000
  0.000   0.000   0.000   2.287   0.000   0.000   0.000   0.000  -0.993   0.000   0.000   0.000   0.000   0.000   0.184   0.000
  0.000   0.000   0.055   0.000   1.983   0.000   0.000  -0.032   0.000  -0.346   0.233  -0.108   0.000  -0.004   0.000   0.000
 -0.347   0.000   0.000   0.000   0.000   0.852   0.000   0.000   0.000   0.000   0.000   0.000   0.000   0.000   0.000   0.000
  0.000  -0.844   0.000   0.000   0.000   0.000   1.419   0.000   0.000   0.000   0.000   0.000  -0.306   0.000   0.000   0.029
  0.000   0.000  -0.720   0.000  -0.032   0.000   0.000   1.041   0.000   0.009   0.287  -0.051   0.000  -0.249   0.000   0.000
  0.000   0.000   0.000  -0.993   0.000   0.000   0.000   0.000   1.546   0.000   0.000   0.000   0.000   0.000  -0.318   0.000
  0.000   0.000  -0.032   0.000  -0.346   0.000   0.000   0.009   0.000   0.618   0.015  -0.011   0.000  -0.001   0.000   0.000
  0.000   0.000  -0.493   0.000   0.233   0.000   0.000   0.287   0.000   0.015   1.585  -0.223   0.000  -0.320   0.000   0.000
  0.000   0.000   0.140   0.000  -0.108   0.000   0.000  -0.051   0.000  -0.011  -0.223   0.041   0.000   0.047   0.000   0.000
  0.000   0.167   0.000   0.000   0.000   0.000  -0.306   0.000   0.000   0.000   0.000   0.000   0.082   0.000   0.000  -0.007
  0.000   0.000   0.179   0.000  -0.004   0.000   0.000  -0.249   0.000  -0.001  -0.320   0.047   0.000   0.111   0.000   0.000
  0.000   0.000   0.000   0.184   0.000   0.000   0.000   0.000  -0.318   0.000   0.000   0.000   0.000   0.000   0.080   0.000
  0.000   0.030   0.000   0.000   0.000   0.000   0.029   0.000   0.000   0.000   0.000   0.000  -0.007   0.000   0.000   0.002
  0.000   0.000   0.042   0.000   0.001   0.000   0.000   0.025   0.000  -0.001   0.024  -0.001   0.000  -0.010   0.000   0.000
  0.000   0.000   0.000   0.033   0.000   0.000   0.000   0.000   0.028   0.000   0.000   0.000   0.000   0.000  -0.007   0.000
 total augmentation occupancy for first ion, spin component:           2
  0.537   0.000   0.000   0.000   0.000  -0.249   0.000   0.000   0.000   0.000   0.000   0.000   0.000   0.000   0.000   0.000
  0.000   0.922   0.000   0.000   0.000   0.000  -0.383   0.000   0.000   0.000   0.000   0.000   0.086   0.000   0.000   0.017
  0.000   0.000   0.213   0.000  -0.005   0.000   0.000  -0.093   0.000  -0.001   0.132   0.022   0.000   0.025   0.000   0.000
  0.000   0.000   0.000   0.060   0.000   0.000   0.000   0.000  -0.005   0.000   0.000   0.000   0.000   0.000   0.009   0.000
  0.000   0.000  -0.005   0.000   0.053   0.000   0.000   0.002   0.000  -0.012   0.095  -0.050   0.000  -0.005   0.000   0.000
 -0.249   0.000   0.000   0.000   0.000   0.083   0.000   0.000   0.000   0.000   0.000   0.000   0.000   0.000   0.000   0.000
  0.000  -0.383   0.000   0.000   0.000   0.000   0.123   0.000   0.000   0.000   0.000   0.000  -0.028   0.000   0.000  -0.007
  0.000   0.000  -0.093   0.000   0.002   0.000   0.000   0.033   0.000   0.001  -0.077   0.004   0.000  -0.007   0.000   0.000
  0.000   0.000   0.000  -0.005   0.000   0.000   0.000   0.000  -0.028   0.000   0.000   0.000   0.000   0.000   0.003   0.000
  0.000   0.000  -0.001   0.000  -0.012   0.000   0.000   0.001   0.000  -0.022  -0.012  -0.003   0.000   0.001   0.000   0.000
  0.000   0.000   0.132   0.000   0.095   0.000   0.000  -0.077   0.000  -0.012   0.117  -0.011   0.000   0.025   0.000   0.000
  0.000   0.000   0.022   0.000  -0.050   0.000   0.000   0.004   0.000  -0.003  -0.011   0.008   0.000  -0.002   0.000   0.000
  0.000   0.086   0.000   0.000   0.000   0.000  -0.028   0.000   0.000   0.000   0.000   0.000   0.006   0.000   0.000   0.002
  0.000   0.000   0.025   0.000  -0.005   0.000   0.000  -0.007   0.000   0.001   0.025  -0.002   0.000  -0.001   0.000   0.000
  0.000   0.000   0.000   0.009   0.000   0.000   0.000   0.000   0.003   0.000   0.000   0.000   0.000   0.000   0.000   0.000
  0.000   0.017   0.000   0.000   0.000   0.000  -0.007   0.000   0.000   0.000   0.000   0.000   0.002   0.000   0.000   0.000
  0.000   0.000   0.008   0.000  -0.001   0.000   0.000  -0.002   0.000  -0.000   0.003   0.001   0.000   0.001   0.000   0.000
  0.000   0.000   0.000   0.003   0.000   0.000   0.000   0.000  -0.001   0.000   0.000   0.000   0.000   0.000   0.000   0.000


------------------------ aborting loop because EDIFF is reached ----------------------------------------


    CHARGE:  cpu time    0.14: real time    0.14
    FORLOC:  cpu time    0.00: real time    0.01
    FORNL :  cpu time    0.31: real time    0.31
    STRESS:  cpu time    0.40: real time    0.40
    FORCOR:  cpu time    0.23: real time    0.23
    FORHAR:  cpu time    0.03: real time    0.03
    MIXING:  cpu time    0.01: real time    0.01
    OFIELD:  cpu time    0.00: real time    0.00

  FORCE on cell =-STRESS in cart. coord.  units (eV):
  Direction    XX          YY          ZZ          XY          YZ          ZX
  --------------------------------------------------------------------------------------
  Alpha Z     8.96874     8.96874     8.96874
  Ewald    1308.04673  7122.91420  3460.04989    -0.00000     0.00000    -0.00000
  Hartree  4569.61485  9582.00581  6389.60753    -0.00000    -0.00000    -0.00000
  E(xc)    -577.05044  -573.04997  -575.15716     0.00000     0.00000     0.00000
  Local   -7566.11043-18357.53463-11524.51826     0.00000     0.00000     0.00000
  n-local  -106.89953   -94.89547  -101.21543     0.00000     0.00000    -0.00000
  augment   825.73729   806.73260   817.61123     0.00000     0.00000     0.00000
  Kinetic  1535.23185  1501.82065  1521.61980     0.00000     0.00000     0.00000
  Fock        0.00000     0.00000     0.00000     0.00000     0.00000     0.00000
  -------------------------------------------------------------------------------------
  Total      -2.46093    -3.03807    -3.03366     0.00000     0.00000     0.00000
  in kB      -0.44841    -0.55357    -0.55277     0.00000     0.00000     0.00000
  external pressure =       -0.52 kB  Pullay stress =        0.00 kB


 VOLUME and BASIS-vectors are now :
 -----------------------------------------------------------------------------
  energy-cutoff  :      250.93
  volume of cell :     8792.99
      direct lattice vectors                 reciprocal lattice vectors
    20.640116000  0.000000000  0.000000000     0.048449340  0.000000000  0.000000000
     0.000000000 20.640116000  0.000000000     0.000000000  0.048449340  0.000000000
     0.000000000  0.000000000 20.640116000     0.000000000  0.000000000  0.048449340

  length of vectors
    20.640116000 20.640116000 20.640116000     0.048449340  0.048449340  0.048449340


 FORCES acting on ions
    electron-ion (+dipol)            ewald-force                    non-local-force                 convergence-correction
 -----------------------------------------------------------------------------------------------
   -.710E-13 0.209E-11 -.896E+03   0.567E-13 -.284E-13 0.889E+03   -.972E-27 0.447E-23 0.688E+01   -.166E-11 -.523E-12 -.214E-01
   -.690E+03 -.363E+03 -.257E+03   0.685E+03 0.362E+03 0.256E+03   0.456E+01 0.776E+00 0.847E+00   0.422E-01 -.123E+00 -.119E-01
   0.430E-13 -.792E+03 -.282E+03   0.266E-13 0.786E+03 0.278E+03   0.246E-26 0.676E+01 0.332E+01   -.186E-11 -.731E-01 0.107E+00
   0.690E+03 -.363E+03 -.257E+03   -.685E+03 0.362E+03 0.256E+03   -.456E+01 0.776E+00 0.847E+00   -.422E-01 -.123E+00 -.119E-01
   0.690E+03 0.363E+03 -.257E+03   -.685E+03 -.362E+03 0.256E+03   -.456E+01 -.776E+00 0.847E+00   -.422E-01 0.123E+00 -.119E-01
   0.599E+03 -.202E-11 0.650E+03   -.594E+03 -.142E-13 -.647E+03   -.464E+01 0.566E-23 -.321E+01   -.372E-01 -.539E-12 0.117E-01
   -.179E-13 -.645E+03 0.593E+03   -.285E-13 0.641E+03 -.588E+03   0.166E-25 0.411E+01 -.479E+01   -.523E-12 -.905E-01 -.557E-01
   -.599E+03 0.262E-11 0.650E+03   0.594E+03 -.426E-13 -.647E+03   0.464E+01 0.330E-23 -.321E+01   0.372E-01 0.933E-12 0.117E-01
   -.690E+03 0.363E+03 -.257E+03   0.685E+03 -.362E+03 0.256E+03   0.456E+01 -.776E+00 0.847E+00   0.422E-01 0.123E+00 -.119E-01
   -.462E-13 0.645E+03 0.593E+03   -.142E-13 -.641E+03 -.588E+03   -.454E-26 -.411E+01 -.479E+01   -.253E-11 0.905E-01 -.557E-01
   0.379E-13 0.792E+03 -.282E+03   0.142E-13 -.786E+03 0.278E+03   -.248E-26 -.676E+01 0.332E+01   -.142E-11 0.731E-01 0.107E+00
 -----------------------------------------------------------------------------------------------
   0.137E-10 -.274E-11 -.127E+01   0.227E-12 0.682E-12 0.171E-12   0.888E-15 0.178E-14 0.927E+00   -.146E-10 0.243E-11 0.567E-01
 
 
 POSITION                                       TOTAL-FORCE (eV/Angst)
 -----------------------------------------------------------------------------------
     10.32006     10.32006     12.76881        -0.000000     -0.000000      0.014393
     11.68428     11.64697     10.90674        -0.014140      0.003273     -0.004299
     10.32006     13.85902     11.16056         0.000000     -0.014892      0.013629
      8.95584     11.64697     10.90674         0.014140      0.003273     -0.004299
      8.95584      8.99314     10.90674         0.014140     -0.003273     -0.004299
      9.04799     10.32006      8.59496         0.004831     -0.000000     -0.024955
     10.32006     12.67227      8.80692        -0.000000     -0.006321      0.012728
     11.59212     10.32006      8.59496        -0.004831     -0.000000     -0.024955
     11.68428      8.99314     10.90674        -0.014140     -0.003273     -0.004299
     10.32006      7.96784      8.80692         0.000000      0.006321      0.012728
     10.32006      6.78109     11.16056        -0.000000      0.014892      0.013629
 -----------------------------------------------------------------------------------
    total drift:                               -0.000000      0.000000     -0.284806


--------------------------------------------------------------------------------------------------------



  FREE ENERGIE OF THE ION-ELECTRON SYSTEM (eV)
  ---------------------------------------------------
  free  energy   TOTEN  =       -40.32686236 eV

  energy  without entropy=      -40.32686236  energy(sigma->0) =      -40.32686236
 
 d Force = 0.1899334E-03[ 0.137E-04, 0.366E-03]  d Energy = 0.2275488E-03-0.376E-04
 d Force =-0.9264602E+00[-0.930E+00,-0.923E+00]  d Ewald  =-0.9264584E+00-0.184E-05


--------------------------------------------------------------------------------------------------------


    POTLOK:  cpu time    0.24: real time    0.24


--------------------------------------------------------------------------------------------------------




--------------------------------------------------------------------------------------------------------


  
 reached required accuracy - stopping structural energy minimisation
     LOOP+:  cpu time    4.63: real time    9.73
    4ORBIT:  cpu time    0.00: real time    0.00

 total amount of memory used by VASP on root node    54724. kBytes
========================================================================

   base      :      30000. kBytes
   nonl-proj :       1591. kBytes
   fftplans  :       5777. kBytes
   grid      :      14451. kBytes
   one-center:         31. kBytes
   wavefun   :       2874. kBytes
 
  
  
 General timing and accounting informations for this job:
 ========================================================
  
                  Total CPU time used (sec):      245.271
                            User time (sec):      236.939
                          System time (sec):        8.333
                         Elapsed time (sec):      308.325
  
                   Maximum memory used (kb):       65800.
                   Average memory used (kb):           0.
  
                          Minor page faults:      1793982
                          Major page faults:            0
                 Voluntary context switches:         6510
