       N       E                     dE             d eps       ncg     rms          rms(c)
DAV:   1     0.474248617786E+04    0.47425E+04   -0.11999E+05  1504   0.622E+02
DAV:   2     0.716259940351E+03   -0.40262E+04   -0.36165E+04  2376   0.170E+02
DAV:   3    -0.844380054103E+02   -0.80070E+03   -0.74433E+03  1872   0.812E+01
DAV:   4    -0.113887986490E+03   -0.29450E+02   -0.29189E+02  1608   0.166E+01
DAV:   5    -0.114332327512E+03   -0.44434E+00   -0.44378E+00  1672   0.237E+00    0.416E+01
DAV:   6    -0.592250907115E+02    0.55107E+02   -0.17553E+02  1508   0.160E+01    0.228E+01
DAV:   7    -0.447700892939E+02    0.14455E+02   -0.11367E+01  1568   0.474E+00    0.141E+01
DAV:   8    -0.403882380510E+02    0.43819E+01   -0.28835E+00  1604   0.261E+00    0.819E+00
DAV:   9    -0.432453019972E+02   -0.28571E+01   -0.89810E-01  1624   0.124E+00    0.520E+00
DAV:  10    -0.566115515285E+02   -0.13366E+02   -0.39668E+00  1536   0.235E+00    0.428E+00
DAV:  11    -0.687799317375E+02   -0.12168E+02   -0.48789E+00  1544   0.280E+00    0.301E+00
DAV:  12    -0.837701387302E+02   -0.14990E+02   -0.65631E+00  1552   0.245E+00    0.244E+00
DAV:  13    -0.901908705291E+02   -0.64207E+01   -0.17741E+00  1568   0.156E+00    0.230E+00
DAV:  14    -0.932235059191E+02   -0.30326E+01   -0.50435E-01  1600   0.971E-01    0.182E+00
DAV:  15    -0.100709283792E+03   -0.74858E+01   -0.20579E+00  1512   0.133E+00    0.165E+00
DAV:  16    -0.103274176045E+03   -0.25649E+01   -0.33934E-01  1572   0.776E-01    0.173E+00
DAV:  17    -0.104075084254E+03   -0.80091E+00   -0.61427E-02  1576   0.432E-01    0.137E+00
DAV:  18    -0.106217721901E+03   -0.21426E+01   -0.25980E-01  1528   0.601E-01    0.868E-01
DAV:  19    -0.108945473237E+03   -0.27278E+01   -0.32133E-01  1528   0.595E-01    0.509E-01
DAV:  20    -0.110191138708E+03   -0.12457E+01   -0.61857E-02  1552   0.277E-01    0.412E-01
DAV:  21    -0.111124204733E+03   -0.93307E+00   -0.34029E-02  1552   0.240E-01    0.252E-01
DAV:  22    -0.111627592788E+03   -0.50339E+00   -0.16710E-02  1576   0.155E-01    0.133E-01
DAV:  23    -0.111762012592E+03   -0.13442E+00   -0.22545E-03  1592   0.584E-02    0.959E-02
DAV:  24    -0.111870146695E+03   -0.10813E+00   -0.19014E-03  1504   0.442E-02    0.519E-02
DAV:  25    -0.111927710461E+03   -0.57564E-01   -0.83638E-04  1072   0.341E-02    0.354E-02
DAV:  26    -0.111948809250E+03   -0.21099E-01   -0.32840E-04  1056   0.176E-02    0.264E-02
DAV:  27    -0.111965091431E+03   -0.16282E-01   -0.23299E-04  1040   0.134E-02    0.160E-02
DAV:  28    -0.111974013147E+03   -0.89217E-02   -0.15623E-04  1032   0.137E-02    0.141E-02
DAV:  29    -0.111978593790E+03   -0.45806E-02   -0.39665E-05  1040   0.924E-03    0.730E-03
DAV:  30    -0.111981569426E+03   -0.29756E-02   -0.26825E-05   976   0.473E-03    0.481E-03
DAV:  31    -0.111983574180E+03   -0.20048E-02   -0.11549E-05   984   0.336E-03    0.278E-03
DAV:  32    -0.111984421100E+03   -0.84692E-03   -0.55475E-06   964   0.278E-03    0.168E-03
DAV:  33    -0.111984611422E+03   -0.19032E-03   -0.18456E-06   952   0.175E-03    0.120E-03
DAV:  34    -0.111984748013E+03   -0.13659E-03   -0.11145E-06   952   0.125E-03    0.823E-04
DAV:  35    -0.111984846643E+03   -0.98630E-04   -0.71927E-07   952   0.865E-04
   1 F= -.11198485E+03 E0= -.11198485E+03  d E =-.111985E+03  mag=     2.0013
       N       E                     dE             d eps       ncg     rms          rms(c)
DAV:   1    -0.112030399508E+03   -0.45651E-01   -0.32257E+00  1520   0.253E+00    0.121E-01
DAV:   2    -0.112031796285E+03   -0.13968E-02   -0.14657E-02  1560   0.242E-01    0.868E-02
DAV:   3    -0.112031733333E+03    0.62952E-04   -0.26386E-04  1040   0.388E-02
   2 F= -.11203173E+03 E0= -.11203173E+03  d E =-.468867E-01  mag=     2.0008
       N       E                     dE             d eps       ncg     rms          rms(c)
DAV:   1    -0.112145063582E+03   -0.11327E+00   -0.29093E+01  1512   0.761E+00    0.356E-01
DAV:   2    -0.112157544265E+03   -0.12481E-01   -0.13140E-01  1552   0.720E-01    0.257E-01
DAV:   3    -0.112157043948E+03    0.50032E-03   -0.24410E-03  1584   0.112E-01    0.169E-01
DAV:   4    -0.112156582782E+03    0.46117E-03   -0.12931E-03  1560   0.595E-02    0.421E-02
DAV:   5    -0.112156619549E+03   -0.36767E-04   -0.49679E-05  1008   0.247E-02
   3 F= -.11215662E+03 E0= -.11215662E+03  d E =-.171773E+00  mag=     2.0004
       N       E                     dE             d eps       ncg     rms          rms(c)
DAV:   1    -0.112292246127E+03   -0.13566E+00   -0.11631E+02  1488   0.152E+01    0.656E-01
DAV:   2    -0.112343213852E+03   -0.50968E-01   -0.52484E-01  1536   0.144E+00    0.484E-01
DAV:   3    -0.112341714702E+03    0.14991E-02   -0.91108E-03  1576   0.208E-01    0.328E-01
DAV:   4    -0.112340282224E+03    0.14325E-02   -0.49223E-03  1576   0.113E-01    0.845E-02
DAV:   5    -0.112340367371E+03   -0.85147E-04   -0.19372E-04  1040   0.453E-02
   4 F= -.11234037E+03 E0= -.11234037E+03  d E =-.355521E+00  mag=     2.0002
       N       E                     dE             d eps       ncg     rms          rms(c)
DAV:   1    -0.112261273539E+03    0.79009E-01   -0.46793E+02  1488   0.307E+01    0.171E+00
DAV:   2    -0.112374628894E+03   -0.11336E+00   -0.22742E+00  1556   0.317E+00    0.152E+00
DAV:   3    -0.112401780654E+03   -0.27152E-01   -0.84553E-02  1560   0.102E+00    0.109E+00
DAV:   4    -0.112352489906E+03    0.49291E-01   -0.11680E-02  1608   0.256E-01    0.770E-01
DAV:   5    -0.112393723601E+03   -0.41234E-01   -0.21105E-02  1548   0.381E-01    0.849E-01
DAV:   6    -0.112384436352E+03    0.92872E-02   -0.64077E-03  1608   0.260E-01    0.712E-01
DAV:   7    -0.112376573986E+03    0.78624E-02   -0.11460E-03  1576   0.740E-02    0.639E-01
DAV:   8    -0.112373942717E+03    0.26313E-02   -0.10171E-04  1088   0.223E-02    0.623E-01
DAV:   9    -0.112372390392E+03    0.15523E-02   -0.31923E-05   968   0.123E-02    0.611E-01
DAV:  10    -0.112363821582E+03    0.85688E-02   -0.17968E-03  1528   0.118E-01    0.490E-01
DAV:  11    -0.112358606935E+03    0.52146E-02   -0.64819E-03  1568   0.191E-01    0.289E-01
DAV:  12    -0.112371364391E+03   -0.12757E-01   -0.17516E-03  1600   0.602E-02    0.237E-01
DAV:  13    -0.112394195288E+03   -0.22831E-01   -0.37332E-03  1560   0.454E-02    0.178E-01
DAV:  14    -0.112400675280E+03   -0.64800E-02   -0.60115E-04  1128   0.182E-02    0.164E-01
DAV:  15    -0.112397373490E+03    0.33018E-02   -0.19509E-04   984   0.139E-02    0.168E-01
DAV:  16    -0.112419751968E+03   -0.22378E-01   -0.10913E-02  1540   0.836E-02    0.130E-01
DAV:  17    -0.112437953031E+03   -0.18201E-01   -0.13240E-02  1592   0.869E-02    0.728E-02
DAV:  18    -0.112440207807E+03   -0.22548E-02   -0.19267E-03  1568   0.105E-01    0.841E-02
DAV:  19    -0.112448229586E+03   -0.80218E-02   -0.62670E-04  1312   0.736E-02    0.531E-02
DAV:  20    -0.112454144049E+03   -0.59145E-02   -0.42027E-04  1080   0.264E-02    0.537E-02
DAV:  21    -0.112458765414E+03   -0.46214E-02   -0.60826E-04  1048   0.189E-02    0.285E-02
DAV:  22    -0.112462611422E+03   -0.38460E-02   -0.34630E-04  1064   0.173E-02    0.165E-02
DAV:  23    -0.112464605739E+03   -0.19943E-02   -0.67762E-05  1024   0.717E-03    0.189E-02
DAV:  24    -0.112466411833E+03   -0.18061E-02   -0.43719E-05   984   0.564E-03    0.156E-02
DAV:  25    -0.112467836025E+03   -0.14242E-02   -0.32232E-05  1024   0.644E-03    0.910E-03
DAV:  26    -0.112468519165E+03   -0.68314E-03   -0.11884E-05   992   0.497E-03    0.514E-03
DAV:  27    -0.112468923795E+03   -0.40463E-03   -0.88182E-06  1000   0.441E-03    0.229E-03
DAV:  28    -0.112469346752E+03   -0.42296E-03   -0.48033E-06  1000   0.365E-03    0.280E-03
DAV:  29    -0.112469561231E+03   -0.21448E-03   -0.19342E-06   952   0.139E-03    0.228E-03
DAV:  30    -0.112469696553E+03   -0.13532E-03   -0.18640E-06   968   0.240E-03    0.699E-04
DAV:  31    -0.112469801683E+03   -0.10513E-03   -0.97239E-07   952   0.100E-03    0.397E-04
DAV:  32    -0.112469849098E+03   -0.47414E-04   -0.29905E-07   976   0.499E-04
   5 F= -.11246985E+03 E0= -.11246985E+03  d E =-.485002E+00  mag=     0.0001
       N       E                     dE             d eps       ncg     rms          rms(c)
DAV:   1    -0.112538075475E+03   -0.68274E-01   -0.59993E+01  1488   0.109E+01    0.400E-01
DAV:   2    -0.112564224447E+03   -0.26149E-01   -0.27357E-01  1552   0.106E+00    0.349E-01
DAV:   3    -0.112563501404E+03    0.72304E-03   -0.50926E-03  1600   0.172E-01    0.243E-01
DAV:   4    -0.112562086276E+03    0.14151E-02   -0.20119E-03  1584   0.784E-02    0.110E-01
DAV:   5    -0.112561614390E+03    0.47189E-03   -0.73983E-04  1584   0.568E-02    0.354E-02
DAV:   6    -0.112561665787E+03   -0.51397E-04   -0.38153E-05  1024   0.153E-02
   6 F= -.11256167E+03 E0= -.11256167E+03  d E =-.918167E-01  mag=     0.0001
       N       E                     dE             d eps       ncg     rms          rms(c)
DAV:   1    -0.112483990656E+03    0.77624E-01   -0.44628E+02  1488   0.299E+01    0.954E-01
DAV:   2    -0.112682059417E+03   -0.19807E+00   -0.20158E+00  1552   0.286E+00    0.912E-01
DAV:   3    -0.112678502206E+03    0.35572E-02   -0.33020E-02  1608   0.390E-01    0.677E-01
DAV:   4    -0.112670328162E+03    0.81740E-02   -0.12400E-02  1592   0.184E-01    0.358E-01
DAV:   5    -0.112667816323E+03    0.25118E-02   -0.90067E-03  1576   0.171E-01    0.112E-01
DAV:   6    -0.112667684206E+03    0.13212E-03   -0.39171E-04  1096   0.575E-02    0.832E-02
DAV:   7    -0.112667843872E+03   -0.15967E-03   -0.57351E-04  1552   0.326E-02    0.278E-02
DAV:   8    -0.112668331191E+03   -0.48732E-03   -0.12060E-04  1032   0.116E-02    0.167E-02
DAV:   9    -0.112668882850E+03   -0.55166E-03   -0.76783E-05  1032   0.791E-03    0.134E-02
DAV:  10    -0.112669984704E+03   -0.11019E-02   -0.18091E-04  1016   0.786E-03    0.101E-02
DAV:  11    -0.112671265568E+03   -0.12809E-02   -0.13199E-04  1064   0.633E-03    0.729E-03
DAV:  12    -0.112672763548E+03   -0.14980E-02   -0.16253E-04  1020   0.673E-03    0.466E-03
DAV:  13    -0.112673657479E+03   -0.89393E-03   -0.34363E-05  1040   0.349E-03    0.295E-03
DAV:  14    -0.112674316519E+03   -0.65904E-03   -0.58496E-06  1024   0.208E-03    0.199E-03
DAV:  15    -0.112674836118E+03   -0.51960E-03   -0.47868E-06  1016   0.187E-03    0.139E-03
DAV:  16    -0.112675244245E+03   -0.40813E-03   -0.29387E-06   992   0.152E-03    0.936E-04
DAV:  17    -0.112675487380E+03   -0.24313E-03   -0.20905E-06  1008   0.122E-03    0.570E-04
DAV:  18    -0.112675574905E+03   -0.87526E-04   -0.75757E-07   952   0.764E-04
   7 F= -.11267557E+03 E0= -.11267557E+03  d E =-.205726E+00  mag=    -0.0000
       N       E                     dE             d eps       ncg     rms          rms(c)
DAV:   1    -0.112709353648E+03   -0.33866E-01   -0.34273E+01  1496   0.826E+00    0.282E-01
DAV:   2    -0.112724467708E+03   -0.15114E-01   -0.15369E-01  1536   0.778E-01    0.234E-01
DAV:   3    -0.112724185723E+03    0.28198E-03   -0.26717E-03  1592   0.109E-01    0.165E-01
DAV:   4    -0.112723774443E+03    0.41128E-03   -0.11537E-03  1560   0.607E-02    0.626E-02
DAV:   5    -0.112723779692E+03   -0.52482E-05   -0.26031E-04   944   0.434E-02
   8 F= -.11272378E+03 E0= -.11272378E+03  d E =-.482048E-01  mag=    -0.0000
       N       E                     dE             d eps       ncg     rms          rms(c)
DAV:   1    -0.112692105283E+03    0.31669E-01   -0.17388E+02  1488   0.186E+01    0.620E-01
DAV:   2    -0.112769020087E+03   -0.76915E-01   -0.78336E-01  1552   0.176E+00    0.514E-01
DAV:   3    -0.112767646873E+03    0.13732E-02   -0.12623E-02  1584   0.238E-01    0.363E-01
DAV:   4    -0.112765624988E+03    0.20219E-02   -0.49982E-03  1552   0.121E-01    0.151E-01
DAV:   5    -0.112765645426E+03   -0.20438E-04   -0.14838E-03  1568   0.826E-02    0.518E-02
DAV:   6    -0.112765614160E+03    0.31266E-04   -0.81537E-05   928   0.294E-02
   9 F= -.11276561E+03 E0= -.11276561E+03  d E =-.900393E-01  mag=    -0.0000
       N       E                     dE             d eps       ncg     rms          rms(c)
DAV:   1    -0.112777990938E+03   -0.12346E-01   -0.71197E+01  1488   0.119E+01    0.327E-01
DAV:   2    -0.112809709020E+03   -0.31718E-01   -0.32192E-01  1536   0.114E+00    0.297E-01
DAV:   3    -0.112809170023E+03    0.53900E-03   -0.54643E-03  1584   0.163E-01    0.215E-01
DAV:   4    -0.112808209941E+03    0.96008E-03   -0.14197E-03  1552   0.606E-02    0.118E-01
DAV:   5    -0.112808097086E+03    0.11286E-03   -0.15731E-03  1560   0.636E-02    0.380E-02
DAV:   6    -0.112808085972E+03    0.11113E-04   -0.39001E-05   904   0.146E-02
  10 F= -.11280809E+03 E0= -.11280809E+03  d E =-.424718E-01  mag=    -0.0000
       N       E                     dE             d eps       ncg     rms          rms(c)
DAV:   1    -0.112692232248E+03    0.11586E+00   -0.34930E+02  1488   0.264E+01    0.826E-01
DAV:   2    -0.112850264118E+03   -0.15803E+00   -0.16065E+00  1536   0.255E+00    0.662E-01
DAV:   3    -0.112847030031E+03    0.32341E-02   -0.27670E-02  1584   0.371E-01    0.458E-01
DAV:   4    -0.112842417810E+03    0.46122E-02   -0.81041E-03  1552   0.143E-01    0.223E-01
DAV:   5    -0.112842068673E+03    0.34914E-03   -0.49300E-03  1568   0.114E-01    0.694E-02
DAV:   6    -0.112842010884E+03    0.57789E-04   -0.17954E-04  1008   0.286E-02
  11 F= -.11284201E+03 E0= -.11284201E+03  d E =-.763967E-01  mag=    -0.0000
       N       E                     dE             d eps       ncg     rms          rms(c)
DAV:   1    -0.112841127660E+03    0.94101E-03   -0.90838E+01  1488   0.134E+01    0.355E-01
DAV:   2    -0.112881460739E+03   -0.40333E-01   -0.40799E-01  1536   0.128E+00    0.334E-01
DAV:   3    -0.112880788282E+03    0.67246E-03   -0.68466E-03  1584   0.179E-01    0.242E-01
DAV:   4    -0.112879523855E+03    0.12644E-02   -0.17110E-03  1568   0.644E-02    0.138E-01
DAV:   5    -0.112879330632E+03    0.19322E-03   -0.22098E-03  1552   0.720E-02    0.452E-02
DAV:   6    -0.112879320028E+03    0.10603E-04   -0.56384E-05   960   0.137E-02
  12 F= -.11287932E+03 E0= -.11287932E+03  d E =-.373091E-01  mag=    -0.0000
       N       E                     dE             d eps       ncg     rms          rms(c)
DAV:   1    -0.112813062983E+03    0.66268E-01   -0.20263E+02  1488   0.201E+01    0.563E-01
DAV:   2    -0.112903719031E+03   -0.90656E-01   -0.91618E-01  1552   0.192E+00    0.499E-01
DAV:   3    -0.112902048408E+03    0.16706E-02   -0.15468E-02  1584   0.270E-01    0.354E-01
DAV:   4    -0.112899228358E+03    0.28201E-02   -0.41599E-03  1568   0.998E-02    0.192E-01
DAV:   5    -0.112898861316E+03    0.36704E-03   -0.40050E-03  1552   0.972E-02    0.611E-02
DAV:   6    -0.112898830215E+03    0.31101E-04   -0.12089E-04   960   0.196E-02
  13 F= -.11289883E+03 E0= -.11289883E+03  d E =-.568193E-01  mag=    -0.0000
       N       E                     dE             d eps       ncg     rms          rms(c)
DAV:   1    -0.112895768485E+03    0.30928E-02   -0.85092E+01  1488   0.130E+01    0.342E-01
DAV:   2    -0.112933073152E+03   -0.37305E-01   -0.37750E-01  1568   0.123E+00    0.340E-01
DAV:   3    -0.112932477425E+03    0.59573E-03   -0.59458E-03  1568   0.164E-01    0.253E-01
DAV:   4    -0.112931222927E+03    0.12545E-02   -0.17210E-03  1568   0.636E-02    0.146E-01
DAV:   5    -0.112931035422E+03    0.18751E-03   -0.20890E-03  1520   0.709E-02    0.490E-02
DAV:   6    -0.112931027452E+03    0.79694E-05   -0.50164E-05   944   0.129E-02
  14 F= -.11293103E+03 E0= -.11293103E+03  d E =-.321972E-01  mag=    -0.0000
       N       E                     dE             d eps       ncg     rms          rms(c)
DAV:   1    -0.112901544067E+03    0.29491E-01   -0.98605E+01  1488   0.140E+01    0.364E-01
DAV:   2    -0.112944849128E+03   -0.43305E-01   -0.43786E-01  1552   0.133E+00    0.361E-01
DAV:   3    -0.112944192341E+03    0.65679E-03   -0.68789E-03  1568   0.175E-01    0.268E-01
DAV:   4    -0.112942771431E+03    0.14209E-02   -0.19052E-03  1568   0.672E-02    0.157E-01
DAV:   5    -0.112942535689E+03    0.23574E-03   -0.24412E-03  1536   0.762E-02    0.521E-02
DAV:   6    -0.112942525336E+03    0.10353E-04   -0.54994E-05   912   0.134E-02
  15 F= -.11294253E+03 E0= -.11294253E+03  d E =-.436951E-01  mag=    -0.0000
       N       E                     dE             d eps       ncg     rms          rms(c)
DAV:   1    -0.112929646773E+03    0.12889E-01   -0.99611E+01  1488   0.141E+01    0.340E-01
DAV:   2    -0.112973218380E+03   -0.43572E-01   -0.43601E-01  1552   0.132E+00    0.349E-01
DAV:   3    -0.112972587361E+03    0.63102E-03   -0.67493E-03  1600   0.166E-01    0.268E-01
DAV:   4    -0.112971104463E+03    0.14829E-02   -0.18219E-03  1568   0.658E-02    0.161E-01
DAV:   5    -0.112970804600E+03    0.29986E-03   -0.26897E-03  1552   0.791E-02    0.553E-02
DAV:   6    -0.112970803215E+03    0.13849E-05   -0.45366E-05   928   0.125E-02
  16 F= -.11297080E+03 E0= -.11297080E+03  d E =-.282779E-01  mag=    -0.0000
       N       E                     dE             d eps       ncg     rms          rms(c)
DAV:   1    -0.112924650314E+03    0.46154E-01   -0.13641E+02  1488   0.165E+01    0.397E-01
DAV:   2    -0.112984429215E+03   -0.59779E-01   -0.59741E-01  1536   0.154E+00    0.405E-01
DAV:   3    -0.112983590208E+03    0.83901E-03   -0.92092E-03  1584   0.193E-01    0.310E-01
DAV:   4    -0.112981573222E+03    0.20170E-02   -0.24381E-03  1568   0.761E-02    0.187E-01
DAV:   5    -0.112981131762E+03    0.44146E-03   -0.35808E-03  1552   0.908E-02    0.635E-02
DAV:   6    -0.112981132820E+03   -0.10584E-05   -0.56871E-05   928   0.140E-02
  17 F= -.11298113E+03 E0= -.11298113E+03  d E =-.386075E-01  mag=    -0.0000
       N       E                     dE             d eps       ncg     rms          rms(c)
DAV:   1    -0.112965601440E+03    0.15530E-01   -0.96441E+01  1488   0.139E+01    0.316E-01
DAV:   2    -0.113007412129E+03   -0.41811E-01   -0.41761E-01  1536   0.129E+00    0.320E-01
DAV:   3    -0.113006708977E+03    0.70315E-03   -0.63014E-03  1584   0.159E-01    0.247E-01
DAV:   4    -0.113005271292E+03    0.14377E-02   -0.15673E-03  1568   0.600E-02    0.149E-01
DAV:   5    -0.113004878461E+03    0.39283E-03   -0.26792E-03  1520   0.768E-02    0.487E-02
DAV:   6    -0.113004894561E+03   -0.16100E-04   -0.31788E-05   928   0.103E-02
  18 F= -.11300489E+03 E0= -.11300489E+03  d E =-.237617E-01  mag=    -0.0000
       N       E                     dE             d eps       ncg     rms          rms(c)
DAV:   1    -0.112853395163E+03    0.15148E+00   -0.40664E+02  1488   0.286E+01    0.722E-01
DAV:   2    -0.113032015586E+03   -0.17862E+00   -0.17870E+00  1536   0.268E+00    0.668E-01
DAV:   3    -0.113028609653E+03    0.34059E-02   -0.27422E-02  1584   0.338E-01    0.496E-01
DAV:   4    -0.113022779720E+03    0.58299E-02   -0.68688E-03  1568   0.126E-01    0.292E-01
DAV:   5    -0.113021308782E+03    0.14709E-02   -0.84954E-03  1536   0.137E-01    0.872E-02
DAV:   6    -0.113021375375E+03   -0.66593E-04   -0.10064E-04   960   0.186E-02
  19 F= -.11302138E+03 E0= -.11302138E+03  d E =-.402426E-01  mag=    -0.0000
       N       E                     dE             d eps       ncg     rms          rms(c)
DAV:   1    -0.113013329490E+03    0.79793E-02   -0.71030E+01  1488   0.119E+01    0.258E-01
DAV:   2    -0.113044177431E+03   -0.30848E-01   -0.30793E-01  1520   0.111E+00    0.274E-01
DAV:   3    -0.113043678387E+03    0.49904E-03   -0.47486E-03  1568   0.141E-01    0.212E-01
DAV:   4    -0.113042678492E+03    0.99990E-03   -0.89411E-04  1568   0.456E-02    0.140E-01
DAV:   5    -0.113042273671E+03    0.40482E-03   -0.25592E-03  1520   0.746E-02    0.436E-02
DAV:   6    -0.113042298043E+03   -0.24372E-04   -0.25715E-05   944   0.957E-03
  20 F= -.11304230E+03 E0= -.11304230E+03  d E =-.209227E-01  mag=    -0.0000
       N       E                     dE             d eps       ncg     rms          rms(c)
DAV:   1    -0.112805794093E+03    0.23648E+00   -0.64882E+02  1488   0.362E+01    0.973E-01
DAV:   2    -0.113096151717E+03   -0.29036E+00   -0.29092E+00  1520   0.344E+00    0.854E-01
DAV:   3    -0.113090289811E+03    0.58619E-02   -0.46388E-02  1552   0.457E-01    0.612E-01
DAV:   4    -0.113081597822E+03    0.86920E-02   -0.95067E-03  1568   0.150E-01    0.379E-01
DAV:   5    -0.113078746004E+03    0.28518E-02   -0.13369E-02  1520   0.172E-01    0.104E-01
DAV:   6    -0.113078871355E+03   -0.12535E-03   -0.15272E-04  1008   0.242E-02    0.596E-02
DAV:   7    -0.113078952774E+03   -0.81419E-04   -0.66072E-05   960   0.156E-02
  21 F= -.11307895E+03 E0= -.11307895E+03  d E =-.575774E-01  mag=    -0.0000
       N       E                     dE             d eps       ncg     rms          rms(c)
DAV:   1    -0.111694981331E+03    0.13839E+01   -0.27178E+03  1488   0.757E+01    0.309E+00
DAV:   2    -0.113028649346E+03   -0.13337E+01   -0.13440E+01  1568   0.753E+00    0.196E+00
DAV:   3    -0.113004552383E+03    0.24097E-01   -0.22572E-01  1568   0.106E+00    0.125E+00
DAV:   4    -0.112976997219E+03    0.27555E-01   -0.35264E-02  1600   0.305E-01    0.822E-01
DAV:   5    -0.112967608883E+03    0.93883E-02   -0.34344E-02  1536   0.282E-01    0.230E-01
DAV:   6    -0.112967996596E+03   -0.38771E-03   -0.73262E-04  1600   0.503E-02    0.123E-01
DAV:   7    -0.112968284094E+03   -0.28750E-03   -0.89534E-05   992   0.293E-02    0.339E-02
DAV:   8    -0.112968382646E+03   -0.98552E-04   -0.20014E-05   992   0.114E-02
  22 F= -.11296838E+03 E0= -.11296838E+03  d E =0.529927E-01  mag=    -0.0000
       N       E                     dE             d eps       ncg     rms          rms(c)
DAV:   1    -0.112150630455E+03    0.81765E+00   -0.20726E+03  1488   0.657E+01    0.222E+00
DAV:   2    -0.113130071419E+03   -0.97944E+00   -0.97735E+00  1552   0.632E+00    0.161E+00
DAV:   3    -0.113111663337E+03    0.18408E-01   -0.15397E-01  1584   0.820E-01    0.114E+00
DAV:   4    -0.113089086754E+03    0.22577E-01   -0.25525E-02  1552   0.257E-01    0.741E-01
DAV:   5    -0.113080482621E+03    0.86041E-02   -0.31538E-02  1536   0.270E-01    0.194E-01
DAV:   6    -0.113080813850E+03   -0.33123E-03   -0.77084E-04  1568   0.514E-02    0.103E-01
DAV:   7    -0.113080948628E+03   -0.13478E-03   -0.80346E-05   976   0.283E-02    0.281E-02
DAV:   8    -0.113080973309E+03   -0.24681E-04   -0.27823E-05   960   0.123E-02
  23 F= -.11308097E+03 E0= -.11308097E+03  d E =-.595979E-01  mag=    -0.0000
       N       E                     dE             d eps       ncg     rms          rms(c)
DAV:   1    -0.113073562925E+03    0.73857E-02   -0.10977E+02  1488   0.148E+01    0.402E-01
DAV:   2    -0.113121972215E+03   -0.48409E-01   -0.49181E-01  1536   0.141E+00    0.385E-01
DAV:   3    -0.113121172754E+03    0.79946E-03   -0.82562E-03  1584   0.193E-01    0.278E-01
DAV:   4    -0.113119555754E+03    0.16170E-02   -0.22794E-03  1536   0.717E-02    0.155E-01
DAV:   5    -0.113119340071E+03    0.21568E-03   -0.23784E-03  1536   0.740E-02    0.515E-02
DAV:   6    -0.113119309900E+03    0.30171E-04   -0.75846E-05   912   0.140E-02
  24 F= -.11311931E+03 E0= -.11311931E+03  d E =-.383366E-01  mag=    -0.0000
       N       E                     dE             d eps       ncg     rms          rms(c)
DAV:   1    -0.113048236302E+03    0.71104E-01   -0.20371E+02  1488   0.201E+01    0.573E-01
DAV:   2    -0.113138818745E+03   -0.90582E-01   -0.91921E-01  1520   0.193E+00    0.528E-01
DAV:   3    -0.113137255965E+03    0.15628E-02   -0.15440E-02  1568   0.264E-01    0.375E-01
DAV:   4    -0.113134275551E+03    0.29804E-02   -0.44795E-03  1520   0.101E-01    0.202E-01
DAV:   5    -0.113133920703E+03    0.35485E-03   -0.37568E-03  1552   0.939E-02    0.660E-02
DAV:   6    -0.113133881867E+03    0.38836E-04   -0.13229E-04   992   0.187E-02
  25 F= -.11313388E+03 E0= -.11313388E+03  d E =-.529086E-01  mag=    -0.0000
       N       E                     dE             d eps       ncg     rms          rms(c)
DAV:   1    -0.113103678346E+03    0.30242E-01   -0.14946E+02  1488   0.173E+01    0.450E-01
DAV:   2    -0.113170278361E+03   -0.66600E-01   -0.67050E-01  1520   0.164E+00    0.412E-01
DAV:   3    -0.113169106334E+03    0.11720E-02   -0.11059E-02  1568   0.223E-01    0.301E-01
DAV:   4    -0.113166994471E+03    0.21119E-02   -0.26486E-03  1568   0.769E-02    0.169E-01
DAV:   5    -0.113166561223E+03    0.43325E-03   -0.34628E-03  1536   0.875E-02    0.513E-02
DAV:   6    -0.113166558105E+03    0.31176E-05   -0.77630E-05   960   0.146E-02
  26 F= -.11316656E+03 E0= -.11316656E+03  d E =-.326762E-01  mag=    -0.0000
       N       E                     dE             d eps       ncg     rms          rms(c)
DAV:   1    -0.113085008605E+03    0.81553E-01   -0.21729E+02  1488   0.208E+01    0.568E-01
DAV:   2    -0.113182206651E+03   -0.97198E-01   -0.97789E-01  1536   0.198E+00    0.499E-01
DAV:   3    -0.113180333238E+03    0.18734E-02   -0.16111E-02  1584   0.269E-01    0.361E-01
DAV:   4    -0.113177179197E+03    0.31540E-02   -0.43192E-03  1552   0.978E-02    0.192E-01
DAV:   5    -0.113176671108E+03    0.50809E-03   -0.42186E-03  1536   0.970E-02    0.587E-02
DAV:   6    -0.113176665672E+03    0.54358E-05   -0.11323E-04  1008   0.174E-02
  27 F= -.11317667E+03 E0= -.11317667E+03  d E =-.427838E-01  mag=     0.0000
       N       E                     dE             d eps       ncg     rms          rms(c)
DAV:   1    -0.113164989995E+03    0.11681E-01   -0.11209E+02  1488   0.149E+01    0.420E-01
DAV:   2    -0.113215359550E+03   -0.50370E-01   -0.50960E-01  1536   0.143E+00    0.390E-01
DAV:   3    -0.113214559199E+03    0.80035E-03   -0.80987E-03  1552   0.186E-01    0.283E-01
DAV:   4    -0.113212942954E+03    0.16162E-02   -0.26513E-03  1552   0.781E-02    0.147E-01
DAV:   5    -0.113212829087E+03    0.11387E-03   -0.19669E-03  1536   0.678E-02    0.513E-02
DAV:   6    -0.113212805379E+03    0.23709E-04   -0.82365E-05   928   0.144E-02
  28 F= -.11321281E+03 E0= -.11321281E+03  d E =-.361397E-01  mag=     0.0000
       N       E                     dE             d eps       ncg     rms          rms(c)
DAV:   1    -0.113194643452E+03    0.18186E-01   -0.54336E+01  1488   0.104E+01    0.291E-01
DAV:   2    -0.113218887555E+03   -0.24244E-01   -0.24634E-01  1536   0.991E-01    0.273E-01
DAV:   3    -0.113218499525E+03    0.38803E-03   -0.39097E-03  1552   0.130E-01    0.198E-01
DAV:   4    -0.113217719717E+03    0.77981E-03   -0.13143E-03  1552   0.550E-02    0.103E-01
DAV:   5    -0.113217679033E+03    0.40685E-04   -0.96260E-04  1552   0.476E-02
  29 F= -.11321768E+03 E0= -.11321768E+03  d E =-.410134E-01  mag=     0.0000
       N       E                     dE             d eps       ncg     rms          rms(c)
DAV:   1    -0.113200571853E+03    0.17148E-01   -0.98668E+01  1488   0.140E+01    0.369E-01
DAV:   2    -0.113244588979E+03   -0.44017E-01   -0.44408E-01  1520   0.134E+00    0.372E-01
DAV:   3    -0.113244000534E+03    0.58845E-03   -0.69932E-03  1536   0.173E-01    0.281E-01
DAV:   4    -0.113242535485E+03    0.14650E-02   -0.20062E-03  1536   0.676E-02    0.161E-01
DAV:   5    -0.113242325907E+03    0.20958E-03   -0.24613E-03  1552   0.738E-02    0.562E-02
DAV:   6    -0.113242297871E+03    0.28036E-04   -0.70386E-05   912   0.136E-02
  30 F= -.11324230E+03 E0= -.11324230E+03  d E =-.246188E-01  mag=     0.0000
       N       E                     dE             d eps       ncg     rms          rms(c)
DAV:   1    -0.113218470190E+03    0.23856E-01   -0.59773E+01  1488   0.109E+01    0.282E-01
DAV:   2    -0.113245085312E+03   -0.26615E-01   -0.26871E-01  1520   0.104E+00    0.285E-01
DAV:   3    -0.113244723297E+03    0.36202E-03   -0.42134E-03  1536   0.134E-01    0.216E-01
DAV:   4    -0.113243831810E+03    0.89149E-03   -0.12026E-03  1536   0.523E-02    0.124E-01
DAV:   5    -0.113243694033E+03    0.13778E-03   -0.15518E-03  1568   0.584E-02    0.435E-02
DAV:   6    -0.113243678843E+03    0.15190E-04   -0.43648E-05   880   0.108E-02
  31 F= -.11324368E+03 E0= -.11324368E+03  d E =-.259998E-01  mag=     0.0000
       N       E                     dE             d eps       ncg     rms          rms(c)
DAV:   1    -0.113207927902E+03    0.35766E-01   -0.12746E+02  1488   0.159E+01    0.397E-01
DAV:   2    -0.113264523688E+03   -0.56596E-01   -0.57389E-01  1536   0.153E+00    0.402E-01
DAV:   3    -0.113263694751E+03    0.82894E-03   -0.92299E-03  1552   0.203E-01    0.299E-01
DAV:   4    -0.113261887307E+03    0.18074E-02   -0.20527E-03  1552   0.687E-02    0.184E-01
DAV:   5    -0.113261415547E+03    0.47176E-03   -0.37274E-03  1536   0.904E-02    0.591E-02
DAV:   6    -0.113261395237E+03    0.20310E-04   -0.75656E-05   912   0.153E-02
  32 F= -.11326140E+03 E0= -.11326140E+03  d E =-.177164E-01  mag=    -0.0000
       N       E                     dE             d eps       ncg     rms          rms(c)
DAV:   1    -0.113256245266E+03    0.51703E-02   -0.12404E+01  1488   0.496E+00    0.123E-01
DAV:   2    -0.113261754231E+03   -0.55090E-02   -0.55859E-02  1520   0.475E-01    0.123E-01
DAV:   3    -0.113261681890E+03    0.72341E-04   -0.88909E-04  1536   0.629E-02
  33 F= -.11326168E+03 E0= -.11326168E+03  d E =-.180030E-01  mag=    -0.0000
       N       E                     dE             d eps       ncg     rms          rms(c)
DAV:   1    -0.113250345846E+03    0.11408E-01   -0.64975E+01  1488   0.113E+01    0.329E-01
DAV:   2    -0.113279259505E+03   -0.28914E-01   -0.29384E-01  1536   0.109E+00    0.307E-01
DAV:   3    -0.113278679081E+03    0.58042E-03   -0.47287E-03  1552   0.144E-01    0.224E-01
DAV:   4    -0.113277619472E+03    0.10596E-02   -0.20401E-03  1536   0.680E-02    0.106E-01
DAV:   5    -0.113277605043E+03    0.14429E-04   -0.11077E-03  1552   0.507E-02    0.397E-02
DAV:   6    -0.113277584201E+03    0.20842E-04   -0.65695E-05   896   0.125E-02
  34 F= -.11327758E+03 E0= -.11327758E+03  d E =-.159023E-01  mag=    -0.0000
       N       E                     dE             d eps       ncg     rms          rms(c)
DAV:   1    -0.113274901861E+03    0.27032E-02   -0.92269E+00  1488   0.427E+00    0.121E-01
DAV:   2    -0.113279042357E+03   -0.41405E-02   -0.41944E-02  1520   0.410E-01    0.113E-01
DAV:   3    -0.113278980310E+03    0.62047E-04   -0.67340E-04  1536   0.547E-02
  35 F= -.11327898E+03 E0= -.11327898E+03  d E =-.172984E-01  mag=    -0.0000
       N       E                     dE             d eps       ncg     rms          rms(c)
DAV:   1    -0.113262318237E+03    0.16724E-01   -0.73562E+01  1488   0.121E+01    0.311E-01
DAV:   2    -0.113294883127E+03   -0.32565E-01   -0.32631E-01  1520   0.114E+00    0.311E-01
DAV:   3    -0.113294301413E+03    0.58171E-03   -0.51130E-03  1616   0.141E-01    0.240E-01
DAV:   4    -0.113292973993E+03    0.13274E-02   -0.20346E-03  1520   0.672E-02    0.124E-01
DAV:   5    -0.113292857325E+03    0.11667E-03   -0.17002E-03  1568   0.621E-02    0.474E-02
DAV:   6    -0.113292842931E+03    0.14393E-04   -0.54475E-05   896   0.119E-02
  36 F= -.11329284E+03 E0= -.11329284E+03  d E =-.138626E-01  mag=     0.0000
       N       E                     dE             d eps       ncg     rms          rms(c)
DAV:   1    -0.113282339569E+03    0.10518E-01   -0.27130E+01  1488   0.734E+00    0.186E-01
DAV:   2    -0.113294437116E+03   -0.12098E-01   -0.12110E-01  1504   0.693E-01    0.184E-01
DAV:   3    -0.113294245854E+03    0.19126E-03   -0.18986E-03  1600   0.868E-02    0.140E-01
DAV:   4    -0.113293807756E+03    0.43810E-03   -0.63234E-04  1520   0.377E-02    0.761E-02
DAV:   5    -0.113293764712E+03    0.43044E-04   -0.64678E-04  1520   0.382E-02
  37 F= -.11329376E+03 E0= -.11329376E+03  d E =-.147844E-01  mag=     0.0000
       N       E                     dE             d eps       ncg     rms          rms(c)
DAV:   1    -0.113284214078E+03    0.95937E-02   -0.44368E+01  1488   0.938E+00    0.208E-01
DAV:   2    -0.113303970260E+03   -0.19756E-01   -0.19641E-01  1536   0.882E-01    0.221E-01
DAV:   3    -0.113303695270E+03    0.27499E-03   -0.30175E-03  1600   0.108E-01    0.175E-01
DAV:   4    -0.113303003822E+03    0.69145E-03   -0.70926E-04  1520   0.402E-02    0.109E-01
DAV:   5    -0.113302804360E+03    0.19946E-03   -0.15452E-03  1536   0.576E-02    0.378E-02
DAV:   6    -0.113302808522E+03   -0.41618E-05   -0.20712E-05   880   0.788E-03
  38 F= -.11330281E+03 E0= -.11330281E+03  d E =-.904381E-02  mag=     0.0000
       N       E                     dE             d eps       ncg     rms          rms(c)
DAV:   1    -0.113252386613E+03    0.50418E-01   -0.13442E+02  1488   0.163E+01    0.376E-01
DAV:   2    -0.113312226307E+03   -0.59840E-01   -0.59483E-01  1536   0.154E+00    0.388E-01
DAV:   3    -0.113311236083E+03    0.99022E-03   -0.91145E-03  1600   0.188E-01    0.305E-01
DAV:   4    -0.113309009191E+03    0.22269E-02   -0.24140E-03  1552   0.736E-02    0.182E-01
DAV:   5    -0.113308407216E+03    0.60198E-03   -0.41127E-03  1520   0.943E-02    0.605E-02
DAV:   6    -0.113308413244E+03   -0.60284E-05   -0.57076E-05   912   0.132E-02
  39 F= -.11330841E+03 E0= -.11330841E+03  d E =-.146485E-01  mag=     0.0000
       N       E                     dE             d eps       ncg     rms          rms(c)
DAV:   1    -0.113293800341E+03    0.14607E-01   -0.70727E+01  1488   0.118E+01    0.281E-01
DAV:   2    -0.113325213604E+03   -0.31413E-01   -0.31309E-01  1552   0.111E+00    0.289E-01
DAV:   3    -0.113324681154E+03    0.53245E-03   -0.45793E-03  1568   0.132E-01    0.228E-01
DAV:   4    -0.113323455500E+03    0.12257E-02   -0.15527E-03  1568   0.589E-02    0.128E-01
DAV:   5    -0.113323243613E+03    0.21189E-03   -0.19399E-03  1520   0.653E-02    0.466E-02
DAV:   6    -0.113323240428E+03    0.31859E-05   -0.40483E-05   912   0.105E-02
  40 F= -.11332324E+03 E0= -.11332324E+03  d E =-.148272E-01  mag=     0.0000
       N       E                     dE             d eps       ncg     rms          rms(c)
DAV:   1    -0.113294464407E+03    0.28779E-01   -0.81496E+01  1488   0.127E+01    0.303E-01
DAV:   2    -0.113330586400E+03   -0.36122E-01   -0.36051E-01  1552   0.119E+00    0.311E-01
DAV:   3    -0.113329944006E+03    0.64239E-03   -0.52540E-03  1600   0.141E-01    0.244E-01
DAV:   4    -0.113328513310E+03    0.14307E-02   -0.18341E-03  1552   0.639E-02    0.135E-01
DAV:   5    -0.113328270000E+03    0.24331E-03   -0.21625E-03  1520   0.689E-02    0.494E-02
DAV:   6    -0.113328264972E+03    0.50277E-05   -0.45471E-05   912   0.112E-02
  41 F= -.11332826E+03 E0= -.11332826E+03  d E =-.198517E-01  mag=    -0.0000
       N       E                     dE             d eps       ncg     rms          rms(c)
DAV:   1    -0.113315922926E+03    0.12347E-01   -0.64377E+01  1488   0.113E+01    0.237E-01
DAV:   2    -0.113344304678E+03   -0.28382E-01   -0.28251E-01  1568   0.106E+00    0.268E-01
DAV:   3    -0.113343881639E+03    0.42304E-03   -0.40134E-03  1600   0.122E-01    0.221E-01
DAV:   4    -0.113342783156E+03    0.10985E-02   -0.98957E-04  1520   0.469E-02    0.142E-01
DAV:   5    -0.113342362264E+03    0.42089E-03   -0.25877E-03  1536   0.743E-02    0.492E-02
DAV:   6    -0.113342380556E+03   -0.18291E-04   -0.25395E-05   896   0.933E-03
  42 F= -.11334238E+03 E0= -.11334238E+03  d E =-.141156E-01  mag=    -0.0000
       N       E                     dE             d eps       ncg     rms          rms(c)
DAV:   1    -0.113120245157E+03    0.22212E+00   -0.56118E+02  1488   0.335E+01    0.808E-01
DAV:   2    -0.113373088420E+03   -0.25284E+00   -0.25148E+00  1552   0.316E+00    0.813E-01
DAV:   3    -0.113368517627E+03    0.45708E-02   -0.37480E-02  1632   0.374E-01    0.635E-01
DAV:   4    -0.113359580155E+03    0.89375E-02   -0.93621E-03  1536   0.145E-01    0.390E-01
DAV:   5    -0.113356648693E+03    0.29315E-02   -0.13265E-02  1552   0.170E-01    0.118E-01
DAV:   6    -0.113356822179E+03   -0.17349E-03   -0.18297E-04  1024   0.255E-02    0.710E-02
DAV:   7    -0.113356847056E+03   -0.24877E-04   -0.10579E-04   960   0.169E-02
  43 F= -.11335685E+03 E0= -.11335685E+03  d E =-.285821E-01  mag=    -0.0000
       N       E                     dE             d eps       ncg     rms          rms(c)
DAV:   1    -0.113352923179E+03    0.38990E-02   -0.32696E+01  1488   0.803E+00    0.159E-01
DAV:   2    -0.113367415355E+03   -0.14492E-01   -0.14358E-01  1568   0.753E-01    0.191E-01
DAV:   3    -0.113367237058E+03    0.17830E-03   -0.20577E-03  1600   0.871E-02    0.159E-01
DAV:   4    -0.113366709835E+03    0.52722E-03   -0.38418E-04  1456   0.300E-02    0.112E-01
DAV:   5    -0.113366425412E+03    0.28442E-03   -0.17282E-03  1520   0.605E-02    0.395E-02
DAV:   6    -0.113366445936E+03   -0.20524E-04   -0.15132E-05   944   0.715E-03
  44 F= -.11336645E+03 E0= -.11336645E+03  d E =-.959888E-02  mag=    -0.0000
       N       E                     dE             d eps       ncg     rms          rms(c)
DAV:   1    -0.113263213291E+03    0.10321E+00   -0.29677E+02  1488   0.243E+01    0.535E-01
DAV:   2    -0.113397102873E+03   -0.13389E+00   -0.13191E+00  1536   0.229E+00    0.579E-01
DAV:   3    -0.113395056007E+03    0.20469E-02   -0.19657E-02  1632   0.272E-01    0.459E-01
DAV:   4    -0.113390260240E+03    0.47958E-02   -0.42880E-03  1568   0.988E-02    0.301E-01
DAV:   5    -0.113388197914E+03    0.20623E-02   -0.94443E-03  1536   0.142E-01    0.942E-02
DAV:   6    -0.113388301428E+03   -0.10351E-03   -0.10657E-04   992   0.193E-02    0.603E-02
DAV:   7    -0.113388310382E+03   -0.89540E-05   -0.82821E-05   928   0.143E-02
  45 F= -.11338831E+03 E0= -.11338831E+03  d E =-.314633E-01  mag=    -0.0000
       N       E                     dE             d eps       ncg     rms          rms(c)
DAV:   1    -0.112846322377E+03    0.54198E+00   -0.12190E+03  1488   0.497E+01    0.147E+00
DAV:   2    -0.113416288141E+03   -0.56997E+00   -0.56744E+00  1584   0.480E+00    0.124E+00
DAV:   3    -0.113404695969E+03    0.11592E-01   -0.87668E-02  1600   0.595E-01    0.893E-01
DAV:   4    -0.113387745493E+03    0.16950E-01   -0.19013E-02  1600   0.211E-01    0.559E-01
DAV:   5    -0.113382151355E+03    0.55941E-02   -0.20114E-02  1552   0.210E-01    0.168E-01
DAV:   6    -0.113382397675E+03   -0.24632E-03   -0.49844E-04  1616   0.375E-02    0.924E-02
DAV:   7    -0.113382513556E+03   -0.11588E-03   -0.74064E-05   976   0.188E-02    0.252E-02
DAV:   8    -0.113382554473E+03   -0.40917E-04   -0.22021E-05   992   0.893E-03
  46 F= -.11338255E+03 E0= -.11338255E+03  d E =-.257074E-01  mag=     0.0000
       N       E                     dE             d eps       ncg     rms          rms(c)
DAV:   1    -0.113223305137E+03    0.15921E+00   -0.40126E+02  1488   0.283E+01    0.700E-01
DAV:   2    -0.113407179859E+03   -0.18387E+00   -0.18272E+00  1552   0.269E+00    0.666E-01
DAV:   3    -0.113403765676E+03    0.34142E-02   -0.27702E-02  1664   0.327E-01    0.507E-01
DAV:   4    -0.113397515626E+03    0.62501E-02   -0.68227E-03  1552   0.123E-01    0.305E-01
DAV:   5    -0.113395644151E+03    0.18715E-02   -0.94853E-03  1520   0.143E-01    0.879E-02
DAV:   6    -0.113395711391E+03   -0.67240E-04   -0.10844E-04  1056   0.194E-02
  47 F= -.11339571E+03 E0= -.11339571E+03  d E =-.388643E-01  mag=     0.0000
       N       E                     dE             d eps       ncg     rms          rms(c)
DAV:   1    -0.113397547874E+03   -0.19037E-02   -0.58598E+01  1488   0.107E+01    0.246E-01
DAV:   2    -0.113423730198E+03   -0.26182E-01   -0.26150E-01  1536   0.101E+00    0.259E-01
DAV:   3    -0.113423291572E+03    0.43863E-03   -0.38152E-03  1632   0.120E-01    0.205E-01
DAV:   4    -0.113422289252E+03    0.10023E-02   -0.11293E-03  1536   0.495E-02    0.121E-01
DAV:   5    -0.113422047263E+03    0.24199E-03   -0.17766E-03  1536   0.620E-02    0.417E-02
DAV:   6    -0.113422044303E+03    0.29603E-05   -0.28345E-05   880   0.907E-03
  48 F= -.11342204E+03 E0= -.11342204E+03  d E =-.263329E-01  mag=     0.0000
       N       E                     dE             d eps       ncg     rms          rms(c)
DAV:   1    -0.113219034140E+03    0.20301E+00   -0.53537E+02  1488   0.327E+01    0.959E-01
DAV:   2    -0.113467304733E+03   -0.24827E+00   -0.24926E+00  1536   0.315E+00    0.794E-01
DAV:   3    -0.113461992569E+03    0.53122E-02   -0.39382E-02  1616   0.401E-01    0.566E-01
DAV:   4    -0.113454121306E+03    0.78713E-02   -0.11273E-02  1568   0.157E-01    0.306E-01
DAV:   5    -0.113452742534E+03    0.13788E-02   -0.79266E-03  1552   0.134E-01    0.884E-02
DAV:   6    -0.113452794655E+03   -0.52121E-04   -0.14657E-04  1072   0.216E-02
  49 F= -.11345279E+03 E0= -.11345279E+03  d E =-.570833E-01  mag=     0.0000
       N       E                     dE             d eps       ncg     rms          rms(c)
DAV:   1    -0.113422172817E+03    0.30570E-01   -0.14082E+02  1488   0.167E+01    0.431E-01
DAV:   2    -0.113486159063E+03   -0.63986E-01   -0.63640E-01  1536   0.159E+00    0.406E-01
DAV:   3    -0.113484975629E+03    0.11834E-02   -0.93799E-03  1632   0.193E-01    0.306E-01
DAV:   4    -0.113482721053E+03    0.22546E-02   -0.33707E-03  1552   0.850E-02    0.161E-01
DAV:   5    -0.113482439324E+03    0.28173E-03   -0.27418E-03  1568   0.787E-02    0.547E-02
DAV:   6    -0.113482437208E+03    0.21155E-05   -0.71209E-05   960   0.139E-02
  50 F= -.11348244E+03 E0= -.11348244E+03  d E =-.296426E-01  mag=     0.0000
       N       E                     dE             d eps       ncg     rms          rms(c)
DAV:   1    -0.113449592552E+03    0.32847E-01   -0.92633E+01  1488   0.135E+01    0.349E-01
DAV:   2    -0.113491518414E+03   -0.41926E-01   -0.41667E-01  1536   0.128E+00    0.332E-01
DAV:   3    -0.113490757184E+03    0.76123E-03   -0.61119E-03  1616   0.155E-01    0.251E-01
DAV:   4    -0.113489249975E+03    0.15072E-02   -0.23607E-03  1552   0.711E-02    0.129E-01
DAV:   5    -0.113489104779E+03    0.14520E-03   -0.17832E-03  1552   0.637E-02    0.458E-02
DAV:   6    -0.113489097387E+03    0.73919E-05   -0.55571E-05   928   0.121E-02
  51 F= -.11348910E+03 E0= -.11348910E+03  d E =-.363027E-01  mag=     0.0000
       N       E                     dE             d eps       ncg     rms          rms(c)
DAV:   1    -0.113483159429E+03    0.59453E-02   -0.80992E+01  1488   0.126E+01    0.296E-01
DAV:   2    -0.113520230704E+03   -0.37071E-01   -0.36698E-01  1584   0.120E+00    0.295E-01
DAV:   3    -0.113519767310E+03    0.46339E-03   -0.53948E-03  1600   0.144E-01    0.228E-01
DAV:   4    -0.113518629115E+03    0.11382E-02   -0.14083E-03  1536   0.563E-02    0.133E-01
DAV:   5    -0.113518395306E+03    0.23381E-03   -0.20917E-03  1552   0.676E-02    0.440E-02
DAV:   6    -0.113518396329E+03   -0.10228E-05   -0.35063E-05   928   0.998E-03
  52 F= -.11351840E+03 E0= -.11351840E+03  d E =-.292989E-01  mag=     0.0000
       N       E                     dE             d eps       ncg     rms          rms(c)
DAV:   1    -0.113322581667E+03    0.19581E+00   -0.49677E+02  1488   0.314E+01    0.863E-01
DAV:   2    -0.113553377877E+03   -0.23080E+00   -0.23003E+00  1600   0.301E+00    0.743E-01
DAV:   3    -0.113549595693E+03    0.37822E-02   -0.34699E-02  1616   0.372E-01    0.542E-01
DAV:   4    -0.113542901932E+03    0.66938E-02   -0.93043E-03  1536   0.145E-01    0.297E-01
DAV:   5    -0.113541709919E+03    0.11920E-02   -0.80850E-03  1552   0.134E-01    0.867E-02
DAV:   6    -0.113541736238E+03   -0.26319E-04   -0.15154E-04  1024   0.214E-02
  53 F= -.11354174E+03 E0= -.11354174E+03  d E =-.526389E-01  mag=     0.0000
       N       E                     dE             d eps       ncg     rms          rms(c)
DAV:   1    -0.113545134345E+03   -0.34244E-02   -0.31693E+01  1488   0.789E+00    0.172E-01
DAV:   2    -0.113559487286E+03   -0.14353E-01   -0.14247E-01  1568   0.746E-01    0.181E-01
DAV:   3    -0.113559313749E+03    0.17354E-03   -0.20682E-03  1600   0.888E-02    0.142E-01
DAV:   4    -0.113558881344E+03    0.43241E-03   -0.44943E-04  1488   0.322E-02    0.897E-02
DAV:   5    -0.113558762771E+03    0.11857E-03   -0.10468E-03  1552   0.475E-02    0.299E-02
DAV:   6    -0.113558774736E+03   -0.11965E-04   -0.12349E-05   944   0.609E-03
  54 F= -.11355877E+03 E0= -.11355877E+03  d E =-.170385E-01  mag=     0.0000
       N       E                     dE             d eps       ncg     rms          rms(c)
DAV:   1    -0.113470432971E+03    0.88330E-01   -0.28752E+02  1488   0.238E+01    0.588E-01
DAV:   2    -0.113602884236E+03   -0.13245E+00   -0.13148E+00  1584   0.227E+00    0.550E-01
DAV:   3    -0.113600953256E+03    0.19310E-02   -0.19547E-02  1616   0.277E-01    0.414E-01
DAV:   4    -0.113597043606E+03    0.39097E-02   -0.44712E-03  1552   0.101E-01    0.246E-01
DAV:   5    -0.113595957553E+03    0.10861E-02   -0.64483E-03  1536   0.118E-01    0.714E-02
DAV:   6    -0.113595993430E+03   -0.35877E-04   -0.76083E-05  1008   0.160E-02
  55 F= -.11359599E+03 E0= -.11359599E+03  d E =-.542572E-01  mag=    -0.0000
       N       E                     dE             d eps       ncg     rms          rms(c)
DAV:   1    -0.113052126330E+03    0.54383E+00   -0.11766E+03  1488   0.487E+01    0.160E+00
DAV:   2    -0.113615577098E+03   -0.56345E+00   -0.56502E+00  1584   0.476E+00    0.116E+00
DAV:   3    -0.113605496374E+03    0.10081E-01   -0.87503E-02  1600   0.602E-01    0.799E-01
DAV:   4    -0.113591911159E+03    0.13585E-01   -0.17520E-02  1568   0.203E-01    0.472E-01
DAV:   5    -0.113588490275E+03    0.34209E-02   -0.15642E-02  1536   0.186E-01    0.124E-01
DAV:   6    -0.113588661379E+03   -0.17110E-03   -0.21752E-04  1072   0.297E-02    0.674E-02
DAV:   7    -0.113588759417E+03   -0.98038E-04   -0.81136E-05   976   0.169E-02
  56 F= -.11358876E+03 E0= -.11358876E+03  d E =-.470232E-01  mag=    -0.0000
       N       E                     dE             d eps       ncg     rms          rms(c)
DAV:   1    -0.113475250258E+03    0.11341E+00   -0.31206E+02  1488   0.248E+01    0.574E-01
DAV:   2    -0.113616299575E+03   -0.14105E+00   -0.14080E+00  1568   0.235E+00    0.581E-01
DAV:   3    -0.113614365824E+03    0.19338E-02   -0.20705E-02  1600   0.281E-01    0.451E-01
DAV:   4    -0.113610225063E+03    0.41408E-02   -0.41022E-03  1568   0.981E-02    0.288E-01
DAV:   5    -0.113608747275E+03    0.14778E-02   -0.85323E-03  1520   0.135E-01    0.846E-02
DAV:   6    -0.113608794970E+03   -0.47695E-04   -0.86603E-05  1008   0.172E-02
  57 F= -.11360879E+03 E0= -.11360879E+03  d E =-.670587E-01  mag=    -0.0000
       N       E                     dE             d eps       ncg     rms          rms(c)
DAV:   1    -0.113612572532E+03   -0.38253E-02   -0.10524E+02  1488   0.144E+01    0.332E-01
DAV:   2    -0.113659428882E+03   -0.46856E-01   -0.47013E-01  1536   0.136E+00    0.336E-01
DAV:   3    -0.113658737687E+03    0.69119E-03   -0.70068E-03  1584   0.165E-01    0.259E-01
DAV:   4    -0.113657276783E+03    0.14609E-02   -0.15387E-03  1568   0.594E-02    0.159E-01
DAV:   5    -0.113656832461E+03    0.44432E-03   -0.29323E-03  1552   0.797E-02    0.500E-02
DAV:   6    -0.113656836041E+03   -0.35794E-05   -0.34309E-05   928   0.103E-02
  58 F= -.11365684E+03 E0= -.11365684E+03  d E =-.480411E-01  mag=    -0.0000
       N       E                     dE             d eps       ncg     rms          rms(c)
DAV:   1    -0.113518111627E+03    0.13872E+00   -0.42940E+02  1488   0.292E+01    0.783E-01
DAV:   2    -0.113715860350E+03   -0.19775E+00   -0.19818E+00  1536   0.280E+00    0.697E-01
DAV:   3    -0.113712823326E+03    0.30370E-02   -0.30223E-02  1584   0.350E-01    0.505E-01
DAV:   4    -0.113707423853E+03    0.53995E-02   -0.65264E-03  1536   0.123E-01    0.302E-01
DAV:   5    -0.113706041657E+03    0.13822E-02   -0.81259E-03  1536   0.134E-01    0.863E-02
DAV:   6    -0.113706101584E+03   -0.59928E-04   -0.99801E-05  1024   0.182E-02
  59 F= -.11370610E+03 E0= -.11370610E+03  d E =-.973066E-01  mag=    -0.0000
       N       E                     dE             d eps       ncg     rms          rms(c)
DAV:   1    -0.113687239347E+03    0.18802E-01   -0.44956E+01  1488   0.941E+00    0.224E-01
DAV:   2    -0.113707491952E+03   -0.20253E-01   -0.20093E-01  1536   0.888E-01    0.223E-01
DAV:   3    -0.113707239370E+03    0.25258E-03   -0.29731E-03  1584   0.108E-01    0.169E-01
DAV:   4    -0.113706640816E+03    0.59855E-03   -0.76253E-04  1536   0.418E-02    0.999E-02
DAV:   5    -0.113706536067E+03    0.10475E-03   -0.11390E-03  1536   0.501E-02    0.340E-02
DAV:   6    -0.113706541723E+03   -0.56559E-05   -0.19196E-05   944   0.722E-03
  60 F= -.11370654E+03 E0= -.11370654E+03  d E =-.977468E-01  mag=    -0.0000
       N       E                     dE             d eps       ncg     rms          rms(c)
DAV:   1    -0.113685508405E+03    0.21028E-01   -0.16128E+02  1488   0.179E+01    0.459E-01
DAV:   2    -0.113756696555E+03   -0.71188E-01   -0.70867E-01  1520   0.167E+00    0.427E-01
DAV:   3    -0.113755490922E+03    0.12056E-02   -0.10984E-02  1584   0.208E-01    0.323E-01
DAV:   4    -0.113753125974E+03    0.23649E-02   -0.33309E-03  1520   0.862E-02    0.171E-01
DAV:   5    -0.113752791199E+03    0.33477E-03   -0.32304E-03  1552   0.860E-02    0.568E-02
DAV:   6    -0.113752777019E+03    0.14180E-04   -0.72264E-05   944   0.141E-02
  61 F= -.11375278E+03 E0= -.11375278E+03  d E =-.462353E-01  mag=    -0.0000
       N       E                     dE             d eps       ncg     rms          rms(c)
DAV:   1    -0.113676676409E+03    0.76115E-01   -0.19594E+02  1488   0.198E+01    0.516E-01
DAV:   2    -0.113763272726E+03   -0.86596E-01   -0.86331E-01  1520   0.185E+00    0.471E-01
DAV:   3    -0.113761747783E+03    0.15249E-02   -0.13382E-02  1600   0.231E-01    0.353E-01
DAV:   4    -0.113758905777E+03    0.28420E-02   -0.41297E-03  1520   0.959E-02    0.184E-01
DAV:   5    -0.113758540007E+03    0.36577E-03   -0.36152E-03  1552   0.913E-02    0.604E-02
DAV:   6    -0.113758524339E+03    0.15668E-04   -0.87459E-05   928   0.154E-02
  62 F= -.11375852E+03 E0= -.11375852E+03  d E =-.519826E-01  mag=    -0.0000
       N       E                     dE             d eps       ncg     rms          rms(c)
DAV:   1    -0.113752314763E+03    0.62252E-02   -0.23614E+01  1488   0.686E+00    0.170E-01
DAV:   2    -0.113762618193E+03   -0.10303E-01   -0.10249E-01  1552   0.634E-01    0.161E-01
DAV:   3    -0.113762441463E+03    0.17673E-03   -0.14989E-03  1616   0.761E-02    0.124E-01
DAV:   4    -0.113762096376E+03    0.34509E-03   -0.53873E-04  1552   0.345E-02    0.623E-02
DAV:   5    -0.113762074280E+03    0.22096E-04   -0.47393E-04  1568   0.330E-02
  63 F= -.11376207E+03 E0= -.11376207E+03  d E =-.555326E-01  mag=    -0.0000
       N       E                     dE             d eps       ncg     rms          rms(c)
DAV:   1    -0.113768242924E+03   -0.61465E-02   -0.69954E+01  1488   0.118E+01    0.314E-01
DAV:   2    -0.113798829080E+03   -0.30586E-01   -0.30710E-01  1520   0.110E+00    0.294E-01
DAV:   3    -0.113798306649E+03    0.52243E-03   -0.47508E-03  1632   0.133E-01    0.222E-01
DAV:   4    -0.113797219786E+03    0.10869E-02   -0.19287E-03  1504   0.656E-02    0.105E-01
DAV:   5    -0.113797171620E+03    0.48165E-04   -0.10863E-03  1568   0.507E-02    0.404E-02
DAV:   6    -0.113797150136E+03    0.21484E-04   -0.49993E-05   912   0.110E-02
  64 F= -.11379715E+03 E0= -.11379715E+03  d E =-.350759E-01  mag=    -0.0000
       N       E                     dE             d eps       ncg     rms          rms(c)
DAV:   1    -0.113783892270E+03    0.13279E-01   -0.54172E+01  1488   0.104E+01    0.273E-01
DAV:   2    -0.113807562976E+03   -0.23671E-01   -0.23814E-01  1536   0.964E-01    0.255E-01
DAV:   3    -0.113807163453E+03    0.39952E-03   -0.36557E-03  1568   0.116E-01    0.192E-01
DAV:   4    -0.113806349078E+03    0.81438E-03   -0.14312E-03  1536   0.566E-02    0.920E-02
DAV:   5    -0.113806314116E+03    0.34962E-04   -0.85606E-04  1552   0.448E-02
  65 F= -.11380631E+03 E0= -.11380631E+03  d E =-.442398E-01  mag=    -0.0000
       N       E                     dE             d eps       ncg     rms          rms(c)
DAV:   1    -0.113793463372E+03    0.12886E-01   -0.90003E+01  1488   0.134E+01    0.347E-01
DAV:   2    -0.113833886686E+03   -0.40423E-01   -0.40256E-01  1536   0.126E+00    0.332E-01
DAV:   3    -0.113833320143E+03    0.56654E-03   -0.63393E-03  1568   0.158E-01    0.246E-01
DAV:   4    -0.113831993547E+03    0.13266E-02   -0.19962E-03  1568   0.671E-02    0.134E-01
DAV:   5    -0.113831859513E+03    0.13403E-03   -0.18461E-03  1536   0.649E-02    0.481E-02
DAV:   6    -0.113831845931E+03    0.13583E-04   -0.54153E-05   912   0.117E-02
  66 F= -.11383185E+03 E0= -.11383185E+03  d E =-.255318E-01  mag=    -0.0000
       N       E                     dE             d eps       ncg     rms          rms(c)
DAV:   1    -0.113809533596E+03    0.22326E-01   -0.58082E+01  1488   0.108E+01    0.278E-01
DAV:   2    -0.113835432114E+03   -0.25899E-01   -0.25834E-01  1536   0.101E+00    0.271E-01
DAV:   3    -0.113835032010E+03    0.40010E-03   -0.40468E-03  1584   0.126E-01    0.202E-01
DAV:   4    -0.113834122247E+03    0.90976E-03   -0.13816E-03  1568   0.555E-02    0.109E-01
DAV:   5    -0.113834040173E+03    0.82074E-04   -0.12341E-03  1520   0.531E-02    0.401E-02
DAV:   6    -0.113834032741E+03    0.74323E-05   -0.37797E-05   880   0.967E-03
  67 F= -.11383403E+03 E0= -.11383403E+03  d E =-.277186E-01  mag=    -0.0000
       N       E                     dE             d eps       ncg     rms          rms(c)
DAV:   1    -0.113822050054E+03    0.11990E-01   -0.55420E+01  1488   0.105E+01    0.414E-01
DAV:   2    -0.113846609279E+03   -0.24559E-01   -0.25410E-01  1536   0.988E-01    0.326E-01
DAV:   3    -0.113846164582E+03    0.44470E-03   -0.42264E-03  1584   0.124E-01    0.214E-01
DAV:   4    -0.113845715642E+03    0.44894E-03   -0.18377E-03  1552   0.700E-02    0.673E-02
DAV:   5    -0.113845744228E+03   -0.28586E-04   -0.11711E-04   944   0.267E-02
  68 F= -.11384574E+03 E0= -.11384574E+03  d E =-.117115E-01  mag=    -0.0000
       N       E                     dE             d eps       ncg     rms          rms(c)
DAV:   1    -0.113846243193E+03   -0.52755E-03   -0.49339E+00  1488   0.313E+00    0.121E-01
DAV:   2    -0.113848433421E+03   -0.21902E-02   -0.22423E-02  1536   0.294E-01    0.965E-02
DAV:   3    -0.113848388000E+03    0.45421E-04   -0.37180E-04  1408   0.374E-02
  69 F= -.11384839E+03 E0= -.11384839E+03  d E =-.143553E-01  mag=    -0.0000
       N       E                     dE             d eps       ncg     rms          rms(c)
DAV:   1    -0.113847567592E+03    0.86583E-03   -0.23887E+01  1488   0.688E+00    0.177E-01
DAV:   2    -0.113858322629E+03   -0.10755E-01   -0.10755E-01  1520   0.652E-01    0.170E-01
DAV:   3    -0.113858176730E+03    0.14590E-03   -0.16984E-03  1584   0.815E-02    0.128E-01
DAV:   4    -0.113857831612E+03    0.34512E-03   -0.53244E-04  1552   0.346E-02    0.681E-02
DAV:   5    -0.113857801828E+03    0.29784E-04   -0.49480E-04  1552   0.334E-02
  70 F= -.11385780E+03 E0= -.11385780E+03  d E =-.941383E-02  mag=    -0.0000
       N       E                     dE             d eps       ncg     rms          rms(c)
DAV:   1    -0.113855390631E+03    0.24410E-02   -0.83330E+00  1488   0.406E+00    0.108E-01
DAV:   2    -0.113859139321E+03   -0.37487E-02   -0.37774E-02  1536   0.385E-01    0.100E-01
DAV:   3    -0.113859098779E+03    0.40541E-04   -0.59567E-04  1536   0.482E-02
  71 F= -.11385910E+03 E0= -.11385910E+03  d E =-.107108E-01  mag=    -0.0000
       N       E                     dE             d eps       ncg     rms          rms(c)
DAV:   1    -0.113856074299E+03    0.30650E-02   -0.24487E+01  1488   0.697E+00    0.168E-01
DAV:   2    -0.113866805563E+03   -0.10731E-01   -0.10771E-01  1520   0.654E-01    0.181E-01
DAV:   3    -0.113866634810E+03    0.17075E-03   -0.15836E-03  1568   0.772E-02    0.144E-01
DAV:   4    -0.113866168811E+03    0.46600E-03   -0.61108E-04  1536   0.371E-02    0.830E-02
DAV:   5    -0.113866103428E+03    0.65383E-04   -0.79167E-04  1536   0.418E-02
  72 F= -.11386610E+03 E0= -.11386610E+03  d E =-.700465E-02  mag=    -0.0000
       N       E                     dE             d eps       ncg     rms          rms(c)
DAV:   1    -0.113847071893E+03    0.19097E-01   -0.50387E+01  1488   0.100E+01    0.240E-01
DAV:   2    -0.113869646007E+03   -0.22574E-01   -0.22537E-01  1536   0.944E-01    0.241E-01
DAV:   3    -0.113869323384E+03    0.32262E-03   -0.33496E-03  1552   0.114E-01    0.184E-01
DAV:   4    -0.113868559486E+03    0.76390E-03   -0.97902E-04  1552   0.475E-02    0.107E-01
DAV:   5    -0.113868432775E+03    0.12671E-03   -0.12827E-03  1568   0.532E-02    0.385E-02
DAV:   6    -0.113868428844E+03    0.39312E-05   -0.25580E-05   880   0.820E-03
  73 F= -.11386843E+03 E0= -.11386843E+03  d E =-.933006E-02  mag=    -0.0000
       N       E                     dE             d eps       ncg     rms          rms(c)
DAV:   1    -0.113868062128E+03    0.37065E-03   -0.12295E+01  1488   0.494E+00    0.106E-01
DAV:   2    -0.113873475033E+03   -0.54129E-02   -0.53982E-02  1552   0.463E-01    0.118E-01
DAV:   3    -0.113873403843E+03    0.71190E-04   -0.82753E-04  1568   0.563E-02
  74 F= -.11387340E+03 E0= -.11387340E+03  d E =-.497500E-02  mag=    -0.0000
       N       E                     dE             d eps       ncg     rms          rms(c)
DAV:   1    -0.113832602710E+03    0.40872E-01   -0.11107E+02  1488   0.149E+01    0.349E-01
DAV:   2    -0.113880456579E+03   -0.47854E-01   -0.48214E-01  1536   0.139E+00    0.382E-01
DAV:   3    -0.113879567012E+03    0.88957E-03   -0.73668E-03  1600   0.166E-01    0.308E-01
DAV:   4    -0.113877271387E+03    0.22956E-02   -0.26019E-03  1552   0.754E-02    0.181E-01
DAV:   5    -0.113876757392E+03    0.51399E-03   -0.39052E-03  1536   0.926E-02    0.679E-02
DAV:   6    -0.113876759794E+03   -0.24014E-05   -0.57014E-05   928   0.130E-02
  75 F= -.11387676E+03 E0= -.11387676E+03  d E =-.833095E-02  mag=    -0.0000
       N       E                     dE             d eps       ncg     rms          rms(c)
DAV:   1    -0.113873155556E+03    0.36018E-02   -0.21779E+01  1488   0.658E+00    0.154E-01
DAV:   2    -0.113882721497E+03   -0.95659E-02   -0.95580E-02  1552   0.616E-01    0.158E-01
DAV:   3    -0.113882576136E+03    0.14536E-03   -0.14656E-03  1568   0.757E-02    0.123E-01
DAV:   4    -0.113882225210E+03    0.35093E-03   -0.41612E-04  1536   0.303E-02    0.711E-02
DAV:   5    -0.113882159181E+03    0.66029E-04   -0.63596E-04  1520   0.375E-02
  76 F= -.11388216E+03 E0= -.11388216E+03  d E =-.539939E-02  mag=    -0.0000
       N       E                     dE             d eps       ncg     rms          rms(c)
DAV:   1    -0.113873257286E+03    0.89679E-02   -0.24896E+01  1488   0.704E+00    0.167E-01
DAV:   2    -0.113884230049E+03   -0.10973E-01   -0.10972E-01  1536   0.660E-01    0.167E-01
DAV:   3    -0.113884072870E+03    0.15718E-03   -0.16938E-03  1568   0.815E-02    0.128E-01
DAV:   4    -0.113883698023E+03    0.37485E-03   -0.45988E-04  1552   0.319E-02    0.733E-02
DAV:   5    -0.113883631658E+03    0.66365E-04   -0.66006E-04  1552   0.382E-02
  77 F= -.11388363E+03 E0= -.11388363E+03  d E =-.687186E-02  mag=    -0.0000
       N       E                     dE             d eps       ncg     rms          rms(c)
DAV:   1    -0.113884253839E+03   -0.55582E-03   -0.81554E+00  1488   0.403E+00    0.110E-01
DAV:   2    -0.113887845826E+03   -0.35920E-02   -0.36093E-02  1536   0.377E-01    0.102E-01
DAV:   3    -0.113887798139E+03    0.47688E-04   -0.56578E-04  1520   0.471E-02
  78 F= -.11388780E+03 E0= -.11388780E+03  d E =-.416648E-02  mag=    -0.0000
       N       E                     dE             d eps       ncg     rms          rms(c)
DAV:   1    -0.113886584497E+03    0.12613E-02   -0.57104E+00  1488   0.337E+00    0.111E-01
DAV:   2    -0.113888978578E+03   -0.23941E-02   -0.24404E-02  1536   0.311E-01    0.103E-01
DAV:   3    -0.113888907575E+03    0.71003E-04   -0.36152E-04  1216   0.373E-02
  79 F= -.11388891E+03 E0= -.11388891E+03  d E =-.527592E-02  mag=    -0.0000
       N       E                     dE             d eps       ncg     rms          rms(c)
DAV:   1    -0.113888534090E+03    0.44449E-03   -0.69326E+00  1488   0.371E+00    0.964E-02
DAV:   2    -0.113891574453E+03   -0.30404E-02   -0.30577E-02  1536   0.346E-01    0.936E-02
DAV:   3    -0.113891528480E+03    0.45973E-04   -0.44621E-04  1488   0.409E-02
  80 F= -.11389153E+03 E0= -.11389153E+03  d E =-.262091E-02  mag=    -0.0000
       N       E                     dE             d eps       ncg     rms          rms(c)
DAV:   1    -0.113888595722E+03    0.29787E-02   -0.82201E+00  1488   0.404E+00    0.119E-01
DAV:   2    -0.113892120850E+03   -0.35251E-02   -0.35753E-02  1552   0.375E-01    0.115E-01
DAV:   3    -0.113892038759E+03    0.82091E-04   -0.51964E-04  1488   0.436E-02
  81 F= -.11389204E+03 E0= -.11389204E+03  d E =-.313118E-02  mag=    -0.0000
       N       E                     dE             d eps       ncg     rms          rms(c)
DAV:   1    -0.113891537521E+03    0.58333E-03   -0.41253E+00  1488   0.286E+00    0.763E-02
DAV:   2    -0.113893305536E+03   -0.17680E-02   -0.17878E-02  1568   0.265E-01    0.780E-02
DAV:   3    -0.113893270318E+03    0.35218E-04   -0.22699E-04   896   0.303E-02
  82 F= -.11389327E+03 E0= -.11389327E+03  d E =-.123156E-02  mag=     0.0000
       N       E                     dE             d eps       ncg     rms          rms(c)
DAV:   1    -0.113893212399E+03    0.93138E-04   -0.22517E-03  1520   0.692E-02    0.229E-02
DAV:   2    -0.113893214766E+03   -0.23670E-05   -0.93876E-06   912   0.732E-03
  83 F= -.11389321E+03 E0= -.11389321E+03  d E =-.117601E-02  mag=     0.0000
       N       E                     dE             d eps       ncg     rms          rms(c)
DAV:   1    -0.113893901166E+03   -0.68877E-03   -0.63728E-01  1488   0.112E+00    0.410E-02
DAV:   2    -0.113894181363E+03   -0.28020E-03   -0.28632E-03  1600   0.104E-01    0.308E-02
DAV:   3    -0.113894177522E+03    0.38410E-05   -0.42424E-05   896   0.131E-02
  84 F= -.11389418E+03 E0= -.11389418E+03  d E =-.962756E-03  mag=     0.0000
       N       E                     dE             d eps       ncg     rms          rms(c)
DAV:   1    -0.113894358055E+03   -0.17669E-03   -0.21040E-01  1520   0.645E-01    0.272E-02
DAV:   2    -0.113894449035E+03   -0.90980E-04   -0.94687E-04  1568   0.595E-02
  85 F= -.11389445E+03 E0= -.11389445E+03  d E =-.123427E-02  mag=     0.0000
