 vasp.5.3.5 31Mar14 (build Feb 01 2018 12:10:03) gamma-only                     
  
 executed on             LinuxIFC date 2019.04.02  05:15:09
 running on   32 total cores
 distrk:  each k-point on   32 cores,    1 groups
 distr:  one band on NCORES_PER_BAND=   8 cores,    4 groups


--------------------------------------------------------------------------------------------------------


 INCAR:
 POTCAR:    PAW_PBE Cu 22Jun2005                  
 POTCAR:    PAW_PBE Cu 22Jun2005                  
   VRHFIN =Cu: d10 p1                                                           
   LEXCH  = PE                                                                  
   EATOM  =  1390.9808 eV,  102.2342 Ry                                         
                                                                                
   TITEL  = PAW_PBE Cu 22Jun2005                                                
   LULTRA =        F    use ultrasoft PP ?                                      
   IUNSCR =        1    unscreen: 0-lin 1-nonlin 2-no                           
   RPACOR =    2.000    partial core radius                                     
   POMASS =   63.546; ZVAL   =   11.000    mass and valenz                      
   RCORE  =    2.300    outmost cutoff radius                                   
   RWIGS  =    2.200; RWIGS  =    1.164    wigner-seitz radius (au A)           
   ENMAX  =  295.446; ENMIN  =  221.585 eV                                      
   ICORE  =        3    local potential                                         
   LCOR   =        T    correct aug charges                                     
   LPAW   =        T    paw PP                                                  
   EAUG   =  586.980                                                            
   DEXC   =    0.000                                                            
   RMAX   =    2.344    core radius for proj-oper                               
   RAUG   =    1.300    factor for augmentation sphere                          
   RDEP   =    2.302    radius for radial grids                                 
   RDEPT  =    1.771    core radius for aug-charge                              
                                                                                
   Atomic configuration                                                         
    9 entries                                                                   
     n  l   j            E        occ.                                          
     1  0  0.50     -8850.2468   2.0000                                         
     2  0  0.50     -1062.3498   2.0000                                         
     2  1  1.50      -916.8226   6.0000                                         
     3  0  0.50      -114.6929   2.0000                                         
     3  1  1.50       -72.1325   6.0000                                         
     3  2  2.50        -5.0394  10.0000                                         
     4  0  0.50        -4.6097   1.0000                                         
     4  1  0.50        -4.0817   0.0000                                         
     4  3  2.50        -1.3606   0.0000                                         
   Description                                                                  
     l       E           TYP  RCUT    TYP  RCUT                                 
     2     -5.0393973     23  2.200                                             
     2     10.8846608     23  2.200                                             
     0     -4.6097109     23  2.200                                             
     0      8.2520465     23  2.200                                             
     1     -2.7211652     23  2.200                                             
     1     21.7055443     23  2.200                                             
     3      2.7211652     23  2.300                                             
  local pseudopotential read in
  partial core-charges read in
  partial kinetic energy density read in
  atomic valenz-charges read in
  non local Contribution for L=           2  read in
    real space projection operators read in
  non local Contribution for L=           2  read in
    real space projection operators read in
  non local Contribution for L=           0  read in
    real space projection operators read in
  non local Contribution for L=           0  read in
    real space projection operators read in
  non local Contribution for L=           1  read in
    real space projection operators read in
  non local Contribution for L=           1  read in
    real space projection operators read in
    PAW grid and wavefunctions read in
 
   number of l-projection  operators is LMAX  =           6
   number of lm-projection operators is LMMAX =          18
 
  PAW_PBE Cu 22Jun2005                  :
 energy of atom  1       EATOM=-1390.9808
 kinetic energy error for atom=    0.0452 (will be added to EATOM!!)
 
 
 POSCAR: Al12, -32.90270182 <s> Cu </s>          
  positions in direct lattice
  No initial velocities read in
 exchange correlation table for  LEXCH =        8
   RHO(1)=    0.500       N(1)  =     2000
   RHO(2)=  100.500       N(2)  =     4000
 


--------------------------------------------------------------------------------------------------------


 ion  position               nearest neighbor table
   1  0.559  0.552  0.485-   2 2.28   3 2.28   5 2.47   4 2.63
   2  0.437  0.567  0.496-   1 2.28   6 2.29   7 2.33   5 2.51  11 2.69   4 2.74
   3  0.612  0.451  0.437-   8 2.26   1 2.28   4 2.59   5 2.68
   4  0.489  0.429  0.500-   5 2.42  12 2.42  11 2.45   8 2.47   6 2.50   3 2.59   1 2.63   9 2.73
                             2 2.74
   5  0.483  0.497  0.389-  11 2.41   4 2.42  10 2.45   1 2.47   2 2.51   8 2.51   3 2.68
   6  0.387  0.483  0.571-   2 2.29   9 2.32   4 2.50  11 2.52
   7  0.345  0.572  0.409-   2 2.33  11 2.38
   8  0.533  0.371  0.389-   3 2.26  10 2.34  12 2.34   4 2.47   5 2.51
   9  0.366  0.362  0.548-   6 2.32  12 2.33  11 2.59   4 2.73
  10  0.423  0.394  0.332-   8 2.34  11 2.42  12 2.45   5 2.45
  11  0.373  0.450  0.440-   7 2.38   5 2.41  10 2.42   4 2.45  12 2.51   6 2.52   9 2.59   2 2.69

  12  0.429  0.326  0.445-   9 2.33   8 2.34   4 2.42  10 2.45  11 2.51
 
  LATTYP: Found a simple cubic cell.
 ALAT       =    18.5057750711
  
  Lattice vectors:
  
 A1 = (  18.5057750711,   0.0000000000,   0.0000000000)
 A2 = (   0.0000000000,  18.5057750711,   0.0000000000)
 A3 = (   0.0000000000,   0.0000000000,  18.5057750711)


Analysis of symmetry for initial positions (statically):
=====================================================================
 Subroutine PRICEL returns:
 Original cell was already a primitive cell.
 

 Routine SETGRP: Setting up the symmetry group for a 
 simple cubic supercell.


 Subroutine GETGRP returns: Found  1 space group operations
 (whereof  1 operations were pure point group operations)
 out of a pool of 48 trial point group operations.


The static configuration has the point symmetry C_1 .


Analysis of symmetry for dynamics (positions and initial velocities):
=====================================================================
 Subroutine PRICEL returns:
 Original cell was already a primitive cell.
 

 Routine SETGRP: Setting up the symmetry group for a 
 simple cubic supercell.


 Subroutine GETGRP returns: Found  1 space group operations
 (whereof  1 operations were pure point group operations)
 out of a pool of 48 trial point group operations.


The dynamic configuration has the point symmetry C_1 .


Analysis of magnetic symmetry:
=====================================================================
 Subroutine PRICEL returns:
 Original cell was already a primitive cell.
 

 Subroutine MAGSYM returns: Found  1 space group operations
 (whereof  1 operations were pure point group operations)
 out of a pool of  1 trial space group operations
 (whereof  1 operations were pure point group operations)
 and found also     1 'primitive' translations


The magnetic configuration has the point symmetry C_1 .
 
 
 KPOINTS: Gamma-point only                        
  k-points in reciprocal lattice
Space group operators:
 irot       det(A)        alpha          n_x          n_y          n_z        tau_x        tau_y        tau_z
    1     1.000000     0.000001     1.000000     0.000000     0.000000     0.000000     0.000000     0.000000


--------------------------------------------------------------------------------------------------------




 Dimension of arrays:
   k-points           NKPTS =      1   k-points in BZ     NKDIM =      1   number of bands    NBANDS=     88
   number of dos      NEDOS =    301   number of ions     NIONS =     12
   non local maximal  LDIM  =      6   non local SUM 2l+1 LMDIM =     18
   total plane-waves  NPLWV = 512000
   max r-space proj   IRMAX =      1   max aug-charges    IRDMAX=   2539
   dimension x,y,z NGX =    80 NGY =   80 NGZ =   80
   dimension x,y,z NGXF=   160 NGYF=  160 NGZF=  160
   support grid    NGXF=   160 NGYF=  160 NGZF=  160
   ions per type =              12
 NGX,Y,Z   is equivalent  to a cutoff of   7.19,  7.19,  7.19 a.u.
 NGXF,Y,Z  is equivalent  to a cutoff of  14.37, 14.37, 14.37 a.u.


 I would recommend the setting:
   dimension x,y,z NGX =    78 NGY =   78 NGZ =   78
 SYSTEM =  unknown system                          
 POSCAR =  Al12, -32.90270182 <s> Cu </s>          

 Startparameter for this run:
   NWRITE =      2    write-flag & timer
   PREC   = normal    normal or accurate (medium, high low for compatibility)
   ISTART =      0    job   : 0-new  1-cont  2-samecut
   ICHARG =      2    charge: 1-file 2-atom 10-const
   ISPIN  =      2    spin polarized calculation?
   LNONCOLLINEAR =      F non collinear calculations
   LSORBIT =      F    spin-orbit coupling
   INIWAV =      1    electr: 0-lowe 1-rand  2-diag
   LASPH  =      F    aspherical Exc in radial PAW
   METAGGA=      F    non-selfconsistent MetaGGA calc.

 Electronic Relaxation 1
   ENCUT  =  295.4 eV  21.71 Ry    4.66 a.u.  25.94 25.94 25.94*2*pi/ulx,y,z
   ENINI  =  295.4     initial cutoff
   ENAUG  =  587.0 eV  augmentation charge cutoff
   NELM   =     60;   NELMIN=  2; NELMDL= -5     # of ELM steps 
   EDIFF  = 0.1E-03   stopping-criterion for ELM
   LREAL  =      F    real-space projection
   NLSPLINE    = F    spline interpolate recip. space projectors
   LCOMPAT=      F    compatible to vasp.4.4
   GGA_COMPAT  = T    GGA compatible to vasp.4.4-vasp.4.6
   LMAXPAW     = -100 max onsite density
   LMAXMIX     =    2 max onsite mixed and CHGCAR
   VOSKOWN=      0    Vosko Wilk Nusair interpolation
   ROPT   =    0.00000
 Ionic relaxation
   EDIFFG = 0.1E-02   stopping-criterion for IOM
   NSW    =   1000    number of steps for IOM
   NBLOCK =      1;   KBLOCK =   1000    inner block; outer block 
   IBRION =      2    ionic relax: 0-MD 1-quasi-New 2-CG
   NFREE  =      1    steps in history (QN), initial steepest desc. (CG)
   ISIF   =      2    stress and relaxation
   IWAVPR =     11    prediction:  0-non 1-charg 2-wave 3-comb
   ISYM   =      2    0-nonsym 1-usesym 2-fastsym
   LCORR  =      T    Harris-Foulkes like correction to forces

   POTIM  = 0.1000    time-step for ionic-motion
   TEIN   =    0.0    initial temperature
   TEBEG  =    0.0;   TEEND  =   0.0 temperature during run
   SMASS  =  -3.00    Nose mass-parameter (am)
   estimated Nose-frequenzy (Omega)   =  0.10E-29 period in steps =****** mass=  -0.783E-26a.u.
   SCALEE = 1.0000    scale energy and forces
   NPACO  =    256;   APACO  = 16.0  distance and # of slots for P.C.
   PSTRESS=    0.0 pullay stress

  Mass of Ions in am
   POMASS =  63.55
  Ionic Valenz
   ZVAL   =  11.00
  Atomic Wigner-Seitz radii
   RWIGS  =  -1.00
  virtual crystal weights 
   VCA    =   1.00
   NELECT =     132.0000    total number of electrons
   NUPDOWN=      -1.0000    fix difference up-down

 DOS related values:
   EMIN   =  10.00;   EMAX   =-10.00  energy-range for DOS
   EFERMI =   0.00
   ISMEAR =     0;   SIGMA  =   0.00  broadening in eV -4-tet -1-fermi 0-gaus

 Electronic relaxation 2 (details)
   IALGO  =     38    algorithm
   LDIAG  =      T    sub-space diagonalisation (order eigenvalues)
   LSUBROT=      F    optimize rotation matrix (better conditioning)
   TURBO    =      0    0=normal 1=particle mesh
   IRESTART =      0    0=no restart 2=restart with 2 vectors
   NREBOOT  =      0    no. of reboots
   NMIN     =      0    reboot dimension
   EREF     =   0.00    reference energy to select bands
   IMIX   =      4    mixing-type and parameters
     AMIX     =   0.40;   BMIX     =  1.00
     AMIX_MAG =   1.60;   BMIX_MAG =  1.00
     AMIN     =   0.10
     WC   =   100.;   INIMIX=   1;  MIXPRE=   1;  MAXMIX= -45

 Intra band minimization:
   WEIMIN = 0.0010     energy-eigenvalue tresh-hold
   EBREAK =  0.28E-06  absolut break condition
   DEPER  =   0.30     relativ break condition  

   TIME   =   0.40     timestep for ELM

  volume/ion in A,a.u.               =     528.13      3564.00
  Fermi-wavevector in a.u.,A,eV,Ry     =   0.450428  0.851186  2.760425  0.202886
  Thomas-Fermi vector in A             =   1.431089
 
 Write flags
   LWAVE  =      F    write WAVECAR
   LCHARG =      F    write CHGCAR
   LVTOT  =      F    write LOCPOT, total local potential
   LVHAR  =      F    write LOCPOT, Hartree potential only
   LELF   =      F    write electronic localiz. function (ELF)
   LORBIT =      0    0 simple, 1 ext, 2 COOP (PROOUT)


 Dipole corrections
   LMONO  =      F    monopole corrections only (constant potential shift)
   LDIPOL =      F    correct potential (dipole corrections)
   IDIPOL =      0    1-x, 2-y, 3-z, 4-all directions 
   EPSILON=  1.0000000 bulk dielectric constant

 Exchange correlation treatment:
   GGA     =    PE    GGA type
   LEXCH   =     8    internal setting for exchange type
   VOSKOWN=      0    Vosko Wilk Nusair interpolation
   LHFCALC =     F    Hartree Fock is set to
   LHFONE  =     F    Hartree Fock one center treatment
   AEXX    =    0.0000 exact exchange contribution

 Linear response parameters
   LEPSILON=     F    determine dielectric tensor
   LRPA    =     F    only Hartree local field effects (RPA)
   LNABLA  =     F    use nabla operator in PAW spheres
   LVEL    =     F    velocity operator in full k-point grid
   LINTERFAST=   F  fast interpolation
   KINTER  =     0    interpolate to denser k-point grid
   CSHIFT  =0.1000    complex shift for real part using Kramers Kronig
   OMEGAMAX=  -1.0    maximum frequency
   DEG_THRESHOLD= 0.2000000E-02 threshold for treating states as degnerate
   RTIME   =    0.100 relaxation time in fs

 Orbital magnetization related:
   ORBITALMAG=     F  switch on orbital magnetization
   LCHIMAG   =     F  perturbation theory with respect to B field
   DQ        =  0.001000  dq finite difference perturbation B field



--------------------------------------------------------------------------------------------------------


 conjugate gradient relaxation of ions
 charge density and potential will be updated during run
 spin polarized calculation
 Variant of blocked Davidson
 Davidson routine will perform the subspace rotation
 perform sub-space diagonalisation
    after iterative eigenvector-optimisation
 modified Broyden-mixing scheme, WC =      100.0
 initial mixing is a Kerker type mixing with AMIX =  0.4000 and BMIX =      1.0000
 Hartree-type preconditioning will be used
 using additional bands           22
 reciprocal scheme for non local part
 use partial core corrections
 calculate Harris-corrections to forces 
   (improved forces if not selfconsistent)
 use gradient corrections 
 use of overlap-Matrix (Vanderbilt PP)
 Gauss-broadening in eV      SIGMA  =   0.00


--------------------------------------------------------------------------------------------------------


  energy-cutoff  :      295.45
  volume of cell :     6337.56
      direct lattice vectors                 reciprocal lattice vectors
    18.505775071  0.000000000  0.000000000     0.054037185  0.000000000  0.000000000
     0.000000000 18.505775071  0.000000000     0.000000000  0.054037185  0.000000000
     0.000000000  0.000000000 18.505775071     0.000000000  0.000000000  0.054037185

  length of vectors
    18.505775071 18.505775071 18.505775071     0.054037185  0.054037185  0.054037185


 
 k-points in units of 2pi/SCALE and weight: Gamma-point only                        
   0.00000000  0.00000000  0.00000000       1.000
 
 k-points in reciprocal lattice and weights: Gamma-point only                        
   0.00000000  0.00000000  0.00000000       1.000
 
 position of ions in fractional coordinates (direct lattice) 
   0.55877657  0.55164716  0.48499727
   0.43718205  0.56731524  0.49555951
   0.61161246  0.45097852  0.43746972
   0.48884197  0.42889058  0.50045153
   0.48331101  0.49734114  0.38901372
   0.38656445  0.48296739  0.57063893
   0.34527981  0.57161309  0.40941439
   0.53306076  0.37116601  0.38864124
   0.36644604  0.36154001  0.54823760
   0.42256257  0.39431952  0.33188620
   0.37286001  0.44961318  0.43953506
   0.42899244  0.32639795  0.44503246
 
 position of ions in cartesian coordinates  (Angst):
  10.34059352 10.20865824  8.97525032
   8.09039267 10.49860816  9.17071281
  11.31836258  8.34570697  8.09571627
   9.04639953  7.93695259  9.26124340
   8.94404491  9.20368333  7.19900046
   7.15367483  8.93768593 10.56011561
   6.38967051 10.57814336  7.57653068
   9.86470261  6.86871468  7.19210745
   6.78136795  6.69057808 10.14556173
   7.81984794  7.29718834  6.14181129
   6.90006342  8.32044041  8.13393697
   7.93883766  6.04024707  8.23567065
 


--------------------------------------------------------------------------------------------------------


 use parallel FFT for wavefunctions z direction half grid
 k-point  1 :   0.0000 0.0000 0.0000  plane waves:   36396

 maximum and minimum number of plane-waves per node :      4553     4544

 maximum number of plane-waves:     36396
 maximum index in each direction: 
   IXMAX=   25   IYMAX=   25   IZMAX=   25
   IXMIN=  -25   IYMIN=  -25   IZMIN=    0

 WARNING: aliasing errors must be expected set NGX to 102 to avoid them
 WARNING: aliasing errors must be expected set NGY to 102 to avoid them
 WARNING: aliasing errors must be expected set NGZ to 102 to avoid them
 aliasing errors are usually negligible using standard VASP settings
 and one can safely disregard these warnings

 parallel 3D FFT for wavefunctions:
    minimum data exchange during FFTs selected (reduces bandwidth)
 parallel 3D FFT for charge:
    minimum data exchange during FFTs selected (reduces bandwidth)


 total amount of memory used by VASP on root node    55000. kBytes
========================================================================

   base      :      30000. kBytes
   nonl-proj :       1529. kBytes
   fftplans  :       5772. kBytes
   grid      :      14451. kBytes
   one-center:         31. kBytes
   wavefun   :       3217. kBytes
 
     INWAV:  cpu time    0.00: real time    0.00
 Broyden mixing: mesh for mixing (old mesh)
   NGX = 51   NGY = 51   NGZ = 51
  (NGX  =160   NGY  =160   NGZ  =160)
  gives a total of 132651 points

 initial charge density was supplied:
 charge density of overlapping atoms calculated
 number of electron     132.0000000 magnetization      12.0000000
 keeping initial charge density in first step


--------------------------------------------------------------------------------------------------------


 Maximum index for augmentation-charges          198 (set IRDMAX)


--------------------------------------------------------------------------------------------------------


 First call to EWALD:  gamma=   0.096
 Maximum number of real-space cells 3x 3x 3
 Maximum number of reciprocal cells 3x 3x 3

 FEWALD executed in parallel
    FEWALD:  cpu time    0.00: real time    0.00


----------------------------------------- Iteration    1(   1)  ---------------------------------------


    POTLOK:  cpu time    0.23: real time    0.23
    SETDIJ:  cpu time    0.01: real time    0.01
     EDDAV:  cpu time    0.88: real time    0.88
       DOS:  cpu time    0.00: real time    0.00
    --------------------------------------------
      LOOP:  cpu time    1.12: real time    1.14

 eigenvalue-minimisations  :   352
 total energy-change (2. order) : 0.8517237E+03  (-0.2455932E+04)
 number of electron     132.0000000 magnetization      12.0000000
 augmentation part      132.0000000 magnetization      12.0000000

 Free energy of the ion-electron system (eV)
  ---------------------------------------------------
  alpha Z        PSCENC =        16.61700987
  Ewald energy   TEWEN  =     17778.33987033
  -Hartree energ DENC   =    -32998.44498082
  -exchange      EXHF   =         0.00000000
  -V(xc)+E(xc)   XCENC  =       539.49037997
  PAW double counting   =     14737.16995259   -16007.05117830
  entropy T*S    EENTRO =         0.00000000
  eigenvalues    EBANDS =        94.37563871
  atomic energy  EATOM  =     16691.22701589
  ---------------------------------------------------
  free energy    TOTEN  =       851.72370824 eV

  energy without entropy =      851.72370824  energy(sigma->0) =      851.72370824


--------------------------------------------------------------------------------------------------------




----------------------------------------- Iteration    1(   2)  ---------------------------------------


     EDDAV:  cpu time    0.90: real time    0.90
       DOS:  cpu time    0.00: real time    0.00
    --------------------------------------------
      LOOP:  cpu time    0.90: real time    0.91

 eigenvalue-minimisations  :   368
 total energy-change (2. order) :-0.7506898E+03  (-0.6786831E+03)
 number of electron     132.0000000 magnetization      12.0000000
 augmentation part      132.0000000 magnetization      12.0000000

 Free energy of the ion-electron system (eV)
  ---------------------------------------------------
  alpha Z        PSCENC =        16.61700987
  Ewald energy   TEWEN  =     17778.33987033
  -Hartree energ DENC   =    -32998.44498082
  -exchange      EXHF   =         0.00000000
  -V(xc)+E(xc)   XCENC  =       539.49037997
  PAW double counting   =     14737.16995259   -16007.05117830
  entropy T*S    EENTRO =         0.00000000
  eigenvalues    EBANDS =      -656.31420742
  atomic energy  EATOM  =     16691.22701589
  ---------------------------------------------------
  free energy    TOTEN  =       101.03386211 eV

  energy without entropy =      101.03386211  energy(sigma->0) =      101.03386211


--------------------------------------------------------------------------------------------------------




----------------------------------------- Iteration    1(   3)  ---------------------------------------


     EDDAV:  cpu time    1.02: real time    1.02
       DOS:  cpu time    0.00: real time    0.00
    --------------------------------------------
      LOOP:  cpu time    1.02: real time    1.03

 eigenvalue-minimisations  :   424
 total energy-change (2. order) :-0.1193517E+03  (-0.1125380E+03)
 number of electron     132.0000000 magnetization      12.0000000
 augmentation part      132.0000000 magnetization      12.0000000

 Free energy of the ion-electron system (eV)
  ---------------------------------------------------
  alpha Z        PSCENC =        16.61700987
  Ewald energy   TEWEN  =     17778.33987033
  -Hartree energ DENC   =    -32998.44498082
  -exchange      EXHF   =         0.00000000
  -V(xc)+E(xc)   XCENC  =       539.49037997
  PAW double counting   =     14737.16995259   -16007.05117830
  entropy T*S    EENTRO =         0.00000000
  eigenvalues    EBANDS =      -775.66588783
  atomic energy  EATOM  =     16691.22701589
  ---------------------------------------------------
  free energy    TOTEN  =       -18.31781830 eV

  energy without entropy =      -18.31781830  energy(sigma->0) =      -18.31781830


--------------------------------------------------------------------------------------------------------




----------------------------------------- Iteration    1(   4)  ---------------------------------------


     EDDAV:  cpu time    0.98: real time    0.98
       DOS:  cpu time    0.00: real time    0.00
    --------------------------------------------
      LOOP:  cpu time    0.98: real time    1.09

 eigenvalue-minimisations  :   400
 total energy-change (2. order) :-0.1340595E+02  (-0.1238894E+02)
 number of electron     132.0000000 magnetization      12.0000000
 augmentation part      132.0000000 magnetization      12.0000000

 Free energy of the ion-electron system (eV)
  ---------------------------------------------------
  alpha Z        PSCENC =        16.61700987
  Ewald energy   TEWEN  =     17778.33987033
  -Hartree energ DENC   =    -32998.44498082
  -exchange      EXHF   =         0.00000000
  -V(xc)+E(xc)   XCENC  =       539.49037997
  PAW double counting   =     14737.16995259   -16007.05117830
  entropy T*S    EENTRO =         0.00000000
  eigenvalues    EBANDS =      -789.07183761
  atomic energy  EATOM  =     16691.22701589
  ---------------------------------------------------
  free energy    TOTEN  =       -31.72376808 eV

  energy without entropy =      -31.72376808  energy(sigma->0) =      -31.72376808


--------------------------------------------------------------------------------------------------------




----------------------------------------- Iteration    1(   5)  ---------------------------------------


     EDDAV:  cpu time    0.99: real time    0.99
       DOS:  cpu time    0.00: real time    0.00
    CHARGE:  cpu time    0.06: real time    0.06
    MIXING:  cpu time    0.01: real time    0.01
    --------------------------------------------
      LOOP:  cpu time    1.06: real time    1.06

 eigenvalue-minimisations  :   408
 total energy-change (2. order) :-0.4173009E+00  (-0.4165051E+00)
 number of electron     131.9999761 magnetization      10.6769624
 augmentation part       80.5681359 magnetization       8.7398852

 Broyden mixing:
  rms(total) = 0.25666E+01    rms(broyden)= 0.25657E+01
  rms(prec ) = 0.26898E+01
  weight for this iteration     100.00

 Free energy of the ion-electron system (eV)
  ---------------------------------------------------
  alpha Z        PSCENC =        16.61700987
  Ewald energy   TEWEN  =     17778.33987033
  -Hartree energ DENC   =    -32998.44498082
  -exchange      EXHF   =         0.00000000
  -V(xc)+E(xc)   XCENC  =       539.49037997
  PAW double counting   =     14737.16995259   -16007.05117830
  entropy T*S    EENTRO =         0.00000000
  eigenvalues    EBANDS =      -789.48913853
  atomic energy  EATOM  =     16691.22701589
  ---------------------------------------------------
  free energy    TOTEN  =       -32.14106900 eV

  energy without entropy =      -32.14106900  energy(sigma->0) =      -32.14106900


--------------------------------------------------------------------------------------------------------




----------------------------------------- Iteration    1(   6)  ---------------------------------------


    POTLOK:  cpu time    0.22: real time    0.22
    SETDIJ:  cpu time    0.01: real time    0.01
     EDDAV:  cpu time    0.91: real time    0.91
       DOS:  cpu time    0.00: real time    0.00
    CHARGE:  cpu time    0.06: real time    0.05
    MIXING:  cpu time    0.01: real time    0.01
    --------------------------------------------
      LOOP:  cpu time    1.20: real time    1.21

 eigenvalue-minimisations  :   368
 total energy-change (2. order) : 0.1069677E+02  (-0.9741843E+01)
 number of electron     131.9999734 magnetization       9.8708318
 augmentation part       87.6000937 magnetization       5.1511427

 Broyden mixing:
  rms(total) = 0.11732E+01    rms(broyden)= 0.11725E+01
  rms(prec ) = 0.12844E+01
  weight for this iteration     100.00

 eigenvalues of (default mixing * dielectric matrix)
  average eigenvalue GAMMA=   0.8518
  0.8518

 Free energy of the ion-electron system (eV)
  ---------------------------------------------------
  alpha Z        PSCENC =        16.61700987
  Ewald energy   TEWEN  =     17778.33987033
  -Hartree energ DENC   =    -32787.81232450
  -exchange      EXHF   =         0.00000000
  -V(xc)+E(xc)   XCENC  =       534.32117935
  PAW double counting   =     14896.96888228   -16124.85301513
  entropy T*S    EENTRO =         0.00000000
  eigenvalues    EBANDS =     -1026.25291332
  atomic energy  EATOM  =     16691.22701589
  ---------------------------------------------------
  free energy    TOTEN  =       -21.44429522 eV

  energy without entropy =      -21.44429522  energy(sigma->0) =      -21.44429522


--------------------------------------------------------------------------------------------------------




----------------------------------------- Iteration    1(   7)  ---------------------------------------


    POTLOK:  cpu time    0.22: real time    0.22
    SETDIJ:  cpu time    0.01: real time    0.01
     EDDAV:  cpu time    0.98: real time    0.99
       DOS:  cpu time    0.00: real time    0.00
    CHARGE:  cpu time    0.06: real time    0.05
    MIXING:  cpu time    0.00: real time    0.01
    --------------------------------------------
      LOOP:  cpu time    1.28: real time    1.29

 eigenvalue-minimisations  :   408
 total energy-change (2. order) : 0.7790572E+01  (-0.2497076E+01)
 number of electron     131.9999745 magnetization       8.9170972
 augmentation part       85.1808561 magnetization       4.1242019

 Broyden mixing:
  rms(total) = 0.45019E+00    rms(broyden)= 0.44992E+00
  rms(prec ) = 0.48518E+00
  weight for this iteration     100.00

 eigenvalues of (default mixing * dielectric matrix)
  average eigenvalue GAMMA=   0.8536
  0.6583  1.0488

 Free energy of the ion-electron system (eV)
  ---------------------------------------------------
  alpha Z        PSCENC =        16.61700987
  Ewald energy   TEWEN  =     17778.33987033
  -Hartree energ DENC   =    -32930.60737334
  -exchange      EXHF   =         0.00000000
  -V(xc)+E(xc)   XCENC  =       543.51555707
  PAW double counting   =     15186.32869632   -16461.93723434
  entropy T*S    EENTRO =         0.00000000
  eigenvalues    EBANDS =      -837.13726472
  atomic energy  EATOM  =     16691.22701589
  ---------------------------------------------------
  free energy    TOTEN  =       -13.65372291 eV

  energy without entropy =      -13.65372291  energy(sigma->0) =      -13.65372291


--------------------------------------------------------------------------------------------------------




----------------------------------------- Iteration    1(   8)  ---------------------------------------


    POTLOK:  cpu time    0.22: real time    0.22
    SETDIJ:  cpu time    0.01: real time    0.01
     EDDAV:  cpu time    1.00: real time    1.00
       DOS:  cpu time    0.00: real time    0.00
    CHARGE:  cpu time    0.06: real time    0.05
    MIXING:  cpu time    0.01: real time    0.01
    --------------------------------------------
      LOOP:  cpu time    1.30: real time    1.30

 eigenvalue-minimisations  :   416
 total energy-change (2. order) : 0.1831742E+01  (-0.6508318E+00)
 number of electron     131.9999746 magnetization       8.2193718
 augmentation part       84.5475767 magnetization       3.2812780

 Broyden mixing:
  rms(total) = 0.42758E+00    rms(broyden)= 0.42739E+00
  rms(prec ) = 0.46098E+00
  weight for this iteration     100.00

 eigenvalues of (default mixing * dielectric matrix)
  average eigenvalue GAMMA=   0.7877
  1.2099  0.6026  0.5506

 Free energy of the ion-electron system (eV)
  ---------------------------------------------------
  alpha Z        PSCENC =        16.61700987
  Ewald energy   TEWEN  =     17778.33987033
  -Hartree energ DENC   =    -32966.16730949
  -exchange      EXHF   =         0.00000000
  -V(xc)+E(xc)   XCENC  =       545.63000717
  PAW double counting   =     15384.50237661   -16672.01547305
  entropy T*S    EENTRO =         0.00000000
  eigenvalues    EBANDS =      -789.95547851
  atomic energy  EATOM  =     16691.22701589
  ---------------------------------------------------
  free energy    TOTEN  =       -11.82198118 eV

  energy without entropy =      -11.82198118  energy(sigma->0) =      -11.82198118


--------------------------------------------------------------------------------------------------------




----------------------------------------- Iteration    1(   9)  ---------------------------------------


    POTLOK:  cpu time    0.22: real time    0.22
    SETDIJ:  cpu time    0.00: real time    0.01
     EDDAV:  cpu time    1.11: real time    1.11
       DOS:  cpu time    0.00: real time    0.00
    CHARGE:  cpu time    0.06: real time    0.05
    MIXING:  cpu time    0.01: real time    0.01
    --------------------------------------------
      LOOP:  cpu time    1.40: real time    1.43

 eigenvalue-minimisations  :   480
 total energy-change (2. order) :-0.5697689E+00  (-0.1549646E+00)
 number of electron     131.9999748 magnetization       7.0582963
 augmentation part       84.4322407 magnetization       2.1766200

 Broyden mixing:
  rms(total) = 0.26484E+00    rms(broyden)= 0.26475E+00
  rms(prec ) = 0.27822E+00
  weight for this iteration     100.00

 eigenvalues of (default mixing * dielectric matrix)
  average eigenvalue GAMMA=   0.9654
  1.3009  1.3009  0.4570  0.8031

 Free energy of the ion-electron system (eV)
  ---------------------------------------------------
  alpha Z        PSCENC =        16.61700987
  Ewald energy   TEWEN  =     17778.33987033
  -Hartree energ DENC   =    -32973.82065289
  -exchange      EXHF   =         0.00000000
  -V(xc)+E(xc)   XCENC  =       544.78677073
  PAW double counting   =     15478.15187224   -16768.09220609
  entropy T*S    EENTRO =         0.00000000
  eigenvalues    EBANDS =      -779.60143011
  atomic energy  EATOM  =     16691.22701589
  ---------------------------------------------------
  free energy    TOTEN  =       -12.39175004 eV

  energy without entropy =      -12.39175004  energy(sigma->0) =      -12.39175004


--------------------------------------------------------------------------------------------------------




----------------------------------------- Iteration    1(  10)  ---------------------------------------


    POTLOK:  cpu time    0.22: real time    0.23
    SETDIJ:  cpu time    0.01: real time    0.01
     EDDAV:  cpu time    1.03: real time    1.03
       DOS:  cpu time    0.00: real time    0.00
    CHARGE:  cpu time    0.05: real time    0.05
    MIXING:  cpu time    0.01: real time    0.01
    --------------------------------------------
      LOOP:  cpu time    1.32: real time    1.33

 eigenvalue-minimisations  :   432
 total energy-change (2. order) :-0.5016464E+01  (-0.2859520E+00)
 number of electron     131.9999745 magnetization       6.3581058
 augmentation part       84.9643331 magnetization       1.8582780

 Broyden mixing:
  rms(total) = 0.16809E+00    rms(broyden)= 0.16799E+00
  rms(prec ) = 0.17665E+00
  weight for this iteration     100.00

 eigenvalues of (default mixing * dielectric matrix)
  average eigenvalue GAMMA=   1.0585
  1.7461  1.7461  0.6689  0.6689  0.4622

 Free energy of the ion-electron system (eV)
  ---------------------------------------------------
  alpha Z        PSCENC =        16.61700987
  Ewald energy   TEWEN  =     17778.33987033
  -Hartree energ DENC   =    -32954.47638888
  -exchange      EXHF   =         0.00000000
  -V(xc)+E(xc)   XCENC  =       539.52206998
  PAW double counting   =     15518.47587546   -16801.88289156
  entropy T*S    EENTRO =         0.00000000
  eigenvalues    EBANDS =      -805.23077526
  atomic energy  EATOM  =     16691.22701589
  ---------------------------------------------------
  free energy    TOTEN  =       -17.40821417 eV

  energy without entropy =      -17.40821417  energy(sigma->0) =      -17.40821417


--------------------------------------------------------------------------------------------------------




----------------------------------------- Iteration    1(  11)  ---------------------------------------


    POTLOK:  cpu time    0.22: real time    0.22
    SETDIJ:  cpu time    0.00: real time    0.01
     EDDAV:  cpu time    1.07: real time    1.07
       DOS:  cpu time    0.00: real time    0.00
    CHARGE:  cpu time    0.06: real time    0.05
    MIXING:  cpu time    0.01: real time    0.01
    --------------------------------------------
      LOOP:  cpu time    1.37: real time    1.37

 eigenvalue-minimisations  :   456
 total energy-change (2. order) :-0.3325023E+01  (-0.1173702E+00)
 number of electron     131.9999745 magnetization       5.8165247
 augmentation part       84.8907121 magnetization       1.5510823

 Broyden mixing:
  rms(total) = 0.11699E+00    rms(broyden)= 0.11695E+00
  rms(prec ) = 0.12297E+00
  weight for this iteration     100.00

 eigenvalues of (default mixing * dielectric matrix)
  average eigenvalue GAMMA=   1.0612
  1.9150  1.9150  0.7628  0.7628  0.4690  0.5429

 Free energy of the ion-electron system (eV)
  ---------------------------------------------------
  alpha Z        PSCENC =        16.61700987
  Ewald energy   TEWEN  =     17778.33987033
  -Hartree energ DENC   =    -32957.51701914
  -exchange      EXHF   =         0.00000000
  -V(xc)+E(xc)   XCENC  =       536.89387057
  PAW double counting   =     15531.67639859   -16815.70890592
  entropy T*S    EENTRO =         0.00000000
  eigenvalues    EBANDS =      -802.26147719
  atomic energy  EATOM  =     16691.22701589
  ---------------------------------------------------
  free energy    TOTEN  =       -20.73323699 eV

  energy without entropy =      -20.73323699  energy(sigma->0) =      -20.73323699


--------------------------------------------------------------------------------------------------------




----------------------------------------- Iteration    1(  12)  ---------------------------------------


    POTLOK:  cpu time    0.22: real time    0.23
    SETDIJ:  cpu time    0.01: real time    0.01
     EDDAV:  cpu time    1.10: real time    1.10
       DOS:  cpu time    0.00: real time    0.00
    CHARGE:  cpu time    0.05: real time    0.05
    MIXING:  cpu time    0.01: real time    0.01
    --------------------------------------------
      LOOP:  cpu time    1.39: real time    1.40

 eigenvalue-minimisations  :   472
 total energy-change (2. order) :-0.2408959E+01  (-0.7894351E-01)
 number of electron     131.9999746 magnetization       5.2670837
 augmentation part       84.7152425 magnetization       1.1949019

 Broyden mixing:
  rms(total) = 0.70476E-01    rms(broyden)= 0.70439E-01
  rms(prec ) = 0.74460E-01
  weight for this iteration     100.00

 eigenvalues of (default mixing * dielectric matrix)
  average eigenvalue GAMMA=   1.1518
  2.3582  2.3582  0.9180  0.7263  0.7263  0.4623  0.5134

 Free energy of the ion-electron system (eV)
  ---------------------------------------------------
  alpha Z        PSCENC =        16.61700987
  Ewald energy   TEWEN  =     17778.33987033
  -Hartree energ DENC   =    -32961.89527341
  -exchange      EXHF   =         0.00000000
  -V(xc)+E(xc)   XCENC  =       535.13856962
  PAW double counting   =     15525.89091753   -16811.87348086
  entropy T*S    EENTRO =         0.00000000
  eigenvalues    EBANDS =      -796.58682512
  atomic energy  EATOM  =     16691.22701589
  ---------------------------------------------------
  free energy    TOTEN  =       -23.14219615 eV

  energy without entropy =      -23.14219615  energy(sigma->0) =      -23.14219615


--------------------------------------------------------------------------------------------------------




----------------------------------------- Iteration    1(  13)  ---------------------------------------


    POTLOK:  cpu time    0.22: real time    0.23
    SETDIJ:  cpu time    0.01: real time    0.01
     EDDAV:  cpu time    1.03: real time    1.03
       DOS:  cpu time    0.00: real time    0.00
    CHARGE:  cpu time    0.05: real time    0.05
    MIXING:  cpu time    0.01: real time    0.01
    --------------------------------------------
      LOOP:  cpu time    1.32: real time    1.33

 eigenvalue-minimisations  :   432
 total energy-change (2. order) :-0.2088687E+01  (-0.5751113E-01)
 number of electron     131.9999746 magnetization       4.8845529
 augmentation part       84.6561183 magnetization       0.9860749

 Broyden mixing:
  rms(total) = 0.54489E-01    rms(broyden)= 0.54463E-01
  rms(prec ) = 0.59306E-01
  weight for this iteration     100.00

 eigenvalues of (default mixing * dielectric matrix)
  average eigenvalue GAMMA=   1.1911
  2.6462  2.6462  1.0395  0.8144  0.8144  0.6030  0.4613  0.5041

 Free energy of the ion-electron system (eV)
  ---------------------------------------------------
  alpha Z        PSCENC =        16.61700987
  Ewald energy   TEWEN  =     17778.33987033
  -Hartree energ DENC   =    -32957.18437560
  -exchange      EXHF   =         0.00000000
  -V(xc)+E(xc)   XCENC  =       533.30523903
  PAW double counting   =     15500.67945878   -16787.14068189
  entropy T*S    EENTRO =         0.00000000
  eigenvalues    EBANDS =      -801.07441981
  atomic energy  EATOM  =     16691.22701589
  ---------------------------------------------------
  free energy    TOTEN  =       -25.23088341 eV

  energy without entropy =      -25.23088341  energy(sigma->0) =      -25.23088341


--------------------------------------------------------------------------------------------------------




----------------------------------------- Iteration    1(  14)  ---------------------------------------


    POTLOK:  cpu time    0.22: real time    0.23
    SETDIJ:  cpu time    0.01: real time    0.01
     EDDAV:  cpu time    1.07: real time    1.07
       DOS:  cpu time    0.00: real time    0.00
    CHARGE:  cpu time    0.06: real time    0.05
    MIXING:  cpu time    0.01: real time    0.01
    --------------------------------------------
      LOOP:  cpu time    1.37: real time    1.82

 eigenvalue-minimisations  :   456
 total energy-change (2. order) :-0.1179256E+01  (-0.1942227E-01)
 number of electron     131.9999741 magnetization       4.8020992
 augmentation part       84.7305434 magnetization       2.6810367

 Broyden mixing:
  rms(total) = 0.22202E+00    rms(broyden)= 0.22077E+00
  rms(prec ) = 0.23834E+00
  weight for this iteration     100.00

 eigenvalues of (default mixing * dielectric matrix)
  average eigenvalue GAMMA=   1.0603
  2.6465  2.6465  1.0513  0.8115  0.8115  0.6051  0.4618  0.5030  0.0059

 Free energy of the ion-electron system (eV)
  ---------------------------------------------------
  alpha Z        PSCENC =        16.61700987
  Ewald energy   TEWEN  =     17778.33987033
  -Hartree energ DENC   =    -32949.27416310
  -exchange      EXHF   =         0.00000000
  -V(xc)+E(xc)   XCENC  =       532.08265684
  PAW double counting   =     15482.50388242   -16768.44968900
  entropy T*S    EENTRO =         0.00000000
  eigenvalues    EBANDS =      -809.45672266
  atomic energy  EATOM  =     16691.22701589
  ---------------------------------------------------
  free energy    TOTEN  =       -26.41013940 eV

  energy without entropy =      -26.41013940  energy(sigma->0) =      -26.41013940


--------------------------------------------------------------------------------------------------------




----------------------------------------- Iteration    1(  15)  ---------------------------------------


    POTLOK:  cpu time    0.22: real time    0.23
    SETDIJ:  cpu time    0.00: real time    0.01
     EDDAV:  cpu time    1.04: real time    1.04
       DOS:  cpu time    0.00: real time    0.00
    CHARGE:  cpu time    0.06: real time    0.05
    MIXING:  cpu time    0.01: real time    0.01
    --------------------------------------------
      LOOP:  cpu time    1.34: real time    1.34

 eigenvalue-minimisations  :   440
 total energy-change (2. order) : 0.1009617E+00  (-0.2160876E-02)
 number of electron     131.9999741 magnetization       4.6881263
 augmentation part       84.7508103 magnetization       2.5843034

 Broyden mixing:
  rms(total) = 0.21207E+00    rms(broyden)= 0.21201E+00
  rms(prec ) = 0.22917E+00
  weight for this iteration     100.00

 eigenvalues of (default mixing * dielectric matrix)
  average eigenvalue GAMMA=   1.0034
  2.6729  2.6729  1.0469  0.8155  0.8155  0.5897  0.4594  0.5229  0.2194  0.2194

 Free energy of the ion-electron system (eV)
  ---------------------------------------------------
  alpha Z        PSCENC =        16.61700987
  Ewald energy   TEWEN  =     17778.33987033
  -Hartree energ DENC   =    -32949.12507644
  -exchange      EXHF   =         0.00000000
  -V(xc)+E(xc)   XCENC  =       532.16676949
  PAW double counting   =     15483.07348923   -16769.14877587
  entropy T*S    EENTRO =         0.00000000
  eigenvalues    EBANDS =      -809.45948017
  atomic energy  EATOM  =     16691.22701589
  ---------------------------------------------------
  free energy    TOTEN  =       -26.30917766 eV

  energy without entropy =      -26.30917766  energy(sigma->0) =      -26.30917766


--------------------------------------------------------------------------------------------------------




----------------------------------------- Iteration    1(  16)  ---------------------------------------


    POTLOK:  cpu time    0.22: real time    0.23
    SETDIJ:  cpu time    0.01: real time    0.01
     EDDAV:  cpu time    1.07: real time    1.07
       DOS:  cpu time    0.00: real time    0.00
    CHARGE:  cpu time    0.06: real time    0.05
    MIXING:  cpu time    0.01: real time    0.01
    --------------------------------------------
      LOOP:  cpu time    1.37: real time    1.41

 eigenvalue-minimisations  :   456
 total energy-change (2. order) :-0.1064742E+00  (-0.6218404E-03)
 number of electron     131.9999741 magnetization       4.2328615
 augmentation part       84.7348512 magnetization       2.1429472

 Broyden mixing:
  rms(total) = 0.20450E+00    rms(broyden)= 0.20449E+00
  rms(prec ) = 0.22122E+00
  weight for this iteration     100.00

 eigenvalues of (default mixing * dielectric matrix)
  average eigenvalue GAMMA=   1.0599
  3.5948  2.1013  0.7160  0.7160  0.9442  0.9442  0.8580  0.5284  0.5284  0.4623
  0.2654

 Free energy of the ion-electron system (eV)
  ---------------------------------------------------
  alpha Z        PSCENC =        16.61700987
  Ewald energy   TEWEN  =     17778.33987033
  -Hartree energ DENC   =    -32949.56993696
  -exchange      EXHF   =         0.00000000
  -V(xc)+E(xc)   XCENC  =       532.08990647
  PAW double counting   =     15483.30458563   -16769.75676317
  entropy T*S    EENTRO =        -0.00000000
  eigenvalues    EBANDS =      -808.66733989
  atomic energy  EATOM  =     16691.22701589
  ---------------------------------------------------
  free energy    TOTEN  =       -26.41565181 eV

  energy without entropy =      -26.41565181  energy(sigma->0) =      -26.41565181


--------------------------------------------------------------------------------------------------------




----------------------------------------- Iteration    1(  17)  ---------------------------------------


    POTLOK:  cpu time    0.22: real time    0.23
    SETDIJ:  cpu time    0.01: real time    0.01
     EDDAV:  cpu time    1.17: real time    1.17
       DOS:  cpu time    0.00: real time    0.00
    CHARGE:  cpu time    0.05: real time    0.05
    MIXING:  cpu time    0.01: real time    0.01
    --------------------------------------------
      LOOP:  cpu time    1.47: real time    1.47

 eigenvalue-minimisations  :   512
 total energy-change (2. order) :-0.3758173E+00  (-0.5262782E-02)
 number of electron     131.9999740 magnetization       3.4358134
 augmentation part       84.6671499 magnetization       1.3928036

 Broyden mixing:
  rms(total) = 0.16616E+00    rms(broyden)= 0.16615E+00
  rms(prec ) = 0.17904E+00
  weight for this iteration     100.00

 eigenvalues of (default mixing * dielectric matrix)
  average eigenvalue GAMMA=   1.1493
  4.6984  1.6876  1.2186  1.2186  1.0463  0.8535  0.8535  0.6002  0.4677  0.5052
  0.3212  0.3212

 Free energy of the ion-electron system (eV)
  ---------------------------------------------------
  alpha Z        PSCENC =        16.61700987
  Ewald energy   TEWEN  =     17778.33987033
  -Hartree energ DENC   =    -32951.37109182
  -exchange      EXHF   =         0.00000000
  -V(xc)+E(xc)   XCENC  =       531.82457273
  PAW double counting   =     15485.62868885   -16773.37131929
  entropy T*S    EENTRO =         0.00000000
  eigenvalues    EBANDS =      -805.68621563
  atomic energy  EATOM  =     16691.22701589
  ---------------------------------------------------
  free energy    TOTEN  =       -26.79146907 eV

  energy without entropy =      -26.79146907  energy(sigma->0) =      -26.79146907


--------------------------------------------------------------------------------------------------------




----------------------------------------- Iteration    1(  18)  ---------------------------------------


    POTLOK:  cpu time    0.23: real time    0.23
    SETDIJ:  cpu time    0.00: real time    0.01
     EDDAV:  cpu time    1.12: real time    1.11
       DOS:  cpu time    0.00: real time    0.00
    CHARGE:  cpu time    0.05: real time    0.05
    MIXING:  cpu time    0.01: real time    0.01
    --------------------------------------------
      LOOP:  cpu time    1.41: real time    1.42

 eigenvalue-minimisations  :   480
 total energy-change (2. order) :-0.5886856E+00  (-0.1060803E-01)
 number of electron     131.9999740 magnetization       3.0541110
 augmentation part       84.6720831 magnetization       1.0750122

 Broyden mixing:
  rms(total) = 0.10402E+00    rms(broyden)= 0.10401E+00
  rms(prec ) = 0.11202E+00
  weight for this iteration     100.00

 eigenvalues of (default mixing * dielectric matrix)
  average eigenvalue GAMMA=   1.2479
  5.7333  1.6701  1.6701  1.3390  1.3390  0.7576  0.7576  0.6530  0.6530  0.4736
  0.4736  0.3512  0.3512

 Free energy of the ion-electron system (eV)
  ---------------------------------------------------
  alpha Z        PSCENC =        16.61700987
  Ewald energy   TEWEN  =     17778.33987033
  -Hartree energ DENC   =    -32949.35172093
  -exchange      EXHF   =         0.00000000
  -V(xc)+E(xc)   XCENC  =       531.18956005
  PAW double counting   =     15484.46271018   -16772.70086099
  entropy T*S    EENTRO =         0.00000000
  eigenvalues    EBANDS =      -807.16373909
  atomic energy  EATOM  =     16691.22701589
  ---------------------------------------------------
  free energy    TOTEN  =       -27.38015468 eV

  energy without entropy =      -27.38015468  energy(sigma->0) =      -27.38015468


--------------------------------------------------------------------------------------------------------




----------------------------------------- Iteration    1(  19)  ---------------------------------------


    POTLOK:  cpu time    0.22: real time    0.23
    SETDIJ:  cpu time    0.01: real time    0.01
     EDDAV:  cpu time    1.06: real time    1.06
       DOS:  cpu time    0.00: real time    0.00
    CHARGE:  cpu time    0.06: real time    0.05
    MIXING:  cpu time    0.01: real time    0.01
    --------------------------------------------
      LOOP:  cpu time    1.36: real time    1.36

 eigenvalue-minimisations  :   448
 total energy-change (2. order) :-0.2624078E+00  (-0.4126005E-02)
 number of electron     131.9999740 magnetization       2.7013487
 augmentation part       84.6931054 magnetization       0.7540115

 Broyden mixing:
  rms(total) = 0.68362E-01    rms(broyden)= 0.68353E-01
  rms(prec ) = 0.74415E-01
  weight for this iteration     100.00

 eigenvalues of (default mixing * dielectric matrix)
  average eigenvalue GAMMA=   1.3104
  6.8540  1.8009  1.8009  1.4473  1.0940  1.0940  0.6955  0.6955  0.6701  0.5304
  0.5304  0.4611  0.3356  0.3356

 Free energy of the ion-electron system (eV)
  ---------------------------------------------------
  alpha Z        PSCENC =        16.61700987
  Ewald energy   TEWEN  =     17778.33987033
  -Hartree energ DENC   =    -32948.94654398
  -exchange      EXHF   =         0.00000000
  -V(xc)+E(xc)   XCENC  =       530.89700418
  PAW double counting   =     15485.43425877   -16773.45416721
  entropy T*S    EENTRO =         0.00000000
  eigenvalues    EBANDS =      -807.75701034
  atomic energy  EATOM  =     16691.22701589
  ---------------------------------------------------
  free energy    TOTEN  =       -27.64256250 eV

  energy without entropy =      -27.64256250  energy(sigma->0) =      -27.64256250


--------------------------------------------------------------------------------------------------------




----------------------------------------- Iteration    1(  20)  ---------------------------------------


    POTLOK:  cpu time    0.22: real time    0.23
    SETDIJ:  cpu time    0.01: real time    0.01
     EDDAV:  cpu time    1.20: real time    1.20
       DOS:  cpu time    0.00: real time    0.00
    CHARGE:  cpu time    0.06: real time    0.05
    MIXING:  cpu time    0.01: real time    0.01
    --------------------------------------------
      LOOP:  cpu time    1.50: real time    1.51

 eigenvalue-minimisations  :   528
 total energy-change (2. order) :-0.2129967E+00  (-0.1729770E-02)
 number of electron     131.9999740 magnetization       2.3217024
 augmentation part       84.6876228 magnetization       0.4005021

 Broyden mixing:
  rms(total) = 0.44853E-01    rms(broyden)= 0.44842E-01
  rms(prec ) = 0.48595E-01
  weight for this iteration     100.00

 eigenvalues of (default mixing * dielectric matrix)
  average eigenvalue GAMMA=   1.4053
  7.8618  2.0293  2.0293  1.8696  1.1641  1.1641  0.7587  0.7587  0.7098  0.6133
  0.4885  0.4885  0.4600  0.3420  0.3420

 Free energy of the ion-electron system (eV)
  ---------------------------------------------------
  alpha Z        PSCENC =        16.61700987
  Ewald energy   TEWEN  =     17778.33987033
  -Hartree energ DENC   =    -32949.02533529
  -exchange      EXHF   =         0.00000000
  -V(xc)+E(xc)   XCENC  =       530.68933842
  PAW double counting   =     15484.14180533   -16772.19259216
  entropy T*S    EENTRO =         0.00000000
  eigenvalues    EBANDS =      -807.65267159
  atomic energy  EATOM  =     16691.22701589
  ---------------------------------------------------
  free energy    TOTEN  =       -27.85555920 eV

  energy without entropy =      -27.85555920  energy(sigma->0) =      -27.85555920


--------------------------------------------------------------------------------------------------------




----------------------------------------- Iteration    1(  21)  ---------------------------------------


    POTLOK:  cpu time    0.23: real time    0.23
    SETDIJ:  cpu time    0.00: real time    0.01
     EDDAV:  cpu time    1.10: real time    1.10
       DOS:  cpu time    0.00: real time    0.00
    CHARGE:  cpu time    0.06: real time    0.05
    MIXING:  cpu time    0.01: real time    0.01
    --------------------------------------------
      LOOP:  cpu time    1.40: real time    1.41

 eigenvalue-minimisations  :   472
 total energy-change (2. order) :-0.2075630E+00  (-0.2107715E-02)
 number of electron     131.9999740 magnetization       2.1576313
 augmentation part       84.6904289 magnetization       0.2642695

 Broyden mixing:
  rms(total) = 0.19131E-01    rms(broyden)= 0.19115E-01
  rms(prec ) = 0.21353E-01
  weight for this iteration     100.00

 eigenvalues of (default mixing * dielectric matrix)
  average eigenvalue GAMMA=   1.4453
  8.7074  2.1636  2.1636  1.7725  1.5441  0.9449  0.9449  0.7687  0.7687  0.6685
  0.5903  0.4898  0.4640  0.4529  0.3407  0.3407

 Free energy of the ion-electron system (eV)
  ---------------------------------------------------
  alpha Z        PSCENC =        16.61700987
  Ewald energy   TEWEN  =     17778.33987033
  -Hartree energ DENC   =    -32948.96616602
  -exchange      EXHF   =         0.00000000
  -V(xc)+E(xc)   XCENC  =       530.48091835
  PAW double counting   =     15481.57927968   -16769.22109525
  entropy T*S    EENTRO =         0.00000000
  eigenvalues    EBANDS =      -808.11995507
  atomic energy  EATOM  =     16691.22701589
  ---------------------------------------------------
  free energy    TOTEN  =       -28.06312220 eV

  energy without entropy =      -28.06312220  energy(sigma->0) =      -28.06312220


--------------------------------------------------------------------------------------------------------




----------------------------------------- Iteration    1(  22)  ---------------------------------------


    POTLOK:  cpu time    0.23: real time    0.23
    SETDIJ:  cpu time    0.00: real time    0.01
     EDDAV:  cpu time    1.03: real time    1.03
       DOS:  cpu time    0.00: real time    0.00
    CHARGE:  cpu time    0.06: real time    0.05
    MIXING:  cpu time    0.01: real time    0.01
    --------------------------------------------
      LOOP:  cpu time    1.33: real time    1.50

 eigenvalue-minimisations  :   432
 total energy-change (2. order) :-0.6531865E-01  (-0.6817473E-03)
 number of electron     131.9999740 magnetization       2.0825834
 augmentation part       84.6999286 magnetization       0.1972871

 Broyden mixing:
  rms(total) = 0.72812E-02    rms(broyden)= 0.72664E-02
  rms(prec ) = 0.90354E-02
  weight for this iteration     100.00

 eigenvalues of (default mixing * dielectric matrix)
  average eigenvalue GAMMA=   1.4594
  9.2782  2.2214  2.1390  2.1390  1.3742  1.0708  1.0708  0.7608  0.7608  0.7274
  0.6046  0.6046  0.3408  0.3408  0.4727  0.4727  0.4305

 Free energy of the ion-electron system (eV)
  ---------------------------------------------------
  alpha Z        PSCENC =        16.61700987
  Ewald energy   TEWEN  =     17778.33987033
  -Hartree energ DENC   =    -32948.65221271
  -exchange      EXHF   =         0.00000000
  -V(xc)+E(xc)   XCENC  =       530.40428688
  PAW double counting   =     15481.36379661   -16768.68645040
  entropy T*S    EENTRO =         0.00000000
  eigenvalues    EBANDS =      -808.74175734
  atomic energy  EATOM  =     16691.22701589
  ---------------------------------------------------
  free energy    TOTEN  =       -28.12844085 eV

  energy without entropy =      -28.12844085  energy(sigma->0) =      -28.12844085


--------------------------------------------------------------------------------------------------------




----------------------------------------- Iteration    1(  23)  ---------------------------------------


    POTLOK:  cpu time    0.23: real time    0.23
    SETDIJ:  cpu time    0.00: real time    0.01
     EDDAV:  cpu time    1.06: real time    1.06
       DOS:  cpu time    0.00: real time    0.00
    CHARGE:  cpu time    0.05: real time    0.05
    MIXING:  cpu time    0.02: real time    0.01
    --------------------------------------------
      LOOP:  cpu time    1.36: real time    1.36

 eigenvalue-minimisations  :   448
 total energy-change (2. order) :-0.2268771E-01  (-0.2091586E-03)
 number of electron     131.9999740 magnetization       2.0484106
 augmentation part       84.7077100 magnetization       0.1673420

 Broyden mixing:
  rms(total) = 0.42867E-02    rms(broyden)= 0.42789E-02
  rms(prec ) = 0.56850E-02
  weight for this iteration     100.00

 eigenvalues of (default mixing * dielectric matrix)
  average eigenvalue GAMMA=   1.4521
  9.4527  2.6459  2.1189  2.1189  1.3004  1.1390  1.1390  0.7602  0.7602  0.8599
  0.6518  0.6518  0.3408  0.3408  0.4917  0.4917  0.4584  0.4153

 Free energy of the ion-electron system (eV)
  ---------------------------------------------------
  alpha Z        PSCENC =        16.61700987
  Ewald energy   TEWEN  =     17778.33987033
  -Hartree energ DENC   =    -32948.14324546
  -exchange      EXHF   =         0.00000000
  -V(xc)+E(xc)   XCENC  =       530.36878730
  PAW double counting   =     15481.02760854   -16768.21667227
  entropy T*S    EENTRO =         0.00000000
  eigenvalues    EBANDS =      -809.37150278
  atomic energy  EATOM  =     16691.22701589
  ---------------------------------------------------
  free energy    TOTEN  =       -28.15112857 eV

  energy without entropy =      -28.15112857  energy(sigma->0) =      -28.15112857


--------------------------------------------------------------------------------------------------------




----------------------------------------- Iteration    1(  24)  ---------------------------------------


    POTLOK:  cpu time    0.23: real time    0.23
    SETDIJ:  cpu time    0.00: real time    0.01
     EDDAV:  cpu time    0.96: real time    0.96
       DOS:  cpu time    0.00: real time    0.00
    CHARGE:  cpu time    0.06: real time    0.05
    MIXING:  cpu time    0.02: real time    0.01
    --------------------------------------------
      LOOP:  cpu time    1.26: real time    1.26

 eigenvalue-minimisations  :   392
 total energy-change (2. order) :-0.1497005E-01  (-0.1051618E-03)
 number of electron     131.9999740 magnetization       2.0253522
 augmentation part       84.7120340 magnetization       0.1462410

 Broyden mixing:
  rms(total) = 0.43814E-02    rms(broyden)= 0.43793E-02
  rms(prec ) = 0.53263E-02
  weight for this iteration     100.00

 eigenvalues of (default mixing * dielectric matrix)
  average eigenvalue GAMMA=   1.4473
  9.5102  2.8587  2.0777  2.0777  1.7714  1.1626  1.1626  0.7608  0.7608  0.7948
  0.7948  0.7097  0.6045  0.3409  0.3409  0.4745  0.4745  0.4281  0.3936

 Free energy of the ion-electron system (eV)
  ---------------------------------------------------
  alpha Z        PSCENC =        16.61700987
  Ewald energy   TEWEN  =     17778.33987033
  -Hartree energ DENC   =    -32947.60336516
  -exchange      EXHF   =         0.00000000
  -V(xc)+E(xc)   XCENC  =       530.34610827
  PAW double counting   =     15480.82858105   -16767.97351298
  entropy T*S    EENTRO =         0.00000000
  eigenvalues    EBANDS =      -809.94780590
  atomic energy  EATOM  =     16691.22701589
  ---------------------------------------------------
  free energy    TOTEN  =       -28.16609862 eV

  energy without entropy =      -28.16609862  energy(sigma->0) =      -28.16609862


--------------------------------------------------------------------------------------------------------




----------------------------------------- Iteration    1(  25)  ---------------------------------------


    POTLOK:  cpu time    0.22: real time    0.23
    SETDIJ:  cpu time    0.01: real time    0.01
     EDDAV:  cpu time    0.77: real time    0.77
       DOS:  cpu time    0.00: real time    0.00
    CHARGE:  cpu time    0.05: real time    0.05
    MIXING:  cpu time    0.02: real time    0.01
    --------------------------------------------
      LOOP:  cpu time    1.08: real time    1.08

 eigenvalue-minimisations  :   288
 total energy-change (2. order) :-0.9603052E-02  (-0.4092944E-04)
 number of electron     131.9999740 magnetization       2.0098623
 augmentation part       84.7089354 magnetization       0.1309979

 Broyden mixing:
  rms(total) = 0.30520E-02    rms(broyden)= 0.30511E-02
  rms(prec ) = 0.37475E-02
  weight for this iteration     100.00

 eigenvalues of (default mixing * dielectric matrix)
  average eigenvalue GAMMA=   1.4520
  9.5445  3.0975  2.1362  2.1362  1.8816  1.1915  1.1915  0.9751  0.9751  0.7574
  0.7574  0.7238  0.6201  0.5976  0.3408  0.3408  0.4724  0.4724  0.4327  0.3949

 Free energy of the ion-electron system (eV)
  ---------------------------------------------------
  alpha Z        PSCENC =        16.61700987
  Ewald energy   TEWEN  =     17778.33987033
  -Hartree energ DENC   =    -32947.35982392
  -exchange      EXHF   =         0.00000000
  -V(xc)+E(xc)   XCENC  =       530.34018370
  PAW double counting   =     15481.78264307   -16769.01552129
  entropy T*S    EENTRO =         0.00000000
  eigenvalues    EBANDS =      -810.10707932
  atomic energy  EATOM  =     16691.22701589
  ---------------------------------------------------
  free energy    TOTEN  =       -28.17570167 eV

  energy without entropy =      -28.17570167  energy(sigma->0) =      -28.17570167


--------------------------------------------------------------------------------------------------------




----------------------------------------- Iteration    1(  26)  ---------------------------------------


    POTLOK:  cpu time    0.23: real time    0.22
    SETDIJ:  cpu time    0.00: real time    0.01
     EDDAV:  cpu time    0.78: real time    0.77
       DOS:  cpu time    0.00: real time    0.00
    CHARGE:  cpu time    0.05: real time    0.05
    MIXING:  cpu time    0.02: real time    0.02
    --------------------------------------------
      LOOP:  cpu time    1.08: real time    1.08

 eigenvalue-minimisations  :   288
 total energy-change (2. order) :-0.4203559E-02  (-0.2719279E-04)
 number of electron     131.9999740 magnetization       2.0101541
 augmentation part       84.7079730 magnetization       0.1323165

 Broyden mixing:
  rms(total) = 0.20661E-02    rms(broyden)= 0.20655E-02
  rms(prec ) = 0.26418E-02
  weight for this iteration     100.00

 eigenvalues of (default mixing * dielectric matrix)
  average eigenvalue GAMMA=   1.4442
  9.4715  3.5004  2.1498  2.1498  2.0186  1.2484  1.2484  1.0419  1.0419  0.7586
  0.7586  0.7544  0.6315  0.6315  0.3408  0.3408  0.4906  0.4906  0.4581  0.4150
  0.3876

 Free energy of the ion-electron system (eV)
  ---------------------------------------------------
  alpha Z        PSCENC =        16.61700987
  Ewald energy   TEWEN  =     17778.33987033
  -Hartree energ DENC   =    -32946.94421114
  -exchange      EXHF   =         0.00000000
  -V(xc)+E(xc)   XCENC  =       530.33376578
  PAW double counting   =     15481.81111968   -16769.08917263
  entropy T*S    EENTRO =         0.00000000
  eigenvalues    EBANDS =      -810.47530302
  atomic energy  EATOM  =     16691.22701589
  ---------------------------------------------------
  free energy    TOTEN  =       -28.17990523 eV

  energy without entropy =      -28.17990523  energy(sigma->0) =      -28.17990523


--------------------------------------------------------------------------------------------------------




----------------------------------------- Iteration    1(  27)  ---------------------------------------


    POTLOK:  cpu time    0.22: real time    0.23
    SETDIJ:  cpu time    0.00: real time    0.01
     EDDAV:  cpu time    0.74: real time    0.75
       DOS:  cpu time    0.00: real time    0.00
    CHARGE:  cpu time    0.05: real time    0.05
    MIXING:  cpu time    0.02: real time    0.02
    --------------------------------------------
      LOOP:  cpu time    1.05: real time    1.41

 eigenvalue-minimisations  :   272
 total energy-change (2. order) :-0.1880753E-02  (-0.1536848E-04)
 number of electron     131.9999740 magnetization       2.0170618
 augmentation part       84.7085425 magnetization       0.1392628

 Broyden mixing:
  rms(total) = 0.12835E-02    rms(broyden)= 0.12828E-02
  rms(prec ) = 0.17831E-02
  weight for this iteration     100.00

 eigenvalues of (default mixing * dielectric matrix)
  average eigenvalue GAMMA=   1.4528
  9.3716  4.0200  2.3510  2.1585  2.1585  1.3872  1.3872  0.9794  0.9794  0.7629
  0.7629  0.8146  0.7050  0.7050  0.5820  0.3408  0.3408  0.4728  0.4728  0.4341
  0.4048  0.3706

 Free energy of the ion-electron system (eV)
  ---------------------------------------------------
  alpha Z        PSCENC =        16.61700987
  Ewald energy   TEWEN  =     17778.33987033
  -Hartree energ DENC   =    -32946.57186288
  -exchange      EXHF   =         0.00000000
  -V(xc)+E(xc)   XCENC  =       530.32842175
  PAW double counting   =     15481.75296651   -16769.03821214
  entropy T*S    EENTRO =         0.00000000
  eigenvalues    EBANDS =      -810.83699533
  atomic energy  EATOM  =     16691.22701589
  ---------------------------------------------------
  free energy    TOTEN  =       -28.18178599 eV

  energy without entropy =      -28.18178599  energy(sigma->0) =      -28.18178599


--------------------------------------------------------------------------------------------------------




----------------------------------------- Iteration    1(  28)  ---------------------------------------


    POTLOK:  cpu time    0.22: real time    0.22
    SETDIJ:  cpu time    0.01: real time    0.01
     EDDAV:  cpu time    0.73: real time    0.73
       DOS:  cpu time    0.00: real time    0.00
    CHARGE:  cpu time    0.05: real time    0.05
    MIXING:  cpu time    0.02: real time    0.02
    --------------------------------------------
      LOOP:  cpu time    1.04: real time    1.04

 eigenvalue-minimisations  :   264
 total energy-change (2. order) :-0.1296457E-02  (-0.1728473E-04)
 number of electron     131.9999740 magnetization       2.0135883
 augmentation part       84.7076765 magnetization       0.1347738

 Broyden mixing:
  rms(total) = 0.17119E-02    rms(broyden)= 0.17114E-02
  rms(prec ) = 0.20094E-02
  weight for this iteration     100.00

 eigenvalues of (default mixing * dielectric matrix)
  average eigenvalue GAMMA=   1.4480
  9.3090  4.4108  2.2992  2.1327  2.1327  1.4541  1.4541  1.1178  1.1178  0.7610
  0.7610  0.8561  0.7569  0.7569  0.6035  0.5691  0.3408  0.3408  0.4884  0.4661
  0.4255  0.3945  0.3541

 Free energy of the ion-electron system (eV)
  ---------------------------------------------------
  alpha Z        PSCENC =        16.61700987
  Ewald energy   TEWEN  =     17778.33987033
  -Hartree energ DENC   =    -32946.28947969
  -exchange      EXHF   =         0.00000000
  -V(xc)+E(xc)   XCENC  =       530.32665172
  PAW double counting   =     15482.02127911   -16769.33504948
  entropy T*S    EENTRO =         0.00000000
  eigenvalues    EBANDS =      -811.09038020
  atomic energy  EATOM  =     16691.22701589
  ---------------------------------------------------
  free energy    TOTEN  =       -28.18308244 eV

  energy without entropy =      -28.18308244  energy(sigma->0) =      -28.18308244


--------------------------------------------------------------------------------------------------------




----------------------------------------- Iteration    1(  29)  ---------------------------------------


    POTLOK:  cpu time    0.22: real time    0.22
    SETDIJ:  cpu time    0.00: real time    0.01
     EDDAV:  cpu time    0.73: real time    0.73
       DOS:  cpu time    0.00: real time    0.00
    CHARGE:  cpu time    0.05: real time    0.05
    MIXING:  cpu time    0.02: real time    0.02
    --------------------------------------------
      LOOP:  cpu time    1.04: real time    1.04

 eigenvalue-minimisations  :   264
 total energy-change (2. order) :-0.5091011E-03  (-0.7963447E-05)
 number of electron     131.9999740 magnetization       2.0057091
 augmentation part       84.7075475 magnetization       0.1272698

 Broyden mixing:
  rms(total) = 0.16601E-02    rms(broyden)= 0.16599E-02
  rms(prec ) = 0.18809E-02
  weight for this iteration     100.00

 eigenvalues of (default mixing * dielectric matrix)
  average eigenvalue GAMMA=   1.4475
  9.2801  4.8744  2.4334  2.1317  2.1317  1.8532  1.2632  1.2632  1.0875  0.7617
  0.7617  0.8636  0.8636  0.7024  0.6606  0.6023  0.3408  0.3408  0.4726  0.4726
  0.4464  0.4096  0.3932  0.3288

 Free energy of the ion-electron system (eV)
  ---------------------------------------------------
  alpha Z        PSCENC =        16.61700987
  Ewald energy   TEWEN  =     17778.33987033
  -Hartree energ DENC   =    -32946.09210612
  -exchange      EXHF   =         0.00000000
  -V(xc)+E(xc)   XCENC  =       530.32542158
  PAW double counting   =     15482.05665092   -16769.37949398
  entropy T*S    EENTRO =         0.00000000
  eigenvalues    EBANDS =      -811.27796004
  atomic energy  EATOM  =     16691.22701589
  ---------------------------------------------------
  free energy    TOTEN  =       -28.18359154 eV

  energy without entropy =      -28.18359154  energy(sigma->0) =      -28.18359154


--------------------------------------------------------------------------------------------------------




----------------------------------------- Iteration    1(  30)  ---------------------------------------


    POTLOK:  cpu time    0.22: real time    0.22
    SETDIJ:  cpu time    0.01: real time    0.01
     EDDAV:  cpu time    0.73: real time    0.73
       DOS:  cpu time    0.00: real time    0.00
    CHARGE:  cpu time    0.05: real time    0.05
    MIXING:  cpu time    0.02: real time    0.02
    --------------------------------------------
      LOOP:  cpu time    1.04: real time    1.04

 eigenvalue-minimisations  :   264
 total energy-change (2. order) :-0.1584100E-03  (-0.5025308E-05)
 number of electron     131.9999740 magnetization       2.0029445
 augmentation part       84.7072529 magnetization       0.1251030

 Broyden mixing:
  rms(total) = 0.11092E-02    rms(broyden)= 0.11089E-02
  rms(prec ) = 0.12727E-02
  weight for this iteration     100.00

 eigenvalues of (default mixing * dielectric matrix)
  average eigenvalue GAMMA=   1.4321
  9.2647  5.0279  2.6475  2.1659  2.1659  1.6261  1.3786  1.2658  1.2658  0.8782
  0.8782  0.7632  0.7632  0.7012  0.7012  0.6174  0.5811  0.3408  0.3408  0.4780
  0.4710  0.4319  0.3987  0.3640  0.2844

 Free energy of the ion-electron system (eV)
  ---------------------------------------------------
  alpha Z        PSCENC =        16.61700987
  Ewald energy   TEWEN  =     17778.33987033
  -Hartree energ DENC   =    -32945.98023546
  -exchange      EXHF   =         0.00000000
  -V(xc)+E(xc)   XCENC  =       530.32444029
  PAW double counting   =     15482.12768684   -16769.45602196
  entropy T*S    EENTRO =         0.00000000
  eigenvalues    EBANDS =      -811.38351576
  atomic energy  EATOM  =     16691.22701589
  ---------------------------------------------------
  free energy    TOTEN  =       -28.18374995 eV

  energy without entropy =      -28.18374995  energy(sigma->0) =      -28.18374995


--------------------------------------------------------------------------------------------------------




----------------------------------------- Iteration    1(  31)  ---------------------------------------


    POTLOK:  cpu time    0.22: real time    0.22
    SETDIJ:  cpu time    0.00: real time    0.01
     EDDAV:  cpu time    0.75: real time    0.75
       DOS:  cpu time    0.00: real time    0.00
    CHARGE:  cpu time    0.06: real time    0.05
    MIXING:  cpu time    0.02: real time    0.02
    --------------------------------------------
      LOOP:  cpu time    1.05: real time    1.06

 eigenvalue-minimisations  :   272
 total energy-change (2. order) :-0.1706334E-03  (-0.3029312E-05)
 number of electron     131.9999740 magnetization       2.0017656
 augmentation part       84.7065631 magnetization       0.1241495

 Broyden mixing:
  rms(total) = 0.80954E-03    rms(broyden)= 0.80935E-03
  rms(prec ) = 0.94273E-03
  weight for this iteration     100.00

 eigenvalues of (default mixing * dielectric matrix)
  average eigenvalue GAMMA=   1.4583
  9.2654  5.4971  3.0429  2.2130  2.2130  1.7500  1.3785  1.3785  1.2637  0.9909
  0.9909  0.7622  0.7622  0.7736  0.7736  0.6270  0.6270  0.3408  0.3408  0.5107
  0.5107  0.4633  0.4248  0.3960  0.3569  0.2629

 Free energy of the ion-electron system (eV)
  ---------------------------------------------------
  alpha Z        PSCENC =        16.61700987
  Ewald energy   TEWEN  =     17778.33987033
  -Hartree energ DENC   =    -32945.97526560
  -exchange      EXHF   =         0.00000000
  -V(xc)+E(xc)   XCENC  =       530.32492235
  PAW double counting   =     15482.29618540   -16769.63244224
  entropy T*S    EENTRO =         0.00000000
  eigenvalues    EBANDS =      -811.38121659
  atomic energy  EATOM  =     16691.22701589
  ---------------------------------------------------
  free energy    TOTEN  =       -28.18392059 eV

  energy without entropy =      -28.18392059  energy(sigma->0) =      -28.18392059


--------------------------------------------------------------------------------------------------------




----------------------------------------- Iteration    1(  32)  ---------------------------------------


    POTLOK:  cpu time    0.22: real time    0.22
    SETDIJ:  cpu time    0.00: real time    0.01
     EDDAV:  cpu time    0.70: real time    0.70
       DOS:  cpu time    0.00: real time    0.00
    CHARGE:  cpu time    0.06: real time    0.05
    MIXING:  cpu time    0.02: real time    0.02
    --------------------------------------------
      LOOP:  cpu time    1.01: real time    1.01

 eigenvalue-minimisations  :   248
 total energy-change (2. order) :-0.1049212E-03  (-0.1994604E-05)
 number of electron     131.9999740 magnetization       1.9965848
 augmentation part       84.7069937 magnetization       0.1190856

 Broyden mixing:
  rms(total) = 0.56725E-03    rms(broyden)= 0.56710E-03
  rms(prec ) = 0.66178E-03
  weight for this iteration     100.00

 eigenvalues of (default mixing * dielectric matrix)
  average eigenvalue GAMMA=   1.4579
  9.2911  5.9396  3.1443  2.2197  2.2197  1.8581  1.5005  1.5005  1.1055  1.1055
  0.7620  0.7620  0.9280  0.7758  0.7758  0.6944  0.6847  0.5796  0.3408  0.3408
  0.4775  0.4775  0.4577  0.4165  0.3955  0.3481  0.2608

 Free energy of the ion-electron system (eV)
  ---------------------------------------------------
  alpha Z        PSCENC =        16.61700987
  Ewald energy   TEWEN  =     17778.33987033
  -Hartree energ DENC   =    -32945.92503417
  -exchange      EXHF   =         0.00000000
  -V(xc)+E(xc)   XCENC  =       530.32383212
  PAW double counting   =     15482.35195841   -16769.68275504
  entropy T*S    EENTRO =         0.00000000
  eigenvalues    EBANDS =      -811.43592292
  atomic energy  EATOM  =     16691.22701589
  ---------------------------------------------------
  free energy    TOTEN  =       -28.18402551 eV

  energy without entropy =      -28.18402551  energy(sigma->0) =      -28.18402551


--------------------------------------------------------------------------------------------------------




----------------------------------------- Iteration    1(  33)  ---------------------------------------


    POTLOK:  cpu time    0.22: real time    0.22
    SETDIJ:  cpu time    0.01: real time    0.01
     EDDAV:  cpu time    0.73: real time    0.73
       DOS:  cpu time    0.00: real time    0.00
    --------------------------------------------
      LOOP:  cpu time    0.97: real time    0.97

 eigenvalue-minimisations  :   264
 total energy-change (2. order) :-0.7833486E-04  (-0.1414344E-05)
 number of electron     131.9999740 magnetization       1.9965848
 augmentation part       84.7069937 magnetization       0.1190856

 Free energy of the ion-electron system (eV)
  ---------------------------------------------------
  alpha Z        PSCENC =        16.61700987
  Ewald energy   TEWEN  =     17778.33987033
  -Hartree energ DENC   =    -32945.91758420
  -exchange      EXHF   =         0.00000000
  -V(xc)+E(xc)   XCENC  =       530.32374481
  PAW double counting   =     15482.40308761   -16769.73613349
  entropy T*S    EENTRO =         0.00000000
  eigenvalues    EBANDS =      -811.44111466
  atomic energy  EATOM  =     16691.22701589
  ---------------------------------------------------
  free energy    TOTEN  =       -28.18410384 eV

  energy without entropy =      -28.18410384  energy(sigma->0) =      -28.18410384


--------------------------------------------------------------------------------------------------------




 average (electrostatic) potential at core
  the test charge radii are     0.9430
  (the norm of the test charge is              1.0000)
[...]
     48      -5.3525      1.00000
     49      -5.3197      1.00000
     50      -5.3180      1.00000
     51      -5.2786      1.00000
     52      -5.2494      1.00000
     53      -5.2107      1.00000
     54      -5.1833      1.00000
     55      -5.1788      1.00000
     56      -5.1599      1.00000
     57      -5.1480      1.00000
     58      -5.1066      1.00000
     59      -5.0953      1.00000
     60      -5.0695      1.00000
     61      -5.0406      1.00000
     62      -4.9825      1.00000
     63      -4.9326      1.00000
     64      -4.9152      1.00000
     65      -4.2032      1.00000
     66      -3.8842      1.00000
     67      -3.3840      0.00000
     68      -3.2474      0.00000
     69      -3.1666      0.00000
     70      -2.8826      0.00000
     71      -2.1595      0.00000
     72      -1.8510      0.00000
     73      -1.3498      0.00000
     74      -1.2681      0.00000
     75      -0.9694      0.00000
     76      -0.9086      0.00000
     77      -0.7509      0.00000
     78      -0.6358      0.00000
     79      -0.3826      0.00000
     80      -0.1894      0.00000
     81      -0.1041      0.00000
     82       0.1597      0.00000
     83       0.3876      0.00000
     84       0.4462      0.00000
     85       0.5703      0.00000
     86       0.5934      0.00000
     87       0.6365      0.00000
     88       0.6442      0.00000

 spin component 2

 k-point     1 :       0.0000    0.0000    0.0000
  band No.  band energies     occupation 
      1     -10.2583      1.00000
      2      -8.5308      1.00000
      3      -8.2019      1.00000
      4      -8.0726      1.00000
      5      -7.6496      1.00000
      6      -7.4438      1.00000
      7      -7.3570      1.00000
      8      -7.3143      1.00000
      9      -7.2548      1.00000
     10      -7.1551      1.00000
     11      -7.1088      1.00000
     12      -7.0198      1.00000
     13      -6.9121      1.00000
     14      -6.7709      1.00000
     15      -6.7400      1.00000
     16      -6.7000      1.00000
     17      -6.5861      1.00000
     18      -6.5534      1.00000
     19      -6.4806      1.00000
     20      -6.4264      1.00000
     21      -6.4093      1.00000
     22      -6.3297      1.00000
     23      -6.2927      1.00000
     24      -6.1982      1.00000
     25      -6.1883      1.00000
     26      -6.1592      1.00000
     27      -6.1202      1.00000
     28      -6.0903      1.00000
     29      -6.0095      1.00000
     30      -5.9666      1.00000
     31      -5.9182      1.00000
     32      -5.8874      1.00000
     33      -5.8019      1.00000
     34      -5.7834      1.00000
     35      -5.7331      1.00000
     36      -5.7018      1.00000
     37      -5.6656      1.00000
     38      -5.6308      1.00000
     39      -5.6159      1.00000
     40      -5.5763      1.00000
     41      -5.5204      1.00000
     42      -5.4935      1.00000
     43      -5.4854      1.00000
     44      -5.4506      1.00000
     45      -5.4308      1.00000
     46      -5.4152      1.00000
     47      -5.3958      1.00000
     48      -5.3525      1.00000
     49      -5.3197      1.00000
     50      -5.3180      1.00000
     51      -5.2786      1.00000
     52      -5.2494      1.00000
     53      -5.2107      1.00000
     54      -5.1833      1.00000
     55      -5.1788      1.00000
     56      -5.1599      1.00000
     57      -5.1480      1.00000
     58      -5.1066      1.00000
     59      -5.0953      1.00000
     60      -5.0695      1.00000
     61      -5.0406      1.00000
     62      -4.9825      1.00000
     63      -4.9326      1.00000
     64      -4.9152      1.00000
     65      -4.2032      1.00000
     66      -3.8842      1.00000
     67      -3.3840      0.00000
     68      -3.2474      0.00000
     69      -3.1666      0.00000
     70      -2.8826      0.00000
     71      -2.1595      0.00000
     72      -1.8510      0.00000
     73      -1.3498      0.00000
     74      -1.2681      0.00000
     75      -0.9694      0.00000
     76      -0.9086      0.00000
     77      -0.7509      0.00000
     78      -0.6358      0.00000
     79      -0.3826      0.00000
     80      -0.1894      0.00000
     81      -0.1041      0.00000
     82       0.1597      0.00000
     83       0.3876      0.00000
     84       0.4462      0.00000
     85       0.5703      0.00000
     86       0.5934      0.00000
     87       0.6365      0.00000
     88       0.6442      0.00000


--------------------------------------------------------------------------------------------------------


 soft charge-density along one line, spin component           1
         0         1         2         3         4         5         6         7         8         9
 total charge-density along one line
 
 soft charge-density along one line, spin component           2
         0         1         2         3         4         5         6         7         8         9
 total charge-density along one line
 
 pseudopotential strength for first ion, spin component:           1
-10.484  -0.005   0.005  -0.020   0.005   0.990   0.003  -0.003
 -0.005 -10.463  -0.013  -0.008   0.012   0.003   0.973   0.009
  0.005  -0.013 -10.464  -0.010   0.002  -0.003   0.009   0.974
 -0.020  -0.008  -0.010 -10.475  -0.006   0.015   0.006   0.007
  0.005   0.012   0.002  -0.006 -10.483  -0.004  -0.009  -0.001
  0.990   0.003  -0.003   0.015  -0.004   6.314  -0.001   0.001
  0.003   0.973   0.009   0.006  -0.009  -0.001   6.326  -0.006
 -0.003   0.009   0.974   0.007  -0.001   0.001  -0.006   6.325
  0.015   0.006   0.007   0.983   0.004  -0.009  -0.003  -0.004
 -0.004  -0.009  -0.001   0.004   0.989   0.003   0.005  -0.000
  0.000   0.005  -0.002   0.000   0.002   0.002   0.002   0.000
  0.001   0.008  -0.004  -0.000   0.003   0.003   0.004   0.001
  0.013   0.012  -0.005  -0.000  -0.007  -0.007  -0.008   0.003
 -0.000   0.007   0.013   0.012  -0.000   0.000  -0.005  -0.007
  0.008  -0.000  -0.008   0.011   0.012  -0.005   0.000   0.005
  0.013   0.013  -0.004  -0.000  -0.007  -0.006  -0.008   0.002
 -0.000   0.007   0.013   0.012  -0.001   0.000  -0.004  -0.006
  0.007  -0.000  -0.008   0.012   0.013  -0.005   0.000   0.005
 pseudopotential strength for first ion, spin component:           2
-10.484  -0.005   0.005  -0.020   0.005   0.990   0.003  -0.003
 -0.005 -10.463  -0.013  -0.008   0.012   0.003   0.973   0.009
  0.005  -0.013 -10.464  -0.010   0.002  -0.003   0.009   0.974
 -0.020  -0.008  -0.010 -10.475  -0.006   0.015   0.006   0.007
  0.005   0.012   0.002  -0.006 -10.483  -0.004  -0.009  -0.001
  0.990   0.003  -0.003   0.015  -0.004   6.314  -0.001   0.001
  0.003   0.973   0.009   0.006  -0.009  -0.001   6.326  -0.006
 -0.003   0.009   0.974   0.007  -0.001   0.001  -0.006   6.325
  0.015   0.006   0.007   0.983   0.004  -0.009  -0.003  -0.004
 -0.004  -0.009  -0.001   0.004   0.989   0.003   0.005  -0.000
  0.000   0.005  -0.002   0.000   0.002   0.002   0.002   0.000
  0.001   0.008  -0.004  -0.000   0.003   0.003   0.004   0.001
  0.013   0.012  -0.005  -0.000  -0.007  -0.007  -0.008   0.003
 -0.000   0.007   0.013   0.012  -0.000   0.000  -0.005  -0.007
  0.008  -0.000  -0.008   0.011   0.012  -0.005   0.000   0.005
  0.013   0.013  -0.004  -0.000  -0.007  -0.006  -0.008   0.002
 -0.000   0.007   0.013   0.012  -0.001   0.000  -0.004  -0.006
  0.007  -0.000  -0.008   0.012   0.013  -0.005   0.000   0.005
 total augmentation occupancy for first ion, spin component:           1
  1.941   0.003  -0.004  -0.007   0.010  -0.012  -0.002   0.000   0.009  -0.004  -0.008   0.003  -0.041  -0.002  -0.037   0.021
  0.003   1.957  -0.006  -0.003  -0.005  -0.002  -0.019   0.006   0.003  -0.001  -0.012  -0.005  -0.024  -0.050  -0.003   0.018
 -0.004  -0.006   1.951  -0.004  -0.007   0.000   0.006  -0.017   0.007  -0.003  -0.002   0.002   0.023  -0.050   0.016  -0.010
 -0.007  -0.003  -0.004   1.939   0.002   0.009   0.003   0.007  -0.012  -0.000  -0.030   0.007   0.002  -0.049  -0.039  -0.001
  0.010  -0.005  -0.007   0.002   1.948  -0.004  -0.001  -0.003  -0.000  -0.012  -0.014  -0.005   0.042  -0.008  -0.051  -0.017
 -0.012  -0.002   0.000   0.009  -0.004   0.008  -0.000  -0.002   0.002   0.001   0.008  -0.003  -0.008   0.003  -0.018   0.001
 -0.002  -0.019   0.006   0.003  -0.001  -0.000   0.007   0.002   0.001  -0.003   0.041  -0.005  -0.014  -0.017   0.004   0.001
  0.000   0.006  -0.017   0.007  -0.003  -0.002   0.002   0.006   0.001  -0.001  -0.015   0.002   0.005  -0.010   0.012  -0.000
  0.009   0.003   0.007  -0.012  -0.000   0.002   0.001   0.001   0.006   0.001   0.006  -0.001   0.001  -0.009  -0.008   0.000
 -0.004  -0.001  -0.003  -0.000  -0.012   0.001  -0.003  -0.001   0.001   0.009   0.023  -0.000   0.013   0.004  -0.018  -0.001
 -0.008  -0.012  -0.002  -0.030  -0.014   0.008   0.041  -0.015   0.006   0.023   1.693  -0.086  -0.160  -0.135  -0.165   0.021
  0.003  -0.005   0.002   0.007  -0.005  -0.003  -0.005   0.002  -0.001  -0.000  -0.086   0.011   0.023   0.013   0.016  -0.002
 -0.041  -0.024   0.023   0.002   0.042  -0.008  -0.014   0.005   0.001   0.013  -0.160   0.023   0.083   0.028   0.003  -0.007
 -0.002  -0.050  -0.050  -0.049  -0.008   0.003  -0.017  -0.010  -0.009   0.004  -0.135   0.013   0.028   0.077  -0.015  -0.003
 -0.037  -0.003   0.016  -0.039  -0.051  -0.018   0.004   0.012  -0.008  -0.018  -0.165   0.016   0.003  -0.015   0.110  -0.002
  0.021   0.018  -0.010  -0.001  -0.017   0.001   0.001  -0.000   0.000  -0.001   0.021  -0.002  -0.007  -0.003  -0.002   0.001
 -0.001   0.017   0.021   0.021  -0.000   0.000   0.001   0.000   0.001  -0.000   0.016  -0.001  -0.003  -0.006  -0.001   0.000
  0.017  -0.001  -0.013   0.018   0.023   0.001   0.000  -0.001   0.000   0.001   0.020  -0.002  -0.002  -0.001  -0.008   0.000
 total augmentation occupancy for first ion, spin component:           2
 -0.000   0.000   0.000  -0.000  -0.000  -0.000  -0.000  -0.000   0.000   0.000  -0.000   0.000  -0.000   0.000  -0.000   0.000
  0.000  -0.000   0.000   0.000  -0.000  -0.000  -0.000  -0.000  -0.000   0.000   0.000  -0.000   0.000  -0.000  -0.000  -0.000
  0.000   0.000   0.000   0.000  -0.000  -0.000  -0.000   0.000  -0.000  -0.000  -0.000   0.000  -0.000  -0.000  -0.000   0.000
 -0.000   0.000   0.000  -0.000   0.000   0.000  -0.000  -0.000  -0.000   0.000  -0.000   0.000  -0.000  -0.000   0.000   0.000
 -0.000  -0.000  -0.000   0.000   0.000  -0.000  -0.000  -0.000   0.000   0.000  -0.000   0.000  -0.000  -0.000   0.000   0.000
 -0.000  -0.000  -0.000   0.000  -0.000   0.000   0.000   0.000  -0.000  -0.000  -0.000  -0.000   0.000  -0.000   0.000  -0.000
 -0.000  -0.000  -0.000  -0.000  -0.000   0.000   0.000   0.000   0.000  -0.000  -0.000   0.000  -0.000  -0.000  -0.000   0.000
 -0.000  -0.000   0.000  -0.000  -0.000   0.000   0.000  -0.000   0.000   0.000   0.000  -0.000   0.000  -0.000   0.000  -0.000
  0.000  -0.000  -0.000  -0.000   0.000  -0.000   0.000   0.000   0.000  -0.000  -0.000   0.000  -0.000  -0.000   0.000   0.000
  0.000   0.000  -0.000   0.000   0.000  -0.000  -0.000   0.000  -0.000   0.000   0.000  -0.000   0.000   0.000  -0.000  -0.000
 -0.000   0.000  -0.000  -0.000  -0.000  -0.000  -0.000   0.000  -0.000   0.000   0.000  -0.000  -0.000   0.000  -0.000   0.000
  0.000  -0.000   0.000   0.000   0.000  -0.000   0.000  -0.000   0.000  -0.000  -0.000  -0.000   0.000  -0.000  -0.000  -0.000
 -0.000   0.000  -0.000  -0.000  -0.000   0.000  -0.000   0.000  -0.000   0.000  -0.000   0.000  -0.000   0.000   0.000   0.000
  0.000  -0.000  -0.000  -0.000  -0.000  -0.000  -0.000  -0.000  -0.000   0.000   0.000  -0.000   0.000   0.000   0.000  -0.000
 -0.000  -0.000  -0.000   0.000   0.000   0.000  -0.000   0.000   0.000  -0.000  -0.000  -0.000   0.000   0.000  -0.000  -0.000
  0.000  -0.000   0.000   0.000   0.000  -0.000   0.000  -0.000   0.000  -0.000   0.000  -0.000   0.000  -0.000  -0.000  -0.000
  0.000   0.000   0.000   0.000   0.000   0.000  -0.000  -0.000  -0.000  -0.000  -0.000   0.000  -0.000  -0.000  -0.000   0.000
  0.000   0.000   0.000  -0.000  -0.000   0.000   0.000  -0.000   0.000   0.000   0.000   0.000  -0.000  -0.000   0.000   0.000


------------------------ aborting loop because EDIFF is reached ----------------------------------------


    CHARGE:  cpu time    0.06: real time    0.06
    FORLOC:  cpu time    0.01: real time    0.01
    FORNL :  cpu time    0.39: real time    0.39
    STRESS:  cpu time    0.47: real time    0.47
    FORCOR:  cpu time    0.22: real time    0.23
    FORHAR:  cpu time    0.03: real time    0.03
    MIXING:  cpu time    0.00: real time    0.01
    OFIELD:  cpu time    0.00: real time    0.00

  FORCE on cell =-STRESS in cart. coord.  units (eV):
  Direction    XX          YY          ZZ          XY          YZ          ZX
  --------------------------------------------------------------------------------------
  Alpha Z    16.61701    16.61701    16.61701
  Ewald    7460.66124  5723.37324  4412.71964  1421.79122   268.13125 -1831.32921
  Hartree 12407.25010 10750.91801  9621.18737  1289.25484   224.63352 -1645.48753
  E(xc)    -769.61348  -769.74510  -770.19622     0.29864     0.14138    -0.41030
  Local  -21037.76708-17640.98301-15201.79296 -2713.44815  -494.70836  3478.25402
  n-local  -288.45529  -289.75819  -291.24125     1.63341     0.63458    -1.56355
  augment  1124.82136  1124.14590  1125.63867     0.26087     0.67456     0.26856
  Kinetic  1083.28292  1082.17849  1083.77190     0.28192     0.39505     0.40311
  Fock        0.00000     0.00000     0.00000     0.00000     0.00000     0.00000
  -------------------------------------------------------------------------------------
  Total      -3.20322    -3.25364    -3.29583     0.07274    -0.09803     0.13510
  in kB      -0.80980    -0.82254    -0.83321     0.01839    -0.02478     0.03415
  external pressure =       -0.82 kB  Pullay stress =        0.00 kB


 VOLUME and BASIS-vectors are now :
 -----------------------------------------------------------------------------
  energy-cutoff  :      295.45
  volume of cell :     6337.56
      direct lattice vectors                 reciprocal lattice vectors
    18.505775071  0.000000000  0.000000000     0.054037185  0.000000000  0.000000000
     0.000000000 18.505775071  0.000000000     0.000000000  0.054037185  0.000000000
     0.000000000  0.000000000 18.505775071     0.000000000  0.000000000  0.054037185

  length of vectors
    18.505775071 18.505775071 18.505775071     0.054037185  0.054037185  0.054037185


 FORCES acting on ions
    electron-ion (+dipol)            ewald-force                    non-local-force                 convergence-correction
 -----------------------------------------------------------------------------------------------
   -.835E+03 -.882E+03 -.465E+03   0.829E+03 0.877E+03 0.459E+03   0.619E+01 0.474E+01 0.523E+01   0.254E-01 0.519E-01 0.184E-02
   0.247E+03 -.115E+04 -.520E+03   -.244E+03 0.115E+04 0.520E+03   -.263E+01 0.734E+01 0.674E+00   0.272E-01 0.220E-01 0.101E-01
   -.124E+04 0.395E+02 0.247E+03   0.123E+04 -.398E+02 -.249E+03   0.947E+01 0.271E+00 0.120E+01   0.866E-02 -.531E-01 0.680E-01
   -.600E+03 0.367E+03 -.819E+03   0.597E+03 -.365E+03 0.817E+03   0.295E+01 -.192E+01 0.185E+01   0.157E+00 -.625E-01 0.999E-01
   -.402E+03 -.630E+03 0.901E+03   0.402E+03 0.628E+03 -.898E+03   -.706E+00 0.129E+01 -.287E+01   -.119E+00 0.118E+00 -.124E+00
   0.311E+03 -.181E+03 -.123E+04   -.312E+03 0.181E+03 0.122E+04   0.925E+00 -.850E-01 0.971E+01   -.346E-01 -.134E+00 -.441E-01
   0.729E+03 -.853E+03 0.766E+03   -.723E+03 0.845E+03 -.761E+03   -.567E+01 0.842E+01 -.483E+01   0.672E-01 0.420E-01 -.996E-01
   -.706E+03 0.958E+03 0.533E+03   0.703E+03 -.951E+03 -.529E+03   0.314E+01 -.688E+01 -.309E+01   -.241E-02 0.693E-01 0.707E-01
   0.821E+03 0.701E+03 -.591E+03   -.814E+03 -.696E+03 0.585E+03   -.628E+01 -.574E+01 0.607E+01   0.755E-01 0.708E-01 -.114E+00
   0.441E+03 0.452E+03 0.118E+04   -.439E+03 -.450E+03 -.117E+04   -.209E+01 -.233E+01 -.760E+01   -.119E+00 -.626E-02 0.339E-01
   0.110E+04 -.743E+02 0.374E+02   -.110E+04 0.735E+02 -.353E+02   -.149E+01 0.918E+00 -.219E+01   -.670E-01 -.124E+00 0.945E-01
   0.133E+03 0.126E+04 -.414E+02   -.134E+03 -.125E+04 0.388E+02   0.176E+01 -.655E+01 0.258E+01   -.311E-01 -.196E-01 0.459E-01
 -----------------------------------------------------------------------------------------------
   -.560E+01 0.440E+00 -.664E+01   0.426E-12 0.455E-12 0.398E-12   0.556E+01 -.529E+00 0.673E+01   -.120E-01 -.252E-01 0.430E-01
 
 
 POSITION                                       TOTAL-FORCE (eV/Angst)
 -----------------------------------------------------------------------------------
     10.46214     10.33058      8.99491         0.001778      0.010005     -0.010366
      8.05859     10.24828      9.18350         0.009538     -0.015633     -0.001066
     11.47469      8.57422      7.61144        -0.019154     -0.006804      0.032194
      9.18333      8.13443      9.22062         0.050854      0.006859      0.020019
      9.31800      9.37957      7.12674        -0.007837      0.009314      0.001467
      7.20622      8.59968     10.79009         0.009686     -0.030766     -0.007194
      6.99113     10.00799      6.90778         0.009500      0.006262     -0.015020
      9.85657      6.87067      7.25069        -0.014711      0.017824      0.022872
      5.98593      6.59858     10.03475        -0.011424     -0.004355     -0.021141
      7.69879      7.66353      6.55236        -0.032815     -0.006576      0.012469
      6.60335      8.33154      8.56706        -0.001516      0.021381     -0.030469
      7.74922      6.18753      8.44771         0.006101     -0.007512     -0.003765
 -----------------------------------------------------------------------------------
    total drift:                               -0.050020     -0.113623      0.127394


--------------------------------------------------------------------------------------------------------



  FREE ENERGIE OF THE ION-ELECTRON SYSTEM (eV)
  ---------------------------------------------------
  free  energy   TOTEN  =       -29.31617069 eV

  energy  without entropy=      -29.31617069  energy(sigma->0) =      -29.31617069
 
 d Force = 0.8165467E-03[ 0.364E-03, 0.127E-02]  d Energy = 0.9703590E-03-0.154E-03
 d Force = 0.3941307E+01[ 0.393E+01, 0.396E+01]  d Ewald  = 0.3941320E+01-0.136E-04


--------------------------------------------------------------------------------------------------------


    POTLOK:  cpu time    0.24: real time    0.24


--------------------------------------------------------------------------------------------------------




--------------------------------------------------------------------------------------------------------


  
 reached required accuracy - stopping structural energy minimisation
     LOOP+:  cpu time    5.32: real time    5.52
    4ORBIT:  cpu time    0.00: real time    0.00

 total amount of memory used by VASP on root node    55000. kBytes
========================================================================

   base      :      30000. kBytes
   nonl-proj :       1529. kBytes
   fftplans  :       5772. kBytes
   grid      :      14451. kBytes
   one-center:         31. kBytes
   wavefun   :       3217. kBytes
 
  
  
 General timing and accounting informations for this job:
 ========================================================
  
                  Total CPU time used (sec):      696.088
                            User time (sec):      686.179
                          System time (sec):        9.909
                         Elapsed time (sec):      768.749
  
                   Maximum memory used (kb):       63400.
                   Average memory used (kb):           0.
  
                          Minor page faults:      1687665
                          Major page faults:            0
                 Voluntary context switches:        13964
