 vasp.5.3.5 31Mar14 (build Feb 01 2018 12:10:03) gamma-only                     
  
 executed on             LinuxIFC date 2019.04.09  01:52:30
 running on   32 total cores
 distrk:  each k-point on   32 cores,    1 groups
 distr:  one band on NCORES_PER_BAND=   8 cores,    4 groups


--------------------------------------------------------------------------------------------------------


 INCAR:
 POTCAR:    PAW_PBE Pd 04Jan2005                  
 POTCAR:    PAW_PBE Pd 04Jan2005                  
   VRHFIN =Pd : s1 d9                                                           
   LEXCH  = PE                                                                  
   EATOM  =   809.7530 eV,   59.5152 Ry                                         
                                                                                
   TITEL  = PAW_PBE Pd 04Jan2005                                                
   LULTRA =        F    use ultrasoft PP ?                                      
   IUNSCR =        1    unscreen: 0-lin 1-nonlin 2-no                           
   RPACOR =    2.000    partial core radius                                     
   POMASS =  106.420; ZVAL   =   10.000    mass and valenz                      
   RCORE  =    2.600    outmost cutoff radius                                   
   RWIGS  =    2.710; RWIGS  =    1.434    wigner-seitz radius (au A)           
   ENMAX  =  250.925; ENMIN  =  188.194 eV                                      
   ICORE  =        3    local potential                                         
   LCOR   =        T    correct aug charges                                     
   LPAW   =        T    paw PP                                                  
   EAUG   =  416.230                                                            
   DEXC   =    0.000                                                            
   RMAX   =    2.653    core radius for proj-oper                               
   RAUG   =    1.300    factor for augmentation sphere                          
   RDEP   =    2.734    radius for radial grids                                 
   RDEPT  =    2.103    core radius for aug-charge                              
                                                                                
   Atomic configuration                                                         
   12 entries                                                                   
     n  l   j            E        occ.                                          
     1  0  0.50    -24164.6631   2.0000                                         
     2  0  0.50     -3530.9218   2.0000                                         
     2  1  1.50     -3165.6822   6.0000                                         
     3  0  0.50      -639.4577   2.0000                                         
     3  1  1.50      -519.4532   6.0000                                         
     3  2  2.50      -328.9757  10.0000                                         
     4  0  0.50       -88.7014   2.0000                                         
     4  1  1.50       -54.4540   6.0000                                         
     4  2  2.50        -6.6878   9.0000                                         
     5  0  0.50        -4.3543   1.0000                                         
     5  1  0.50        -1.3606   0.0000                                         
     4  3  2.50        -1.3606   0.0000                                         
   Description                                                                  
     l       E           TYP  RCUT    TYP  RCUT                                 
     2     -6.6878251     23  2.400                                             
     2     -8.0484077     23  2.400                                             
     0     -4.3542939     23  2.400                                             
     0      4.3406793     23  2.400                                             
     1     -4.0817478     23  2.600                                             
     1     15.8380318     23  2.600                                             
     3     -4.0817478     23  2.400                                             
  local pseudopotential read in
  partial core-charges read in
  partial kinetic energy density read in
  atomic valenz-charges read in
  non local Contribution for L=           2  read in
    real space projection operators read in
  non local Contribution for L=           2  read in
    real space projection operators read in
  non local Contribution for L=           0  read in
    real space projection operators read in
  non local Contribution for L=           0  read in
    real space projection operators read in
  non local Contribution for L=           1  read in
    real space projection operators read in
  non local Contribution for L=           1  read in
    real space projection operators read in
    PAW grid and wavefunctions read in
 
   number of l-projection  operators is LMAX  =           6
   number of lm-projection operators is LMMAX =          18
 
  PAW_PBE Pd 04Jan2005                  :
 energy of atom  1       EATOM= -809.7530
 kinetic energy error for atom=    0.0653 (will be added to EATOM!!)
 
 
 POSCAR: Al11, -29.59040682 <s> Pd </s>          
  positions in direct lattice
  No initial velocities read in
 exchange correlation table for  LEXCH =        8
   RHO(1)=    0.500       N(1)  =     2000
   RHO(2)=  100.500       N(2)  =     4000
 


--------------------------------------------------------------------------------------------------------


 ion  position               nearest neighbor table
   1  0.364  0.599  0.457-   3 2.51   5 2.54   7 2.63   2 2.63
   2  0.465  0.522  0.414-   6 2.44   1 2.63   7 2.63   8 2.66   3 2.73   4 2.86   5 2.97
   3  0.482  0.646  0.477-   4 2.49   1 2.51   2 2.73   7 2.74
   4  0.574  0.562  0.502-   3 2.49   6 2.60   9 2.61   7 2.84   2 2.86
   5  0.328  0.475  0.457-   1 2.54   8 2.55   2 2.97   7 2.99
   6  0.562  0.448  0.436-   2 2.44   4 2.60  10 2.65   8 2.73   9 2.75  11 2.75
   7  0.439  0.531  0.545-   9 2.45   1 2.63   2 2.63   8 2.65   3 2.74   4 2.84   5 2.99
   8  0.437  0.410  0.485-   5 2.55  10 2.60   7 2.65   2 2.66   9 2.72   6 2.73
   9  0.534  0.456  0.573-   7 2.45   4 2.61  10 2.64   8 2.72   6 2.75  11 2.75
  10  0.545  0.337  0.511-  11 2.56   8 2.60   9 2.64   6 2.65
  11  0.657  0.402  0.529-  10 2.56   9 2.75   6 2.75
 
  LATTYP: Found a simple cubic cell.
 ALAT       =    19.5984177960
  
  Lattice vectors:
  
 A1 = (  19.5984177960,   0.0000000000,   0.0000000000)
 A2 = (   0.0000000000,  19.5984177960,   0.0000000000)
 A3 = (   0.0000000000,   0.0000000000,  19.5984177960)


Analysis of symmetry for initial positions (statically):
=====================================================================
 Subroutine PRICEL returns:
 Original cell was already a primitive cell.
 

 Routine SETGRP: Setting up the symmetry group for a 
 simple cubic supercell.


 Subroutine GETGRP returns: Found  1 space group operations
 (whereof  1 operations were pure point group operations)
 out of a pool of 48 trial point group operations.


The static configuration has the point symmetry C_1 .


Analysis of symmetry for dynamics (positions and initial velocities):
=====================================================================
 Subroutine PRICEL returns:
 Original cell was already a primitive cell.
 

 Routine SETGRP: Setting up the symmetry group for a 
 simple cubic supercell.


 Subroutine GETGRP returns: Found  1 space group operations
 (whereof  1 operations were pure point group operations)
 out of a pool of 48 trial point group operations.


The dynamic configuration has the point symmetry C_1 .


Analysis of magnetic symmetry:
=====================================================================
 Subroutine PRICEL returns:
 Original cell was already a primitive cell.
 

 Subroutine MAGSYM returns: Found  1 space group operations
 (whereof  1 operations were pure point group operations)
 out of a pool of  1 trial space group operations
 (whereof  1 operations were pure point group operations)
 and found also     1 'primitive' translations


The magnetic configuration has the point symmetry C_1 .
 
 
 KPOINTS: Gamma-point only                        
  k-points in reciprocal lattice
Space group operators:
 irot       det(A)        alpha          n_x          n_y          n_z        tau_x        tau_y        tau_z
    1     1.000000     0.000001     1.000000     0.000000     0.000000     0.000000     0.000000     0.000000


--------------------------------------------------------------------------------------------------------




 Dimension of arrays:
   k-points           NKPTS =      1   k-points in BZ     NKDIM =      1   number of bands    NBANDS=     72
   number of dos      NEDOS =    301   number of ions     NIONS =     11
   non local maximal  LDIM  =      6   non local SUM 2l+1 LMDIM =     18
   total plane-waves  NPLWV = 512000
   max r-space proj   IRMAX =      1   max aug-charges    IRDMAX=   3498
   dimension x,y,z NGX =    80 NGY =   80 NGZ =   80
   dimension x,y,z NGXF=   160 NGYF=  160 NGZF=  160
   support grid    NGXF=   160 NGYF=  160 NGZF=  160
   ions per type =              11
 NGX,Y,Z   is equivalent  to a cutoff of   6.79,  6.79,  6.79 a.u.
 NGXF,Y,Z  is equivalent  to a cutoff of  13.57, 13.57, 13.57 a.u.


 I would recommend the setting:
   dimension x,y,z NGX =    76 NGY =   76 NGZ =   76
 SYSTEM =  unknown system                          
 POSCAR =  Al11, -29.59040682 <s> Pd </s>          

 Startparameter for this run:
   NWRITE =      2    write-flag & timer
   PREC   = normal    normal or accurate (medium, high low for compatibility)
   ISTART =      0    job   : 0-new  1-cont  2-samecut
   ICHARG =      2    charge: 1-file 2-atom 10-const
   ISPIN  =      2    spin polarized calculation?
   LNONCOLLINEAR =      F non collinear calculations
   LSORBIT =      F    spin-orbit coupling
   INIWAV =      1    electr: 0-lowe 1-rand  2-diag
   LASPH  =      F    aspherical Exc in radial PAW
   METAGGA=      F    non-selfconsistent MetaGGA calc.

 Electronic Relaxation 1
   ENCUT  =  250.9 eV  18.44 Ry    4.29 a.u.  25.31 25.31 25.31*2*pi/ulx,y,z
   ENINI  =  250.9     initial cutoff
   ENAUG  =  416.2 eV  augmentation charge cutoff
   NELM   =     60;   NELMIN=  2; NELMDL= -5     # of ELM steps 
   EDIFF  = 0.1E-03   stopping-criterion for ELM
   LREAL  =      F    real-space projection
   NLSPLINE    = F    spline interpolate recip. space projectors
   LCOMPAT=      F    compatible to vasp.4.4
   GGA_COMPAT  = T    GGA compatible to vasp.4.4-vasp.4.6
   LMAXPAW     = -100 max onsite density
   LMAXMIX     =    2 max onsite mixed and CHGCAR
   VOSKOWN=      0    Vosko Wilk Nusair interpolation
   ROPT   =    0.00000
 Ionic relaxation
   EDIFFG = 0.1E-02   stopping-criterion for IOM
   NSW    =   1000    number of steps for IOM
   NBLOCK =      1;   KBLOCK =   1000    inner block; outer block 
   IBRION =      2    ionic relax: 0-MD 1-quasi-New 2-CG
   NFREE  =      1    steps in history (QN), initial steepest desc. (CG)
   ISIF   =      2    stress and relaxation
   IWAVPR =     11    prediction:  0-non 1-charg 2-wave 3-comb
   ISYM   =      2    0-nonsym 1-usesym 2-fastsym
   LCORR  =      T    Harris-Foulkes like correction to forces

   POTIM  = 0.1000    time-step for ionic-motion
   TEIN   =    0.0    initial temperature
   TEBEG  =    0.0;   TEEND  =   0.0 temperature during run
   SMASS  =  -3.00    Nose mass-parameter (am)
   estimated Nose-frequenzy (Omega)   =  0.10E-29 period in steps =****** mass=  -0.878E-26a.u.
   SCALEE = 1.0000    scale energy and forces
   NPACO  =    256;   APACO  = 16.0  distance and # of slots for P.C.
   PSTRESS=    0.0 pullay stress

  Mass of Ions in am
   POMASS = 106.42
  Ionic Valenz
   ZVAL   =  10.00
  Atomic Wigner-Seitz radii
   RWIGS  =  -1.00
  virtual crystal weights 
   VCA    =   1.00
   NELECT =     110.0000    total number of electrons
   NUPDOWN=      -1.0000    fix difference up-down

 DOS related values:
   EMIN   =  10.00;   EMAX   =-10.00  energy-range for DOS
   EFERMI =   0.00
   ISMEAR =     0;   SIGMA  =   0.00  broadening in eV -4-tet -1-fermi 0-gaus

 Electronic relaxation 2 (details)
   IALGO  =     38    algorithm
   LDIAG  =      T    sub-space diagonalisation (order eigenvalues)
   LSUBROT=      F    optimize rotation matrix (better conditioning)
   TURBO    =      0    0=normal 1=particle mesh
   IRESTART =      0    0=no restart 2=restart with 2 vectors
   NREBOOT  =      0    no. of reboots
   NMIN     =      0    reboot dimension
   EREF     =   0.00    reference energy to select bands
   IMIX   =      4    mixing-type and parameters
     AMIX     =   0.40;   BMIX     =  1.00
     AMIX_MAG =   1.60;   BMIX_MAG =  1.00
     AMIN     =   0.10
     WC   =   100.;   INIMIX=   1;  MIXPRE=   1;  MAXMIX= -45

 Intra band minimization:
   WEIMIN = 0.0010     energy-eigenvalue tresh-hold
   EBREAK =  0.35E-06  absolut break condition
   DEPER  =   0.30     relativ break condition  

   TIME   =   0.40     timestep for ELM

  volume/ion in A,a.u.               =     684.34      4618.14
  Fermi-wavevector in a.u.,A,eV,Ry     =   0.400238  0.756340  2.179521  0.160190
  Thomas-Fermi vector in A             =   1.349003
 
 Write flags
   LWAVE  =      F    write WAVECAR
   LCHARG =      F    write CHGCAR
   LVTOT  =      F    write LOCPOT, total local potential
   LVHAR  =      F    write LOCPOT, Hartree potential only
   LELF   =      F    write electronic localiz. function (ELF)
   LORBIT =      0    0 simple, 1 ext, 2 COOP (PROOUT)


 Dipole corrections
   LMONO  =      F    monopole corrections only (constant potential shift)
   LDIPOL =      F    correct potential (dipole corrections)
   IDIPOL =      0    1-x, 2-y, 3-z, 4-all directions 
   EPSILON=  1.0000000 bulk dielectric constant

 Exchange correlation treatment:
   GGA     =    PE    GGA type
   LEXCH   =     8    internal setting for exchange type
   VOSKOWN=      0    Vosko Wilk Nusair interpolation
   LHFCALC =     F    Hartree Fock is set to
   LHFONE  =     F    Hartree Fock one center treatment
   AEXX    =    0.0000 exact exchange contribution

 Linear response parameters
   LEPSILON=     F    determine dielectric tensor
   LRPA    =     F    only Hartree local field effects (RPA)
   LNABLA  =     F    use nabla operator in PAW spheres
   LVEL    =     F    velocity operator in full k-point grid
   LINTERFAST=   F  fast interpolation
   KINTER  =     0    interpolate to denser k-point grid
   CSHIFT  =0.1000    complex shift for real part using Kramers Kronig
   OMEGAMAX=  -1.0    maximum frequency
   DEG_THRESHOLD= 0.2000000E-02 threshold for treating states as degnerate
   RTIME   =    0.100 relaxation time in fs

 Orbital magnetization related:
   ORBITALMAG=     F  switch on orbital magnetization
   LCHIMAG   =     F  perturbation theory with respect to B field
   DQ        =  0.001000  dq finite difference perturbation B field



--------------------------------------------------------------------------------------------------------


 conjugate gradient relaxation of ions
 charge density and potential will be updated during run
 spin polarized calculation
 Variant of blocked Davidson
 Davidson routine will perform the subspace rotation
 perform sub-space diagonalisation
    after iterative eigenvector-optimisation
 modified Broyden-mixing scheme, WC =      100.0
 initial mixing is a Kerker type mixing with AMIX =  0.4000 and BMIX =      1.0000
 Hartree-type preconditioning will be used
 using additional bands           17
 reciprocal scheme for non local part
 use partial core corrections
 calculate Harris-corrections to forces 
   (improved forces if not selfconsistent)
 use gradient corrections 
 use of overlap-Matrix (Vanderbilt PP)
 Gauss-broadening in eV      SIGMA  =   0.00


--------------------------------------------------------------------------------------------------------


  energy-cutoff  :      250.93
  volume of cell :     7527.71
      direct lattice vectors                 reciprocal lattice vectors
    19.598417796  0.000000000  0.000000000     0.051024527  0.000000000  0.000000000
     0.000000000 19.598417796  0.000000000     0.000000000  0.051024527  0.000000000
     0.000000000  0.000000000 19.598417796     0.000000000  0.000000000  0.051024527

  length of vectors
    19.598417796 19.598417796 19.598417796     0.051024527  0.051024527  0.051024527


 
 k-points in units of 2pi/SCALE and weight: Gamma-point only                        
   0.00000000  0.00000000  0.00000000       1.000
 
 k-points in reciprocal lattice and weights: Gamma-point only                        
   0.00000000  0.00000000  0.00000000       1.000
 
 position of ions in fractional coordinates (direct lattice) 
   0.36390773  0.59935604  0.45708100
   0.46503368  0.52235221  0.41374529
   0.48167647  0.64567986  0.47673817
   0.57372046  0.56200159  0.50249540
   0.32780845  0.47507799  0.45711459
   0.56225670  0.44772928  0.43571325
   0.43884593  0.53133498  0.54529276
   0.43737340  0.41014727  0.48494439
   0.53438303  0.45593233  0.57288127
   0.54488904  0.33652648  0.51088143
   0.65651121  0.40195825  0.52939630
 
 position of ions in cartesian coordinates  (Angst):
   7.13201565 11.74643016  8.95806449
   9.11392439 10.23727691  8.10875296
   9.44009660 12.65430368  9.34331378
  11.24401319 11.01434187  9.84811479
   6.42452690  9.31077691  8.95872272
  11.01934175  8.77478550  8.53929030
   8.60068591 10.41332491 10.68687530
   8.57182661  8.03823754  9.50414279
  10.47306179  8.93555222 11.22756643
  10.67896301  6.59538651 10.01246768
  12.86658093  7.87774572 10.37532994
 


--------------------------------------------------------------------------------------------------------


 use parallel FFT for wavefunctions z direction half grid
 k-point  1 :   0.0000 0.0000 0.0000  plane waves:   33858

 maximum and minimum number of plane-waves per node :      4238     4222

 maximum number of plane-waves:     33858
 maximum index in each direction: 
   IXMAX=   25   IYMAX=   25   IZMAX=   25
   IXMIN=  -25   IYMIN=  -25   IZMIN=    0

 WARNING: aliasing errors must be expected set NGX to 102 to avoid them
 WARNING: aliasing errors must be expected set NGY to 102 to avoid them
 WARNING: aliasing errors must be expected set NGZ to 102 to avoid them
 aliasing errors are usually negligible using standard VASP settings
 and one can safely disregard these warnings

 parallel 3D FFT for wavefunctions:
    minimum data exchange during FFTs selected (reduces bandwidth)
 parallel 3D FFT for charge:
    minimum data exchange during FFTs selected (reduces bandwidth)


 total amount of memory used by VASP on root node    54056. kBytes
========================================================================

   base      :      30000. kBytes
   nonl-proj :       1355. kBytes
   fftplans  :       5769. kBytes
   grid      :      14451. kBytes
   one-center:         31. kBytes
   wavefun   :       2450. kBytes
 
     INWAV:  cpu time    0.00: real time    0.00
 Broyden mixing: mesh for mixing (old mesh)
   NGX = 51   NGY = 51   NGZ = 51
  (NGX  =160   NGY  =160   NGZ  =160)
  gives a total of 132651 points

 initial charge density was supplied:
 charge density of overlapping atoms calculated
 number of electron     110.0000000 magnetization      11.0000000
 keeping initial charge density in first step


--------------------------------------------------------------------------------------------------------


 Maximum index for augmentation-charges          206 (set IRDMAX)


--------------------------------------------------------------------------------------------------------


 First call to EWALD:  gamma=   0.090
 Maximum number of real-space cells 3x 3x 3
 Maximum number of reciprocal cells 3x 3x 3

 FEWALD executed in parallel
    FEWALD:  cpu time    0.00: real time    0.00


----------------------------------------- Iteration    1(   1)  ---------------------------------------


    POTLOK:  cpu time    0.24: real time    0.23
    SETDIJ:  cpu time    0.01: real time    0.01
     EDDAV:  cpu time    0.66: real time    0.66
       DOS:  cpu time    0.00: real time    0.00
    --------------------------------------------
      LOOP:  cpu time    0.90: real time    0.93

 eigenvalue-minimisations  :   288
 total energy-change (2. order) : 0.9349633E+03  (-0.1560282E+04)
 number of electron     110.0000000 magnetization      11.0000000
 augmentation part      110.0000000 magnetization      11.0000000

 Free energy of the ion-electron system (eV)
  ---------------------------------------------------
  alpha Z        PSCENC =        10.47622638
  Ewald energy   TEWEN  =     11194.95385803
  -Hartree energ DENC   =    -19678.12808199
  -exchange      EXHF   =         0.00000000
  -V(xc)+E(xc)   XCENC  =      -331.80453227
  PAW double counting   =      8873.12721117    -8188.75509675
  entropy T*S    EENTRO =        -0.00000000
  eigenvalues    EBANDS =       148.52860760
  atomic energy  EATOM  =      8906.56515536
  ---------------------------------------------------
  free energy    TOTEN  =       934.96334752 eV

  energy without entropy =      934.96334752  energy(sigma->0) =      934.96334752


--------------------------------------------------------------------------------------------------------




----------------------------------------- Iteration    1(   2)  ---------------------------------------


     EDDAV:  cpu time    1.12: real time    1.12
       DOS:  cpu time    0.00: real time    0.00
    --------------------------------------------
      LOOP:  cpu time    1.12: real time    1.13

 eigenvalue-minimisations  :   544
 total energy-change (2. order) :-0.4982991E+03  (-0.4421250E+03)
 number of electron     110.0000000 magnetization      11.0000000
 augmentation part      110.0000000 magnetization      11.0000000

 Free energy of the ion-electron system (eV)
  ---------------------------------------------------
  alpha Z        PSCENC =        10.47622638
  Ewald energy   TEWEN  =     11194.95385803
  -Hartree energ DENC   =    -19678.12808199
  -exchange      EXHF   =         0.00000000
  -V(xc)+E(xc)   XCENC  =      -331.80453227
  PAW double counting   =      8873.12721117    -8188.75509675
  entropy T*S    EENTRO =         0.00000000
  eigenvalues    EBANDS =      -349.77047136
  atomic energy  EATOM  =      8906.56515536
  ---------------------------------------------------
  free energy    TOTEN  =       436.66426857 eV

  energy without entropy =      436.66426857  energy(sigma->0) =      436.66426857


--------------------------------------------------------------------------------------------------------




----------------------------------------- Iteration    1(   3)  ---------------------------------------


     EDDAV:  cpu time    0.97: real time    0.97
       DOS:  cpu time    0.00: real time    0.00
    --------------------------------------------
      LOOP:  cpu time    0.97: real time    0.98

 eigenvalue-minimisations  :   456
 total energy-change (2. order) :-0.3810708E+03  (-0.3570058E+03)
 number of electron     110.0000000 magnetization      11.0000000
 augmentation part      110.0000000 magnetization      11.0000000

 Free energy of the ion-electron system (eV)
  ---------------------------------------------------
  alpha Z        PSCENC =        10.47622638
  Ewald energy   TEWEN  =     11194.95385803
  -Hartree energ DENC   =    -19678.12808199
  -exchange      EXHF   =         0.00000000
  -V(xc)+E(xc)   XCENC  =      -331.80453227
  PAW double counting   =      8873.12721117    -8188.75509675
  entropy T*S    EENTRO =         0.00000000
  eigenvalues    EBANDS =      -730.84129018
  atomic energy  EATOM  =      8906.56515536
  ---------------------------------------------------
  free energy    TOTEN  =        55.59344975 eV

  energy without entropy =       55.59344975  energy(sigma->0) =       55.59344975


--------------------------------------------------------------------------------------------------------




----------------------------------------- Iteration    1(   4)  ---------------------------------------


     EDDAV:  cpu time    0.85: real time    0.85
       DOS:  cpu time    0.00: real time    0.00
    --------------------------------------------
      LOOP:  cpu time    0.85: real time    0.86

 eigenvalue-minimisations  :   384
 total energy-change (2. order) :-0.8792311E+02  (-0.7861461E+02)
 number of electron     110.0000000 magnetization      11.0000000
 augmentation part      110.0000000 magnetization      11.0000000

 Free energy of the ion-electron system (eV)
  ---------------------------------------------------
  alpha Z        PSCENC =        10.47622638
  Ewald energy   TEWEN  =     11194.95385803
  -Hartree energ DENC   =    -19678.12808199
  -exchange      EXHF   =         0.00000000
  -V(xc)+E(xc)   XCENC  =      -331.80453227
  PAW double counting   =      8873.12721117    -8188.75509675
  entropy T*S    EENTRO =         0.00000000
  eigenvalues    EBANDS =      -818.76440334
  atomic energy  EATOM  =      8906.56515536
  ---------------------------------------------------
  free energy    TOTEN  =       -32.32966341 eV

  energy without entropy =      -32.32966341  energy(sigma->0) =      -32.32966341


--------------------------------------------------------------------------------------------------------




----------------------------------------- Iteration    1(   5)  ---------------------------------------


     EDDAV:  cpu time    0.80: real time    0.80
       DOS:  cpu time    0.00: real time    0.00
    CHARGE:  cpu time    0.05: real time    0.05
    MIXING:  cpu time    0.00: real time    0.01
    --------------------------------------------
      LOOP:  cpu time    0.86: real time    0.92

 eigenvalue-minimisations  :   360
 total energy-change (2. order) :-0.1003011E+02  (-0.8203553E+01)
 number of electron     110.0000121 magnetization      10.2543798
 augmentation part       47.0012482 magnetization       7.2833175

 Broyden mixing:
  rms(total) = 0.18760E+01    rms(broyden)= 0.18731E+01
  rms(prec ) = 0.19503E+01
  weight for this iteration     100.00

 Free energy of the ion-electron system (eV)
  ---------------------------------------------------
  alpha Z        PSCENC =        10.47622638
  Ewald energy   TEWEN  =     11194.95385803
  -Hartree energ DENC   =    -19678.12808199
  -exchange      EXHF   =         0.00000000
  -V(xc)+E(xc)   XCENC  =      -331.80453227
  PAW double counting   =      8873.12721117    -8188.75509675
  entropy T*S    EENTRO =        -0.00000000
  eigenvalues    EBANDS =      -828.79451779
  atomic energy  EATOM  =      8906.56515536
  ---------------------------------------------------
  free energy    TOTEN  =       -42.35977786 eV

  energy without entropy =      -42.35977786  energy(sigma->0) =      -42.35977786


--------------------------------------------------------------------------------------------------------




----------------------------------------- Iteration    1(   6)  ---------------------------------------


    POTLOK:  cpu time    0.23: real time    0.23
    SETDIJ:  cpu time    0.01: real time    0.01
     EDDAV:  cpu time    0.69: real time    0.69
       DOS:  cpu time    0.00: real time    0.00
    CHARGE:  cpu time    0.05: real time    0.05
    MIXING:  cpu time    0.00: real time    0.01
    --------------------------------------------
      LOOP:  cpu time    0.99: real time    1.00

 eigenvalue-minimisations  :   296
 total energy-change (2. order) : 0.4418003E+01  (-0.1578979E+01)
 number of electron     110.0000123 magnetization       9.6122530
 augmentation part       47.2289471 magnetization       6.1151724

 Broyden mixing:
  rms(total) = 0.10384E+01    rms(broyden)= 0.10372E+01
  rms(prec ) = 0.10909E+01
  weight for this iteration     100.00

 eigenvalues of (default mixing * dielectric matrix)
  average eigenvalue GAMMA=   0.7967
  0.7967

 Free energy of the ion-electron system (eV)
  ---------------------------------------------------
  alpha Z        PSCENC =        10.47622638
  Ewald energy   TEWEN  =     11194.95385803
  -Hartree energ DENC   =    -19735.67929314
  -exchange      EXHF   =         0.00000000
  -V(xc)+E(xc)   XCENC  =      -330.33949841
  PAW double counting   =      9445.30018949    -8766.17493098
  entropy T*S    EENTRO =         0.00000000
  eigenvalues    EBANDS =      -763.04348113
  atomic energy  EATOM  =      8906.56515536
  ---------------------------------------------------
  free energy    TOTEN  =       -37.94177441 eV

  energy without entropy =      -37.94177441  energy(sigma->0) =      -37.94177441


--------------------------------------------------------------------------------------------------------




----------------------------------------- Iteration    1(   7)  ---------------------------------------


    POTLOK:  cpu time    0.23: real time    0.23
    SETDIJ:  cpu time    0.00: real time    0.01
     EDDAV:  cpu time    0.71: real time    0.71
       DOS:  cpu time    0.00: real time    0.00
    CHARGE:  cpu time    0.05: real time    0.05
    MIXING:  cpu time    0.01: real time    0.01
    --------------------------------------------
      LOOP:  cpu time    1.01: real time    1.01

 eigenvalue-minimisations  :   304
 total energy-change (2. order) : 0.2770624E+01  (-0.8896352E+00)
 number of electron     110.0000118 magnetization       9.0837403
 augmentation part       47.1198165 magnetization       6.7071146

 Broyden mixing:
  rms(total) = 0.15197E+01    rms(broyden)= 0.15162E+01
  rms(prec ) = 0.17532E+01
  weight for this iteration     100.00

 eigenvalues of (default mixing * dielectric matrix)
  average eigenvalue GAMMA=   0.7308
  0.3662  1.0954

 Free energy of the ion-electron system (eV)
  ---------------------------------------------------
  alpha Z        PSCENC =        10.47622638
  Ewald energy   TEWEN  =     11194.95385803
  -Hartree energ DENC   =    -19769.13091500
  -exchange      EXHF   =         0.00000000
  -V(xc)+E(xc)   XCENC  =      -326.75815215
  PAW double counting   =      9752.47747136    -9075.47935673
  entropy T*S    EENTRO =         0.00000000
  eigenvalues    EBANDS =      -728.27543791
  atomic energy  EATOM  =      8906.56515536
  ---------------------------------------------------
  free energy    TOTEN  =       -35.17115066 eV

  energy without entropy =      -35.17115066  energy(sigma->0) =      -35.17115066


--------------------------------------------------------------------------------------------------------




----------------------------------------- Iteration    1(   8)  ---------------------------------------


    POTLOK:  cpu time    0.23: real time    0.23
    SETDIJ:  cpu time    0.01: real time    0.01
     EDDAV:  cpu time    0.72: real time    0.72
       DOS:  cpu time    0.00: real time    0.00
    CHARGE:  cpu time    0.05: real time    0.05
    MIXING:  cpu time    0.01: real time    0.01
    --------------------------------------------
      LOOP:  cpu time    1.02: real time    1.02

 eigenvalue-minimisations  :   312
 total energy-change (2. order) : 0.2173387E+01  (-0.1594345E+01)
 number of electron     110.0000152 magnetization       8.7584165
 augmentation part       47.0128570 magnetization       6.1723443

 Broyden mixing:
  rms(total) = 0.12408E+01    rms(broyden)= 0.12351E+01
  rms(prec ) = 0.15143E+01
  weight for this iteration     100.00

 eigenvalues of (default mixing * dielectric matrix)
  average eigenvalue GAMMA=   0.6832
  1.3520  0.4818  0.2157

 Free energy of the ion-electron system (eV)
  ---------------------------------------------------
  alpha Z        PSCENC =        10.47622638
  Ewald energy   TEWEN  =     11194.95385803
  -Hartree energ DENC   =    -19793.28958890
  -exchange      EXHF   =         0.00000000
  -V(xc)+E(xc)   XCENC  =      -325.05984380
  PAW double counting   =      9917.52230790    -9241.77553203
  entropy T*S    EENTRO =        -0.00000000
  eigenvalues    EBANDS =      -702.39034672
  atomic energy  EATOM  =      8906.56515536
  ---------------------------------------------------
  free energy    TOTEN  =       -32.99776378 eV

  energy without entropy =      -32.99776378  energy(sigma->0) =      -32.99776378


--------------------------------------------------------------------------------------------------------




----------------------------------------- Iteration    1(   9)  ---------------------------------------


    POTLOK:  cpu time    0.23: real time    0.23
    SETDIJ:  cpu time    0.00: real time    0.01
     EDDAV:  cpu time    0.72: real time    0.72
       DOS:  cpu time    0.00: real time    0.00
    CHARGE:  cpu time    0.05: real time    0.05
    MIXING:  cpu time    0.01: real time    0.01
    --------------------------------------------
      LOOP:  cpu time    1.02: real time    1.02

 eigenvalue-minimisations  :   312
 total energy-change (2. order) : 0.1305876E+01  (-0.8104236E+00)
 number of electron     110.0000115 magnetization       8.3614670
 augmentation part       47.1248892 magnetization       4.6660143

 Broyden mixing:
  rms(total) = 0.75920E+00    rms(broyden)= 0.75119E+00
  rms(prec ) = 0.84761E+00
  weight for this iteration     100.00

 eigenvalues of (default mixing * dielectric matrix)
  average eigenvalue GAMMA=   0.6970
  1.7277  0.6499  0.2051  0.2051

 Free energy of the ion-electron system (eV)
  ---------------------------------------------------
  alpha Z        PSCENC =        10.47622638
  Ewald energy   TEWEN  =     11194.95385803
  -Hartree energ DENC   =    -19803.16223233
  -exchange      EXHF   =         0.00000000
  -V(xc)+E(xc)   XCENC  =      -324.63046808
  PAW double counting   =      9989.41657775    -9314.30456876
  entropy T*S    EENTRO =         0.00000000
  eigenvalues    EBANDS =      -691.00643598
  atomic energy  EATOM  =      8906.56515536
  ---------------------------------------------------
  free energy    TOTEN  =       -31.69188764 eV

  energy without entropy =      -31.69188764  energy(sigma->0) =      -31.69188764


--------------------------------------------------------------------------------------------------------




----------------------------------------- Iteration    1(  10)  ---------------------------------------


    POTLOK:  cpu time    0.23: real time    0.23
    SETDIJ:  cpu time    0.00: real time    0.01
     EDDAV:  cpu time    0.74: real time    0.74
       DOS:  cpu time    0.00: real time    0.00
    CHARGE:  cpu time    0.05: real time    0.05
    MIXING:  cpu time    0.01: real time    0.01
    --------------------------------------------
      LOOP:  cpu time    1.03: real time    1.04

 eigenvalue-minimisations  :   320
 total energy-change (2. order) :-0.5107239E+00  (-0.1991525E+00)
 number of electron     110.0000139 magnetization       8.2483712
 augmentation part       47.0522944 magnetization       4.6810405

 Broyden mixing:
  rms(total) = 0.47006E+00    rms(broyden)= 0.46605E+00
  rms(prec ) = 0.51716E+00
  weight for this iteration     100.00

 eigenvalues of (default mixing * dielectric matrix)
  average eigenvalue GAMMA=   0.6112
  1.7254  0.6319  0.2523  0.2523  0.1941

 Free energy of the ion-electron system (eV)
  ---------------------------------------------------
  alpha Z        PSCENC =        10.47622638
  Ewald energy   TEWEN  =     11194.95385803
  -Hartree energ DENC   =    -19813.81053078
  -exchange      EXHF   =         0.00000000
  -V(xc)+E(xc)   XCENC  =      -325.04715754
  PAW double counting   =     10071.10606784    -9396.49493989
  entropy T*S    EENTRO =        -0.00000000
  eigenvalues    EBANDS =      -679.95129097
  atomic energy  EATOM  =      8906.56515536
  ---------------------------------------------------
  free energy    TOTEN  =       -32.20261156 eV

  energy without entropy =      -32.20261156  energy(sigma->0) =      -32.20261156


--------------------------------------------------------------------------------------------------------




----------------------------------------- Iteration    1(  11)  ---------------------------------------


    POTLOK:  cpu time    0.23: real time    0.23
    SETDIJ:  cpu time    0.00: real time    0.01
     EDDAV:  cpu time    0.74: real time    0.74
       DOS:  cpu time    0.00: real time    0.00
    CHARGE:  cpu time    0.05: real time    0.05
    MIXING:  cpu time    0.01: real time    0.01
    --------------------------------------------
      LOOP:  cpu time    1.03: real time    1.03

 eigenvalue-minimisations  :   320
 total energy-change (2. order) :-0.7905543E+00  (-0.5893597E-01)
 number of electron     110.0000132 magnetization       8.1524403
 augmentation part       47.0247837 magnetization       4.6795163

 Broyden mixing:
  rms(total) = 0.32289E+00    rms(broyden)= 0.32155E+00
  rms(prec ) = 0.34896E+00
  weight for this iteration     100.00

 eigenvalues of (default mixing * dielectric matrix)
  average eigenvalue GAMMA=   0.5536
  1.6947  0.5681  0.3298  0.3298  0.1996  0.1996

 Free energy of the ion-electron system (eV)
  ---------------------------------------------------
  alpha Z        PSCENC =        10.47622638
  Ewald energy   TEWEN  =     11194.95385803
  -Hartree energ DENC   =    -19816.08723374
  -exchange      EXHF   =         0.00000000
  -V(xc)+E(xc)   XCENC  =      -325.65689056
  PAW double counting   =     10081.89278092    -9407.36697863
  entropy T*S    EENTRO =        -0.00000000
  eigenvalues    EBANDS =      -677.77008358
  atomic energy  EATOM  =      8906.56515536
  ---------------------------------------------------
  free energy    TOTEN  =       -32.99316583 eV

  energy without entropy =      -32.99316583  energy(sigma->0) =      -32.99316583


--------------------------------------------------------------------------------------------------------




----------------------------------------- Iteration    1(  12)  ---------------------------------------


    POTLOK:  cpu time    0.23: real time    0.23
    SETDIJ:  cpu time    0.00: real time    0.01
     EDDAV:  cpu time    0.72: real time    0.72
       DOS:  cpu time    0.00: real time    0.00
    CHARGE:  cpu time    0.05: real time    0.05
    MIXING:  cpu time    0.01: real time    0.01
    --------------------------------------------
      LOOP:  cpu time    1.02: real time    1.02

 eigenvalue-minimisations  :   312
 total energy-change (2. order) :-0.8491103E+00  (-0.3599765E-01)
 number of electron     110.0000122 magnetization       8.0811290
 augmentation part       47.0276946 magnetization       4.6602303

 Broyden mixing:
  rms(total) = 0.36980E+00    rms(broyden)= 0.36427E+00
  rms(prec ) = 0.38474E+00
  weight for this iteration     100.00

 eigenvalues of (default mixing * dielectric matrix)
  average eigenvalue GAMMA=   0.5322
  1.7237  0.5292  0.4123  0.4123  0.2552  0.1963  0.1963

 Free energy of the ion-electron system (eV)
  ---------------------------------------------------
  alpha Z        PSCENC =        10.47622638
  Ewald energy   TEWEN  =     11194.95385803
  -Hartree energ DENC   =    -19817.72536844
  -exchange      EXHF   =         0.00000000
  -V(xc)+E(xc)   XCENC  =      -326.27044743
  PAW double counting   =     10084.31801790    -9409.85501915
  entropy T*S    EENTRO =        -0.00000000
  eigenvalues    EBANDS =      -676.30469878
  atomic energy  EATOM  =      8906.56515536
  ---------------------------------------------------
  free energy    TOTEN  =       -33.84227613 eV

  energy without entropy =      -33.84227613  energy(sigma->0) =      -33.84227613


--------------------------------------------------------------------------------------------------------




----------------------------------------- Iteration    1(  13)  ---------------------------------------


    POTLOK:  cpu time    0.23: real time    0.23
    SETDIJ:  cpu time    0.01: real time    0.01
     EDDAV:  cpu time    0.68: real time    0.68
       DOS:  cpu time    0.00: real time    0.00
    CHARGE:  cpu time    0.05: real time    0.05
    MIXING:  cpu time    0.01: real time    0.01
    --------------------------------------------
      LOOP:  cpu time    0.98: real time    0.98

 eigenvalue-minimisations  :   288
 total energy-change (2. order) :-0.5844301E+00  (-0.1606664E-01)
 number of electron     110.0000121 magnetization       7.9594021
 augmentation part       47.0246027 magnetization       4.5970360

 Broyden mixing:
  rms(total) = 0.24883E+00    rms(broyden)= 0.24824E+00
  rms(prec ) = 0.26113E+00
  weight for this iteration     100.00

 eigenvalues of (default mixing * dielectric matrix)
  average eigenvalue GAMMA=   0.5758
  1.7379  0.6731  0.6731  0.5330  0.2977  0.2977  0.1970  0.1970

 Free energy of the ion-electron system (eV)
  ---------------------------------------------------
  alpha Z        PSCENC =        10.47622638
  Ewald energy   TEWEN  =     11194.95385803
  -Hartree energ DENC   =    -19819.64381606
  -exchange      EXHF   =         0.00000000
  -V(xc)+E(xc)   XCENC  =      -326.68141422
  PAW double counting   =     10088.08645139    -9413.66986703
  entropy T*S    EENTRO =         0.00000000
  eigenvalues    EBANDS =      -674.51330003
  atomic energy  EATOM  =      8906.56515536
  ---------------------------------------------------
  free energy    TOTEN  =       -34.42670619 eV

  energy without entropy =      -34.42670619  energy(sigma->0) =      -34.42670619


--------------------------------------------------------------------------------------------------------




----------------------------------------- Iteration    1(  14)  ---------------------------------------


    POTLOK:  cpu time    0.23: real time    0.23
    SETDIJ:  cpu time    0.00: real time    0.01
     EDDAV:  cpu time    0.73: real time    0.73
       DOS:  cpu time    0.00: real time    0.00
    CHARGE:  cpu time    0.05: real time    0.05
    MIXING:  cpu time    0.01: real time    0.01
    --------------------------------------------
      LOOP:  cpu time    1.02: real time    1.04

 eigenvalue-minimisations  :   312
 total energy-change (2. order) :-0.7250201E+00  (-0.1316588E-01)
 number of electron     110.0000120 magnetization       7.6660216
 augmentation part       47.0040630 magnetization       4.3631566

 Broyden mixing:
  rms(total) = 0.19798E+00    rms(broyden)= 0.19773E+00
  rms(prec ) = 0.21444E+00
  weight for this iteration     100.00

 eigenvalues of (default mixing * dielectric matrix)
  average eigenvalue GAMMA=   0.6258
  1.7924  0.9153  0.9153  0.6257  0.3575  0.3575  0.2772  0.1956  0.1956

 Free energy of the ion-electron system (eV)
  ---------------------------------------------------
  alpha Z        PSCENC =        10.47622638
  Ewald energy   TEWEN  =     11194.95385803
  -Hartree energ DENC   =    -19821.73777650
  -exchange      EXHF   =         0.00000000
  -V(xc)+E(xc)   XCENC  =      -327.21653261
  PAW double counting   =     10091.28986358    -9416.93241320
  entropy T*S    EENTRO =         0.00000000
  eigenvalues    EBANDS =      -672.55010734
  atomic energy  EATOM  =      8906.56515536
  ---------------------------------------------------
  free energy    TOTEN  =       -35.15172630 eV

  energy without entropy =      -35.15172630  energy(sigma->0) =      -35.15172630


--------------------------------------------------------------------------------------------------------




----------------------------------------- Iteration    1(  15)  ---------------------------------------


    POTLOK:  cpu time    0.23: real time    0.23
    SETDIJ:  cpu time    0.01: real time    0.01
     EDDAV:  cpu time    0.71: real time    0.71
       DOS:  cpu time    0.00: real time    0.00
    CHARGE:  cpu time    0.05: real time    0.05
    MIXING:  cpu time    0.01: real time    0.01
    --------------------------------------------
      LOOP:  cpu time    1.01: real time    1.01

 eigenvalue-minimisations  :   304
 total energy-change (2. order) :-0.1249912E+01  (-0.3030914E-01)
 number of electron     110.0000126 magnetization       7.4716731
 augmentation part       47.0092171 magnetization       4.2848538

 Broyden mixing:
  rms(total) = 0.19666E+00    rms(broyden)= 0.19475E+00
  rms(prec ) = 0.21488E+00
  weight for this iteration     100.00

 eigenvalues of (default mixing * dielectric matrix)
  average eigenvalue GAMMA=   0.6035
  1.8309  0.8942  0.8942  0.7041  0.4071  0.4071  0.1955  0.1955  0.2533  0.2533

 Free energy of the ion-electron system (eV)
  ---------------------------------------------------
  alpha Z        PSCENC =        10.47622638
  Ewald energy   TEWEN  =     11194.95385803
  -Hartree energ DENC   =    -19826.16235836
  -exchange      EXHF   =         0.00000000
  -V(xc)+E(xc)   XCENC  =      -328.17669461
  PAW double counting   =     10099.94431857    -9425.80558107
  entropy T*S    EENTRO =        -0.00000000
  eigenvalues    EBANDS =      -668.19656290
  atomic energy  EATOM  =      8906.56515536
  ---------------------------------------------------
  free energy    TOTEN  =       -36.40163861 eV

  energy without entropy =      -36.40163861  energy(sigma->0) =      -36.40163861


--------------------------------------------------------------------------------------------------------




----------------------------------------- Iteration    1(  16)  ---------------------------------------


    POTLOK:  cpu time    0.23: real time    0.23
    SETDIJ:  cpu time    0.01: real time    0.01
     EDDAV:  cpu time    0.74: real time    0.74
       DOS:  cpu time    0.00: real time    0.00
    CHARGE:  cpu time    0.05: real time    0.05
    MIXING:  cpu time    0.01: real time    0.01
    --------------------------------------------
      LOOP:  cpu time    1.03: real time    1.04

 eigenvalue-minimisations  :   320
 total energy-change (2. order) :-0.6735540E+00  (-0.2012242E-01)
 number of electron     110.0000124 magnetization       7.3688506
 augmentation part       46.9892335 magnetization       4.2580812

 Broyden mixing:
  rms(total) = 0.16068E+00    rms(broyden)= 0.15946E+00
  rms(prec ) = 0.17121E+00
  weight for this iteration     100.00

 eigenvalues of (default mixing * dielectric matrix)
  average eigenvalue GAMMA=   0.5926
  1.8611  0.8296  0.8296  0.6892  0.5658  0.5658  0.2920  0.2920  0.1957  0.1957
  0.2018

 Free energy of the ion-electron system (eV)
  ---------------------------------------------------
  alpha Z        PSCENC =        10.47622638
  Ewald energy   TEWEN  =     11194.95385803
  -Hartree energ DENC   =    -19829.06700982
  -exchange      EXHF   =         0.00000000
  -V(xc)+E(xc)   XCENC  =      -328.69171609
  PAW double counting   =     10104.39177873    -9430.38775414
  entropy T*S    EENTRO =        -0.00000000
  eigenvalues    EBANDS =      -665.31573105
  atomic energy  EATOM  =      8906.56515536
  ---------------------------------------------------
  free energy    TOTEN  =       -37.07519260 eV

  energy without entropy =      -37.07519260  energy(sigma->0) =      -37.07519260


--------------------------------------------------------------------------------------------------------




----------------------------------------- Iteration    1(  17)  ---------------------------------------


    POTLOK:  cpu time    0.23: real time    0.23
    SETDIJ:  cpu time    0.01: real time    0.01
     EDDAV:  cpu time    0.74: real time    0.74
       DOS:  cpu time    0.00: real time    0.00
    CHARGE:  cpu time    0.05: real time    0.05
    MIXING:  cpu time    0.01: real time    0.01
    --------------------------------------------
      LOOP:  cpu time    1.04: real time    1.04

 eigenvalue-minimisations  :   320
 total energy-change (2. order) :-0.2952990E+00  (-0.6854204E-02)
 number of electron     110.0000124 magnetization       7.1627884
 augmentation part       46.9919048 magnetization       4.0785609

 Broyden mixing:
  rms(total) = 0.96365E-01    rms(broyden)= 0.95994E-01
  rms(prec ) = 0.10389E+00
  weight for this iteration     100.00

 eigenvalues of (default mixing * dielectric matrix)
  average eigenvalue GAMMA=   0.6416
  2.0043  1.3530  0.7365  0.7365  0.6534  0.6534  0.3328  0.3328  0.3169  0.1955
  0.1955  0.1887

 Free energy of the ion-electron system (eV)
  ---------------------------------------------------
  alpha Z        PSCENC =        10.47622638
  Ewald energy   TEWEN  =     11194.95385803
  -Hartree energ DENC   =    -19830.14483953
  -exchange      EXHF   =         0.00000000
  -V(xc)+E(xc)   XCENC  =      -328.92446816
  PAW double counting   =     10104.74499675    -9430.80818772
  entropy T*S    EENTRO =         0.00000000
  eigenvalues    EBANDS =      -664.23323267
  atomic energy  EATOM  =      8906.56515536
  ---------------------------------------------------
  free energy    TOTEN  =       -37.37049157 eV

  energy without entropy =      -37.37049157  energy(sigma->0) =      -37.37049157


--------------------------------------------------------------------------------------------------------




----------------------------------------- Iteration    1(  18)  ---------------------------------------


    POTLOK:  cpu time    0.23: real time    0.23
    SETDIJ:  cpu time    0.01: real time    0.01
     EDDAV:  cpu time    0.74: real time    0.74
       DOS:  cpu time    0.00: real time    0.00
    CHARGE:  cpu time    0.05: real time    0.05
    MIXING:  cpu time    0.01: real time    0.01
    --------------------------------------------
      LOOP:  cpu time    1.04: real time    1.04

 eigenvalue-minimisations  :   320
 total energy-change (2. order) :-0.5598248E+00  (-0.9243825E-02)
 number of electron     110.0000124 magnetization       6.9782415
 augmentation part       46.9993007 magnetization       3.9406351

 Broyden mixing:
  rms(total) = 0.90146E-01    rms(broyden)= 0.89710E-01
  rms(prec ) = 0.99303E-01
  weight for this iteration     100.00

 eigenvalues of (default mixing * dielectric matrix)
  average eigenvalue GAMMA=   0.6538
  2.1922  1.4581  0.7680  0.7680  0.6796  0.6796  0.4444  0.3284  0.3284  0.2769
  0.1959  0.1959  0.1832

 Free energy of the ion-electron system (eV)
  ---------------------------------------------------
  alpha Z        PSCENC =        10.47622638
  Ewald energy   TEWEN  =     11194.95385803
  -Hartree energ DENC   =    -19832.51072117
  -exchange      EXHF   =         0.00000000
  -V(xc)+E(xc)   XCENC  =      -329.37920331
  PAW double counting   =     10103.95599660    -9430.15237426
  entropy T*S    EENTRO =         0.00000000
  eigenvalues    EBANDS =      -661.83925399
  atomic energy  EATOM  =      8906.56515536
  ---------------------------------------------------
  free energy    TOTEN  =       -37.93031635 eV

  energy without entropy =      -37.93031635  energy(sigma->0) =      -37.93031635


--------------------------------------------------------------------------------------------------------




----------------------------------------- Iteration    1(  19)  ---------------------------------------


    POTLOK:  cpu time    0.23: real time    0.23
    SETDIJ:  cpu time    0.01: real time    0.01
     EDDAV:  cpu time    0.75: real time    0.75
       DOS:  cpu time    0.00: real time    0.00
    CHARGE:  cpu time    0.05: real time    0.05
    MIXING:  cpu time    0.01: real time    0.01
    --------------------------------------------
      LOOP:  cpu time    1.05: real time    1.05

 eigenvalue-minimisations  :   328
 total energy-change (2. order) :-0.4282241E+00  (-0.5081021E-02)
 number of electron     110.0000122 magnetization       6.8226507
 augmentation part       46.9974212 magnetization       3.8125278

 Broyden mixing:
  rms(total) = 0.55438E-01    rms(broyden)= 0.55017E-01
  rms(prec ) = 0.62988E-01
  weight for this iteration     100.00

 eigenvalues of (default mixing * dielectric matrix)
  average eigenvalue GAMMA=   0.6749
  2.3027  1.3841  0.7837  0.7837  0.8340  0.8340  0.6278  0.4107  0.3230  0.3230
  0.2651  0.1956  0.1956  0.1857

 Free energy of the ion-electron system (eV)
  ---------------------------------------------------
  alpha Z        PSCENC =        10.47622638
  Ewald energy   TEWEN  =     11194.95385803
  -Hartree energ DENC   =    -19834.60318063
  -exchange      EXHF   =         0.00000000
  -V(xc)+E(xc)   XCENC  =      -329.74306322
  PAW double counting   =     10101.20356024    -9427.49404686
  entropy T*S    EENTRO =         0.00000000
  eigenvalues    EBANDS =      -659.71704972
  atomic energy  EATOM  =      8906.56515536
  ---------------------------------------------------
  free energy    TOTEN  =       -38.35854042 eV

  energy without entropy =      -38.35854042  energy(sigma->0) =      -38.35854042


--------------------------------------------------------------------------------------------------------




----------------------------------------- Iteration    1(  20)  ---------------------------------------


    POTLOK:  cpu time    0.23: real time    0.23
    SETDIJ:  cpu time    0.00: real time    0.01
     EDDAV:  cpu time    0.72: real time    0.72
       DOS:  cpu time    0.00: real time    0.00
    CHARGE:  cpu time    0.05: real time    0.05
    MIXING:  cpu time    0.01: real time    0.01
    --------------------------------------------
      LOOP:  cpu time    1.02: real time    1.03

 eigenvalue-minimisations  :   312
 total energy-change (2. order) :-0.3141446E+00  (-0.2256889E-02)
 number of electron     110.0000124 magnetization       6.6479524
 augmentation part       46.9962395 magnetization       3.6571311

 Broyden mixing:
  rms(total) = 0.41953E-01    rms(broyden)= 0.41726E-01
  rms(prec ) = 0.45756E-01
  weight for this iteration     100.00

 eigenvalues of (default mixing * dielectric matrix)
  average eigenvalue GAMMA=   0.7043
  2.4797  1.4320  1.4320  0.7690  0.7690  0.6864  0.5898  0.5898  0.3388  0.3388
  0.2810  0.2810  0.1956  0.1956  0.1858

 Free energy of the ion-electron system (eV)
  ---------------------------------------------------
  alpha Z        PSCENC =        10.47622638
  Ewald energy   TEWEN  =     11194.95385803
  -Hartree energ DENC   =    -19836.16219210
  -exchange      EXHF   =         0.00000000
  -V(xc)+E(xc)   XCENC  =      -330.02651294
  PAW double counting   =     10097.50495560    -9423.85212954
  entropy T*S    EENTRO =         0.00000000
  eigenvalues    EBANDS =      -658.13204584
  atomic energy  EATOM  =      8906.56515536
  ---------------------------------------------------
  free energy    TOTEN  =       -38.67268505 eV

  energy without entropy =      -38.67268505  energy(sigma->0) =      -38.67268505


--------------------------------------------------------------------------------------------------------




----------------------------------------- Iteration    1(  21)  ---------------------------------------


    POTLOK:  cpu time    0.23: real time    0.23
    SETDIJ:  cpu time    0.01: real time    0.01
     EDDAV:  cpu time    0.72: real time    0.72
       DOS:  cpu time    0.00: real time    0.00
    CHARGE:  cpu time    0.05: real time    0.05
    MIXING:  cpu time    0.01: real time    0.01
    --------------------------------------------
      LOOP:  cpu time    1.02: real time    1.03

 eigenvalue-minimisations  :   312
 total energy-change (2. order) :-0.3181085E+00  (-0.2640614E-02)
 number of electron     110.0000127 magnetization       6.5356848
 augmentation part       46.9891407 magnetization       3.5717882

 Broyden mixing:
  rms(total) = 0.77102E-01    rms(broyden)= 0.76024E-01
  rms(prec ) = 0.82149E-01
  weight for this iteration     100.00

 eigenvalues of (default mixing * dielectric matrix)
  average eigenvalue GAMMA=   0.7020
  2.5822  1.7072  1.2785  0.7649  0.7649  0.7200  0.6227  0.6227  0.3799  0.3799
  0.2909  0.2909  0.2494  0.1957  0.1957  0.1855

 Free energy of the ion-electron system (eV)
  ---------------------------------------------------
  alpha Z        PSCENC =        10.47622638
  Ewald energy   TEWEN  =     11194.95385803
  -Hartree energ DENC   =    -19837.70913556
  -exchange      EXHF   =         0.00000000
  -V(xc)+E(xc)   XCENC  =      -330.31615433
  PAW double counting   =     10092.12076062    -9418.52245179
  entropy T*S    EENTRO =         0.00000000
  eigenvalues    EBANDS =      -656.55905222
  atomic energy  EATOM  =      8906.56515536
  ---------------------------------------------------
  free energy    TOTEN  =       -38.99079352 eV

  energy without entropy =      -38.99079352  energy(sigma->0) =      -38.99079352


--------------------------------------------------------------------------------------------------------




----------------------------------------- Iteration    1(  22)  ---------------------------------------


    POTLOK:  cpu time    0.23: real time    0.23
    SETDIJ:  cpu time    0.01: real time    0.01
     EDDAV:  cpu time    0.75: real time    0.75
       DOS:  cpu time    0.00: real time    0.00
    CHARGE:  cpu time    0.05: real time    0.05
    MIXING:  cpu time    0.01: real time    0.01
    --------------------------------------------
      LOOP:  cpu time    1.05: real time    1.06

 eigenvalue-minimisations  :   328
 total energy-change (2. order) :-0.1866326E+00  (-0.1623008E-02)
 number of electron     110.0000124 magnetization       6.4368281
 augmentation part       46.9998222 magnetization       3.4826581

 Broyden mixing:
  rms(total) = 0.37469E-01    rms(broyden)= 0.35921E-01
  rms(prec ) = 0.39402E-01
  weight for this iteration     100.00

 eigenvalues of (default mixing * dielectric matrix)
  average eigenvalue GAMMA=   0.7277
  2.8085  1.8335  1.0217  1.0217  0.7927  0.7927  0.6753  0.6753  0.5127  0.3986
  0.3986  0.3011  0.3011  0.2604  0.1957  0.1957  0.1857

 Free energy of the ion-electron system (eV)
  ---------------------------------------------------
  alpha Z        PSCENC =        10.47622638
  Ewald energy   TEWEN  =     11194.95385803
  -Hartree energ DENC   =    -19838.43208353
  -exchange      EXHF   =         0.00000000
  -V(xc)+E(xc)   XCENC  =      -330.48781625
  PAW double counting   =     10087.48076245    -9413.91535882
  entropy T*S    EENTRO =        -0.00000000
  eigenvalues    EBANDS =      -655.81816976
  atomic energy  EATOM  =      8906.56515536
  ---------------------------------------------------
  free energy    TOTEN  =       -39.17742615 eV

  energy without entropy =      -39.17742615  energy(sigma->0) =      -39.17742615


--------------------------------------------------------------------------------------------------------




----------------------------------------- Iteration    1(  23)  ---------------------------------------


    POTLOK:  cpu time    0.23: real time    0.23
    SETDIJ:  cpu time    0.01: real time    0.01
     EDDAV:  cpu time    0.72: real time    0.72
       DOS:  cpu time    0.00: real time    0.00
    CHARGE:  cpu time    0.05: real time    0.05
    MIXING:  cpu time    0.02: real time    0.01
    --------------------------------------------
      LOOP:  cpu time    1.03: real time    1.03

 eigenvalue-minimisations  :   312
 total energy-change (2. order) :-0.1614547E+00  (-0.1321199E-02)
 number of electron     110.0000127 magnetization       6.3146473
 augmentation part       46.9870273 magnetization       3.3815949

 Broyden mixing:
  rms(total) = 0.55766E-01    rms(broyden)= 0.54490E-01
  rms(prec ) = 0.58838E-01
  weight for this iteration     100.00

 eigenvalues of (default mixing * dielectric matrix)
  average eigenvalue GAMMA=   0.7676
  3.3094  2.0786  1.1749  1.1749  0.7133  0.7133  0.7418  0.7418  0.7007  0.3807
  0.3807  0.3050  0.3050  0.1957  0.1957  0.1856  0.2782  0.2412

 Free energy of the ion-electron system (eV)
  ---------------------------------------------------
  alpha Z        PSCENC =        10.47622638
  Ewald energy   TEWEN  =     11194.95385803
  -Hartree energ DENC   =    -19839.27935988
  -exchange      EXHF   =         0.00000000
  -V(xc)+E(xc)   XCENC  =      -330.63665539
  PAW double counting   =     10084.77005840    -9411.21611204
  entropy T*S    EENTRO =         0.00000000
  eigenvalues    EBANDS =      -654.97205175
  atomic energy  EATOM  =      8906.56515536
  ---------------------------------------------------
  free energy    TOTEN  =       -39.33888089 eV

  energy without entropy =      -39.33888089  energy(sigma->0) =      -39.33888089


--------------------------------------------------------------------------------------------------------




----------------------------------------- Iteration    1(  24)  ---------------------------------------


    POTLOK:  cpu time    0.23: real time    0.23
    SETDIJ:  cpu time    0.00: real time    0.01
     EDDAV:  cpu time    0.71: real time    0.71
       DOS:  cpu time    0.00: real time    0.00
    CHARGE:  cpu time    0.05: real time    0.05
    MIXING:  cpu time    0.01: real time    0.01
    --------------------------------------------
      LOOP:  cpu time    1.01: real time    1.02

 eigenvalue-minimisations  :   304
 total energy-change (2. order) :-0.1743998E+00  (-0.2000015E-02)
 number of electron     110.0000123 magnetization       6.2267015
 augmentation part       46.9989709 magnetization       3.2992016

 Broyden mixing:
  rms(total) = 0.55718E-01    rms(broyden)= 0.53878E-01
  rms(prec ) = 0.58893E-01
  weight for this iteration     100.00

 eigenvalues of (default mixing * dielectric matrix)
  average eigenvalue GAMMA=   0.7774
  3.5708  2.0700  1.0901  1.0901  0.8994  0.8020  0.8020  0.6929  0.6929  0.5881
  0.3799  0.3799  0.3093  0.3093  0.1957  0.1957  0.1856  0.2804  0.2360

 Free energy of the ion-electron system (eV)
  ---------------------------------------------------
  alpha Z        PSCENC =        10.47622638
  Ewald energy   TEWEN  =     11194.95385803
  -Hartree energ DENC   =    -19839.96726992
  -exchange      EXHF   =         0.00000000
  -V(xc)+E(xc)   XCENC  =      -330.80173783
  PAW double counting   =     10080.34381876    -9406.80850586
  entropy T*S    EENTRO =         0.00000000
  eigenvalues    EBANDS =      -654.27482557
  atomic energy  EATOM  =      8906.56515536
  ---------------------------------------------------
  free energy    TOTEN  =       -39.51328065 eV

  energy without entropy =      -39.51328065  energy(sigma->0) =      -39.51328065


--------------------------------------------------------------------------------------------------------




----------------------------------------- Iteration    1(  25)  ---------------------------------------


    POTLOK:  cpu time    0.23: real time    0.23
    SETDIJ:  cpu time    0.01: real time    0.01
     EDDAV:  cpu time    0.76: real time    0.77
       DOS:  cpu time    0.00: real time    0.00
    CHARGE:  cpu time    0.05: real time    0.05
    MIXING:  cpu time    0.02: real time    0.02
    --------------------------------------------
      LOOP:  cpu time    1.07: real time    1.07

 eigenvalue-minimisations  :   336
 total energy-change (2. order) :-0.1086153E+00  (-0.1328630E-02)
 number of electron     110.0000126 magnetization       6.1614160
 augmentation part       46.9863528 magnetization       3.2517873

 Broyden mixing:
  rms(total) = 0.47289E-01    rms(broyden)= 0.45008E-01
  rms(prec ) = 0.47690E-01
  weight for this iteration     100.00

 eigenvalues of (default mixing * dielectric matrix)
  average eigenvalue GAMMA=   0.8080
  4.0021  2.2146  1.2382  1.0649  1.0649  0.8164  0.8164  0.7000  0.7000  0.6668
  0.4362  0.3843  0.3843  0.3051  0.3051  0.2645  0.1957  0.1957  0.1856  0.2184

 Free energy of the ion-electron system (eV)
  ---------------------------------------------------
  alpha Z        PSCENC =        10.47622638
  Ewald energy   TEWEN  =     11194.95385803
  -Hartree energ DENC   =    -19840.63737140
  -exchange      EXHF   =         0.00000000
  -V(xc)+E(xc)   XCENC  =      -330.91207884
  PAW double counting   =     10078.43925414    -9404.91394327
  entropy T*S    EENTRO =         0.00000000
  eigenvalues    EBANDS =      -653.59299632
  atomic energy  EATOM  =      8906.56515536
  ---------------------------------------------------
  free energy    TOTEN  =       -39.62189592 eV

  energy without entropy =      -39.62189592  energy(sigma->0) =      -39.62189592


--------------------------------------------------------------------------------------------------------




----------------------------------------- Iteration    1(  26)  ---------------------------------------


    POTLOK:  cpu time    0.23: real time    0.23
    SETDIJ:  cpu time    0.00: real time    0.01
     EDDAV:  cpu time    0.74: real time    0.74
       DOS:  cpu time    0.00: real time    0.00
    CHARGE:  cpu time    0.05: real time    0.05
    MIXING:  cpu time    0.02: real time    0.02
    --------------------------------------------
      LOOP:  cpu time    1.04: real time    1.05

 eigenvalue-minimisations  :   320
 total energy-change (2. order) :-0.7301615E-01  (-0.4679635E-03)
 number of electron     110.0000125 magnetization       6.1050514
 augmentation part       46.9941143 magnetization       3.1966210

 Broyden mixing:
  rms(total) = 0.14444E-01    rms(broyden)= 0.13441E-01
  rms(prec ) = 0.15218E-01
  weight for this iteration     100.00

 eigenvalues of (default mixing * dielectric matrix)
  average eigenvalue GAMMA=   0.8549
  4.5578  2.2520  1.6317  1.1170  1.1170  0.8156  0.8156  0.7002  0.7002  0.8110
  0.6143  0.3905  0.3905  0.3588  0.3081  0.3081  0.2663  0.1957  0.1957  0.1856
  0.2209

 Free energy of the ion-electron system (eV)
  ---------------------------------------------------
  alpha Z        PSCENC =        10.47622638
  Ewald energy   TEWEN  =     11194.95385803
  -Hartree energ DENC   =    -19840.87429579
  -exchange      EXHF   =         0.00000000
  -V(xc)+E(xc)   XCENC  =      -330.98921300
  PAW double counting   =     10076.40042603    -9402.88639311
  entropy T*S    EENTRO =         0.00000000
  eigenvalues    EBANDS =      -653.34067598
  atomic energy  EATOM  =      8906.56515536
  ---------------------------------------------------
  free energy    TOTEN  =       -39.69491207 eV

  energy without entropy =      -39.69491207  energy(sigma->0) =      -39.69491207


--------------------------------------------------------------------------------------------------------




----------------------------------------- Iteration    1(  27)  ---------------------------------------


    POTLOK:  cpu time    0.23: real time    0.23
    SETDIJ:  cpu time    0.01: real time    0.01
     EDDAV:  cpu time    0.74: real time    0.74
       DOS:  cpu time    0.00: real time    0.00
    CHARGE:  cpu time    0.05: real time    0.05
    MIXING:  cpu time    0.02: real time    0.02
    --------------------------------------------
      LOOP:  cpu time    1.04: real time    1.05

 eigenvalue-minimisations  :   320
 total energy-change (2. order) :-0.4991604E-01  (-0.3043386E-03)
 number of electron     110.0000126 magnetization       6.0633992
 augmentation part       46.9877440 magnetization       3.1632909

 Broyden mixing:
  rms(total) = 0.31344E-01    rms(broyden)= 0.30621E-01
  rms(prec ) = 0.32937E-01
  weight for this iteration     100.00

 eigenvalues of (default mixing * dielectric matrix)
  average eigenvalue GAMMA=   0.8790
  5.1486  2.2490  1.4317  1.4317  1.0248  1.0248  0.8422  0.8422  0.6929  0.6929
  0.6496  0.5101  0.3864  0.3864  0.3517  0.3057  0.3057  0.2651  0.1957  0.1957
  0.1856  0.2191

 Free energy of the ion-electron system (eV)
  ---------------------------------------------------
  alpha Z        PSCENC =        10.47622638
  Ewald energy   TEWEN  =     11194.95385803
  -Hartree energ DENC   =    -19841.23807986
  -exchange      EXHF   =         0.00000000
  -V(xc)+E(xc)   XCENC  =      -331.04138690
  PAW double counting   =     10076.23392117    -9402.72582063
  entropy T*S    EENTRO =         0.00000000
  eigenvalues    EBANDS =      -652.96870166
  atomic energy  EATOM  =      8906.56515536
  ---------------------------------------------------
  free energy    TOTEN  =       -39.74482811 eV

  energy without entropy =      -39.74482811  energy(sigma->0) =      -39.74482811


--------------------------------------------------------------------------------------------------------




----------------------------------------- Iteration    1(  28)  ---------------------------------------


    POTLOK:  cpu time    0.23: real time    0.23
    SETDIJ:  cpu time    0.01: real time    0.01
     EDDAV:  cpu time    0.74: real time    0.74
       DOS:  cpu time    0.00: real time    0.00
    CHARGE:  cpu time    0.05: real time    0.05
    MIXING:  cpu time    0.02: real time    0.02
    --------------------------------------------
      LOOP:  cpu time    1.05: real time    1.05

 eigenvalue-minimisations  :   320
 total energy-change (2. order) :-0.2821822E-01  (-0.2423958E-03)
 number of electron     110.0000125 magnetization       6.0353864
 augmentation part       46.9930084 magnetization       3.1358131

 Broyden mixing:
  rms(total) = 0.10112E-01    rms(broyden)= 0.87409E-02
  rms(prec ) = 0.95495E-02
  weight for this iteration     100.00
  WARNING: grid for Broyden might be to small

 eigenvalues of (default mixing * dielectric matrix)
  average eigenvalue GAMMA=   0.8969
  5.4306  2.3120  1.6799  1.3951  1.0255  1.0255  0.8714  0.8714  0.6937  0.6937
  0.7996  0.6305  0.4232  0.3844  0.3844  0.3352  0.3055  0.3055  0.2651  0.1957
  0.1957  0.1856  0.2190

 Free energy of the ion-electron system (eV)
  ---------------------------------------------------
  alpha Z        PSCENC =        10.47622638
  Ewald energy   TEWEN  =     11194.95385803
  -Hartree energ DENC   =    -19841.39076319
  -exchange      EXHF   =         0.00000000
  -V(xc)+E(xc)   XCENC  =      -331.07155899
  PAW double counting   =     10076.06565388    -9402.56340205
  entropy T*S    EENTRO =         0.00000000
  eigenvalues    EBANDS =      -652.80821574
  atomic energy  EATOM  =      8906.56515536
  ---------------------------------------------------
  free energy    TOTEN  =       -39.77304633 eV

  energy without entropy =      -39.77304633  energy(sigma->0) =      -39.77304633


--------------------------------------------------------------------------------------------------------




----------------------------------------- Iteration    1(  29)  ---------------------------------------


    POTLOK:  cpu time    0.23: real time    0.23
    SETDIJ:  cpu time    0.00: real time    0.01
     EDDAV:  cpu time    0.72: real time    0.71
       DOS:  cpu time    0.00: real time    0.00
    CHARGE:  cpu time    0.05: real time    0.05
    MIXING:  cpu time    0.02: real time    0.02
    --------------------------------------------
      LOOP:  cpu time    1.02: real time    1.02

 eigenvalue-minimisations  :   304
 total energy-change (2. order) :-0.1962203E-01  (-0.1358796E-03)
 number of electron     110.0000126 magnetization       6.0183434
 augmentation part       46.9885835 magnetization       3.1243883

 Broyden mixing:
  rms(total) = 0.19574E-01    rms(broyden)= 0.19119E-01
  rms(prec ) = 0.20551E-01
  weight for this iteration     100.00

 eigenvalues of (default mixing * dielectric matrix)
  average eigenvalue GAMMA=   0.9332
  5.8373  2.6051  1.9582  1.1888  1.1888  1.0440  1.0440  0.8212  0.8212  0.6975
  0.6975  0.7331  0.5978  0.3847  0.3847  0.4043  0.1957  0.1957  0.1856  0.3046
  0.3046  0.3201  0.2647  0.2188

 Free energy of the ion-electron system (eV)
  ---------------------------------------------------
  alpha Z        PSCENC =        10.47622638
  Ewald energy   TEWEN  =     11194.95385803
  -Hartree energ DENC   =    -19841.48613776
  -exchange      EXHF   =         0.00000000
  -V(xc)+E(xc)   XCENC  =      -331.09239159
  PAW double counting   =     10076.24272371    -9402.73870751
  entropy T*S    EENTRO =         0.00000000
  eigenvalues    EBANDS =      -652.71339498
  atomic energy  EATOM  =      8906.56515536
  ---------------------------------------------------
  free energy    TOTEN  =       -39.79266836 eV

  energy without entropy =      -39.79266836  energy(sigma->0) =      -39.79266836


--------------------------------------------------------------------------------------------------------




----------------------------------------- Iteration    1(  30)  ---------------------------------------


    POTLOK:  cpu time    0.23: real time    0.23
    SETDIJ:  cpu time    0.00: real time    0.01
     EDDAV:  cpu time    0.59: real time    0.59
       DOS:  cpu time    0.00: real time    0.00
    CHARGE:  cpu time    0.05: real time    0.05
    MIXING:  cpu time    0.02: real time    0.02
    --------------------------------------------
      LOOP:  cpu time    0.90: real time    0.90

 eigenvalue-minimisations  :   232
 total energy-change (2. order) :-0.7474402E-02  (-0.6231909E-04)
 number of electron     110.0000125 magnetization       6.0096014
 augmentation part       46.9911200 magnetization       3.1146169

 Broyden mixing:
  rms(total) = 0.29703E-02    rms(broyden)= 0.17848E-02
  rms(prec ) = 0.23136E-02
  weight for this iteration     100.00
  WARNING: grid for Broyden might be to small

 eigenvalues of (default mixing * dielectric matrix)
  average eigenvalue GAMMA=   0.9483
  6.0804  2.6826  2.0393  1.2822  1.2822  1.0316  1.0316  0.6975  0.6975  0.7973
  0.7973  0.7594  0.7594  0.6027  0.3844  0.3844  0.4071  0.1957  0.1957  0.1856
  0.3046  0.3046  0.3199  0.2647  0.2188

 Free energy of the ion-electron system (eV)
  ---------------------------------------------------
  alpha Z        PSCENC =        10.47622638
  Ewald energy   TEWEN  =     11194.95385803
  -Hartree energ DENC   =    -19841.47587580
  -exchange      EXHF   =         0.00000000
  -V(xc)+E(xc)   XCENC  =      -331.10299396
  PAW double counting   =     10076.34304944    -9402.84070528
  entropy T*S    EENTRO =        -0.00000000
  eigenvalues    EBANDS =      -652.71885693
  atomic energy  EATOM  =      8906.56515536
  ---------------------------------------------------
  free energy    TOTEN  =       -39.80014276 eV

  energy without entropy =      -39.80014276  energy(sigma->0) =      -39.80014276


--------------------------------------------------------------------------------------------------------




----------------------------------------- Iteration    1(  31)  ---------------------------------------


    POTLOK:  cpu time    0.23: real time    0.23
    SETDIJ:  cpu time    0.00: real time    0.01
     EDDAV:  cpu time    0.61: real time    0.61
       DOS:  cpu time    0.00: real time    0.00
    CHARGE:  cpu time    0.05: real time    0.05
    MIXING:  cpu time    0.02: real time    0.02
    --------------------------------------------
      LOOP:  cpu time    0.91: real time    0.92

 eigenvalue-minimisations  :   240
 total energy-change (2. order) :-0.4175325E-02  (-0.2446888E-04)
 number of electron     110.0000126 magnetization       6.0026570
 augmentation part       46.9903192 magnetization       3.1093161

 Broyden mixing:
  rms(total) = 0.90201E-02    rms(broyden)= 0.89183E-02
  rms(prec ) = 0.96882E-02
  weight for this iteration     100.00

 eigenvalues of (default mixing * dielectric matrix)
  average eigenvalue GAMMA=   0.9729
  6.3322  2.8866  2.0756  1.4394  1.4394  1.0664  1.0664  0.8385  0.8385  0.6965
  0.6965  0.7799  0.7799  0.6511  0.5328  0.4173  0.3845  0.3845  0.1957  0.1957
  0.1856  0.3046  0.3046  0.3193  0.2647  0.2188

 Free energy of the ion-electron system (eV)
  ---------------------------------------------------
  alpha Z        PSCENC =        10.47622638
  Ewald energy   TEWEN  =     11194.95385803
  -Hartree energ DENC   =    -19841.46431826
  -exchange      EXHF   =         0.00000000
  -V(xc)+E(xc)   XCENC  =      -331.10828068
  PAW double counting   =     10076.51547943    -9403.01421231
  entropy T*S    EENTRO =        -0.00000000
  eigenvalues    EBANDS =      -652.72822603
  atomic energy  EATOM  =      8906.56515536
  ---------------------------------------------------
  free energy    TOTEN  =       -39.80431809 eV

  energy without entropy =      -39.80431809  energy(sigma->0) =      -39.80431809


--------------------------------------------------------------------------------------------------------




----------------------------------------- Iteration    1(  32)  ---------------------------------------


    POTLOK:  cpu time    0.23: real time    0.23
    SETDIJ:  cpu time    0.00: real time    0.01
     EDDAV:  cpu time    0.60: real time    0.59
       DOS:  cpu time    0.00: real time    0.00
    CHARGE:  cpu time    0.05: real time    0.05
    MIXING:  cpu time    0.02: real time    0.02
    --------------------------------------------
      LOOP:  cpu time    0.90: real time    1.81

 eigenvalue-minimisations  :   232
 total energy-change (2. order) :-0.1670416E-02  (-0.2792506E-04)
 number of electron     110.0000125 magnetization       5.9997219
 augmentation part       46.9918394 magnetization       3.1058269

 Broyden mixing:
  rms(total) = 0.29866E-02    rms(broyden)= 0.25181E-02
  rms(prec ) = 0.27901E-02
  weight for this iteration     100.00
  WARNING: grid for Broyden might be to small

 eigenvalues of (default mixing * dielectric matrix)
  average eigenvalue GAMMA=   0.9909
  6.5083  3.0795  2.2098  1.4301  1.4301  1.1149  1.1149  0.8671  0.8671  0.8769
  0.8769  0.6964  0.6964  0.6433  0.6433  0.5211  0.4208  0.3844  0.3844  0.1957
  0.1957  0.3046  0.3046  0.3193  0.2647  0.1856  0.2188

 Free energy of the ion-electron system (eV)
  ---------------------------------------------------
  alpha Z        PSCENC =        10.47622638
  Ewald energy   TEWEN  =     11194.95385803
  -Hartree energ DENC   =    -19841.42564938
  -exchange      EXHF   =         0.00000000
  -V(xc)+E(xc)   XCENC  =      -331.11132372
  PAW double counting   =     10076.73247104    -9403.23184914
  entropy T*S    EENTRO =         0.00000000
  eigenvalues    EBANDS =      -652.76487707
  atomic energy  EATOM  =      8906.56515536
  ---------------------------------------------------
  free energy    TOTEN  =       -39.80598850 eV

  energy without entropy =      -39.80598850  energy(sigma->0) =      -39.80598850


--------------------------------------------------------------------------------------------------------




----------------------------------------- Iteration    1(  33)  ---------------------------------------


    POTLOK:  cpu time    0.23: real time    0.23
    SETDIJ:  cpu time    0.01: real time    0.01
     EDDAV:  cpu time    0.57: real time    0.57
       DOS:  cpu time    0.00: real time    0.00
    CHARGE:  cpu time    0.05: real time    0.05
    MIXING:  cpu time    0.02: real time    0.02
    --------------------------------------------
      LOOP:  cpu time    0.88: real time    2.05

 eigenvalue-minimisations  :   216
 total energy-change (2. order) :-0.5907874E-03  (-0.1195500E-04)
 number of electron     110.0000125 magnetization       5.9986323
 augmentation part       46.9907239 magnetization       3.1060389

 Broyden mixing:
  rms(total) = 0.54391E-02    rms(broyden)= 0.53115E-02
  rms(prec ) = 0.57057E-02
  weight for this iteration     100.00

 eigenvalues of (default mixing * dielectric matrix)
  average eigenvalue GAMMA=   1.0054
  6.6174  3.3629  2.1912  1.5213  1.5213  1.1550  1.1550  0.9411  0.9411  0.8381
  0.8381  0.6966  0.6966  0.7003  0.7003  0.6258  0.4689  0.4232  0.3847  0.3847
  0.1957  0.1957  0.1856  0.3046  0.3046  0.3191  0.2647  0.2188

 Free energy of the ion-electron system (eV)
  ---------------------------------------------------
  alpha Z        PSCENC =        10.47622638
  Ewald energy   TEWEN  =     11194.95385803
  -Hartree energ DENC   =    -19841.41981675
  -exchange      EXHF   =         0.00000000
[...]
     10      -7.4142      1.00000
     11      -7.2481      1.00000
     12      -7.2161      1.00000
     13      -7.1508      1.00000
     14      -7.0542      1.00000
     15      -7.0011      1.00000
     16      -6.9070      1.00000
     17      -6.6945      1.00000
     18      -6.6341      1.00000
     19      -6.6243      1.00000
     20      -6.5211      1.00000
     21      -6.3761      1.00000
     22      -6.3418      1.00000
     23      -6.2901      1.00000
     24      -6.1462      1.00000
     25      -6.0040      1.00000
     26      -5.9693      1.00000
     27      -5.8827      1.00000
     28      -5.8239      1.00000
     29      -5.7151      1.00000
     30      -5.5734      1.00000
     31      -5.5474      1.00000
     32      -5.4795      1.00000
     33      -5.4136      1.00000
     34      -5.3027      1.00000
     35      -5.2447      1.00000
     36      -5.2388      1.00000
     37      -5.2052      1.00000
     38      -5.1699      1.00000
     39      -5.1086      1.00000
     40      -5.0323      1.00000
     41      -5.0033      1.00000
     42      -4.9399      1.00000
     43      -4.8072      1.00000
     44      -4.7947      1.00000
     45      -4.7611      1.00000
     46      -4.7491      1.00000
     47      -4.7207      1.00000
     48      -4.6589      1.00000
     49      -4.5719      1.00000
     50      -4.5391      1.00000
     51      -4.5276      1.00000
     52      -4.4847      1.00000
     53      -4.4684      1.00000
     54      -4.4056      1.00000
     55      -4.3896      1.00000
     56      -4.3251      1.00000
     57      -4.3075      1.00000
     58      -4.0478      0.55577
     59      -3.5956      0.00000
     60      -3.3086      0.00000
     61      -2.9319      0.00000
     62      -2.0955      0.00000
     63      -2.0464      0.00000
     64      -1.4461      0.00000
     65      -1.2684      0.00000
     66      -1.2205      0.00000
     67      -1.1782      0.00000
     68      -0.6006      0.00000
     69      -0.4219      0.00000
     70      -0.0377      0.00000
     71       0.1401      0.00000
     72       0.2467      0.00000

 spin component 2

 k-point     1 :       0.0000    0.0000    0.0000
  band No.  band energies     occupation 
      1      -8.3335      1.00000
      2      -7.9667      1.00000
      3      -7.7217      1.00000
      4      -7.6748      1.00000
      5      -7.4608      1.00000
      6      -7.3567      1.00000
      7      -7.3286      1.00000
      8      -7.1906      1.00000
      9      -7.1142      1.00000
     10      -7.0981      1.00000
     11      -6.9910      1.00000
     12      -6.9586      1.00000
     13      -6.8661      1.00000
     14      -6.8260      1.00000
     15      -6.6229      1.00000
     16      -6.5319      1.00000
     17      -6.4131      1.00000
     18      -6.3753      1.00000
     19      -6.3453      1.00000
     20      -6.1622      1.00000
     21      -6.0381      1.00000
     22      -6.0112      1.00000
     23      -6.0062      1.00000
     24      -5.9436      1.00000
     25      -5.6816      1.00000
     26      -5.6438      1.00000
     27      -5.6044      1.00000
     28      -5.5452      1.00000
     29      -5.3808      1.00000
     30      -5.3342      1.00000
     31      -5.2713      1.00000
     32      -5.2420      1.00000
     33      -5.1456      1.00000
     34      -5.0203      1.00000
     35      -4.9818      1.00000
     36      -4.9648      1.00000
     37      -4.9525      1.00000
     38      -4.8933      1.00000
     39      -4.8049      1.00000
     40      -4.7621      1.00000
     41      -4.7279      1.00000
     42      -4.6685      1.00000
     43      -4.4977      1.00000
     44      -4.4672      1.00000
     45      -4.4291      1.00000
     46      -4.4256      1.00000
     47      -4.3866      1.00000
     48      -4.3154      1.00000
     49      -4.3006      1.00000
     50      -4.2306      1.00000
     51      -4.1734      1.00000
     52      -4.1325      1.00000
     53      -4.0478      0.44423
     54      -4.0189      0.00000
     55      -3.9994      0.00000
     56      -3.8680      0.00000
     57      -3.8387      0.00000
     58      -3.7210      0.00000
     59      -3.4295      0.00000
     60      -3.1138      0.00000
     61      -2.7140      0.00000
     62      -1.9242      0.00000
     63      -1.8137      0.00000
     64      -1.3050      0.00000
     65      -1.1758      0.00000
     66      -1.0658      0.00000
     67      -1.0002      0.00000
     68      -0.4004      0.00000
     69      -0.3634      0.00000
     70       0.1676      0.00000
     71       0.1943      0.00000
     72       0.3343      0.00000


--------------------------------------------------------------------------------------------------------


 soft charge-density along one line, spin component           1
         0         1         2         3         4         5         6         7         8         9
 total charge-density along one line
 
 soft charge-density along one line, spin component           2
         0         1         2         3         4         5         6         7         8         9
 total charge-density along one line
 
 pseudopotential strength for first ion, spin component:           1
 -8.568  -0.000   0.058  -0.026  -0.001  -8.536  -0.000   0.056
 -0.000  -8.544   0.021   0.033  -0.006  -0.000  -8.513   0.020
  0.058   0.021  -8.557  -0.013  -0.007   0.056   0.020  -8.525
 -0.026   0.033  -0.013  -8.543  -0.017  -0.025   0.032  -0.013
 -0.001  -0.006  -0.007  -0.017  -8.578  -0.001  -0.006  -0.006
 -8.536  -0.000   0.056  -0.025  -0.001  -8.482  -0.000   0.054
 -0.000  -8.513   0.020   0.032  -0.006  -0.000  -8.460   0.019
  0.056   0.020  -8.525  -0.013  -0.006   0.054   0.019  -8.471
 -0.025   0.032  -0.013  -8.512  -0.016  -0.024   0.031  -0.012
 -0.001  -0.006  -0.006  -0.016  -8.545  -0.001  -0.006  -0.006
  0.007   0.001  -0.007   0.006  -0.002   0.006   0.001  -0.007
  0.011   0.002  -0.012   0.010  -0.003   0.011   0.002  -0.012
 -0.025  -0.005  -0.014   0.000  -0.023  -0.024  -0.005  -0.013
  0.000   0.023  -0.005  -0.024   0.000   0.000   0.023  -0.005
  0.024   0.000   0.014  -0.005  -0.024   0.023   0.000   0.013
 -0.027  -0.006  -0.015   0.000  -0.025  -0.026  -0.005  -0.014
  0.000   0.026  -0.006  -0.027   0.000   0.000   0.025  -0.006
  0.027   0.000   0.015  -0.005  -0.026   0.025   0.000   0.015
 pseudopotential strength for first ion, spin component:           2
 -8.389  -0.011   0.003   0.004   0.001  -8.364  -0.010   0.003
 -0.011  -8.359  -0.002  -0.010   0.001  -0.010  -8.336  -0.002
  0.003  -0.002  -8.343  -0.005  -0.002   0.003  -0.002  -8.320
  0.004  -0.010  -0.005  -8.354  -0.006   0.004  -0.009  -0.005
  0.001   0.001  -0.002  -0.006  -8.375   0.001   0.001  -0.002
 -8.364  -0.010   0.003   0.004   0.001  -8.317  -0.010   0.003
 -0.010  -8.336  -0.002  -0.009   0.001  -0.010  -8.290  -0.002
  0.003  -0.002  -8.320  -0.005  -0.002   0.003  -0.002  -8.275
  0.004  -0.009  -0.005  -8.331  -0.006   0.003  -0.009  -0.005
  0.001   0.001  -0.002  -0.006  -8.351   0.001   0.001  -0.001
  0.002  -0.001  -0.011   0.004  -0.001   0.001  -0.001  -0.011
  0.003  -0.002  -0.019   0.008  -0.001   0.002  -0.002  -0.019
 -0.026  -0.005  -0.014  -0.001  -0.027  -0.025  -0.005  -0.014
 -0.001   0.027  -0.007  -0.028  -0.000  -0.001   0.026  -0.007
  0.025  -0.001   0.015  -0.006  -0.028   0.024  -0.001   0.014
 -0.029  -0.006  -0.016  -0.001  -0.031  -0.028  -0.006  -0.015
 -0.001   0.031  -0.008  -0.033  -0.000  -0.001   0.030  -0.008
  0.028  -0.001   0.016  -0.006  -0.032   0.027  -0.001   0.016
 total augmentation occupancy for first ion, spin component:           1
  2.081   0.068   0.422  -0.148   0.021  -0.848  -0.056  -0.201   0.056  -0.018   0.166  -0.032  -0.108   0.003   0.092  -0.024
  0.068   1.946   0.090   0.085   0.022  -0.057  -0.535   0.012   0.121  -0.060   0.098  -0.014  -0.033   0.087   0.002  -0.005
  0.422   0.090   1.821  -0.026  -0.027  -0.207   0.010  -0.426  -0.028   0.015   0.628  -0.115  -0.104  -0.005   0.111  -0.013
 -0.148   0.085  -0.026   1.948   0.042   0.058   0.121  -0.029  -0.548  -0.077  -0.201   0.046   0.006  -0.094  -0.041  -0.000
  0.021   0.022  -0.027   0.042   2.546  -0.018  -0.059   0.015  -0.077  -1.225   0.007  -0.005  -0.193  -0.004  -0.194  -0.025
 -0.848  -0.057  -0.207   0.058  -0.018   1.438   0.054   0.083  -0.010   0.014  -0.147   0.041   0.171   0.004  -0.150  -0.020
 -0.056  -0.535   0.010   0.121  -0.059   0.054   0.975  -0.074  -0.259   0.087  -0.084   0.014   0.043  -0.178   0.004  -0.004
 -0.201   0.012  -0.426  -0.029   0.015   0.083  -0.074   0.851   0.065  -0.010  -0.488   0.071   0.130   0.038  -0.138  -0.012
  0.056   0.121  -0.028  -0.548  -0.077  -0.010  -0.259   0.065   0.995   0.095   0.130  -0.017   0.004   0.188   0.050  -0.000
 -0.018  -0.060   0.015  -0.077  -1.225   0.014   0.087  -0.010   0.095   1.733   0.006  -0.002   0.272   0.003   0.274  -0.021
  0.166   0.098   0.628  -0.201   0.007  -0.147  -0.084  -0.488   0.130   0.006   1.615  -0.209  -0.238   0.051   0.251   0.019
 -0.032  -0.014  -0.115   0.046  -0.005   0.041   0.014   0.071  -0.017  -0.002  -0.209   0.029   0.034  -0.007  -0.036  -0.002
 -0.108  -0.033  -0.104   0.006  -0.193   0.171   0.043   0.130   0.004   0.272  -0.238   0.034   0.117  -0.003   0.001  -0.010
  0.003   0.087  -0.005  -0.094  -0.004   0.004  -0.178   0.038   0.188   0.003   0.051  -0.007  -0.003   0.065   0.007   0.000
  0.092   0.002   0.111  -0.041  -0.194  -0.150   0.004  -0.138   0.050   0.274   0.251  -0.036   0.001   0.007   0.116   0.002
 -0.024  -0.005  -0.013  -0.000  -0.025  -0.020  -0.004  -0.012  -0.000  -0.021   0.019  -0.002  -0.010   0.000   0.002   0.003
 -0.000   0.024  -0.007  -0.025   0.000  -0.000   0.020  -0.005  -0.021   0.000  -0.004   0.000   0.000  -0.007  -0.001  -0.000
  0.023  -0.000   0.013  -0.006  -0.025   0.018  -0.000   0.012  -0.004  -0.021  -0.020   0.003   0.002  -0.001  -0.010  -0.000
 total augmentation occupancy for first ion, spin component:           2
  0.341  -0.062  -0.297   0.171   0.016  -0.136   0.031   0.128  -0.078  -0.009   0.015   0.021   0.000  -0.011  -0.004  -0.003
 -0.062   0.405  -0.112  -0.223   0.043   0.031  -0.171   0.047   0.102  -0.020  -0.006   0.006   0.001   0.029  -0.009  -0.000
 -0.297  -0.112   0.545   0.040   0.028   0.139   0.049  -0.229  -0.017  -0.013  -0.055  -0.001  -0.002  -0.012  -0.002  -0.001
  0.171  -0.223   0.040   0.428   0.070  -0.082   0.101  -0.015  -0.182  -0.033  -0.007   0.007  -0.017  -0.031  -0.004  -0.003
  0.016   0.043   0.028   0.070   0.535  -0.008  -0.021  -0.012  -0.032  -0.237  -0.000  -0.004  -0.043  -0.004  -0.039  -0.008
 -0.136   0.031   0.139  -0.082  -0.008   0.017  -0.014  -0.055   0.034   0.004  -0.020  -0.001  -0.002   0.005   0.004   0.001
  0.031  -0.171   0.049   0.101  -0.021  -0.014   0.034  -0.016  -0.036   0.008  -0.002   0.001  -0.001  -0.008   0.003   0.000
  0.128   0.047  -0.229  -0.015  -0.012  -0.055  -0.016   0.053   0.005   0.006   0.017   0.003  -0.000   0.003   0.002   0.000
 -0.078   0.102  -0.017  -0.182  -0.032   0.034  -0.036   0.005   0.038   0.013   0.001  -0.001   0.007   0.009   0.002   0.001
 -0.009  -0.020  -0.013  -0.033  -0.237   0.004   0.008   0.006   0.013   0.065   0.002   0.000   0.016   0.002   0.014   0.004
  0.015  -0.006  -0.055  -0.007  -0.000  -0.020  -0.002   0.017   0.001   0.002  -0.045   0.012   0.006  -0.001  -0.005   0.001
  0.021   0.006  -0.001   0.007  -0.004  -0.001   0.001   0.003  -0.001   0.000   0.012  -0.002  -0.001   0.000   0.001  -0.000
  0.000   0.001  -0.002  -0.017  -0.043  -0.002  -0.001  -0.000   0.007   0.016   0.006  -0.001   0.004   0.001   0.005   0.001
 -0.011   0.029  -0.012  -0.031  -0.004   0.005  -0.008   0.003   0.009   0.002  -0.001   0.000   0.001   0.002  -0.000   0.000
 -0.004  -0.009  -0.002  -0.004  -0.039   0.004   0.003   0.002   0.002   0.014  -0.005   0.001   0.005  -0.000   0.003   0.001
 -0.003  -0.000  -0.001  -0.003  -0.008   0.001   0.000   0.000   0.001   0.004   0.001  -0.000   0.001   0.000   0.001   0.000
 -0.002   0.010  -0.004  -0.010  -0.000   0.001  -0.005   0.002   0.005   0.000   0.000  -0.000   0.000   0.001  -0.000   0.000
  0.002  -0.002   0.001   0.000  -0.008  -0.001   0.001  -0.000  -0.000   0.004  -0.001   0.001   0.001  -0.000   0.000   0.000


------------------------ aborting loop because EDIFF is reached ----------------------------------------


    CHARGE:  cpu time    0.05: real time    0.05
    FORLOC:  cpu time    0.00: real time    0.01
    FORNL :  cpu time    0.27: real time    0.27
    STRESS:  cpu time    0.35: real time    0.35
    FORCOR:  cpu time    0.23: real time    0.23
    FORHAR:  cpu time    0.03: real time    0.03
    MIXING:  cpu time    0.04: real time    0.04
    OFIELD:  cpu time    0.00: real time    0.00

  FORCE on cell =-STRESS in cart. coord.  units (eV):
  Direction    XX          YY          ZZ          XY          YZ          ZX
  --------------------------------------------------------------------------------------
  Alpha Z    10.47623    10.47623    10.47623
  Ewald    5159.60395  5063.22881  1033.59621 -1723.21439  -698.27851   899.72598
  Hartree  7830.24552  7747.41397  4357.67991 -1473.26916  -596.66080   754.63458
  E(xc)    -573.75975  -573.82989  -577.75927    -0.79254    -0.35986     0.73428
  Local  -14646.76509-14468.87675 -7094.66323  3190.43321  1293.14093 -1647.16228
  n-local   -96.96529   -97.81892  -109.11036    -7.95111    -2.25615     3.12268
  augment   810.13923   811.04458   832.72693     5.52803     1.61682    -4.10832
  Kinetic  1507.88198  1509.33007  1546.80646     9.52568     2.84615    -6.90587
  Fock        0.00000     0.00000     0.00000     0.00000     0.00000     0.00000
  -------------------------------------------------------------------------------------
  Total       0.85677     0.96810    -0.24712     0.25973     0.04860     0.04105
  in kB       0.18235     0.20605    -0.05260     0.05528     0.01034     0.00874
  external pressure =        0.11 kB  Pullay stress =        0.00 kB


 VOLUME and BASIS-vectors are now :
 -----------------------------------------------------------------------------
  energy-cutoff  :      250.93
  volume of cell :     7527.71
      direct lattice vectors                 reciprocal lattice vectors
    19.598417796  0.000000000  0.000000000     0.051024527  0.000000000  0.000000000
     0.000000000 19.598417796  0.000000000     0.000000000  0.051024527  0.000000000
     0.000000000  0.000000000 19.598417796     0.000000000  0.000000000  0.051024527

  length of vectors
    19.598417796 19.598417796 19.598417796     0.051024527  0.051024527  0.051024527


 FORCES acting on ions
    electron-ion (+dipol)            ewald-force                    non-local-force                 convergence-correction
 -----------------------------------------------------------------------------------------------
   0.618E+03 -.594E+03 0.134E+03   -.613E+03 0.589E+03 -.133E+03   -.526E+01 0.500E+01 -.114E+01   0.614E-01 -.156E-01 -.843E-01
   0.844E+02 -.143E+03 0.803E+03   -.840E+02 0.142E+03 -.798E+03   0.531E+00 -.193E+00 -.512E+01   -.968E+00 0.988E+00 -.529E+00
   -.210E+03 -.840E+03 0.557E+02   0.207E+03 0.832E+03 -.553E+02   0.252E+01 0.684E+01 -.228E+00   -.107E+00 0.775E+00 -.217E+00
   -.592E+03 -.478E+03 -.113E+03   0.589E+03 0.474E+03 0.113E+03   0.264E+01 0.252E+01 0.565E+00   0.186E+00 0.177E+01 -.263E+00
   0.819E+03 0.253E+03 0.135E+03   -.812E+03 -.250E+03 -.134E+03   -.666E+01 -.284E+01 -.907E+00   -.735E+00 0.923E-01 -.185E+00
   -.392E+03 0.267E+03 0.734E+03   0.390E+03 -.266E+03 -.728E+03   0.209E+01 -.116E+01 -.565E+01   0.113E+00 0.979E-01 -.798E+00
   0.353E+03 -.266E+03 -.678E+03   -.350E+03 0.264E+03 0.674E+03   -.134E+01 0.999E+00 0.472E+01   -.124E+01 0.117E+01 -.220E+00
   0.432E+03 0.641E+03 0.364E+02   -.428E+03 -.638E+03 -.356E+02   -.238E+01 -.295E+01 -.365E+00   -.169E+01 -.292E+00 -.455E+00
   -.705E+02 0.184E+03 -.857E+03   0.711E+02 -.184E+03 0.850E+03   -.352E+00 -.397E+00 0.617E+01   -.179E+00 0.337E-02 0.546E+00
   -.192E+03 0.847E+03 -.715E+02   0.191E+03 -.838E+03 0.712E+02   0.894E+00 -.735E+01 0.367E+00   0.244E+00 -.143E+01 -.287E-01
   -.848E+03 0.125E+03 -.176E+03   0.840E+03 -.125E+03 0.174E+03   0.733E+01 -.366E+00 0.127E+01   0.150E+01 -.104E+00 0.953E-01
 -----------------------------------------------------------------------------------------------
   0.282E+01 -.315E+01 0.248E+01   0.455E-12 0.227E-12 -.227E-12   0.182E-01 0.108E+00 -.306E+00   -.282E+01 0.304E+01 -.214E+01
 
 
 POSITION                                       TOTAL-FORCE (eV/Angst)
 -----------------------------------------------------------------------------------
      7.15470     11.95465      8.99524        -0.048349     -0.019466     -0.014368
      8.95225     10.34465      7.94497         0.009872     -0.021534     -0.021452
      9.67759     12.57664      9.28182        -0.110353      0.028372     -0.006750
     11.04185     10.50664      9.87302         0.015103      0.141084      0.019433
      6.66137      9.37583      9.05698         0.023297      0.091612     -0.010976
     10.93475      8.55231      8.19265         0.125684     -0.119183     -0.230807
      8.51120     10.49208     10.71576        -0.014425      0.029861      0.107012
      8.80125      8.04969      9.57239        -0.103236     -0.053983     -0.077581
     10.29691      8.66137     11.62073         0.088794     -0.030307      0.172033
     10.90357      6.56705     10.02234        -0.039547      0.031860      0.021787
     12.62960      8.51725     10.28673         0.053160     -0.078315      0.041669
 -----------------------------------------------------------------------------------
    total drift:                                0.021492      0.000235      0.035647


--------------------------------------------------------------------------------------------------------



  FREE ENERGIE OF THE ION-ELECTRON SYSTEM (eV)
  ---------------------------------------------------
  free  energy   TOTEN  =       -40.60654309 eV

  energy  without entropy=      -40.60648722  energy(sigma->0) =      -40.60651515
 
 d Force = 0.2957636E-02[ 0.149E-03, 0.577E-02]  d Energy =-0.2754208E-02 0.571E-02
 d Force =-0.2505279E+02[-0.250E+02,-0.251E+02]  d Ewald  =-0.2505216E+02-0.625E-03


--------------------------------------------------------------------------------------------------------


    POTLOK:  cpu time    0.24: real time    0.24


--------------------------------------------------------------------------------------------------------




--------------------------------------------------------------------------------------------------------


  
 reached required accuracy - stopping structural energy minimisation
     LOOP+:  cpu time   62.69: real time   95.05
    4ORBIT:  cpu time    0.00: real time    0.00

 total amount of memory used by VASP on root node    54056. kBytes
========================================================================

   base      :      30000. kBytes
   nonl-proj :       1355. kBytes
   fftplans  :       5769. kBytes
   grid      :      14451. kBytes
   one-center:         31. kBytes
   wavefun   :       2450. kBytes
 
  
  
 General timing and accounting informations for this job:
 ========================================================
  
                  Total CPU time used (sec):      576.524
                            User time (sec):      566.667
                          System time (sec):        9.857
                         Elapsed time (sec):      763.848
  
                   Maximum memory used (kb):       64712.
                   Average memory used (kb):           0.
  
                          Minor page faults:      1609814
                          Major page faults:            0
                 Voluntary context switches:        12965
