 running on   64 total cores
 distrk:  each k-point on   64 cores,    1 groups
 distr:  one band on   16 cores,    4 groups
 using from now: INCAR     
 vasp.5.3.5 31Mar14 (build Feb 01 2018 12:10:03) gamma-only                     
  
 POSCAR found type information on POSCAR  Ag
 POSCAR found :  1 types and      43 ions
 scaLAPACK will be used

 ----------------------------------------------------------------------------- 
|                                                                             |
|  ADVICE TO THIS USER RUNNING 'VASP/VAMP'   (HEAR YOUR MASTER'S VOICE ...):  |
|                                                                             |
|      You have a (more or less) 'large supercell' and for larger cells       |
|      it might be more efficient to use real space projection opertators     |
|      So try LREAL= Auto  in the INCAR   file.                               |
|      Mind: At the moment your POTCAR file does not contain real space       |
|       projectors, and has to be modified,  BUT if you                       |
|      want to do an extremely  accurate calculation you might also keep the  |
|      reciprocal projection scheme          (i.e. LREAL=.FALSE.)             |
|                                                                             |
 ----------------------------------------------------------------------------- 

 LDA part: xc-table for Pade appr. of Perdew
 POSCAR, INCAR and KPOINTS ok, starting setup
 WARNING: small aliasing (wrap around) errors must be expected
 FFT: planning ...
 WAVECAR not read
 entering main loop
       N       E                     dE             d eps       ncg     rms          rms(c)
DAV:   1     0.387061717728E+04    0.38706E+04   -0.10191E+05  1232   0.628E+02
DAV:   2     0.545753285135E+03   -0.33249E+04   -0.29954E+04  1920   0.174E+02
DAV:   3    -0.703761927446E+02   -0.61613E+03   -0.56913E+03  1480   0.798E+01
DAV:   4    -0.923349544386E+02   -0.21959E+02   -0.21773E+02  1368   0.159E+01
DAV:   5    -0.926529233382E+02   -0.31797E+00   -0.31768E+00  1392   0.221E+00    0.391E+01
DAV:   6    -0.469122557073E+02    0.45741E+02   -0.14695E+02  1260   0.161E+01    0.213E+01
DAV:   7    -0.380341816462E+02    0.88781E+01   -0.94486E+00  1312   0.441E+00    0.131E+01
DAV:   8    -0.362860647966E+02    0.17481E+01   -0.20995E+00  1316   0.231E+00    0.710E+00
DAV:   9    -0.402475659342E+02   -0.39615E+01   -0.81329E-01  1336   0.124E+00    0.429E+00
DAV:  10    -0.529115793108E+02   -0.12664E+02   -0.36551E+00  1240   0.234E+00    0.306E+00
DAV:  11    -0.718251958502E+02   -0.18914E+02   -0.10372E+01  1272   0.333E+00    0.232E+00
DAV:  12    -0.745119635906E+02   -0.26868E+01   -0.55326E-01  1360   0.110E+00    0.185E+00
DAV:  13    -0.810651136708E+02   -0.65532E+01   -0.18648E+00  1260   0.164E+00    0.266E+00
DAV:  14    -0.819630305237E+02   -0.89792E+00   -0.99503E-02  1400   0.507E-01    0.222E+00
DAV:  15    -0.852076527510E+02   -0.32446E+01   -0.74609E-01  1264   0.106E+00    0.140E+00
DAV:  16    -0.874921989501E+02   -0.22845E+01   -0.46618E-01  1264   0.699E-01    0.839E-01
DAV:  17    -0.888593263374E+02   -0.13671E+01   -0.13285E-01  1288   0.502E-01    0.140E+00
DAV:  18    -0.889883879683E+02   -0.12906E+00   -0.47938E-03  1360   0.148E-01    0.129E+00
DAV:  19    -0.890897853101E+02   -0.10140E+00   -0.24274E-03  1292   0.100E-01    0.117E+00
DAV:  20    -0.900396118309E+02   -0.94983E+00   -0.10342E-01  1272   0.621E-01    0.460E-01
DAV:  21    -0.905987973538E+02   -0.55919E+00   -0.42161E-02  1268   0.375E-01    0.258E-01
DAV:  22    -0.907764978118E+02   -0.17770E+00   -0.55409E-03  1280   0.150E-01    0.219E-01
DAV:  23    -0.909022344834E+02   -0.12574E+00   -0.43234E-03  1296   0.123E-01    0.146E-01
DAV:  24    -0.909918511437E+02   -0.89617E-01   -0.30225E-03  1272   0.743E-02    0.111E-01
DAV:  25    -0.910390879577E+02   -0.47237E-01   -0.19810E-03  1236   0.717E-02    0.732E-02
DAV:  26    -0.910637488311E+02   -0.24661E-01   -0.72796E-04   916   0.397E-02    0.439E-02
DAV:  27    -0.910784303443E+02   -0.14682E-01   -0.42251E-04   864   0.285E-02    0.269E-02
DAV:  28    -0.910884136184E+02   -0.99833E-02   -0.41112E-04   872   0.201E-02    0.220E-02
DAV:  29    -0.910933643273E+02   -0.49507E-02   -0.16020E-04   880   0.196E-02    0.110E-02
DAV:  30    -0.910963441646E+02   -0.29798E-02   -0.66187E-05   864   0.950E-03    0.105E-02
DAV:  31    -0.910974137425E+02   -0.10696E-02   -0.28059E-05   836   0.684E-03    0.792E-03
DAV:  32    -0.910976024411E+02   -0.18870E-03   -0.93817E-06   840   0.545E-03    0.652E-03
DAV:  33    -0.910977271928E+02   -0.12475E-03   -0.63191E-06   836   0.396E-03    0.327E-03
DAV:  34    -0.910977856502E+02   -0.58457E-04   -0.37902E-06   816   0.326E-03
   1 F= -.91097786E+02 E0= -.91097786E+02  d E =-.910978E+02  mag=     0.9974
 curvature:   0.00 expect dE= 0.000E+00 dE for cont linesearch  0.000E+00
 trial: gam= 0.00000 g(F)=  0.638E-01 g(S)=  0.000E+00 ort = 0.000E+00 (trialstep = 0.100E+01)
 search vector abs. value=  0.638E-01
 bond charge predicted
       N       E                     dE             d eps       ncg     rms          rms(c)
DAV:   1    -0.911578923048E+02   -0.60165E-01   -0.42818E+00  1296   0.320E+00    0.165E-01
DAV:   2    -0.911598211654E+02   -0.19289E-02   -0.19115E-02  1336   0.304E-01    0.118E-01
DAV:   3    -0.911597506155E+02    0.70550E-04   -0.38970E-04  1104   0.526E-02
   2 F= -.91159751E+02 E0= -.91159751E+02  d E =-.619650E-01  mag=     0.9986
 ZBRENT: can't locate minimum, use default step
 trial-energy change:   -0.061965  1 .order   -0.061508   -0.063835   -0.059181
 step:   4.0000(harm= 13.7162)  dis= 0.02469  next Energy=   -91.535570 (dE=-0.438E+00)
 bond charge predicted
       N       E                     dE             d eps       ncg     rms          rms(c)
DAV:   1    -0.913060784743E+02   -0.14626E+00   -0.38617E+01  1240   0.963E+00    0.465E-01
DAV:   2    -0.913232903080E+02   -0.17212E-01   -0.17206E-01  1320   0.911E-01    0.343E-01
DAV:   3    -0.913227177090E+02    0.57260E-03   -0.33388E-03  1304   0.153E-01    0.228E-01
DAV:   4    -0.913223406042E+02    0.37710E-03   -0.22021E-03  1296   0.854E-02    0.381E-02
DAV:   5    -0.913223192930E+02    0.21311E-04   -0.84280E-05   824   0.225E-02
   3 F= -.91322319E+02 E0= -.91322319E+02  d E =-.224534E+00  mag=     0.9994
 curvature:  -2.85 expect dE=-0.112E+00 dE for cont linesearch -0.107E+00
 ZBRENT: increasing intervall
 opt :  10.0000  next Energy=   -91.554126 (dE=-0.456E+00)
 bond charge predicted
       N       E                     dE             d eps       ncg     rms          rms(c)
DAV:   1    -0.914873017174E+02   -0.16496E+00   -0.15456E+02  1232   0.193E+01    0.823E-01
DAV:   2    -0.915558489374E+02   -0.68547E-01   -0.68367E-01  1280   0.183E+00    0.656E-01
DAV:   3    -0.915540154263E+02    0.18335E-02   -0.12256E-02  1264   0.285E-01    0.464E-01
DAV:   4    -0.915522376119E+02    0.17778E-02   -0.91873E-03  1304   0.162E-01    0.905E-02
DAV:   5    -0.915522066451E+02    0.30967E-04   -0.23765E-04   844   0.404E-02
   4 F= -.91552207E+02 E0= -.91552207E+02  d E =-.454421E+00  mag=     0.9998
 curvature:  -6.19 expect dE=-0.142E+00 dE for cont linesearch -0.813E-01
 ZBRENT: increasing intervall
 opt :  22.0000  next Energy=   -91.660612 (dE=-0.563E+00)
 bond charge predicted
       N       E                     dE             d eps       ncg     rms          rms(c)
DAV:   1    -0.914222858655E+02    0.12995E+00   -0.62386E+02  1232   0.390E+01    0.136E+00
DAV:   2    -0.917041660176E+02   -0.28188E+00   -0.27892E+00  1280   0.374E+00    0.124E+00
DAV:   3    -0.917005793544E+02    0.35867E-02   -0.46627E-02  1296   0.528E-01    0.937E-01
DAV:   4    -0.916916785128E+02    0.89008E-02   -0.21946E-02  1304   0.245E-01    0.389E-01
DAV:   5    -0.916917380637E+02   -0.59551E-04   -0.43786E-03  1284   0.122E-01    0.119E-01
DAV:   6    -0.916916040989E+02    0.13396E-03   -0.50443E-04  1312   0.387E-02    0.568E-02
DAV:   7    -0.916916555258E+02   -0.51427E-04   -0.11312E-04   832   0.201E-02
   5 F= -.91691656E+02 E0= -.91691656E+02  d E =-.593870E+00  mag=     0.9999
 curvature:  -8.25 expect dE=-0.273E+00 dE for cont linesearch -0.205E-02
 trial: gam= 0.58104 g(F)=  0.331E-01 g(S)=  0.000E+00 ort =-0.398E-02 (trialstep = 0.520E+01)
 search vector abs. value=  0.500E-01
 bond charge predicted
       N       E                     dE             d eps       ncg     rms          rms(c)
DAV:   1    -0.917775776322E+02   -0.85974E-01   -0.91268E+01  1232   0.148E+01    0.598E-01
DAV:   2    -0.918201904778E+02   -0.42613E-01   -0.42600E-01  1288   0.143E+00    0.514E-01
DAV:   3    -0.918194139389E+02    0.77654E-03   -0.74650E-03  1320   0.196E-01    0.358E-01
DAV:   4    -0.918182271915E+02    0.11867E-02   -0.47035E-03  1292   0.118E-01    0.102E-01
DAV:   5    -0.918182631803E+02   -0.35989E-04   -0.19312E-04   856   0.396E-02
   6 F= -.91818263E+02 E0= -.91818263E+02  d E =-.126608E+00  mag=     1.0000
 trial-energy change:   -0.126608  1 .order   -0.127727   -0.160120   -0.095333
 step:  16.6513(harm= 12.8516)  dis= 0.09675  next Energy=   -91.911283 (dE=-0.220E+00)
 bond charge predicted
       N       E                     dE             d eps       ncg     rms          rms(c)
DAV:   1    -0.916756600177E+02    0.14257E+00   -0.44535E+02  1232   0.328E+01    0.111E+00
DAV:   2    -0.918844651776E+02   -0.20881E+00   -0.20722E+00  1288   0.319E+00    0.108E+00
DAV:   3    -0.918827828279E+02    0.16823E-02   -0.34539E-02  1308   0.410E-01    0.813E-01
DAV:   4    -0.918760401328E+02    0.67427E-02   -0.15656E-02  1288   0.218E-01    0.380E-01
DAV:   5    -0.918761365932E+02   -0.96460E-04   -0.40932E-03  1320   0.125E-01    0.123E-01
DAV:   6    -0.918760796116E+02    0.56982E-04   -0.36884E-04  1000   0.309E-02
   7 F= -.91876080E+02 E0= -.91876080E+02  d E =-.184424E+00  mag=     1.0000
 curvature:  -7.87 expect dE=-0.105E+00 dE for cont linesearch -0.865E-02
 ZBRENT: interpolating
 opt :  13.3528  next Energy=   -91.888313 (dE=-0.197E+00)
 bond charge predicted
       N       E                     dE             d eps       ncg     rms          rms(c)
DAV:   1    -0.918721291951E+02    0.40074E-02   -0.36726E+01  1232   0.936E+00    0.359E-01
DAV:   2    -0.918897703880E+02   -0.17641E-01   -0.17500E-01  1300   0.915E-01    0.268E-01
DAV:   3    -0.918895173268E+02    0.25306E-03   -0.31585E-03  1320   0.129E-01    0.182E-01
DAV:   4    -0.918893155299E+02    0.20180E-03   -0.16802E-03  1292   0.714E-02    0.503E-02
DAV:   5    -0.918893899867E+02   -0.74457E-04   -0.68695E-05   848   0.218E-02
   8 F= -.91889390E+02 E0= -.91889390E+02  d E =-.197734E+00  mag=     1.0000
 curvature: -11.12 expect dE=-0.991E-01 dE for cont linesearch -0.459E-04
 trial: gam= 0.19774 g(F)=  0.891E-02 g(S)=  0.000E+00 ort =-0.454E-03 (trialstep = 0.683E+01)
 search vector abs. value=  0.107E-01
 bond charge predicted
       N       E                     dE             d eps       ncg     rms          rms(c)
DAV:   1    -0.919282523262E+02   -0.38937E-01   -0.33481E+01  1232   0.895E+00    0.242E-01
DAV:   2    -0.919436125145E+02   -0.15360E-01   -0.15381E-01  1276   0.862E-01    0.222E-01
DAV:   3    -0.919433755954E+02    0.23692E-03   -0.26029E-03  1336   0.115E-01    0.158E-01
DAV:   4    -0.919428156668E+02    0.55993E-03   -0.87110E-04  1284   0.492E-02    0.807E-02
DAV:   5    -0.919427350247E+02    0.80642E-04   -0.51311E-04  1320   0.383E-02
   9 F= -.91942735E+02 E0= -.91942735E+02  d E =-.533450E-01  mag=     1.0000
 ZBRENT: can't locate minimum, use default step
 trial-energy change:   -0.053345  1 .order   -0.053717   -0.060257   -0.047177
 step:  27.3222(harm= 31.4672)  dis= 0.06590  next Energy=   -92.028187 (dE=-0.139E+00)
 bond charge predicted
       N       E                     dE             d eps       ncg     rms          rms(c)
DAV:   1    -0.918809863305E+02    0.61829E-01   -0.30321E+02  1232   0.270E+01    0.823E-01
DAV:   2    -0.920223199910E+02   -0.14133E+00   -0.14267E+00  1280   0.263E+00    0.677E-01
DAV:   3    -0.920199288506E+02    0.23911E-02   -0.24549E-02  1336   0.359E-01    0.457E-01
DAV:   4    -0.920157175493E+02    0.42113E-02   -0.76179E-03  1284   0.148E-01    0.224E-01
DAV:   5    -0.920155919530E+02    0.12560E-03   -0.31758E-03  1312   0.983E-02    0.716E-02
DAV:   6    -0.920158892515E+02   -0.29730E-03   -0.16441E-04   872   0.211E-02    0.450E-02
DAV:   7    -0.920163027234E+02   -0.41347E-03   -0.12627E-04   856   0.183E-02    0.144E-02
DAV:   8    -0.920166285846E+02   -0.32586E-03   -0.24206E-05   848   0.863E-03    0.443E-03
DAV:   9    -0.920168122042E+02   -0.18362E-03   -0.69946E-06   824   0.435E-03    0.294E-03
DAV:  10    -0.920169416692E+02   -0.12947E-03   -0.29066E-06   832   0.223E-03    0.187E-03
DAV:  11    -0.920171149666E+02   -0.17330E-03   -0.59363E-06   836   0.204E-03    0.134E-03
DAV:  12    -0.920171611638E+02   -0.46197E-04   -0.96203E-07   840   0.102E-03
  10 F= -.92017161E+02 E0= -.92017161E+02  d E =-.127771E+00  mag=     1.0000
 curvature: -18.52 expect dE=-0.154E+00 dE for cont linesearch -0.258E-03
 trial: gam= 0.88792 g(F)=  0.829E-02 g(S)=  0.000E+00 ort = 0.385E-03 (trialstep = 0.671E+01)
 search vector abs. value=  0.174E-01
 bond charge predicted
       N       E                     dE             d eps       ncg     rms          rms(c)
DAV:   1    -0.920468341633E+02   -0.29719E-01   -0.52498E+01  1232   0.112E+01    0.297E-01
DAV:   2    -0.920712297937E+02   -0.24396E-01   -0.23854E-01  1264   0.108E+00    0.266E-01
DAV:   3    -0.920708398945E+02    0.38990E-03   -0.38906E-03  1328   0.141E-01    0.193E-01
DAV:   4    -0.920699738167E+02    0.86608E-03   -0.14702E-03  1292   0.625E-02    0.924E-02
DAV:   5    -0.920699044026E+02    0.69414E-04   -0.80441E-04  1336   0.476E-02
  11 F= -.92069904E+02 E0= -.92069904E+02  d E =-.527432E-01  mag=     1.0000
 ZBRENT: can't locate minimum, use default step
 trial-energy change:   -0.052743  1 .order   -0.053117   -0.057951   -0.048283
 step:  26.8484(harm= 40.2301)  dis= 0.09427  next Energy=   -92.190832 (dE=-0.174E+00)
 bond charge predicted
       N       E                     dE             d eps       ncg     rms          rms(c)
DAV:   1    -0.919402354290E+02    0.12974E+00   -0.47863E+02  1232   0.341E+01    0.112E+00
DAV:   2    -0.921673130497E+02   -0.22708E+00   -0.22767E+00  1284   0.334E+00    0.827E-01
DAV:   3    -0.921628353920E+02    0.44777E-02   -0.40324E-02  1352   0.491E-01    0.539E-01
DAV:   4    -0.921566116376E+02    0.62238E-02   -0.11839E-02  1288   0.179E-01    0.263E-01
DAV:   5    -0.921563893159E+02    0.22232E-03   -0.48825E-03  1304   0.119E-01    0.798E-02
DAV:   6    -0.921567600398E+02   -0.37072E-03   -0.16904E-04   904   0.234E-02    0.527E-02
DAV:   7    -0.921573641065E+02   -0.60407E-03   -0.15267E-04   848   0.198E-02    0.166E-02
DAV:   8    -0.921578099719E+02   -0.44587E-03   -0.28710E-05   848   0.953E-03    0.549E-03
DAV:   9    -0.921580090371E+02   -0.19907E-03   -0.57651E-06   848   0.457E-03    0.384E-03
DAV:  10    -0.921582101397E+02   -0.20110E-03   -0.42832E-06   836   0.289E-03    0.241E-03
DAV:  11    -0.921583837641E+02   -0.17362E-03   -0.37259E-06   848   0.203E-03    0.168E-03
DAV:  12    -0.921584847822E+02   -0.10102E-03   -0.18395E-06   840   0.106E-03    0.131E-03
DAV:  13    -0.921586337704E+02   -0.14899E-03   -0.46150E-06   824   0.182E-03    0.896E-04
DAV:  14    -0.921586927017E+02   -0.58931E-04   -0.14025E-06   856   0.916E-04
  12 F= -.92158693E+02 E0= -.92158693E+02  d E =-.141532E+00  mag=     1.0000
 curvature: -34.08 expect dE=-0.133E+00 dE for cont linesearch -0.453E-02
 ZBRENT: extrapolating
 opt :  32.2498  next Energy=   -92.162802 (dE=-0.146E+00)
 bond charge predicted
       N       E                     dE             d eps       ncg     rms          rms(c)
DAV:   1    -0.921478141336E+02    0.10820E-01   -0.33969E+01  1248   0.902E+00    0.277E-01
DAV:   2    -0.921626617970E+02   -0.14848E-01   -0.15443E-01  1272   0.877E-01    0.237E-01
DAV:   3    -0.921622184902E+02    0.44331E-03   -0.28661E-03  1340   0.134E-01    0.159E-01
DAV:   4    -0.921615847745E+02    0.63372E-03   -0.10258E-03  1296   0.506E-02    0.755E-02
DAV:   5    -0.921616023859E+02   -0.17611E-04   -0.40504E-04  1256   0.351E-02
  13 F= -.92161602E+02 E0= -.92161602E+02  d E =-.144441E+00  mag=     1.0000
 curvature: -30.89 expect dE=-0.172E+00 dE for cont linesearch -0.372E-04
 trial: gam= 0.72618 g(F)=  0.556E-02 g(S)=  0.000E+00 ort =-0.145E-03 (trialstep = 0.118E+02)
 search vector abs. value=  0.145E-01
 bond charge predicted
       N       E                     dE             d eps       ncg     rms          rms(c)
DAV:   1    -0.921495175652E+02    0.12067E-01   -0.13615E+02  1232   0.181E+01    0.643E-01
DAV:   2    -0.922057916106E+02   -0.56274E-01   -0.64527E-01  1276   0.186E+00    0.536E-01
DAV:   3    -0.922038717894E+02    0.19198E-02   -0.15113E-02  1364   0.337E-01    0.316E-01
DAV:   4    -0.922018777787E+02    0.19940E-02   -0.38693E-03  1284   0.996E-02    0.164E-01
DAV:   5    -0.922028213187E+02   -0.94354E-03   -0.16511E-03  1288   0.684E-02    0.548E-02
DAV:   6    -0.922037951074E+02   -0.97379E-03   -0.60285E-05   872   0.150E-02    0.299E-02
DAV:   7    -0.922050210075E+02   -0.12259E-02   -0.60215E-05   848   0.143E-02    0.159E-02
DAV:   8    -0.922055848813E+02   -0.56387E-03   -0.19729E-05   872   0.981E-03    0.984E-03
DAV:   9    -0.922061670968E+02   -0.58222E-03   -0.16307E-05   832   0.561E-03    0.517E-03
DAV:  10    -0.922067232115E+02   -0.55611E-03   -0.16242E-05   844   0.436E-03    0.436E-03
DAV:  11    -0.922071174765E+02   -0.39427E-03   -0.80631E-06   848   0.274E-03    0.353E-03
DAV:  12    -0.922074613867E+02   -0.34391E-03   -0.73879E-06   832   0.323E-03    0.165E-03
DAV:  13    -0.922076931308E+02   -0.23174E-03   -0.54172E-06   840   0.197E-03    0.104E-03
DAV:  14    -0.922078211376E+02   -0.12801E-03   -0.22872E-06   848   0.120E-03    0.593E-04
DAV:  15    -0.922078914722E+02   -0.70335E-04   -0.95531E-07   816   0.814E-04
  14 F= -.92207891E+02 E0= -.92207891E+02  d E =-.462891E-01  mag=     1.0000
 trial-energy change:   -0.046289  1 .order   -0.045740   -0.064453   -0.027026
 step:  19.2822(harm= 20.3547)  dis= 0.06031  next Energy=   -92.216562 (dE=-0.550E-01)
 bond charge predicted
       N       E                     dE             d eps       ncg     rms          rms(c)
DAV:   1    -0.921943754616E+02    0.13446E-01   -0.54153E+01  1248   0.114E+01    0.372E-01
DAV:   2    -0.922174616641E+02   -0.23086E-01   -0.25056E-01  1284   0.115E+00    0.327E-01
DAV:   3    -0.922165652359E+02    0.89643E-03   -0.54458E-03  1364   0.190E-01    0.205E-01
DAV:   4    -0.922152058584E+02    0.13594E-02   -0.16297E-03  1308   0.629E-02    0.103E-01
DAV:   5    -0.922152231649E+02   -0.17307E-04   -0.64285E-04  1288   0.448E-02
  15 F= -.92215223E+02 E0= -.92215223E+02  d E =-.536208E-01  mag=     1.0000
 curvature: -26.68 expect dE=-0.110E+00 dE for cont linesearch -0.151E-03
 trial: gam= 0.49377 g(F)=  0.414E-02 g(S)=  0.000E+00 ort = 0.286E-03 (trialstep = 0.133E+02)
 search vector abs. value=  0.796E-02
 bond charge predicted
       N       E                     dE             d eps       ncg     rms          rms(c)
DAV:   1    -0.922194321097E+02   -0.42263E-02   -0.94490E+01  1232   0.151E+01    0.474E-01
DAV:   2    -0.922605250798E+02   -0.41093E-01   -0.44007E-01  1260   0.152E+00    0.433E-01
DAV:   3    -0.922591350698E+02    0.13900E-02   -0.93479E-03  1360   0.237E-01    0.281E-01
DAV:   4    -0.922567244888E+02    0.24106E-02   -0.25160E-03  1288   0.825E-02    0.146E-01
DAV:   5    -0.922567801396E+02   -0.55651E-04   -0.13119E-03  1304   0.600E-02    0.439E-02
DAV:   6    -0.922576811851E+02   -0.90105E-03   -0.40779E-05   864   0.106E-02    0.287E-02
DAV:   7    -0.922589792486E+02   -0.12981E-02   -0.76514E-05   864   0.100E-02    0.101E-02
DAV:   8    -0.922597785409E+02   -0.79929E-03   -0.22515E-05   856   0.618E-03    0.514E-03
DAV:   9    -0.922603399115E+02   -0.56137E-03   -0.11593E-05   856   0.339E-03    0.370E-03
DAV:  10    -0.922609685297E+02   -0.62862E-03   -0.16406E-05   852   0.286E-03    0.239E-03
DAV:  11    -0.922614007856E+02   -0.43226E-03   -0.12240E-05   864   0.230E-03    0.149E-03
DAV:  12    -0.922616250543E+02   -0.22427E-03   -0.36313E-06   832   0.160E-03    0.876E-04
DAV:  13    -0.922617524734E+02   -0.12742E-03   -0.20222E-06   848   0.105E-03    0.596E-04
DAV:  14    -0.922618237846E+02   -0.71311E-04   -0.81060E-07   816   0.730E-04
  16 F= -.92261824E+02 E0= -.92261824E+02  d E =-.466006E-01  mag=     1.0000
 trial-energy change:   -0.046601  1 .order   -0.044614   -0.056952   -0.032276
 step:  22.8343(harm= 30.7238)  dis= 0.05104  next Energy=   -92.274094 (dE=-0.589E-01)
 bond charge predicted
       N       E                     dE             d eps       ncg     rms          rms(c)
DAV:   1    -0.922569137606E+02    0.48387E-02   -0.48288E+01  1240   0.108E+01    0.268E-01
DAV:   2    -0.922790831847E+02   -0.22169E-01   -0.21893E-01  1288   0.104E+00    0.271E-01
DAV:   3    -0.922787968153E+02    0.28637E-03   -0.37498E-03  1336   0.139E-01    0.197E-01
DAV:   4    -0.922778713929E+02    0.92542E-03   -0.10368E-03  1292   0.536E-02    0.116E-01
DAV:   5    -0.922775888814E+02    0.28251E-03   -0.11464E-03  1312   0.555E-02    0.400E-02
DAV:   6    -0.922776755851E+02   -0.86704E-04   -0.25680E-05   816   0.882E-03
  17 F= -.92277676E+02 E0= -.92277676E+02  d E =-.624524E-01  mag=     1.0000
 curvature: -22.72 expect dE=-0.802E-01 dE for cont linesearch -0.285E-02
 ZBRENT: increasing intervall
 opt :  41.8785  next Energy=   -92.269566 (dE=-0.543E-01)
 bond charge predicted
       N       E                     dE             d eps       ncg     rms          rms(c)
DAV:   1    -0.921820920465E+02    0.95497E-01   -0.19386E+02  1232   0.216E+01    0.524E-01
DAV:   2    -0.922713375881E+02   -0.89246E-01   -0.87679E-01  1264   0.207E+00    0.527E-01
DAV:   3    -0.922703362181E+02    0.10014E-02   -0.14433E-02  1336   0.267E-01    0.388E-01
DAV:   4    -0.922672542620E+02    0.30820E-02   -0.37675E-03  1280   0.104E-01    0.236E-01
DAV:   5    -0.922666156681E+02    0.63859E-03   -0.44820E-03  1304   0.110E-01    0.808E-02
DAV:   6    -0.922667190533E+02   -0.10339E-03   -0.94983E-05   840   0.171E-02    0.471E-02
DAV:   7    -0.922668384668E+02   -0.11941E-03   -0.73702E-05   832   0.144E-02    0.181E-02
DAV:   8    -0.922669515765E+02   -0.11311E-03   -0.23719E-05   840   0.903E-03    0.537E-03
DAV:   9    -0.922670556837E+02   -0.10411E-03   -0.60397E-06   832   0.437E-03    0.217E-03
DAV:  10    -0.922671172820E+02   -0.61598E-04   -0.14707E-06   808   0.186E-03
  18 F= -.92267117E+02 E0= -.92267117E+02  d E =-.518941E-01  mag=     1.0000
 curvature:  64.64 expect dE= 0.636E+00 dE for cont linesearch  0.360E-01
 ZBRENT: bracketing found
 ZBRENT: interpolating
 opt :  28.9632  next Energy=   -92.280738 (dE=-0.655E-01)
 bond charge predicted
       N       E                     dE             d eps       ncg     rms          rms(c)
DAV:   1    -0.922416629271E+02    0.25393E-01   -0.88929E+01  1232   0.146E+01    0.364E-01
DAV:   2    -0.922828767507E+02   -0.41214E-01   -0.40756E-01  1292   0.141E+00    0.352E-01
DAV:   3    -0.922824014756E+02    0.47528E-03   -0.67985E-03  1344   0.187E-01    0.253E-01
DAV:   4    -0.922810414711E+02    0.13600E-02   -0.18879E-03  1296   0.721E-02    0.145E-01
DAV:   5    -0.922808118773E+02    0.22959E-03   -0.19328E-03  1320   0.721E-02    0.508E-02
DAV:   6    -0.922808262487E+02   -0.14371E-04   -0.60861E-05   848   0.132E-02
  19 F= -.92280826E+02 E0= -.92280826E+02  d E =-.656031E-01  mag=     1.0000
 curvature:  -5.50 expect dE=-0.269E-01 dE for cont linesearch -0.197E-05
 trial: gam= 1.09840 g(F)=  0.490E-02 g(S)=  0.000E+00 ort =-0.534E-04 (trialstep = 0.910E+01)
 search vector abs. value=  0.144E-01
 bond charge predicted
       N       E                     dE             d eps       ncg     rms          rms(c)
DAV:   1    -0.922837597627E+02   -0.29479E-02   -0.79523E+01  1236   0.138E+01    0.321E-01
DAV:   2    -0.923196405164E+02   -0.35881E-01   -0.35265E-01  1280   0.131E+00    0.319E-01
DAV:   3    -0.923191571974E+02    0.48332E-03   -0.57645E-03  1344   0.172E-01    0.238E-01
DAV:   4    -0.923177853987E+02    0.13718E-02   -0.14548E-03  1304   0.626E-02    0.140E-01
DAV:   5    -0.923172797736E+02    0.50563E-03   -0.19974E-03  1316   0.725E-02    0.458E-02
DAV:   6    -0.923173710571E+02   -0.91283E-04   -0.31305E-05   828   0.105E-02
  20 F= -.92317371E+02 E0= -.92317371E+02  d E =-.365448E-01  mag=     1.0000
 trial-energy change:   -0.036545  1 .order   -0.036952   -0.044052   -0.029852
 step:  28.2232(harm= 28.2232)  dis= 0.06162  next Energy=   -92.349158 (dE=-0.683E-01)
 bond charge predicted
       N       E                     dE             d eps       ncg     rms          rms(c)
DAV:   1    -0.921893267081E+02    0.12795E+00   -0.35350E+02  1232   0.292E+01    0.705E-01
DAV:   2    -0.923503991936E+02   -0.16107E+00   -0.15824E+00  1288   0.278E+00    0.669E-01
DAV:   3    -0.923481429186E+02    0.22563E-02   -0.24973E-02  1316   0.359E-01    0.490E-01
DAV:   4    -0.923429103969E+02    0.52325E-02   -0.59760E-03  1312   0.128E-01    0.295E-01
DAV:   5    -0.923415645511E+02    0.13458E-02   -0.73912E-03  1296   0.140E-01    0.922E-02
DAV:   6    -0.923417964138E+02   -0.23186E-03   -0.10154E-04   864   0.198E-02    0.558E-02
DAV:   7    -0.923420279771E+02   -0.23156E-03   -0.71076E-05   856   0.137E-02    0.223E-02
DAV:   8    -0.923422164740E+02   -0.18850E-03   -0.35158E-05   844   0.104E-02    0.652E-03
DAV:   9    -0.923423604064E+02   -0.14393E-03   -0.75403E-06   836   0.469E-03    0.297E-03
DAV:  10    -0.923424499457E+02   -0.89539E-04   -0.24356E-06   828   0.213E-03
  21 F= -.92342450E+02 E0= -.92342450E+02  d E =-.616237E-01  mag=     1.0000
 curvature: -41.93 expect dE=-0.187E+00 dE for cont linesearch -0.988E-03
 trial: gam= 0.68674 g(F)=  0.445E-02 g(S)=  0.000E+00 ort =-0.582E-03 (trialstep = 0.129E+02)
 search vector abs. value=  0.104E-01
 bond charge predicted
       N       E                     dE             d eps       ncg     rms          rms(c)
DAV:   1    -0.923324389185E+02    0.99215E-02   -0.11657E+02  1232   0.167E+01    0.386E-01
DAV:   2    -0.923858544876E+02   -0.53416E-01   -0.52349E-01  1288   0.160E+00    0.385E-01
DAV:   3    -0.923851895061E+02    0.66498E-03   -0.82347E-03  1316   0.206E-01    0.285E-01
DAV:   4    -0.923833027148E+02    0.18868E-02   -0.20543E-03  1320   0.748E-02    0.171E-01
DAV:   5    -0.923827706060E+02    0.53211E-03   -0.29443E-03  1284   0.886E-02    0.569E-02
DAV:   6    -0.923828695869E+02   -0.98981E-04   -0.55408E-05   796   0.134E-02
  22 F= -.92382870E+02 E0= -.92382870E+02  d E =-.404196E-01  mag=     1.0000
 trial-energy change:   -0.040420  1 .order   -0.041186   -0.052383   -0.029989
 step:  30.2278(harm= 30.2278)  dis= 0.08348  next Energy=   -92.403715 (dE=-0.613E-01)
 bond charge predicted
       N       E                     dE             d eps       ncg     rms          rms(c)
DAV:   1    -0.923073132184E+02    0.75457E-01   -0.20937E+02  1232   0.225E+01    0.533E-01
DAV:   2    -0.924034407115E+02   -0.96127E-01   -0.94428E-01  1296   0.215E+00    0.517E-01
DAV:   3    -0.924021736519E+02    0.12671E-02   -0.14773E-02  1312   0.277E-01    0.376E-01
DAV:   4    -0.923989752774E+02    0.31984E-02   -0.37215E-03  1316   0.101E-01    0.223E-01
DAV:   5    -0.923982516004E+02    0.72368E-03   -0.46938E-03  1304   0.112E-01    0.731E-02
DAV:   6    -0.923984088784E+02   -0.15728E-03   -0.89643E-05   816   0.171E-02    0.428E-02
DAV:   7    -0.923985946562E+02   -0.18578E-03   -0.61125E-05   844   0.130E-02    0.167E-02
DAV:   8    -0.923987619483E+02   -0.16729E-03   -0.22017E-05   840   0.840E-03    0.442E-03
DAV:   9    -0.923988923564E+02   -0.13041E-03   -0.60850E-06   856   0.414E-03    0.218E-03
DAV:  10    -0.923989778948E+02   -0.85538E-04   -0.20188E-06   824   0.190E-03
  23 F= -.92398978E+02 E0= -.92398978E+02  d E =-.565279E-01  mag=     1.0000
 curvature: -38.92 expect dE=-0.163E+00 dE for cont linesearch -0.661E-03
 trial: gam= 0.78821 g(F)=  0.418E-02 g(S)=  0.000E+00 ort =-0.421E-03 (trialstep = 0.164E+02)
 search vector abs. value=  0.100E-01
 bond charge predicted
       N       E                     dE             d eps       ncg     rms          rms(c)
DAV:   1    -0.923664355845E+02    0.32457E-01   -0.17983E+02  1232   0.208E+01    0.488E-01
DAV:   2    -0.924505961585E+02   -0.84161E-01   -0.82122E-01  1300   0.200E+00    0.469E-01
DAV:   3    -0.924495428543E+02    0.10533E-02   -0.12924E-02  1328   0.259E-01    0.343E-01
DAV:   4    -0.924468521336E+02    0.26907E-02   -0.30892E-03  1296   0.916E-02    0.203E-01
DAV:   5    -0.924461478698E+02    0.70426E-03   -0.42760E-03  1304   0.107E-01    0.648E-02
DAV:   6    -0.924461973405E+02   -0.49471E-04   -0.83625E-05   800   0.165E-02
  24 F= -.92446197E+02 E0= -.92446197E+02  d E =-.472194E-01  mag=     1.0000
 trial-energy change:   -0.047219  1 .order   -0.048084   -0.062989   -0.033180
 step:  34.6209(harm= 34.6209)  dis= 0.09336  next Energy=   -92.465530 (dE=-0.666E-01)
 bond charge predicted
       N       E                     dE             d eps       ncg     rms          rms(c)
DAV:   1    -0.923604022287E+02    0.85746E-01   -0.22294E+02  1232   0.231E+01    0.565E-01
DAV:   2    -0.924646770380E+02   -0.10427E+00   -0.10207E+00  1296   0.223E+00    0.524E-01
DAV:   3    -0.924632806061E+02    0.13964E-02   -0.16047E-02  1320   0.290E-01    0.378E-01
DAV:   4    -0.924599853185E+02    0.32953E-02   -0.41160E-03  1304   0.106E-01    0.217E-01
DAV:   5    -0.924593070944E+02    0.67822E-03   -0.46238E-03  1296   0.111E-01    0.692E-02
DAV:   6    -0.924593886791E+02   -0.81585E-04   -0.10278E-04   816   0.180E-02
  25 F= -.92459389E+02 E0= -.92459389E+02  d E =-.604108E-01  mag=     1.0000
 curvature: -45.02 expect dE=-0.167E+00 dE for cont linesearch -0.564E-03
 trial: gam= 0.85480 g(F)=  0.370E-02 g(S)=  0.000E+00 ort =-0.354E-03 (trialstep = 0.192E+02)
 search vector abs. value=  0.104E-01
 bond charge predicted
       N       E                     dE             d eps       ncg     rms          rms(c)
DAV:   1    -0.923872940582E+02    0.72013E-01   -0.25837E+02  1232   0.249E+01    0.592E-01
DAV:   2    -0.925072223914E+02   -0.11993E+00   -0.11722E+00  1272   0.239E+00    0.560E-01
DAV:   3    -0.925055291718E+02    0.16932E-02   -0.18898E-02  1368   0.311E-01    0.412E-01
DAV:   4    -0.925015409971E+02    0.39882E-02   -0.46083E-03  1308   0.112E-01    0.242E-01
DAV:   5    -0.925005665515E+02    0.97445E-03   -0.59461E-03  1312   0.126E-01    0.759E-02
DAV:   6    -0.925006636587E+02   -0.97107E-04   -0.10567E-04   840   0.190E-02
  26 F= -.92500664E+02 E0= -.92500664E+02  d E =-.412750E-01  mag=     1.0000
 trial-energy change:   -0.041275  1 .order   -0.043905   -0.065487   -0.022323
 step:  29.2016(harm= 29.2016)  dis= 0.07808  next Energy=   -92.509066 (dE=-0.497E-01)
 bond charge predicted
       N       E                     dE             d eps       ncg     rms          rms(c)
DAV:   1    -0.924744142494E+02    0.26152E-01   -0.68806E+01  1232   0.128E+01    0.290E-01
DAV:   2    -0.925061447067E+02   -0.31730E-01   -0.30992E-01  1280   0.122E+00    0.287E-01
DAV:   3    -0.925057577286E+02    0.38698E-03   -0.49475E-03  1352   0.158E-01    0.215E-01
DAV:   4    -0.925047184082E+02    0.10393E-02   -0.11954E-03  1304   0.569E-02    0.128E-01
DAV:   5    -0.925045261663E+02    0.19224E-03   -0.18590E-03  1284   0.702E-02    0.430E-02
DAV:   6    -0.925045983940E+02   -0.72228E-04   -0.33416E-05   824   0.105E-02
  27 F= -.92504598E+02 E0= -.92504598E+02  d E =-.452097E-01  mag=     1.0000
 curvature: -44.65 expect dE=-0.149E+00 dE for cont linesearch -0.118E-03
 trial: gam= 0.69570 g(F)=  0.334E-02 g(S)=  0.000E+00 ort =-0.166E-03 (trialstep = 0.212E+02)
 search vector abs. value=  0.815E-02
 bond charge predicted
       N       E                     dE             d eps       ncg     rms          rms(c)
DAV:   1    -0.924427974792E+02    0.61729E-01   -0.24652E+02  1232   0.243E+01    0.561E-01
DAV:   2    -0.925579815709E+02   -0.11518E+00   -0.11121E+00  1316   0.232E+00    0.568E-01
DAV:   3    -0.925565833862E+02    0.13982E-02   -0.17136E-02  1312   0.291E-01    0.420E-01
DAV:   4    -0.925526691024E+02    0.39143E-02   -0.45126E-03  1300   0.112E-01    0.260E-01
DAV:   5    -0.925516682433E+02    0.10009E-02   -0.60374E-03  1296   0.127E-01    0.870E-02
DAV:   6    -0.925517356843E+02   -0.67441E-04   -0.89151E-05   824   0.180E-02
  28 F= -.92551736E+02 E0= -.92551736E+02  d E =-.471373E-01  mag=     1.0000
 trial-energy change:   -0.047137  1 .order   -0.048951   -0.068499   -0.029402
 step:  37.2106(harm= 37.2106)  dis= 0.08975  next Energy=   -92.564605 (dE=-0.600E-01)
 bond charge predicted
       N       E                     dE             d eps       ncg     rms          rms(c)
DAV:   1    -0.924975286694E+02    0.54140E-01   -0.13901E+02  1232   0.182E+01    0.412E-01
DAV:   2    -0.925614693796E+02   -0.63941E-01   -0.62263E-01  1304   0.174E+00    0.425E-01
DAV:   3    -0.925607059850E+02    0.76339E-03   -0.97686E-03  1328   0.218E-01    0.317E-01
DAV:   4    -0.925584660808E+02    0.22399E-02   -0.25707E-03  1304   0.842E-02    0.197E-01
DAV:   5    -0.925579341237E+02    0.53196E-03   -0.36426E-03  1288   0.984E-02    0.685E-02
DAV:   6    -0.925579814423E+02   -0.47319E-04   -0.54069E-05   796   0.138E-02
  29 F= -.92557981E+02 E0= -.92557981E+02  d E =-.533830E-01  mag=     1.0000
 curvature: -46.99 expect dE=-0.235E+00 dE for cont linesearch -0.694E-03
 trial: gam= 1.51028 g(F)=  0.500E-02 g(S)=  0.000E+00 ort =-0.347E-03 (trialstep = 0.883E+01)
 search vector abs. value=  0.225E-01
 bond charge predicted
       N       E                     dE             d eps       ncg     rms          rms(c)
DAV:   1    -0.925375510443E+02    0.20383E-01   -0.11768E+02  1232   0.167E+01    0.362E-01
DAV:   2    -0.925910327080E+02   -0.53482E-01   -0.52513E-01  1312   0.159E+00    0.386E-01
DAV:   3    -0.925903056645E+02    0.72704E-03   -0.80312E-03  1320   0.198E-01    0.291E-01
DAV:   4    -0.925884228576E+02    0.18828E-02   -0.18781E-03  1312   0.714E-02    0.190E-01
DAV:   5    -0.925877893280E+02    0.63353E-03   -0.35270E-03  1304   0.962E-02    0.646E-02
DAV:   6    -0.925878453815E+02   -0.56053E-04   -0.42999E-05   824   0.129E-02
  30 F= -.92587845E+02 E0= -.92587845E+02  d E =-.298639E-01  mag=     1.0000
 trial-energy change:   -0.029864  1 .order   -0.031238   -0.039564   -0.022912
 step:  20.9822(harm= 20.9822)  dis= 0.09280  next Energy=   -92.604981 (dE=-0.470E-01)
 bond charge predicted
       N       E                     dE             d eps       ncg     rms          rms(c)
DAV:   1    -0.925042336353E+02    0.83556E-01   -0.22361E+02  1232   0.231E+01    0.527E-01
DAV:   2    -0.926054757046E+02   -0.10124E+00   -0.10027E+00  1304   0.221E+00    0.535E-01
DAV:   3    -0.926039552121E+02    0.15205E-02   -0.15827E-02  1336   0.280E-01    0.395E-01
DAV:   4    -0.926004487407E+02    0.35065E-02   -0.37162E-03  1304   0.101E-01    0.252E-01
DAV:   5    -0.925993567461E+02    0.10920E-02   -0.56463E-03  1328   0.122E-01    0.834E-02
DAV:   6    -0.925994319018E+02   -0.75156E-04   -0.69160E-05   808   0.166E-02
  31 F= -.92599432E+02 E0= -.92599432E+02  d E =-.414505E-01  mag=     1.0000
 curvature: -52.78 expect dE=-0.171E+00 dE for cont linesearch -0.745E-04
 trial: gam= 0.25983 g(F)=  0.324E-02 g(S)=  0.000E+00 ort =-0.178E-03 (trialstep = 0.113E+02)
 search vector abs. value=  0.467E-02
 bond charge predicted
       N       E                     dE             d eps       ncg     rms          rms(c)
DAV:   1    -0.926115129598E+02   -0.12156E-01   -0.39642E+01  1232   0.972E+00    0.220E-01
DAV:   2    -0.926293294581E+02   -0.17816E-01   -0.17519E-01  1292   0.909E-01    0.205E-01
DAV:   3    -0.926290844219E+02    0.24504E-03   -0.25629E-03  1328   0.108E-01    0.156E-01
DAV:   4    -0.926285156088E+02    0.56881E-03   -0.84387E-04  1312   0.474E-02    0.813E-02
DAV:   5    -0.926284745797E+02    0.41029E-04   -0.73721E-04  1288   0.446E-02
  32 F= -.92628475E+02 E0= -.92628475E+02  d E =-.290427E-01  mag=     1.0000
 trial-energy change:   -0.029043  1 .order   -0.029819   -0.036006   -0.023631
 step:  32.7680(harm= 32.7680)  dis= 0.06461  next Energy=   -92.651815 (dE=-0.524E-01)
 bond charge predicted
       N       E                     dE             d eps       ncg     rms          rms(c)
DAV:   1    -0.925856794067E+02    0.42836E-01   -0.14513E+02  1232   0.186E+01    0.447E-01
DAV:   2    -0.926515591539E+02   -0.65880E-01   -0.64742E-01  1308   0.175E+00    0.393E-01
DAV:   3    -0.926505290724E+02    0.10301E-02   -0.95931E-03  1336   0.210E-01    0.293E-01
DAV:   4    -0.926484698195E+02    0.20593E-02   -0.31144E-03  1304   0.914E-02    0.148E-01
DAV:   5    -0.926482244978E+02    0.24532E-03   -0.21671E-03  1316   0.773E-02    0.495E-02
DAV:   6    -0.926482746597E+02   -0.50162E-04   -0.66757E-05   804   0.144E-02
  33 F= -.92648275E+02 E0= -.92648275E+02  d E =-.488428E-01  mag=     1.0000
 curvature: -23.94 expect dE=-0.655E-01 dE for cont linesearch -0.697E-04
 trial: gam= 0.84367 g(F)=  0.274E-02 g(S)=  0.000E+00 ort =-0.117E-03 (trialstep = 0.124E+02)
 search vector abs. value=  0.587E-02
 bond charge predicted
       N       E                     dE             d eps       ncg     rms          rms(c)
DAV:   1    -0.926463935251E+02    0.18310E-02   -0.60291E+01  1232   0.120E+01    0.284E-01
DAV:   2    -0.926742376929E+02   -0.27844E-01   -0.26993E-01  1300   0.113E+00    0.276E-01
DAV:   3    -0.926738598396E+02    0.37785E-03   -0.39987E-03  1352   0.135E-01    0.209E-01
DAV:   4    -0.926728665698E+02    0.99327E-03   -0.15347E-03  1292   0.645E-02    0.112E-01
DAV:   5    -0.926728018670E+02    0.64703E-04   -0.11779E-03  1320   0.565E-02    0.416E-02
DAV:   6    -0.926728357634E+02   -0.33896E-04   -0.33882E-05   808   0.992E-03
  34 F= -.92672836E+02 E0= -.92672836E+02  d E =-.245611E-01  mag=     1.0000
 trial-energy change:   -0.024561  1 .order   -0.024863   -0.032712   -0.017014
 step:  25.8306(harm= 25.8306)  dis= 0.06249  next Energy=   -92.682359 (dE=-0.341E-01)
 bond charge predicted
       N       E                     dE             d eps       ncg     rms          rms(c)
DAV:   1    -0.926508090358E+02    0.21993E-01   -0.70859E+01  1232   0.130E+01    0.315E-01
DAV:   2    -0.926836892459E+02   -0.32880E-01   -0.31766E-01  1276   0.123E+00    0.301E-01
DAV:   3    -0.926832949216E+02    0.39432E-03   -0.49766E-03  1336   0.150E-01    0.226E-01
DAV:   4    -0.926821227055E+02    0.11722E-02   -0.18289E-03  1284   0.707E-02    0.119E-01
DAV:   5    -0.926820277222E+02    0.94983E-04   -0.13140E-03  1304   0.600E-02    0.443E-02
DAV:   6    -0.926820480554E+02   -0.20333E-04   -0.41215E-05   760   0.109E-02
  35 F= -.92682048E+02 E0= -.92682048E+02  d E =-.337734E-01  mag=     1.0000
 curvature: -28.71 expect dE=-0.457E-01 dE for cont linesearch -0.202E-04
 trial: gam= 0.53968 g(F)=  0.159E-02 g(S)=  0.000E+00 ort = 0.642E-04 (trialstep = 0.151E+02)
 search vector abs. value=  0.337E-02
 bond charge predicted
       N       E                     dE             d eps       ncg     rms          rms(c)
DAV:   1    -0.926780290579E+02    0.39987E-02   -0.51264E+01  1232   0.110E+01    0.246E-01
DAV:   2    -0.927018329712E+02   -0.23804E-01   -0.22990E-01  1288   0.105E+00    0.256E-01
DAV:   3    -0.927015778113E+02    0.25516E-03   -0.36265E-03  1352   0.129E-01    0.195E-01
DAV:   4    -0.927007276623E+02    0.85015E-03   -0.10108E-03  1292   0.525E-02    0.119E-01
DAV:   5    -0.927005538788E+02    0.17378E-03   -0.14307E-03  1292   0.611E-02    0.432E-02
DAV:   6    -0.927005866104E+02   -0.32732E-04   -0.25532E-05   796   0.891E-03
  36 F= -.92700587E+02 E0= -.92700587E+02  d E =-.185386E-01  mag=     1.0000
 trial-energy change:   -0.018539  1 .order   -0.018695   -0.024522   -0.012867
 step:  31.7328(harm= 31.7328)  dis= 0.07221  next Energy=   -92.707845 (dE=-0.258E-01)
 bond charge predicted
       N       E                     dE             d eps       ncg     rms          rms(c)
DAV:   1    -0.926789510369E+02    0.21603E-01   -0.62496E+01  1232   0.122E+01    0.276E-01
DAV:   2    -0.927076006755E+02   -0.28650E-01   -0.27997E-01  1272   0.116E+00    0.282E-01
DAV:   3    -0.927072558681E+02    0.34481E-03   -0.44206E-03  1360   0.143E-01    0.214E-01
DAV:   4    -0.927062196586E+02    0.10362E-02   -0.12485E-03  1260   0.583E-02    0.129E-01
DAV:   5    -0.927060144750E+02    0.20518E-03   -0.16439E-03  1312   0.656E-02    0.465E-02
DAV:   6    -0.927060524417E+02   -0.37967E-04   -0.30780E-05   800   0.973E-03
  37 F= -.92706052E+02 E0= -.92706052E+02  d E =-.240044E-01  mag=     1.0000
 curvature: -32.88 expect dE=-0.452E-01 dE for cont linesearch -0.168E-03
 trial: gam= 0.90537 g(F)=  0.138E-02 g(S)=  0.000E+00 ort =-0.131E-03 (trialstep = 0.159E+02)
 search vector abs. value=  0.390E-02
 bond charge predicted
       N       E                     dE             d eps       ncg     rms          rms(c)
DAV:   1    -0.926897651649E+02    0.16249E-01   -0.66045E+01  1232   0.125E+01    0.278E-01
DAV:   2    -0.927202284029E+02   -0.30463E-01   -0.29760E-01  1272   0.119E+00    0.282E-01
DAV:   3    -0.927198813872E+02    0.34702E-03   -0.46566E-03  1308   0.145E-01    0.215E-01
DAV:   4    -0.927188298751E+02    0.10515E-02   -0.13099E-03  1300   0.597E-02    0.127E-01
DAV:   5    -0.927186479097E+02    0.18197E-03   -0.17207E-03  1292   0.671E-02    0.461E-02
DAV:   6    -0.927186608956E+02   -0.12986E-04   -0.35259E-05   788   0.103E-02
  38 F= -.92718661E+02 E0= -.92718661E+02  d E =-.126085E-01  mag=     1.0000
 trial-energy change:   -0.012608  1 .order   -0.013083   -0.019991   -0.006175
 step:  26.8031(harm= 23.0180)  dis= 0.06677  next Energy=   -92.720623 (dE=-0.146E-01)
 bond charge predicted
       N       E                     dE             d eps       ncg     rms          rms(c)
DAV:   1    -0.927054926816E+02    0.13155E-01   -0.30936E+01  1232   0.857E+00    0.189E-01
DAV:   2    -0.927197250136E+02   -0.14232E-01   -0.13883E-01  1276   0.811E-01    0.194E-01
DAV:   3    -0.927195706689E+02    0.15434E-03   -0.21561E-03  1300   0.985E-02    0.149E-01
DAV:   4    -0.927190753419E+02    0.49533E-03   -0.63663E-04  1300   0.416E-02    0.876E-02
DAV:   5    -0.927190032084E+02    0.72133E-04   -0.81971E-04  1284   0.464E-02
  39 F= -.92719003E+02 E0= -.92719003E+02  d E =-.129508E-01  mag=     1.0000
 curvature: -25.59 expect dE=-0.311E-01 dE for cont linesearch -0.340E-03
 trial: gam= 0.74540 g(F)=  0.122E-02 g(S)=  0.000E+00 ort =-0.228E-03 (trialstep = 0.181E+02)
 search vector abs. value=  0.304E-02
 bond charge predicted
       N       E                     dE             d eps       ncg     rms          rms(c)
DAV:   1    -0.927005376442E+02    0.18538E-01   -0.66529E+01  1232   0.126E+01    0.287E-01
DAV:   2    -0.927313273914E+02   -0.30790E-01   -0.29896E-01  1272   0.119E+00    0.277E-01
DAV:   3    -0.927309907172E+02    0.33667E-03   -0.47082E-03  1332   0.149E-01    0.209E-01
DAV:   4    -0.927299965069E+02    0.99421E-03   -0.12809E-03  1308   0.588E-02    0.117E-01
DAV:   5    -0.927298220475E+02    0.17446E-03   -0.15341E-03  1292   0.637E-02    0.410E-02
DAV:   6    -0.927298355688E+02   -0.13521E-04   -0.35518E-05   768   0.104E-02
  40 F= -.92729836E+02 E0= -.92729836E+02  d E =-.108324E-01  mag=     1.0000
 trial-energy change:   -0.010832  1 .order   -0.011504   -0.018915   -0.004093
 step:  26.3576(harm= 23.0808)  dis= 0.04371  next Energy=   -92.730707 (dE=-0.117E-01)
 bond charge predicted
       N       E                     dE             d eps       ncg     rms          rms(c)
DAV:   1    -0.927238076073E+02    0.60144E-02   -0.13884E+01  1232   0.575E+00    0.129E-01
DAV:   2    -0.927301631901E+02   -0.63556E-02   -0.61958E-02  1272   0.543E-01    0.127E-01
DAV:   3    -0.927300976276E+02    0.65563E-04   -0.96896E-04  1336   0.673E-02
  41 F= -.92730098E+02 E0= -.92730098E+02  d E =-.110944E-01  mag=     1.0000
 curvature: -19.12 expect dE=-0.191E-01 dE for cont linesearch -0.181E-03
 trial: gam= 0.61819 g(F)=  0.998E-03 g(S)=  0.000E+00 ort =-0.170E-03 (trialstep = 0.197E+02)
 search vector abs. value=  0.195E-02
 bond charge predicted
       N       E                     dE             d eps       ncg     rms          rms(c)
DAV:   1    -0.927210005874E+02    0.91626E-02   -0.50791E+01  1232   0.110E+01    0.258E-01
DAV:   2    -0.927436920534E+02   -0.22691E-01   -0.22301E-01  1268   0.103E+00    0.257E-01
DAV:   3    -0.927432991552E+02    0.39290E-03   -0.34624E-03  1352   0.127E-01    0.199E-01
DAV:   4    -0.927423138903E+02    0.98526E-03   -0.14345E-03  1272   0.614E-02    0.102E-01
DAV:   5    -0.927422102176E+02    0.10367E-03   -0.11841E-03  1312   0.564E-02    0.384E-02
DAV:   6    -0.927422275413E+02   -0.17324E-04   -0.33890E-05   788   0.100E-02
  42 F= -.92742228E+02 E0= -.92742228E+02  d E =-.121299E-01  mag=     1.0000
 trial-energy change:   -0.012130  1 .order   -0.012697   -0.017622   -0.007773
 step:  35.3194(harm= 35.3194)  dis= 0.04502  next Energy=   -92.745862 (dE=-0.158E-01)
 bond charge predicted
       N       E                     dE             d eps       ncg     rms          rms(c)
DAV:   1    -0.927313550054E+02    0.10855E-01   -0.31576E+01  1232   0.868E+00    0.201E-01
DAV:   2    -0.927456177333E+02   -0.14263E-01   -0.14022E-01  1272   0.817E-01    0.191E-01
DAV:   3    -0.927454130556E+02    0.20468E-03   -0.21886E-03  1332   0.103E-01    0.144E-01
DAV:   4    -0.927449209954E+02    0.49206E-03   -0.67420E-04  1288   0.424E-02    0.770E-02
DAV:   5    -0.927448622460E+02    0.58749E-04   -0.69093E-04  1288   0.428E-02
  43 F= -.92744862E+02 E0= -.92744862E+02  d E =-.147646E-01  mag=     1.0000
 curvature: -38.59 expect dE=-0.403E-01 dE for cont linesearch -0.130E-05
 trial: gam= 0.86924 g(F)=  0.104E-02 g(S)=  0.000E+00 ort = 0.809E-05 (trialstep = 0.176E+02)
 search vector abs. value=  0.253E-02
 bond charge predicted
       N       E                     dE             d eps       ncg     rms          rms(c)
DAV:   1    -0.927345687659E+02    0.10352E-01   -0.52440E+01  1232   0.112E+01    0.243E-01
DAV:   2    -0.927586477251E+02   -0.24079E-01   -0.23691E-01  1272   0.107E+00    0.259E-01
DAV:   3    -0.927584390774E+02    0.20865E-03   -0.38200E-03  1336   0.136E-01    0.195E-01
DAV:   4    -0.927576628506E+02    0.77623E-03   -0.83760E-04  1300   0.489E-02    0.127E-01
DAV:   5    -0.927574691499E+02    0.19370E-03   -0.16617E-03  1292   0.657E-02    0.457E-02
DAV:   6    -0.927574747357E+02   -0.55859E-05   -0.29919E-05   792   0.974E-03
  44 F= -.92757475E+02 E0= -.92757475E+02  d E =-.126125E-01  mag=     1.0000
 trial-energy change:   -0.012612  1 .order   -0.013242   -0.018506   -0.007979
 step:  30.9591(harm= 30.9591)  dis= 0.04309  next Energy=   -92.761128 (dE=-0.163E-01)
 bond charge predicted
       N       E                     dE             d eps       ncg     rms          rms(c)
DAV:   1    -0.927471336257E+02    0.10336E-01   -0.30105E+01  1232   0.846E+00    0.182E-01
DAV:   2    -0.927609032361E+02   -0.13770E-01   -0.13568E-01  1284   0.808E-01    0.197E-01
DAV:   3    -0.927607819302E+02    0.12131E-03   -0.21766E-03  1328   0.102E-01    0.150E-01
DAV:   4    -0.927603203312E+02    0.46160E-03   -0.48967E-04  1296   0.373E-02    0.980E-02
DAV:   5    -0.927601998287E+02    0.12050E-03   -0.10013E-03  1308   0.509E-02    0.358E-02
DAV:   6    -0.927602042435E+02   -0.44148E-05   -0.17258E-05   780   0.745E-03
  45 F= -.92760204E+02 E0= -.92760204E+02  d E =-.153420E-01  mag=     1.0000
 curvature: -37.29 expect dE=-0.254E-01 dE for cont linesearch -0.136E-05
 trial: gam= 0.66094 g(F)=  0.682E-03 g(S)=  0.000E+00 ort = 0.961E-05 (trialstep = 0.203E+02)
 search vector abs. value=  0.180E-02
 bond charge predicted
       N       E                     dE             d eps       ncg     rms          rms(c)
DAV:   1    -0.927465912321E+02    0.13609E-01   -0.49468E+01  1232   0.109E+01    0.229E-01
DAV:   2    -0.927694290209E+02   -0.22838E-01   -0.22302E-01  1272   0.104E+00    0.242E-01
DAV:   3    -0.927692433195E+02    0.18570E-03   -0.35820E-03  1336   0.132E-01    0.185E-01
DAV:   4    -0.927685295161E+02    0.71380E-03   -0.69986E-04  1296   0.441E-02    0.120E-01
DAV:   5    -0.927682737123E+02    0.25580E-03   -0.16077E-03  1312   0.648E-02    0.408E-02
DAV:   6    -0.927682779827E+02   -0.42704E-05   -0.23724E-05   808   0.882E-03
  46 F= -.92768278E+02 E0= -.92768278E+02  d E =-.807374E-02  mag=     1.0000
 trial-energy change:   -0.008074  1 .order   -0.008569   -0.013959   -0.003180
 step:  30.5141(harm= 26.2647)  dis= 0.02501  next Energy=   -92.769017 (dE=-0.881E-02)
 bond charge predicted
       N       E                     dE             d eps       ncg     rms          rms(c)
DAV:   1    -0.927625691991E+02    0.57045E-02   -0.12577E+01  1232   0.547E+00    0.116E-01
DAV:   2    -0.927683732546E+02   -0.58041E-02   -0.56782E-02  1272   0.522E-01    0.121E-01
DAV:   3    -0.927683281115E+02    0.45143E-04   -0.91133E-04  1328   0.668E-02
  47 F= -.92768328E+02 E0= -.92768328E+02  d E =-.812387E-02  mag=     1.0000
 curvature: -17.03 expect dE=-0.119E-01 dE for cont linesearch -0.202E-03
 trial: gam= 0.00000 g(F)=  0.700E-03 g(S)=  0.000E+00 ort =-0.146E-03 (trialstep = 0.223E+02)
 search vector abs. value=  0.700E-03
 bond charge predicted
       N       E                     dE             d eps       ncg     rms          rms(c)
DAV:   1    -0.927615140130E+02    0.68592E-02   -0.23476E+01  1232   0.750E+00    0.256E-01
DAV:   2    -0.927719644771E+02   -0.10450E-01   -0.10607E-01  1284   0.695E-01    0.186E-01
DAV:   3    -0.927717639470E+02    0.20053E-03   -0.18330E-03  1376   0.861E-02    0.125E-01
DAV:   4    -0.927715723941E+02    0.19155E-03   -0.86933E-04  1300   0.502E-02    0.326E-02
DAV:   5    -0.927715931196E+02   -0.20726E-04   -0.31309E-05   816   0.154E-02
  48 F= -.92771593E+02 E0= -.92771593E+02  d E =-.326501E-02  mag=     1.0000
 trial-energy change:   -0.003265  1 .order   -0.003655   -0.015624    0.008314
 step:  14.5728(harm= 14.5728)  dis= 0.01060  next Energy=   -92.773427 (dE=-0.510E-02)
 bond charge predicted
       N       E                     dE             d eps       ncg     rms          rms(c)
DAV:   1    -0.927719432487E+02   -0.37085E-03   -0.28353E+00  1248   0.260E+00    0.875E-02
DAV:   2    -0.927732088254E+02   -0.12656E-02   -0.12587E-02  1336   0.240E-01    0.686E-02
DAV:   3    -0.927731814808E+02    0.27345E-04   -0.18418E-04   856   0.286E-02
  49 F= -.92773181E+02 E0= -.92773181E+02  d E =-.485337E-02  mag=     1.0000
 curvature:  -7.29 expect dE=-0.208E-02 dE for cont linesearch -0.885E-04
 trial: gam= 0.27591 g(F)=  0.285E-03 g(S)=  0.000E+00 ort = 0.922E-04 (trialstep = 0.208E+02)
 search vector abs. value=  0.389E-03
 bond charge predicted
       N       E                     dE             d eps       ncg     rms          rms(c)
DAV:   1    -0.927722861657E+02    0.92266E-03   -0.11215E+01  1240   0.517E+00    0.121E-01
DAV:   2    -0.927774711630E+02   -0.51850E-02   -0.50572E-02  1280   0.489E-01    0.116E-01
DAV:   3    -0.927774095481E+02    0.61615E-04   -0.78957E-04  1348   0.597E-02
  50 F= -.92777410E+02 E0= -.92777410E+02  d E =-.422807E-02  mag=     1.0000
 trial-energy change:   -0.004228  1 .order   -0.004529   -0.006456   -0.002602
 step:  34.8024(harm= 34.8024)  dis= 0.01872  next Energy=   -92.778589 (dE=-0.541E-02)
 bond charge predicted
       N       E                     dE             d eps       ncg     rms          rms(c)
DAV:   1    -0.927760411332E+02    0.14300E-02   -0.51329E+00  1244   0.350E+00    0.107E-01
DAV:   2    -0.927782574741E+02   -0.22163E-02   -0.22186E-02  1340   0.325E-01    0.100E-01
DAV:   3    -0.927781807675E+02    0.76707E-04   -0.29701E-04   920   0.371E-02
  51 F= -.92778181E+02 E0= -.92778181E+02  d E =-.499929E-02  mag=     1.0000
 curvature: -21.81 expect dE=-0.583E-02 dE for cont linesearch -0.187E-03
 trial: gam= 0.00000 g(F)=  0.267E-03 g(S)=  0.000E+00 ort =-0.577E-04 (trialstep = 0.236E+02)
 search vector abs. value=  0.267E-03
 bond charge predicted
       N       E                     dE             d eps       ncg     rms          rms(c)
DAV:   1    -0.927754065770E+02    0.28509E-02   -0.99937E+00  1240   0.489E+00    0.163E-01
DAV:   2    -0.927799314714E+02   -0.45249E-02   -0.45727E-02  1272   0.462E-01    0.132E-01
DAV:   3    -0.927798538009E+02    0.77671E-04   -0.74048E-04  1344   0.579E-02
  52 F= -.92779854E+02 E0= -.92779854E+02  d E =-.167303E-02  mag=     1.0000
 trial-energy change:   -0.001673  1 .order   -0.001779   -0.006305    0.002747
 step:  16.4245(harm= 16.4245)  dis= 0.00620  next Energy=   -92.780377 (dE=-0.220E-02)
 bond charge predicted
       N       E                     dE             d eps       ncg     rms          rms(c)
DAV:   1    -0.927796948765E+02    0.23659E-03   -0.91437E-01  1272   0.148E+00    0.377E-02
DAV:   2    -0.927801346206E+02   -0.43974E-03   -0.42590E-03  1304   0.143E-01    0.289E-02
DAV:   3    -0.927801394678E+02   -0.48472E-05   -0.65655E-05   788   0.192E-02
  53 F= -.92780139E+02 E0= -.92780139E+02  d E =-.195870E-02  mag=     1.0000
 curvature:  -8.21 expect dE=-0.867E-03 dE for cont linesearch -0.538E-04
 trial: gam= 0.23827 g(F)=  0.106E-03 g(S)=  0.000E+00 ort = 0.418E-04 (trialstep = 0.222E+02)
 search vector abs. value=  0.141E-03
 bond charge predicted
       N       E                     dE             d eps       ncg     rms          rms(c)
DAV:   1    -0.927797283878E+02    0.40623E-03   -0.46022E+00  1232   0.332E+00    0.763E-02
DAV:   2    -0.927818606976E+02   -0.21323E-02   -0.20876E-02  1272   0.314E-01    0.722E-02
DAV:   3    -0.927818315224E+02    0.29175E-04   -0.30167E-04   920   0.390E-02
  54 F= -.92781832E+02 E0= -.92781832E+02  d E =-.169205E-02  mag=     1.0000
 trial-energy change:   -0.001692  1 .order   -0.001270   -0.002559    0.000019
 step:  22.0664(harm= 21.9844)  dis= 0.00804  next Energy=   -92.781832 (dE=-0.169E-02)
 bond charge predicted
       N       E                     dE             d eps       ncg     rms          rms(c)
DAV:   1    -0.927817480914E+02    0.11261E-03   -0.11934E-04   764   0.169E-02    0.260E-02
DAV:   2    -0.927817444224E+02    0.36690E-05   -0.36782E-05   776   0.124E-02
  55 F= -.92781744E+02 E0= -.92781744E+02  d E =-.160495E-02  mag=     1.0000
 curvature: -10.11 expect dE=-0.119E-02 dE for cont linesearch -0.274E-03
 trial: gam= 0.00000 g(F)=  0.118E-03 g(S)=  0.000E+00 ort = 0.617E-04 (trialstep = 0.221E+02)
 search vector abs. value=  0.118E-03
 bond charge predicted
       N       E                     dE             d eps       ncg     rms          rms(c)
DAV:   1    -0.927817912292E+02   -0.43138E-04   -0.38636E+00  1232   0.304E+00    0.786E-02
DAV:   2    -0.927835586376E+02   -0.17674E-02   -0.17253E-02  1296   0.285E-01    0.711E-02
DAV:   3    -0.927835326017E+02    0.26036E-04   -0.22677E-04   792   0.336E-02
  56 F= -.92783533E+02 E0= -.92783533E+02  d E =-.178818E-02  mag=     1.0000
 trial-energy change:   -0.001788  1 .order   -0.001306   -0.002612    0.000001
 step:  22.1309(harm= 22.1281)  dis= 0.00648  next Energy=   -92.783533 (dE=-0.179E-02)
 bond charge predicted
       N       E                     dE             d eps       ncg     rms          rms(c)
DAV:   1    -0.927834841654E+02    0.74472E-04   -0.17836E-04   784   0.219E-02    0.178E-02
DAV:   2    -0.927834910648E+02   -0.68994E-05   -0.22363E-05   752   0.103E-02
  57 F= -.92783491E+02 E0= -.92783491E+02  d E =-.174664E-02  mag=     1.0000
 curvature:  -8.01 expect dE=-0.590E-03 dE for cont linesearch -0.147E-03
 trial: gam= 0.22946 g(F)=  0.737E-04 g(S)=  0.000E+00 ort = 0.466E-04 (trialstep = 0.221E+02)
 search vector abs. value=  0.101E-03
 bond charge predicted
       N       E                     dE             d eps       ncg     rms          rms(c)
DAV:   1    -0.927835477006E+02   -0.63535E-04   -0.33058E+00  1232   0.281E+00    0.619E-02
DAV:   2    -0.927850500689E+02   -0.15024E-02   -0.14623E-02  1280   0.264E-01    0.609E-02
DAV:   3    -0.927850275797E+02    0.22489E-04   -0.20116E-04   804   0.321E-02
  58 F= -.92785028E+02 E0= -.92785028E+02  d E =-.153651E-02  mag=     1.0000
 trial-energy change:   -0.001537  1 .order   -0.001083   -0.001867   -0.000299
 step:  23.6136(harm= 26.3557)  dis= 0.00755  next Energy=   -92.785038 (dE=-0.155E-02)
 bond charge predicted
       N       E                     dE             d eps       ncg     rms          rms(c)
DAV:   1    -0.927850383861E+02    0.11683E-04   -0.15973E-02  1272   0.198E-01    0.217E-02
DAV:   2    -0.927850377645E+02    0.62159E-06   -0.47018E-05   768   0.165E-02
  59 F= -.92785038E+02 E0= -.92785038E+02  d E =-.154670E-02  mag=     1.0000
 curvature:  -9.15 expect dE=-0.620E-03 dE for cont linesearch -0.159E-03
 trial: gam= 0.00000 g(F)=  0.677E-04 g(S)=  0.000E+00 ort = 0.419E-04 (trialstep = 0.224E+02)
 search vector abs. value=  0.677E-04
 bond charge predicted
       N       E                     dE             d eps       ncg     rms          rms(c)
DAV:   1    -0.927848587101E+02    0.17968E-03   -0.22838E+00  1232   0.234E+00    0.712E-02
DAV:   2    -0.927858835056E+02   -0.10248E-02   -0.10159E-02  1288   0.218E-01    0.582E-02
DAV:   3    -0.927858619575E+02    0.21548E-04   -0.14377E-04   772   0.272E-02
  60 F= -.92785862E+02 E0= -.92785862E+02  d E =-.824193E-03  mag=     1.0000
 trial-energy change:   -0.000824  1 .order   -0.000460   -0.001519    0.000599
 step:  16.0872(harm= 16.0872)  dis= 0.00316  next Energy=   -92.785583 (dE=-0.545E-03)
 bond charge predicted
       N       E                     dE             d eps       ncg     rms          rms(c)
DAV:   1    -0.927856905249E+02    0.19298E-03   -0.17921E-01  1260   0.653E-01    0.150E-02
DAV:   2    -0.927857802868E+02   -0.89762E-04   -0.82608E-04  1228   0.627E-02
  61 F= -.92785780E+02 E0= -.92785780E+02  d E =-.742522E-03  mag=     1.0000
 curvature:  -8.04 expect dE=-0.696E-03 dE for cont linesearch -0.221E-03
 trial: gam= 0.00000 g(F)=  0.865E-04 g(S)=  0.000E+00 ort = 0.432E-04 (trialstep = 0.166E+02)
 search vector abs. value=  0.865E-04
 reached required accuracy - stopping structural energy minimisation
Application 91042366 resources: utime ~129838s, stime ~748s, Rss ~75484, inblocks ~936976, outblocks ~1236112
