43
Energy = -92.78578029 eV
Ag 10.463211538088583 15.682446637664325 10.012270585142694
Ag 8.103622590471039 14.387150529024613 8.765148396182854
Ag 10.636675520839272 13.749696822532464 7.781544414811482
Ag 8.835836663026715 11.685172222426475 8.474455894386288
Ag 12.931102328535422 14.451692191278974 9.091290100579965
Ag 13.125339647700729 13.12737914750577 6.67370308486709
Ag 7.285691790247558 12.37600716442772 10.685540658971235
Ag 11.042131158438119 11.178392508293722 6.656381767151798
Ag 8.0716801105203 14.929179559199003 11.45039019122963
Ag 10.173070762273595 14.918073687967404 13.18780405257739
Ag 12.548214628902212 14.89578660693251 11.823048232050368
Ag 6.691066851500836 9.85246529029316 9.736284079118311
Ag 10.349119487004025 13.033361564879325 10.687194483082363
Ag 14.977679516875963 12.536641906314813 8.733409275984602
Ag 9.014327955084823 8.95314645380614 8.536949076762566
Ag 15.167089393202206 14.287088561656194 10.842775657244545
Ag 13.715272219339061 10.411166074020494 7.4530036388694825
Ag 13.133244231965572 12.205868416905925 10.96824090909436
Ag 11.580563851020765 8.533361528131381 7.495717664176885
Ag 11.418632137972377 10.652625778362715 9.325406953732289
Ag 6.992591787772024 10.124236642447126 12.563233534100295
Ag 15.841515280339555 9.964992341200023 9.352693144867407
Ag 12.497009645994119 15.140672562556722 14.65548635438193
Ag 8.62909214111561 12.59795536536007 13.113898698376468
Ag 14.413196747782616 13.481919269403543 13.403921445287564
Ag 8.08508670657919 7.832943070829302 11.177531888204122
Ag 15.759735391159486 11.625445332635099 11.626568492445282
Ag 11.433818569712518 12.088448376418139 13.196901408251057
Ag 12.142222906289286 9.692529851568432 11.89232944118688
Ag 9.410879149608016 10.375315920617387 11.240696418469948
Ag 13.481025788676803 8.541285570545634 9.553104963568172
Ag 10.38618918772498 13.145018309965117 15.454192752529117
Ag 10.818853584357823 7.771708618324221 10.206935173738115
Ag 9.360129110908309 10.147386454968913 14.141333115559776
Ag 13.21886801940176 12.708008611851664 15.81596207245508
Ag 7.773086400860557 7.8110342801092285 14.027735903163318
Ag 14.895498001478593 8.963837081790759 11.942180901009188
Ag 10.31031332161003 7.652960108060651 12.94610005748763
Ag 13.952893023104187 10.803931655334265 13.830881049740269
Ag 12.69638474723457 8.301696751508329 14.284973628846338
Ag 11.628677272105612 10.484757108368063 15.636934802891648
Ag 12.897477716078326 6.907710861018194 11.862285664221519
Ag 10.140367797903295 8.01798788430271 15.722044654008192
