<?xml version="1.0" encoding="ISO-8859-1"?>
<modeling>
 <generator>
  <i name="program" type="string">vasp </i>
  <i name="version" type="string">5.3.5  </i>
  <i name="subversion" type="string">31Mar14 (build Feb 01 2018 12:10:03) gamma-only                       parallel </i>
  <i name="platform" type="string">LinuxIFC </i>
  <i name="date" type="string">2019 03 22 </i>
  <i name="time" type="string">06:45:03 </i>
 </generator>
 <incar>
  <i type="string" name="PREC">normal</i>
  <i type="int" name="ISPIN">     2</i>
  <i type="int" name="IBRION">     2</i>
  <i type="int" name="NSW">  1000</i>
  <i type="int" name="ISIF">     2</i>
  <i name="POTIM">      0.10000000</i>
  <i type="logical" name="LPLANE"> T  </i>
  <i type="int" name="ISMEAR">     0</i>
  <i name="SIGMA">      0.00010000</i>
  <i type="logical" name="LWAVE"> F  </i>
  <i type="logical" name="LCHARG"> F  </i>
  <i type="logical" name="LVTOT"> F  </i>
  <i type="string" name="GGA"> PE</i>
 </incar>
 <kpoints>
  <varray name="kpointlist" >
   <v>       0.00000000       0.00000000       0.00000000 </v>
  </varray>
  <varray name="weights" >
   <v>       1.00000000 </v>
  </varray>
 </kpoints>
 <parameters>
  <separator name="general" >
   <i type="string" name="SYSTEM">unknown system</i>
   <i type="logical" name="LCOMPAT"> F  </i>
  </separator>
  <separator name="electronic" >
   <i type="string" name="PREC">normal</i>
   <i name="ENMAX">    249.84400000</i>
   <i name="ENAUG">    412.49600000</i>
   <i name="EDIFF">      0.00010000</i>
   <i type="int" name="IALGO">    38</i>
   <i type="int" name="IWAVPR">    11</i>
   <i type="int" name="NBANDS">   184</i>
   <i name="NELECT">    286.00000000</i>
   <i type="int" name="TURBO">     0</i>
   <i type="int" name="IRESTART">     0</i>
   <i type="int" name="NREBOOT">     0</i>
   <i type="int" name="NMIN">     0</i>
   <i name="EREF">      0.00000000</i>
   <separator name="electronic smearing" >
    <i type="int" name="ISMEAR">     0</i>
    <i name="SIGMA">      0.00010000</i>
    <i name="KSPACING">      0.50000000</i>
    <i type="logical" name="KGAMMA"> T  </i>
   </separator>
   <separator name="electronic projectors" >
    <i type="logical" name="LREAL"> F  </i>
    <v name="ROPT">      0.00000000</v>
    <i type="int" name="LMAXPAW">  -100</i>
    <i type="int" name="LMAXMIX">     2</i>
    <i type="logical" name="NLSPLINE"> F  </i>
   </separator>
   <separator name="electronic startup" >
    <i type="int" name="ISTART">     0</i>
    <i type="int" name="ICHARG">     2</i>
    <i type="int" name="INIWAV">     1</i>
   </separator>
   <separator name="electronic spin" >
    <i type="int" name="ISPIN">     2</i>
    <i type="logical" name="LNONCOLLINEAR"> F  </i>
    <v name="MAGMOM">      1.00000000      1.00000000      1.00000000      1.00000000      1.00000000      1.00000000      1.00000000      1.00000000      1.00000000      1.00000000      1.00000000      1.00000000      1.00000000      1.00000000      1.00000000      1.00000000      1.00000000      1.00000000      1.00000000      1.00000000
      1.00000000      1.00000000      1.00000000      1.00000000      1.00000000      1.00000000</v>
    <i name="NUPDOWN">     -1.00000000</i>
    <i type="logical" name="LSORBIT"> F  </i>
    <v name="SAXIS">      0.00000000      0.00000000      1.00000000</v>
    <i type="logical" name="LSPIRAL"> F  </i>
    <v name="QSPIRAL">      0.00000000      0.00000000      0.00000000</v>
    <i type="logical" name="LZEROZ"> F  </i>
   </separator>
   <separator name="electronic exchange-correlation" >
    <i type="logical" name="LASPH"> F  </i>
    <i type="logical" name="LMETAGGA"> F  </i>
   </separator>
   <separator name="electronic convergence" >
    <i type="int" name="NELM">    60</i>
    <i type="int" name="NELMDL">    -5</i>
    <i type="int" name="NELMIN">     2</i>
    <i name="ENINI">    249.84400000</i>
    <separator name="electronic convergence detail" >
     <i type="logical" name="LDIAG"> T  </i>
     <i type="logical" name="LSUBROT"> F  </i>
     <i name="WEIMIN">      0.00100000</i>
     <i name="EBREAK">      0.00000014</i>
     <i name="DEPER">      0.30000000</i>
     <i type="int" name="NRMM">     4</i>
     <i name="TIME">      0.40000000</i>
    </separator>
   </separator>
   <separator name="electronic mixer" >
    <i name="AMIX">      0.40000000</i>
    <i name="BMIX">      1.00000000</i>
    <i name="AMIN">      0.10000000</i>
    <i name="AMIX_MAG">      1.60000000</i>
    <i name="BMIX_MAG">      1.00000000</i>
    <separator name="electronic mixer details" >
     <i type="int" name="IMIX">     4</i>
     <i type="int" name="MAXMIX">   -45</i>
     <i name="WC">    100.00000000</i>
     <i type="int" name="INIMIX">     1</i>
     <i type="int" name="MIXPRE">     1</i>
     <i type="int" name="MREMOVE">     5</i>
    </separator>
   </separator>
   <separator name="electronic dipolcorrection" >
    <i type="logical" name="LDIPOL"> F  </i>
    <i type="logical" name="LMONO"> F  </i>
    <i type="int" name="IDIPOL">     0</i>
    <i name="EPSILON">      1.00000000</i>
    <v name="DIPOL">   -100.00000000   -100.00000000   -100.00000000</v>
    <i name="EFIELD">      0.00000000</i>
   </separator>
  </separator>
  <separator name="grids" >
   <i type="int" name="NGX">    90</i>
   <i type="int" name="NGY">    90</i>
   <i type="int" name="NGZ">    90</i>
   <i type="int" name="NGXF">   180</i>
   <i type="int" name="NGYF">   180</i>
   <i type="int" name="NGZF">   180</i>
   <i type="logical" name="ADDGRID"> F  </i>
  </separator>
  <separator name="ionic" >
   <i type="int" name="NSW">  1000</i>
   <i type="int" name="IBRION">     2</i>
   <i type="int" name="ISIF">     2</i>
   <i name="PSTRESS">      0.00000000</i>
   <i name="EDIFFG">      0.00100000</i>
   <i type="int" name="NFREE">     1</i>
   <i name="POTIM">      0.10000000</i>
   <i name="SMASS">     -3.00000000</i>
   <i name="SCALEE">      1.00000000</i>
  </separator>
  <separator name="ionic md" >
   <i name="TEBEG">      0.00010000</i>
   <i name="TEEND">      0.00010000</i>
   <i type="int" name="NBLOCK">     1</i>
   <i type="int" name="KBLOCK">  1000</i>
   <i type="int" name="NPACO">   256</i>
   <i name="APACO">     16.00000000</i>
  </separator>
  <separator name="symmetry" >
   <i type="int" name="ISYM">     2</i>
   <i name="SYMPREC">      0.00001000</i>
  </separator>
  <separator name="dos" >
   <i type="logical" name="LORBIT"> F  </i>
   <v name="RWIGS">     -1.00000000</v>
   <i type="int" name="NEDOS">   301</i>
   <i name="EMIN">     10.00000000</i>
   <i name="EMAX">    -10.00000000</i>
   <i name="EFERMI">      0.00000000</i>
  </separator>
  <separator name="writing" >
   <i type="int" name="NWRITE">     2</i>
   <i type="logical" name="LWAVE"> F  </i>
   <i type="logical" name="LCHARG"> F  </i>
   <i type="logical" name="LPARD"> F  </i>
   <i type="logical" name="LVTOT"> F  </i>
   <i type="logical" name="LVHAR"> F  </i>
   <i type="logical" name="LELF"> F  </i>
   <i type="logical" name="LOPTICS"> F  </i>
   <v name="STM">      0.00000000      0.00000000      0.00000000      0.00000000      0.00000000      0.00000000      0.00000000</v>
  </separator>
  <separator name="performance" >
   <i type="int" name="NPAR">     4</i>
   <i type="int" name="NSIM">     4</i>
   <i type="int" name="NBLK">    -1</i>
   <i type="logical" name="LPLANE"> T  </i>
   <i type="logical" name="LSCALAPACK"> T  </i>
   <i type="logical" name="LSCAAWARE"> F  </i>
   <i type="logical" name="LSCALU"> F  </i>
   <i type="logical" name="LASYNC"> F  </i>
   <i type="logical" name="LORBITALREAL"> F  </i>
  </separator>
  <separator name="miscellaneous" >
   <i type="int" name="IDIOT">     3</i>
   <i type="logical" name="LMUSIC"> F  </i>
   <v name="POMASS">    107.86800000</v>
   <v name="DARWINR">      0.00000000</v>
   <v name="DARWINV">      1.00000000</v>
   <i type="logical" name="LCORR"> T  </i>
  </separator>
  <i type="logical" name="GGA_COMPAT"> T  </i>
  <i type="logical" name="LBERRY"> F  </i>
  <i type="int" name="ICORELEVEL">     0</i>
  <i type="logical" name="LDAU"> F  </i>
  <i type="int" name="I_CONSTRAINED_M">     0</i>
  <separator name="electronic exchange-correlation" >
   <i type="string" name="GGA">PE</i>
   <i type="int" name="VOSKOWN">     0</i>
   <i type="logical" name="LHFCALC"> F  </i>
   <i type="string" name="PRECFOCK"></i>
   <i type="logical" name="LSYMGRAD"> F  </i>
   <i type="logical" name="LHFONE"> F  </i>
   <i type="logical" name="LRHFCALC"> F  </i>
   <i type="logical" name="LTHOMAS"> F  </i>
   <i type="logical" name="LMODELHF"> F  </i>
   <i name="ENCUT4O">     -1.00000000</i>
   <i type="int" name="EXXOEP">     0</i>
   <i type="int" name="FOURORBIT">     0</i>
   <i name="AEXX">      0.00000000</i>
   <i name="HFALPHA">      0.00000000</i>
   <i name="MCALPHA">      0.00000000</i>
   <i name="ALDAX">      1.00000000</i>
   <i name="AGGAX">      1.00000000</i>
   <i name="ALDAC">      1.00000000</i>
   <i name="AGGAC">      1.00000000</i>
   <i type="int" name="NKREDX">     1</i>
   <i type="int" name="NKREDY">     1</i>
   <i type="int" name="NKREDZ">     1</i>
   <i type="logical" name="SHIFTRED"> F  </i>
   <i type="logical" name="ODDONLY"> F  </i>
   <i type="logical" name="EVENONLY"> F  </i>
   <i type="int" name="LMAXFOCK">     0</i>
   <i type="int" name="NMAXFOCKAE">     0</i>
   <i type="logical" name="LFOCKAEDFT"> F  </i>
   <i name="HFSCREEN">      0.00000000</i>
   <i name="HFSCREENC">      0.00000000</i>
   <i type="int" name="NBANDSGWLOW">     0</i>
  </separator>
  <separator name="vdW DFT" >
   <i type="logical" name="LUSE_VDW"> F  </i>
   <i name="Zab_VDW">     -0.84910000</i>
   <i name="PARAM1">      0.12340000</i>
   <i name="PARAM2">      1.00000000</i>
   <i name="PARAM3">      0.00000000</i>
  </separator>
  <separator name="model GW" >
   <i type="int" name="MODEL_GW">     0</i>
   <i name="MODEL_EPS0">    242.92272771</i>
   <i name="MODEL_ALPHA">      1.00000000</i>
  </separator>
  <separator name="linear response parameters" >
   <i type="logical" name="LEPSILON"> F  </i>
   <i type="logical" name="LRPA"> F  </i>
   <i type="logical" name="LNABLA"> F  </i>
   <i type="logical" name="LVEL"> F  </i>
   <i type="int" name="KINTER">     0</i>
   <i name="CSHIFT">      0.10000000</i>
   <i name="OMEGAMAX">     -1.00000000</i>
   <i name="DEG_THRESHOLD">      0.00200000</i>
  </separator>
  <separator name="orbital magnetization" >
   <i type="logical" name="NUCIND"> F  </i>
   <v name="MAGPOS">      0.00000000      0.00000000      0.00000000</v>
   <i type="logical" name="LNICSALL"> T  </i>
   <i type="logical" name="ORBITALMAG"> F  </i>
   <i type="logical" name="LMAGBLOCH"> F  </i>
   <i type="logical" name="LCHIMAG"> F  </i>
   <i type="logical" name="LGAUGE"> T  </i>
   <i type="int" name="MAGATOM">     0</i>
   <v name="MAGDIPOL">      0.00000000      0.00000000      0.00000000</v>
   <v name="AVECCONST">      0.00000000      0.00000000      0.00000000</v>
  </separator>
  <separator name="response functions" >
   <i type="logical" name="LADDER"> F  </i>
   <i type="logical" name="LFXC"> F  </i>
   <i type="logical" name="LHARTREE"> T  </i>
   <i type="int" name="IBSE">     0</i>
   <i type="logical" name="LTCTE"> F  </i>
   <i type="logical" name="LTETE"> F  </i>
   <i type="logical" name="LTRIPLET"> F  </i>
   <i type="logical" name="LFXCEPS"> F  </i>
   <i type="logical" name="LFXHEG"> F  </i>
   <i type="logical" name="L2ORDER"> F  </i>
   <i type="logical" name="LUSEW"> F  </i>
   <i name="ENCUTGW">     -2.00000000</i>
   <i name="ENCUTGWSOFT">     -2.00000000</i>
   <i name="ENCUTLF">     -1.00000000</i>
   <i type="int" name="LMAXMP2">    -1</i>
   <i name="SCISSOR">      0.00000000</i>
   <i type="int" name="NOMEGA">     0</i>
   <i type="int" name="NOMEGAR">     0</i>
   <i type="int" name="NBANDSGW">    -1</i>
   <i type="int" name="NBANDSO">    -1</i>
   <i type="int" name="NBANDSV">    -1</i>
   <i type="int" name="NELM">     1</i>
   <i type="int" name="DIM">     3</i>
   <i type="int" name="ANTIRES">     0</i>
   <i name="OMEGAMAX">    -30.00000000</i>
   <i name="OMEGAMIN">    -30.00000000</i>
   <i name="OMEGATL">   -200.00000000</i>
   <i type="int" name="OMEGAGRID">     0</i>
   <i name="CSHIFT">     -0.10000000</i>
   <i type="logical" name="SELFENERGY"> F  </i>
   <i type="logical" name="LSPECTRAL"> F  </i>
   <i type="logical" name="ODDONLYGW"> F  </i>
   <i type="logical" name="EVENONLYGW"> F  </i>
   <i type="int" name="NKREDLFX">     1</i>
   <i type="int" name="NKREDLFY">     1</i>
   <i type="int" name="NKREDLFZ">     1</i>
   <i type="int" name="MAXMEM">  1800</i>
   <i type="int" name="TELESCOPE">     0</i>
   <i type="int" name="TAUPAR">     1</i>
  </separator>
  <separator name="External order field" >
   <i name="OFIELD_KAPPA">      0.00000000</i>
   <v name="OFIELD_K">      0.00000000      0.00000000      0.00000000</v>
   <i name="OFIELD_Q6_NEAR">      0.00000000</i>
   <i name="OFIELD_Q6_FAR">      0.00000000</i>
   <i name="OFIELD_A">      0.00000000</i>
  </separator>
 </parameters>
 <atominfo>
  <atoms>      26 </atoms>
  <types>       1 </types>
  <array name="atoms" >
   <dimension dim="1">ion</dimension>
   <field type="string">element</field>
   <field type="int">atomtype</field>
   <set>
    <rc><c>Ag</c><c>   1</c></rc>
    <rc><c>Ag</c><c>   1</c></rc>
    <rc><c>Ag</c><c>   1</c></rc>
    <rc><c>Ag</c><c>   1</c></rc>
    <rc><c>Ag</c><c>   1</c></rc>
    <rc><c>Ag</c><c>   1</c></rc>
    <rc><c>Ag</c><c>   1</c></rc>
    <rc><c>Ag</c><c>   1</c></rc>
    <rc><c>Ag</c><c>   1</c></rc>
    <rc><c>Ag</c><c>   1</c></rc>
    <rc><c>Ag</c><c>   1</c></rc>
    <rc><c>Ag</c><c>   1</c></rc>
    <rc><c>Ag</c><c>   1</c></rc>
    <rc><c>Ag</c><c>   1</c></rc>
    <rc><c>Ag</c><c>   1</c></rc>
    <rc><c>Ag</c><c>   1</c></rc>
    <rc><c>Ag</c><c>   1</c></rc>
    <rc><c>Ag</c><c>   1</c></rc>
    <rc><c>Ag</c><c>   1</c></rc>
    <rc><c>Ag</c><c>   1</c></rc>
    <rc><c>Ag</c><c>   1</c></rc>
    <rc><c>Ag</c><c>   1</c></rc>
    <rc><c>Ag</c><c>   1</c></rc>
    <rc><c>Ag</c><c>   1</c></rc>
    <rc><c>Ag</c><c>   1</c></rc>
    <rc><c>Ag</c><c>   1</c></rc>
   </set>
  </array>
  <array name="atomtypes" >
   <dimension dim="1">type</dimension>
   <field type="int">atomspertype</field>
   <field type="string">element</field>
   <field>mass</field>
   <field>valence</field>
   <field type="string">pseudopotential</field>
   <set>
    <rc><c>  26</c><c>Ag</c><c>    107.86800000</c><c>     11.00000000</c><c>  PAW_PBE Ag 02Apr2005                  </c></rc>
   </set>
  </array>
 </atominfo>
 <structure name="initialpos" >
  <crystal>
   <varray name="basis" >
    <v>      21.91610717       0.00000000       0.00000000 </v>
    <v>       0.00000000      21.91610717       0.00000000 </v>
    <v>       0.00000000       0.00000000      21.91610717 </v>
   </varray>
   <i name="volume">  10526.65153428 </i>
   <varray name="rec_basis" >
    <v>       0.04562854       0.00000000       0.00000000 </v>
    <v>       0.00000000       0.04562854       0.00000000 </v>
    <v>       0.00000000       0.00000000       0.04562854 </v>
   </varray>
  </crystal>
  <varray name="positions" >
   <v>       0.51977987       0.62160637       0.40685090 </v>
   <v>       0.45829287       0.64947905       0.51810288 </v>
   <v>       0.63513016       0.52445036       0.55900693 </v>
   <v>       0.58518958       0.64468565       0.51269467 </v>
   <v>       0.62930425       0.56243880       0.43579590 </v>
   <v>       0.44152162       0.57973079       0.31298933 </v>
   <v>       0.72825028       0.48956738       0.47266061 </v>
   <v>       0.39614033       0.58688136       0.43269148 </v>
   <v>       0.58574716       0.60854851       0.63309130 </v>
   <v>       0.52783961       0.71513488       0.59819717 </v>
   <v>       0.46388937       0.60610997       0.63450681 </v>
   <v>       0.64342626       0.45097271       0.38571979 </v>
   <v>       0.54250403       0.51184893       0.34992308 </v>
   <v>       0.51479977       0.52169378       0.49410072 </v>
   <v>       0.42800395       0.47587820       0.38829179 </v>
   <v>       0.63296822       0.41214009       0.50461769 </v>
   <v>       0.52626440       0.41056809       0.43272785 </v>
   <v>       0.40345291       0.53176888       0.55865693 </v>
   <v>       0.32190278       0.49017391       0.46472397 </v>
   <v>       0.41858490       0.41759635       0.49854217 </v>
   <v>       0.51880154       0.49391984       0.62119604 </v>
   <v>       0.61908380       0.41079141       0.62846393 </v>
   <v>       0.52144497       0.38077972       0.55485572 </v>
   <v>       0.31067551       0.43971314       0.57446899 </v>
   <v>       0.41633428       0.41242215       0.62803915 </v>
   <v>       0.51724012       0.37391025       0.68368574 </v>
  </varray>
 </structure>
 <calculation>
  <scstep>
   <time name="dav">    3.58    3.58</time>
   <time name="total">    3.96    3.98</time>
   <energy>
    <i name="alphaZ">     54.62238137 </i>
    <i name="ewald">  54043.52998541 </i>
    <i name="hartreedc"> -79877.26756080 </i>
    <i name="XCdc">   -285.64726540 </i>
    <i name="pawpsdc">  26087.67662981 </i>
    <i name="pawaedc"> -24888.87983085 </i>
    <i name="eentropy">     -0.00000000 </i>
    <i name="bandstr">    442.16957040 </i>
    <i name="atom">  26967.16438225 </i>
    <i name="e_fr_energy">   2543.36829218 </i>
    <i name="e_wo_entrp">   2543.36829218 </i>
    <i name="e_0_energy">   2543.36829218 </i>
   </energy>
  </scstep>
  <scstep>
   <time name="dav">    5.64    5.64</time>
   <time name="total">    5.64    5.65</time>
   <energy>
    <i name="e_fr_energy">    641.53501321 </i>
    <i name="e_wo_entrp">    641.53501321 </i>
    <i name="e_0_energy">    641.53501321 </i>
   </energy>
  </scstep>
  <scstep>
   <time name="dav">    4.50    4.50</time>
   <time name="total">    4.50    4.51</time>
   <energy>
    <i name="e_fr_energy">     -9.65751498 </i>
    <i name="e_wo_entrp">     -9.65751498 </i>
    <i name="e_0_energy">     -9.65751498 </i>
   </energy>
  </scstep>
  <scstep>
   <time name="dav">    3.91    3.91</time>
   <time name="total">    3.92    3.92</time>
   <energy>
    <i name="e_fr_energy">    -52.28586753 </i>
    <i name="e_wo_entrp">    -52.28586753 </i>
    <i name="e_0_energy">    -52.28586753 </i>
   </energy>
  </scstep>
  <scstep>
   <time name="dav">    3.98    3.98</time>
   <time name="total">    4.15    4.16</time>
   <energy>
    <i name="e_fr_energy">    -52.94103233 </i>
    <i name="e_wo_entrp">    -52.94103233 </i>
    <i name="e_0_energy">    -52.94103233 </i>
   </energy>
  </scstep>
  <scstep>
   <time name="dav">    3.66    3.65</time>
   <time name="total">    4.20    4.21</time>
   <energy>
    <i name="e_fr_energy">    -18.71314724 </i>
    <i name="e_wo_entrp">    -18.71314724 </i>
    <i name="e_0_energy">    -18.71314724 </i>
   </energy>
  </scstep>
  <scstep>
   <time name="dav">    3.77    3.77</time>
   <time name="total">    4.31    4.32</time>
   <energy>
    <i name="e_fr_energy">    -12.62438560 </i>
    <i name="e_wo_entrp">    -12.62438560 </i>
    <i name="e_0_energy">    -12.62438560 </i>
   </energy>
  </scstep>
  <scstep>
   <time name="dav">    3.74    3.74</time>
   <time name="total">    4.28    4.29</time>
   <energy>
    <i name="e_fr_energy">    -14.46342837 </i>
    <i name="e_wo_entrp">    -14.46342837 </i>
    <i name="e_0_energy">    -14.46342837 </i>
   </energy>
  </scstep>
  <scstep>
   <time name="dav">    3.83    3.83</time>
   <time name="total">    4.38    4.39</time>
   <energy>
    <i name="e_fr_energy">    -18.52256715 </i>
    <i name="e_wo_entrp">    -18.52256715 </i>
    <i name="e_0_energy">    -18.52256715 </i>
   </energy>
  </scstep>
  <scstep>
   <time name="dav">    3.98    3.98</time>
   <time name="total">    4.52    4.55</time>
   <energy>
    <i name="e_fr_energy">    -19.37465905 </i>
    <i name="e_wo_entrp">    -19.37465905 </i>
    <i name="e_0_energy">    -19.37465905 </i>
   </energy>
  </scstep>
  <scstep>
   <time name="dav">    3.68    3.68</time>
   <time name="total">    4.23    4.24</time>
   <energy>
    <i name="e_fr_energy">    -27.61406557 </i>
    <i name="e_wo_entrp">    -27.61406557 </i>
    <i name="e_0_energy">    -27.61406557 </i>
   </energy>
  </scstep>
  <scstep>
   <time name="dav">    3.83    3.83</time>
   <time name="total">    4.38    4.39</time>
   <energy>
    <i name="e_fr_energy">    -30.79726697 </i>
    <i name="e_wo_entrp">    -30.79726697 </i>
    <i name="e_0_energy">    -30.79726697 </i>
   </energy>
  </scstep>
  <scstep>
   <time name="dav">    3.72    3.72</time>
   <time name="total">    4.27    4.27</time>
   <energy>
    <i name="e_fr_energy">    -38.45469902 </i>
    <i name="e_wo_entrp">    -38.45469902 </i>
    <i name="e_0_energy">    -38.45469902 </i>
   </energy>
  </scstep>
  <scstep>
   <time name="dav">    3.72    3.72</time>
   <time name="total">    4.27    4.29</time>
   <energy>
    <i name="e_fr_energy">    -44.36673210 </i>
    <i name="e_wo_entrp">    -44.36673210 </i>
    <i name="e_0_energy">    -44.36673210 </i>
   </energy>
  </scstep>
  <scstep>
   <time name="dav">    3.62    3.63</time>
   <time name="total">    4.18    4.28</time>
   <energy>
    <i name="e_fr_energy">    -47.10245552 </i>
    <i name="e_wo_entrp">    -47.10245552 </i>
    <i name="e_0_energy">    -47.10245552 </i>
   </energy>
  </scstep>
  <scstep>
   <time name="dav">    3.66    3.66</time>
   <time name="total">    4.22    4.22</time>
   <energy>
    <i name="e_fr_energy">    -50.17309520 </i>
    <i name="e_wo_entrp">    -50.17309520 </i>
    <i name="e_0_energy">    -50.17309520 </i>
   </energy>
  </scstep>
  <scstep>
   <time name="dav">    3.78    3.78</time>
   <time name="total">    4.34    4.46</time>
   <energy>
    <i name="e_fr_energy">    -51.15000216 </i>
    <i name="e_wo_entrp">    -51.15000216 </i>
    <i name="e_0_energy">    -51.15000216 </i>
   </energy>
  </scstep>
  <scstep>
   <time name="dav">    3.84    3.84</time>
   <time name="total">    4.39    4.42</time>
   <energy>
    <i name="e_fr_energy">    -51.43198541 </i>
    <i name="e_wo_entrp">    -51.43198541 </i>
    <i name="e_0_energy">    -51.43198541 </i>
   </energy>
  </scstep>
  <scstep>
   <time name="dav">    3.69    3.70</time>
   <time name="total">    4.25    4.27</time>
   <energy>
    <i name="e_fr_energy">    -51.94946829 </i>
    <i name="e_wo_entrp">    -51.94946829 </i>
    <i name="e_0_energy">    -51.94946829 </i>
   </energy>
  </scstep>
  <scstep>
   <time name="dav">    3.81    3.81</time>
   <time name="total">    4.37    4.40</time>
   <energy>
    <i name="e_fr_energy">    -52.10437767 </i>
    <i name="e_wo_entrp">    -52.10437767 </i>
    <i name="e_0_energy">    -52.10437767 </i>
   </energy>
  </scstep>
  <scstep>
   <time name="dav">    3.24    3.24</time>
   <time name="total">    3.80    3.80</time>
   <energy>
    <i name="e_fr_energy">    -52.15547019 </i>
    <i name="e_wo_entrp">    -52.15547019 </i>
    <i name="e_0_energy">    -52.15547019 </i>
   </energy>
  </scstep>
  <scstep>
   <time name="dav">    3.04    3.04</time>
   <time name="total">    3.60    4.40</time>
   <energy>
    <i name="e_fr_energy">    -52.17927811 </i>
    <i name="e_wo_entrp">    -52.17927811 </i>
    <i name="e_0_energy">    -52.17927811 </i>
   </energy>
  </scstep>
  <scstep>
   <time name="dav">    2.93    2.94</time>
   <time name="total">    3.49    3.98</time>
   <energy>
    <i name="e_fr_energy">    -52.18022265 </i>
    <i name="e_wo_entrp">    -52.18022265 </i>
    <i name="e_0_energy">    -52.18022265 </i>
   </energy>
  </scstep>
  <scstep>
   <time name="dav">    2.88    2.88</time>
   <time name="total">    3.44    3.44</time>
   <energy>
    <i name="e_fr_energy">    -52.18355839 </i>
    <i name="e_wo_entrp">    -52.18355839 </i>
    <i name="e_0_energy">    -52.18355839 </i>
   </energy>
  </scstep>
  <scstep>
   <time name="dav">    2.94    2.94</time>
   <time name="total">    3.50    3.52</time>
   <energy>
    <i name="e_fr_energy">    -52.18631710 </i>
    <i name="e_wo_entrp">    -52.18631710 </i>
    <i name="e_0_energy">    -52.18631710 </i>
   </energy>
  </scstep>
  <scstep>
   <time name="dav">    2.88    2.88</time>
   <time name="total">    3.44    3.44</time>
   <energy>
    <i name="e_fr_energy">    -52.18821688 </i>
    <i name="e_wo_entrp">    -52.18821688 </i>
    <i name="e_0_energy">    -52.18821688 </i>
   </energy>
  </scstep>
  <scstep>
   <time name="dav">    2.82    2.82</time>
   <time name="total">    3.38    3.38</time>
   <energy>
    <i name="e_fr_energy">    -52.18948081 </i>
    <i name="e_wo_entrp">    -52.18948081 </i>
    <i name="e_0_energy">    -52.18948081 </i>
   </energy>
  </scstep>
  <scstep>
   <time name="dav">    2.76    2.77</time>
   <time name="total">    3.33    3.35</time>
   <energy>
    <i name="e_fr_energy">    -52.18962779 </i>
    <i name="e_wo_entrp">    -52.18962779 </i>
    <i name="e_0_energy">    -52.18962779 </i>
   </energy>
  </scstep>
  <scstep>
   <time name="dav">    2.70    2.71</time>
   <time name="total">    3.08    3.11</time>
   <energy>
    <i name="alphaZ">     54.62238137 </i>
    <i name="ewald">  54043.52998541 </i>
    <i name="hartreedc"> -79852.73177472 </i>
    <i name="XCdc">   -295.03262791 </i>
    <i name="pawpsdc">  28197.09978440 </i>
    <i name="pawaedc"> -27046.59546647 </i>
    <i name="eentropy">      0.00000000 </i>
    <i name="bandstr">  -2120.24630597 </i>
    <i name="atom">  26967.16438225 </i>
    <i name="e_fr_energy">    -52.18964164 </i>
    <i name="e_wo_entrp">    -52.18964164 </i>
    <i name="e_0_energy">    -52.18964164 </i>
   </energy>
  </scstep>
  <structure>
   <crystal>
    <varray name="basis" >
     <v>      21.91610717       0.00000000       0.00000000 </v>
     <v>       0.00000000      21.91610717       0.00000000 </v>
     <v>       0.00000000       0.00000000      21.91610717 </v>
    </varray>
    <i name="volume">  10526.65153428 </i>
    <varray name="rec_basis" >
     <v>       0.04562854       0.00000000       0.00000000 </v>
     <v>       0.00000000       0.04562854       0.00000000 </v>
     <v>       0.00000000       0.00000000       0.04562854 </v>
    </varray>
   </crystal>
   <varray name="positions" >
    <v>       0.51977987       0.62160637       0.40685090 </v>
    <v>       0.45829287       0.64947905       0.51810288 </v>
    <v>       0.63513016       0.52445036       0.55900693 </v>
    <v>       0.58518958       0.64468565       0.51269467 </v>
    <v>       0.62930425       0.56243880       0.43579590 </v>
    <v>       0.44152162       0.57973079       0.31298933 </v>
    <v>       0.72825028       0.48956738       0.47266061 </v>
    <v>       0.39614033       0.58688136       0.43269148 </v>
    <v>       0.58574716       0.60854851       0.63309130 </v>
    <v>       0.52783961       0.71513488       0.59819717 </v>
    <v>       0.46388937       0.60610997       0.63450681 </v>
    <v>       0.64342626       0.45097271       0.38571979 </v>
    <v>       0.54250403       0.51184893       0.34992308 </v>
    <v>       0.51479977       0.52169378       0.49410072 </v>
    <v>       0.42800395       0.47587820       0.38829179 </v>
    <v>       0.63296822       0.41214009       0.50461769 </v>
    <v>       0.52626440       0.41056809       0.43272785 </v>
    <v>       0.40345291       0.53176888       0.55865693 </v>
    <v>       0.32190278       0.49017391       0.46472397 </v>
    <v>       0.41858490       0.41759635       0.49854217 </v>
    <v>       0.51880154       0.49391984       0.62119604 </v>
    <v>       0.61908380       0.41079141       0.62846393 </v>
    <v>       0.52144497       0.38077972       0.55485572 </v>
    <v>       0.31067551       0.43971314       0.57446899 </v>
    <v>       0.41633428       0.41242215       0.62803915 </v>
    <v>       0.51724012       0.37391025       0.68368574 </v>
   </varray>
  </structure>
  <varray name="forces" >
   <v>      -0.22789896       0.06640737      -0.21266689 </v>
   <v>      -0.11268789       0.00011447      -0.03177361 </v>
   <v>       0.22349126      -0.14747328       0.03245771 </v>
   <v>       0.07291859       0.03227369       0.17210205 </v>
   <v>       0.26935466      -0.12731396      -0.33972896 </v>
   <v>       0.04295842       0.14573130       0.07904417 </v>
   <v>      -0.04945736       0.13899199       0.13197084 </v>
   <v>      -0.10405494       0.08268067      -0.08348311 </v>
   <v>       0.24463688      -0.02853515       0.23837764 </v>
   <v>      -0.13361214       0.14480010       0.23519480 </v>
   <v>      -0.19399612       0.34218233       0.32796059 </v>
   <v>       0.05961011      -0.39260228      -0.15248256 </v>
   <v>      -0.00838597      -0.05443317      -0.10061738 </v>
   <v>      -0.03660498       0.16955266      -0.10911946 </v>
   <v>      -0.19978639      -0.00372602      -0.22513039 </v>
   <v>       0.13722774      -0.19142853      -0.11811323 </v>
   <v>       0.39743525      -0.05028237      -0.34514191 </v>
   <v>      -0.39469159      -0.24298731      -0.21396735 </v>
   <v>      -0.10137614       0.23026075      -0.35377139 </v>
   <v>      -0.39594947      -0.02006691       0.17044033 </v>
   <v>       0.16875245      -0.26248562       0.16922157 </v>
   <v>       0.42139663       0.26735531       0.01372709 </v>
   <v>       0.12062031      -0.12098906       0.30933388 </v>
   <v>      -0.19737848      -0.01946056       0.17257022 </v>
   <v>      -0.00183701       0.08999105      -0.06648685 </v>
   <v>      -0.00068486      -0.04855748       0.30008220 </v>
  </varray>
  <varray name="stress" >
   <v>      -0.37491665      -0.34968094       0.16795480 </v>
   <v>      -0.34968093      -1.08822600       0.13832809 </v>
   <v>       0.16795479       0.13832810      -0.43977348 </v>
  </varray>
  <energy>
   <i name="e_fr_energy">    -52.18964164 </i>
   <i name="e_wo_entrp">    -52.18964164 </i>
   <i name="e_0_energy">      0.00000000 </i>
  </energy>
  <time name="totalsc">  124.28  126.14</time>
 </calculation>
 <calculation>
  <scstep>
   <time name="dav">    3.80    3.80</time>
   <time name="total">    4.35    4.36</time>
   <energy>
    <i name="alphaZ">     54.62238137 </i>
    <i name="ewald">  53986.63307440 </i>
    <i name="hartreedc"> -79796.16602489 </i>
    <i name="XCdc">   -295.10579567 </i>
    <i name="pawpsdc">  28197.18483579 </i>
    <i name="pawaedc"> -27046.68157190 </i>
    <i name="eentropy">      0.00000000 </i>
    <i name="bandstr">  -2119.86787515 </i>
    <i name="atom">  26967.16438225 </i>
    <i name="e_fr_energy">    -52.21659381 </i>
    <i name="e_wo_entrp">    -52.21659381 </i>
    <i name="e_0_energy">    -52.21659381 </i>
   </energy>
  </scstep>
  <scstep>
   <time name="dav">    3.77    3.77</time>
   <time name="total">    4.31    4.35</time>
   <energy>
    <i name="e_fr_energy">    -52.21749389 </i>
    <i name="e_wo_entrp">    -52.21749389 </i>
    <i name="e_0_energy">    -52.21749389 </i>
   </energy>
  </scstep>
  <scstep>
   <time name="dav">    2.82    2.82</time>
   <time name="total">    3.19    3.20</time>
   <energy>
    <i name="alphaZ">     54.62238137 </i>
    <i name="ewald">  53986.63307440 </i>
    <i name="hartreedc"> -79796.64061853 </i>
    <i name="XCdc">   -295.09539009 </i>
    <i name="pawpsdc">  28190.78536221 </i>
    <i name="pawaedc"> -27040.17758144 </i>
    <i name="eentropy">      0.00000000 </i>
    <i name="bandstr">  -2119.50909501 </i>
    <i name="atom">  26967.16438225 </i>
    <i name="e_fr_energy">    -52.21748486 </i>
    <i name="e_wo_entrp">    -52.21748486 </i>
    <i name="e_0_energy">    -52.21748486 </i>
   </energy>
  </scstep>
  <structure>
   <crystal>
    <varray name="basis" >
     <v>      21.91610717       0.00000000       0.00000000 </v>
     <v>       0.00000000      21.91610717       0.00000000 </v>
     <v>       0.00000000       0.00000000      21.91610717 </v>
    </varray>
    <i name="volume">  10526.65153428 </i>
    <varray name="rec_basis" >
     <v>       0.04562854       0.00000000       0.00000000 </v>
     <v>       0.00000000       0.04562854       0.00000000 </v>
     <v>       0.00000000       0.00000000       0.04562854 </v>
    </varray>
   </crystal>
   <varray name="positions" >
    <v>       0.51967954       0.62163560       0.40675728 </v>
    <v>       0.45824326       0.64947910       0.51808890 </v>
    <v>       0.63522855       0.52438544       0.55902122 </v>
    <v>       0.58522169       0.64469986       0.51277044 </v>
    <v>       0.62942284       0.56238275       0.43564634 </v>
    <v>       0.44154053       0.57979495       0.31302413 </v>
    <v>       0.72822851       0.48962857       0.47271871 </v>
    <v>       0.39609452       0.58691776       0.43265472 </v>
    <v>       0.58585486       0.60853594       0.63319624 </v>
    <v>       0.52778079       0.71519862       0.59830071 </v>
    <v>       0.46380396       0.60626062       0.63465119 </v>
    <v>       0.64345250       0.45079986       0.38565266 </v>
    <v>       0.54250034       0.51182497       0.34987878 </v>
    <v>       0.51478366       0.52176842       0.49405268 </v>
    <v>       0.42791600       0.47587656       0.38819267 </v>
    <v>       0.63302864       0.41205581       0.50456569 </v>
    <v>       0.52643937       0.41054595       0.43257590 </v>
    <v>       0.40327915       0.53166190       0.55856273 </v>
    <v>       0.32185815       0.49027528       0.46456822 </v>
    <v>       0.41841058       0.41758752       0.49861720 </v>
    <v>       0.51887583       0.49380428       0.62127054 </v>
    <v>       0.61926932       0.41090912       0.62846997 </v>
    <v>       0.52149807       0.38072645       0.55499191 </v>
    <v>       0.31058861       0.43970457       0.57454496 </v>
    <v>       0.41633347       0.41246177       0.62800988 </v>
    <v>       0.51723982       0.37388887       0.68381785 </v>
   </varray>
  </structure>
  <varray name="forces" >
   <v>      -0.20478956       0.06208038      -0.18937668 </v>
   <v>      -0.10084223      -0.00276648      -0.02057262 </v>
   <v>       0.20889035      -0.13462050       0.02904962 </v>
   <v>       0.06550111       0.01444015       0.15375889 </v>
   <v>       0.24060931      -0.10988633      -0.31741981 </v>
   <v>       0.03884807       0.14126787       0.06978039 </v>
   <v>      -0.04549123       0.13089334       0.12502837 </v>
   <v>      -0.10013973       0.08077515      -0.08077271 </v>
   <v>       0.22125039      -0.03122318       0.22193878 </v>
   <v>      -0.12925909       0.12767164       0.22441061 </v>
   <v>      -0.18132986       0.30254319       0.29313739 </v>
   <v>       0.05943949      -0.37603689      -0.14867828 </v>
   <v>      -0.00529390      -0.05330673      -0.09414702 </v>
   <v>      -0.03667411       0.15824800      -0.10055034 </v>
   <v>      -0.18324352      -0.01207737      -0.20461583 </v>
   <v>       0.12926444      -0.18655885      -0.10893786 </v>
   <v>       0.35355363      -0.04213609      -0.30638060 </v>
   <v>      -0.35787513      -0.21155921      -0.18851992 </v>
   <v>      -0.10573534       0.21153072      -0.32810144 </v>
   <v>      -0.34953582      -0.02277244       0.14789853 </v>
   <v>       0.15509976      -0.22849693       0.15715437 </v>
   <v>       0.39407979       0.25188524       0.01976278 </v>
   <v>       0.11007912      -0.10617316       0.27613134 </v>
   <v>      -0.19241382      -0.01126476       0.14995081 </v>
   <v>       0.00453288       0.08546721      -0.05861843 </v>
   <v>       0.01147500      -0.03792398       0.27868968 </v>
  </varray>
  <varray name="stress" >
   <v>      -0.43703600      -0.34057029       0.16580066 </v>
   <v>      -0.34057028      -1.13080589       0.13823384 </v>
   <v>       0.16580067       0.13823385      -0.49963286 </v>
  </varray>
  <energy>
   <i name="e_fr_energy">    -52.21748486 </i>
   <i name="e_wo_entrp">    -52.21748486 </i>
   <i name="e_0_energy">      0.00000000 </i>
  </energy>
  <time name="totalsc">   18.31   18.42</time>
 </calculation>
 <calculation>
  <scstep>
   <time name="dav">    3.68    3.68</time>
   <time name="total">    4.22    4.24</time>
   <energy>
    <i name="alphaZ">     54.62238137 </i>
    <i name="ewald">  53816.54609084 </i>
    <i name="hartreedc"> -79627.76147427 </i>
    <i name="XCdc">   -295.30796675 </i>
    <i name="pawpsdc">  28186.82585100 </i>
    <i name="pawaedc"> -27036.15455579 </i>
    <i name="eentropy">      0.00000000 </i>
    <i name="bandstr">  -2118.21680975 </i>
    <i name="atom">  26967.16438225 </i>
    <i name="e_fr_energy">    -52.28210110 </i>
    <i name="e_wo_entrp">    -52.28210110 </i>
    <i name="e_0_energy">    -52.28210110 </i>
   </energy>
  </scstep>
  <scstep>
   <time name="dav">    3.83    3.83</time>
   <time name="total">    4.38    4.38</time>
   <energy>
    <i name="e_fr_energy">    -52.28985611 </i>
    <i name="e_wo_entrp">    -52.28985611 </i>
    <i name="e_0_energy">    -52.28985611 </i>
   </energy>
  </scstep>
  <scstep>
   <time name="dav">    3.88    3.89</time>
   <time name="total">    4.43    4.46</time>
   <energy>
    <i name="e_fr_energy">    -52.28963865 </i>
    <i name="e_wo_entrp">    -52.28963865 </i>
    <i name="e_0_energy">    -52.28963865 </i>
   </energy>
  </scstep>
  <scstep>
   <time name="dav">    3.80    3.80</time>
   <time name="total">    4.34    4.37</time>
   <energy>
    <i name="e_fr_energy">    -52.28948404 </i>
    <i name="e_wo_entrp">    -52.28948404 </i>
    <i name="e_0_energy">    -52.28948404 </i>
   </energy>
  </scstep>
  <scstep>
   <time name="dav">    2.76    2.76</time>
   <time name="total">    3.14    3.14</time>
   <energy>
    <i name="alphaZ">     54.62238137 </i>
    <i name="ewald">  53816.54609084 </i>
    <i name="hartreedc"> -79629.59079264 </i>
    <i name="XCdc">   -295.26784536 </i>
    <i name="pawpsdc">  28155.85587534 </i>
    <i name="pawaedc"> -27004.67397141 </i>
    <i name="eentropy">      0.00000000 </i>
    <i name="bandstr">  -2116.94564632 </i>
    <i name="atom">  26967.16438225 </i>
    <i name="e_fr_energy">    -52.28952594 </i>
    <i name="e_wo_entrp">    -52.28952594 </i>
    <i name="e_0_energy">    -52.28952594 </i>
   </energy>
  </scstep>
  <structure>
   <crystal>
    <varray name="basis" >
     <v>      21.91610717       0.00000000       0.00000000 </v>
     <v>       0.00000000      21.91610717       0.00000000 </v>
     <v>       0.00000000       0.00000000      21.91610717 </v>
    </varray>
    <i name="volume">  10526.65153428 </i>
    <varray name="rec_basis" >
     <v>       0.04562854       0.00000000       0.00000000 </v>
     <v>       0.00000000       0.04562854       0.00000000 </v>
     <v>       0.00000000       0.00000000       0.04562854 </v>
    </varray>
   </crystal>
   <varray name="positions" >
    <v>       0.51937854       0.62172331       0.40647640 </v>
    <v>       0.45809443       0.64947925       0.51804693 </v>
    <v>       0.63552373       0.52419066       0.55906409 </v>
    <v>       0.58531799       0.64474249       0.51299774 </v>
    <v>       0.62977858       0.56221460       0.43519764 </v>
    <v>       0.44159727       0.57998742       0.31312853 </v>
    <v>       0.72816319       0.48981214       0.47289301 </v>
    <v>       0.39595709       0.58702696       0.43254446 </v>
    <v>       0.58617796       0.60849826       0.63351108 </v>
    <v>       0.52760432       0.71538987       0.59861135 </v>
    <v>       0.46354774       0.60671255       0.63508434 </v>
    <v>       0.64353123       0.45028134       0.38545126 </v>
    <v>       0.54248926       0.51175308       0.34974589 </v>
    <v>       0.51473531       0.52199236       0.49390856 </v>
    <v>       0.42765213       0.47587164       0.38789533 </v>
    <v>       0.63320988       0.41180298       0.50440970 </v>
    <v>       0.52696428       0.41047954       0.43212006 </v>
    <v>       0.40275786       0.53134098       0.55828013 </v>
    <v>       0.32172426       0.49057940       0.46410098 </v>
    <v>       0.41788763       0.41756101       0.49884231 </v>
    <v>       0.51909871       0.49345761       0.62149404 </v>
    <v>       0.61982588       0.41126223       0.62848810 </v>
    <v>       0.52165738       0.38056666       0.55540046 </v>
    <v>       0.31032793       0.43967887       0.57477288 </v>
    <v>       0.41633104       0.41258062       0.62792207 </v>
    <v>       0.51723892       0.37382474       0.68421419 </v>
   </varray>
  </structure>
  <varray name="forces" >
   <v>      -0.15747814       0.05431062      -0.14001666 </v>
   <v>      -0.07538363      -0.01067719       0.00841165 </v>
   <v>       0.18587278      -0.10982970       0.02380388 </v>
   <v>       0.05049108      -0.03200193       0.11648735 </v>
   <v>       0.17959910      -0.07138291      -0.27684721 </v>
   <v>       0.02947295       0.13845618       0.04824198 </v>
   <v>      -0.03682955       0.11702141       0.11435534 </v>
   <v>      -0.09646047       0.08032576      -0.07865186 </v>
   <v>       0.17500766      -0.04089118       0.19260359 </v>
   <v>      -0.12922935       0.08930487       0.21073544 </v>
   <v>      -0.15994416       0.22270557       0.22164708 </v>
   <v>       0.06292000      -0.35534309      -0.14802442 </v>
   <v>       0.00317177      -0.05337223      -0.08242825 </v>
   <v>      -0.03972869       0.14156784      -0.08576637 </v>
   <v>      -0.15134607      -0.03484313      -0.16315794 </v>
   <v>       0.11595066      -0.18544358      -0.09121374 </v>
   <v>       0.26082847      -0.02355047      -0.22636066 </v>
   <v>      -0.28642721      -0.14149242      -0.13465773 </v>
   <v>      -0.12364806       0.17488307      -0.28176210 </v>
   <v>      -0.24953960      -0.03257769       0.09735847 </v>
   <v>       0.13184150      -0.15537960       0.13640734 </v>
   <v>       0.34634552       0.22637814       0.03649447 </v>
   <v>       0.08892256      -0.07423837       0.20485750 </v>
   <v>      -0.19082442       0.00948708       0.09956639 </v>
   <v>       0.02267253       0.07861794      -0.04065981 </v>
   <v>       0.04374277      -0.01203499       0.23857625 </v>
  </varray>
  <varray name="stress" >
   <v>      -0.59115736      -0.31911674       0.16427370 </v>
   <v>      -0.31911673      -1.23221024       0.14253667 </v>
   <v>       0.16427370       0.14253665      -0.65054823 </v>
  </varray>
  <energy>
   <i name="e_fr_energy">    -52.28952594 </i>
   <i name="e_wo_entrp">    -52.28952594 </i>
   <i name="e_0_energy">      0.00000000 </i>
  </energy>
  <time name="totalsc">   26.98   27.14</time>
 </calculation>
 <calculation>
  <scstep>
   <time name="dav">    3.62    3.63</time>
   <time name="total">    4.19    4.19</time>
   <energy>
    <i name="alphaZ">     54.62238137 </i>
    <i name="ewald">  53479.04846716 </i>
    <i name="hartreedc"> -79293.95141992 </i>
    <i name="XCdc">   -295.67728529 </i>
    <i name="pawpsdc">  28156.10694089 </i>
    <i name="pawaedc"> -27004.92861014 </i>
    <i name="eentropy">      0.00000000 </i>
    <i name="bandstr">  -2114.74152180 </i>
    <i name="atom">  26967.16438225 </i>
    <i name="e_fr_energy">    -52.35666549 </i>
    <i name="e_wo_entrp">    -52.35666549 </i>
    <i name="e_0_energy">    -52.35666549 </i>
   </energy>
  </scstep>
  <scstep>
   <time name="dav">    3.80    3.80</time>
   <time name="total">    4.35    4.45</time>
   <energy>
    <i name="e_fr_energy">    -52.38785154 </i>
    <i name="e_wo_entrp">    -52.38785154 </i>
    <i name="e_0_energy">    -52.38785154 </i>
   </energy>
  </scstep>
  <scstep>
   <time name="dav">    3.86    3.86</time>
   <time name="total">    4.41    4.42</time>
   <energy>
    <i name="e_fr_energy">    -52.38721915 </i>
    <i name="e_wo_entrp">    -52.38721915 </i>
    <i name="e_0_energy">    -52.38721915 </i>
   </energy>
  </scstep>
  <scstep>
   <time name="dav">    3.78    3.78</time>
   <time name="total">    4.33    4.33</time>
   <energy>
    <i name="e_fr_energy">    -52.38661763 </i>
    <i name="e_wo_entrp">    -52.38661763 </i>
    <i name="e_0_energy">    -52.38661763 </i>
   </energy>
  </scstep>
  <scstep>
   <time name="dav">    2.82    2.82</time>
   <time name="total">    3.37    3.37</time>
   <energy>
    <i name="e_fr_energy">    -52.38673259 </i>
    <i name="e_wo_entrp">    -52.38673259 </i>
    <i name="e_0_energy">    -52.38673259 </i>
   </energy>
  </scstep>
  <scstep>
   <time name="dav">    2.85    2.85</time>
   <time name="total">    3.40    3.41</time>
   <energy>
    <i name="e_fr_energy">    -52.38683495 </i>
    <i name="e_wo_entrp">    -52.38683495 </i>
    <i name="e_0_energy">    -52.38683495 </i>
   </energy>
  </scstep>
  <scstep>
   <time name="dav">    2.82    2.82</time>
   <time name="total">    3.37    3.47</time>
   <energy>
    <i name="e_fr_energy">    -52.38694009 </i>
    <i name="e_wo_entrp">    -52.38694009 </i>
    <i name="e_0_energy">    -52.38694009 </i>
   </energy>
  </scstep>
  <scstep>
   <time name="dav">    2.79    2.79</time>
   <time name="total">    3.16    3.17</time>
   <energy>
    <i name="alphaZ">     54.62238137 </i>
    <i name="ewald">  53479.04846716 </i>
    <i name="hartreedc"> -79297.63383872 </i>
    <i name="XCdc">   -295.59913210 </i>
    <i name="pawpsdc">  28100.58522424 </i>
    <i name="pawaedc"> -26948.46478667 </i>
    <i name="eentropy">      0.00000000 </i>
    <i name="bandstr">  -2112.10973098 </i>
    <i name="atom">  26967.16438225 </i>
    <i name="e_fr_energy">    -52.38703346 </i>
    <i name="e_wo_entrp">    -52.38703346 </i>
    <i name="e_0_energy">    -52.38703346 </i>
   </energy>
  </scstep>
  <structure>
   <crystal>
    <varray name="basis" >
     <v>      21.91610717       0.00000000       0.00000000 </v>
     <v>       0.00000000      21.91610717       0.00000000 </v>
     <v>       0.00000000       0.00000000      21.91610717 </v>
    </varray>
    <i name="volume">  10526.65153428 </i>
    <varray name="rec_basis" >
     <v>       0.04562854       0.00000000       0.00000000 </v>
     <v>       0.00000000       0.04562854       0.00000000 </v>
     <v>       0.00000000       0.00000000       0.04562854 </v>
    </varray>
   </crystal>
   <varray name="positions" >
    <v>       0.51877655       0.62189873       0.40591464 </v>
    <v>       0.45779676       0.64947955       0.51796300 </v>
    <v>       0.63611408       0.52380111       0.55914982 </v>
    <v>       0.58551061       0.64482774       0.51345235 </v>
    <v>       0.63049008       0.56187830       0.43430025 </v>
    <v>       0.44171074       0.58037237       0.31333732 </v>
    <v>       0.72803255       0.49017929       0.47324161 </v>
    <v>       0.39568222       0.58724536       0.43232394 </v>
    <v>       0.58682417       0.60842288       0.63414075 </v>
    <v>       0.52725138       0.71577236       0.59923261 </v>
    <v>       0.46303530       0.60761642       0.63595065 </v>
    <v>       0.64368869       0.44924428       0.38504848 </v>
    <v>       0.54246711       0.51160929       0.34948011 </v>
    <v>       0.51463862       0.52244023       0.49362032 </v>
    <v>       0.42712440       0.47586180       0.38730065 </v>
    <v>       0.63357236       0.41129733       0.50409770 </v>
    <v>       0.52801410       0.41034672       0.43120837 </v>
    <v>       0.40171529       0.53069913       0.55771494 </v>
    <v>       0.32145647       0.49118763       0.46316649 </v>
    <v>       0.41684174       0.41750801       0.49929253 </v>
    <v>       0.51954447       0.49276425       0.62194104 </v>
    <v>       0.62093899       0.41196844       0.62852436 </v>
    <v>       0.52197600       0.38024706       0.55621756 </v>
    <v>       0.30980655       0.43962746       0.57522873 </v>
    <v>       0.41632619       0.41281833       0.62774645 </v>
    <v>       0.51723711       0.37369647       0.68500685 </v>
   </varray>
  </structure>
  <varray name="forces" >
   <v>      -0.05559954       0.03978503      -0.03177301 </v>
   <v>      -0.02028490      -0.02643112       0.06704268 </v>
   <v>       0.12835967      -0.05188429       0.01248802 </v>
   <v>       0.01624168      -0.11802879       0.04451039 </v>
   <v>       0.05359002       0.00290559      -0.18591511 </v>
   <v>       0.00630043       0.12396932      -0.00208988 </v>
   <v>      -0.01381385       0.08206577       0.08706621 </v>
   <v>      -0.08387728       0.07685593      -0.06971245 </v>
   <v>       0.07335465      -0.05878885       0.12573854 </v>
   <v>      -0.11564665       0.00699515       0.16886212 </v>
   <v>      -0.10581682       0.07401987       0.08313176 </v>
   <v>       0.07115220      -0.29691186      -0.14447660 </v>
   <v>       0.01878368      -0.04953571      -0.05467885 </v>
   <v>      -0.04345396       0.10197422      -0.05297419 </v>
   <v>      -0.08166360      -0.07596758      -0.07848910 </v>
   <v>       0.08289051      -0.17348777      -0.04849921 </v>
   <v>       0.07472780       0.01211984      -0.07323299 </v>
   <v>      -0.14052468       0.00164119      -0.03068825 </v>
   <v>      -0.15606816       0.09644789      -0.18760222 </v>
   <v>      -0.05469924      -0.05179713      -0.00748512 </v>
   <v>       0.08547660      -0.01292170       0.09015535 </v>
   <v>       0.24139502       0.16532793       0.06488104 </v>
   <v>       0.04834408      -0.01251490       0.06405586 </v>
   <v>      -0.18428201       0.04474180       0.00546064 </v>
   <v>       0.05719795       0.06171390      -0.00044153 </v>
   <v>       0.09791639       0.03770629       0.15466590 </v>
  </varray>
  <varray name="stress" >
   <v>      -0.87584226      -0.27365190       0.15663813 </v>
   <v>      -0.27365191      -1.41636817       0.14852368 </v>
   <v>       0.15663813       0.14852368      -0.92870472 </v>
  </varray>
  <energy>
   <i name="e_fr_energy">    -52.38703346 </i>
   <i name="e_wo_entrp">    -52.38703346 </i>
   <i name="e_0_energy">      0.00000000 </i>
  </energy>
  <time name="totalsc">   37.04   37.48</time>
 </calculation>
 <calculation>
  <scstep>
   <time name="dav">    3.62    3.62</time>
   <time name="total">    4.16    4.18</time>
   <energy>
    <i name="alphaZ">     54.62238137 </i>
    <i name="ewald">  52814.43381638 </i>
    <i name="hartreedc"> -78636.29923868 </i>
    <i name="XCdc">   -296.33880267 </i>
    <i name="pawpsdc">  28100.53986875 </i>
    <i name="pawaedc"> -26948.41903144 </i>
    <i name="eentropy">      0.00000000 </i>
    <i name="bandstr">  -2108.01192761 </i>
    <i name="atom">  26967.16438225 </i>
    <i name="e_fr_energy">    -52.30855166 </i>
    <i name="e_wo_entrp">    -52.30855166 </i>
    <i name="e_0_energy">    -52.30855166 </i>
   </energy>
  </scstep>
  <scstep>
   <time name="dav">    3.77    3.77</time>
   <time name="total">    4.32    4.33</time>
   <energy>
    <i name="e_fr_energy">    -52.17641494 </i>
    <i name="e_wo_entrp">    -52.17641494 </i>
    <i name="e_0_energy">    -52.17641494 </i>
   </energy>
  </scstep>
  <scstep>
   <time name="dav">    3.74    3.74</time>
   <time name="total">    4.29    4.29</time>
   <energy>
    <i name="e_fr_energy">    -52.29967688 </i>
    <i name="e_wo_entrp">    -52.29967688 </i>
    <i name="e_0_energy">    -52.29967688 </i>
   </energy>
  </scstep>
  <scstep>
   <time name="dav">    3.80    3.80</time>
   <time name="total">    4.36    4.38</time>
   <energy>
    <i name="e_fr_energy">    -52.21310207 </i>
    <i name="e_wo_entrp">    -52.21310207 </i>
    <i name="e_0_energy">    -52.21310207 </i>
   </energy>
  </scstep>
  <scstep>
   <time name="dav">    3.77    3.77</time>
   <time name="total">    4.32    4.35</time>
   <energy>
    <i name="e_fr_energy">    -51.92975118 </i>
    <i name="e_wo_entrp">    -51.92975118 </i>
    <i name="e_0_energy">    -51.92975118 </i>
   </energy>
  </scstep>
  <scstep>
   <time name="dav">    3.80    3.80</time>
   <time name="total">    4.35    4.37</time>
   <energy>
    <i name="e_fr_energy">    -51.99393356 </i>
    <i name="e_wo_entrp">    -51.99393356 </i>
    <i name="e_0_energy">    -51.99393356 </i>
   </energy>
  </scstep>
  <scstep>
   <time name="dav">    3.77    3.77</time>
   <time name="total">    4.33    4.35</time>
   <energy>
    <i name="e_fr_energy">    -52.06213796 </i>
    <i name="e_wo_entrp">    -52.06213796 </i>
    <i name="e_0_energy">    -52.06213796 </i>
   </energy>
  </scstep>
  <scstep>
   <time name="dav">    3.71    3.71</time>
   <time name="total">    4.27    4.73</time>
   <energy>
    <i name="e_fr_energy">    -52.20297988 </i>
    <i name="e_wo_entrp">    -52.20297988 </i>
    <i name="e_0_energy">    -52.20297988 </i>
   </energy>
  </scstep>
  <scstep>
   <time name="dav">    3.86    3.86</time>
   <time name="total">    4.41    4.42</time>
   <energy>
    <i name="e_fr_energy">    -52.26439170 </i>
    <i name="e_wo_entrp">    -52.26439170 </i>
    <i name="e_0_energy">    -52.26439170 </i>
   </energy>
  </scstep>
  <scstep>
   <time name="dav">    3.74    3.74</time>
   <time name="total">    4.30    4.32</time>
   <energy>
    <i name="e_fr_energy">    -52.34595409 </i>
    <i name="e_wo_entrp">    -52.34595409 </i>
    <i name="e_0_energy">    -52.34595409 </i>
   </energy>
  </scstep>
  <scstep>
   <time name="dav">    3.14    3.14</time>
   <time name="total">    3.70    3.71</time>
   <energy>
    <i name="e_fr_energy">    -52.36678582 </i>
    <i name="e_wo_entrp">    -52.36678582 </i>
    <i name="e_0_energy">    -52.36678582 </i>
   </energy>
  </scstep>
  <scstep>
   <time name="dav">    2.91    2.91</time>
   <time name="total">    3.46    7.73</time>
   <energy>
    <i name="e_fr_energy">    -52.37635741 </i>
    <i name="e_wo_entrp">    -52.37635741 </i>
    <i name="e_0_energy">    -52.37635741 </i>
   </energy>
  </scstep>
  <scstep>
   <time name="dav">    3.79    3.80</time>
   <time name="total">    4.35    4.38</time>
   <energy>
    <i name="e_fr_energy">    -52.38737167 </i>
    <i name="e_wo_entrp">    -52.38737167 </i>
    <i name="e_0_energy">    -52.38737167 </i>
   </energy>
  </scstep>
  <scstep>
   <time name="dav">    3.83    3.83</time>
   <time name="total">    4.38    4.41</time>
   <energy>
    <i name="e_fr_energy">    -52.41347850 </i>
    <i name="e_wo_entrp">    -52.41347850 </i>
    <i name="e_0_energy">    -52.41347850 </i>
   </energy>
  </scstep>
  <scstep>
   <time name="dav">    3.45    3.45</time>
   <time name="total">    4.01    4.72</time>
   <energy>
    <i name="e_fr_energy">    -52.42756731 </i>
    <i name="e_wo_entrp">    -52.42756731 </i>
    <i name="e_0_energy">    -52.42756731 </i>
   </energy>
  </scstep>
  <scstep>
   <time name="dav">    3.79    3.79</time>
   <time name="total">    4.35    4.36</time>
   <energy>
    <i name="e_fr_energy">    -52.44212083 </i>
    <i name="e_wo_entrp">    -52.44212083 </i>
    <i name="e_0_energy">    -52.44212083 </i>
   </energy>
  </scstep>
  <scstep>
   <time name="dav">    2.90    2.91</time>
   <time name="total">    3.46    4.10</time>
   <energy>
    <i name="e_fr_energy">    -52.44688028 </i>
    <i name="e_wo_entrp">    -52.44688028 </i>
    <i name="e_0_energy">    -52.44688028 </i>
   </energy>
  </scstep>
  <scstep>
   <time name="dav">    2.90    2.90</time>
   <time name="total">    3.46    3.50</time>
   <energy>
    <i name="e_fr_energy">    -52.45263721 </i>
    <i name="e_wo_entrp">    -52.45263721 </i>
    <i name="e_0_energy">    -52.45263721 </i>
   </energy>
  </scstep>
  <scstep>
   <time name="dav">    2.93    2.93</time>
   <time name="total">    3.49    3.50</time>
   <energy>
    <i name="e_fr_energy">    -52.45441231 </i>
    <i name="e_wo_entrp">    -52.45441231 </i>
    <i name="e_0_energy">    -52.45441231 </i>
   </energy>
  </scstep>
  <scstep>
   <time name="dav">    2.78    2.79</time>
   <time name="total">    3.34    3.36</time>
   <energy>
    <i name="e_fr_energy">    -52.45537310 </i>
    <i name="e_wo_entrp">    -52.45537310 </i>
    <i name="e_0_energy">    -52.45537310 </i>
   </energy>
  </scstep>
  <scstep>
   <time name="dav">    2.87    2.87</time>
   <time name="total">    3.43    3.49</time>
   <energy>
    <i name="e_fr_energy">    -52.45635627 </i>
    <i name="e_wo_entrp">    -52.45635627 </i>
    <i name="e_0_energy">    -52.45635627 </i>
   </energy>
  </scstep>
  <scstep>
   <time name="dav">    2.88    2.88</time>
   <time name="total">    3.44    3.45</time>
   <energy>
    <i name="e_fr_energy">    -52.45703171 </i>
    <i name="e_wo_entrp">    -52.45703171 </i>
    <i name="e_0_energy">    -52.45703171 </i>
   </energy>
  </scstep>
  <scstep>
   <time name="dav">    2.79    2.79</time>
   <time name="total">    3.35    3.37</time>
   <energy>
    <i name="e_fr_energy">    -52.45733213 </i>
    <i name="e_wo_entrp">    -52.45733213 </i>
    <i name="e_0_energy">    -52.45733213 </i>
   </energy>
  </scstep>
  <scstep>
   <time name="dav">    2.88    2.88</time>
   <time name="total">    3.44    3.46</time>
   <energy>
    <i name="e_fr_energy">    -52.45764794 </i>
    <i name="e_wo_entrp">    -52.45764794 </i>
    <i name="e_0_energy">    -52.45764794 </i>
   </energy>
  </scstep>
  <scstep>
   <time name="dav">    2.79    2.79</time>
   <time name="total">    3.36    3.39</time>
   <energy>
    <i name="e_fr_energy">    -52.45780188 </i>
    <i name="e_wo_entrp">    -52.45780188 </i>
    <i name="e_0_energy">    -52.45780188 </i>
   </energy>
  </scstep>
  <scstep>
   <time name="dav">    2.79    2.79</time>
   <time name="total">    3.17    3.49</time>
   <energy>
    <i name="alphaZ">     54.62238137 </i>
    <i name="ewald">  52814.43381638 </i>
    <i name="hartreedc"> -78644.33871671 </i>
    <i name="XCdc">   -296.18659463 </i>
    <i name="pawpsdc">  28012.43197109 </i>
    <i name="pawaedc"> -26858.68705140 </i>
    <i name="eentropy">      0.00000000 </i>
    <i name="bandstr">  -2101.89807529 </i>
    <i name="atom">  26967.16438225 </i>
    <i name="e_fr_energy">    -52.45788696 </i>
    <i name="e_wo_entrp">    -52.45788696 </i>
    <i name="e_0_energy">    -52.45788696 </i>
   </energy>
  </scstep>
  <structure>
   <crystal>
    <varray name="basis" >
     <v>      21.91610717       0.00000000       0.00000000 </v>
     <v>       0.00000000      21.91610717       0.00000000 </v>
     <v>       0.00000000       0.00000000      21.91610717 </v>
    </varray>
    <i name="volume">  10526.65153428 </i>
    <varray name="rec_basis" >
     <v>       0.04562854       0.00000000       0.00000000 </v>
     <v>       0.00000000       0.04562854       0.00000000 </v>
     <v>       0.00000000       0.00000000       0.04562854 </v>
    </varray>
   </crystal>
   <varray name="positions" >
    <v>       0.51757256       0.62224955       0.40479113 </v>
    <v>       0.45720144       0.64948016       0.51779514 </v>
    <v>       0.63729478       0.52302201       0.55932130 </v>
    <v>       0.58589583       0.64499824       0.51436156 </v>
    <v>       0.63191308       0.56120571       0.43250547 </v>
    <v>       0.44193769       0.58114227       0.31375491 </v>
    <v>       0.72777127       0.49091358       0.47393881 </v>
    <v>       0.39513250       0.58768216       0.43188290 </v>
    <v>       0.58811658       0.60827213       0.63540010 </v>
    <v>       0.52654551       0.71653733       0.60047514 </v>
    <v>       0.46201042       0.60942417       0.63768326 </v>
    <v>       0.64400361       0.44717017       0.38424292 </v>
    <v>       0.54242281       0.51132172       0.34894856 </v>
    <v>       0.51444524       0.52333597       0.49304385 </v>
    <v>       0.42606893       0.47584211       0.38611129 </v>
    <v>       0.63429734       0.41028601       0.50347371 </v>
    <v>       0.53011374       0.41008108       0.42938499 </v>
    <v>       0.39963014       0.52941543       0.55658455 </v>
    <v>       0.32092090       0.49240409       0.46129753 </v>
    <v>       0.41474994       0.41740199       0.50019296 </v>
    <v>       0.52043598       0.49137755       0.62283503 </v>
    <v>       0.62316522       0.41338087       0.62859688 </v>
    <v>       0.52261323       0.37960788       0.55785176 </v>
    <v>       0.30876381       0.43952465       0.57614041 </v>
    <v>       0.41631648       0.41329375       0.62739520 </v>
    <v>       0.51723349       0.37343994       0.68659218 </v>
   </varray>
  </structure>
  <varray name="forces" >
   <v>       0.05507496       0.02663692       0.16793743 </v>
   <v>       0.02008832      -0.03566005       0.24440721 </v>
   <v>      -0.02584244       0.08406799      -0.00472542 </v>
   <v>      -0.00410706      -0.30192838       0.03573590 </v>
   <v>      -0.18536984       0.05251824       0.03919247 </v>
   <v>      -0.07329349       0.05673579      -0.03455612 </v>
   <v>       0.07901605       0.02751006       0.06432517 </v>
   <v>      -0.13647846       0.18783208      -0.14409434 </v>
   <v>      -0.02376707      -0.07393470      -0.01114724 </v>
   <v>      -0.15331623      -0.12275377       0.07389903 </v>
   <v>      -0.07202479      -0.09763997      -0.21687635 </v>
   <v>       0.08231004      -0.35547627      -0.08653390 </v>
   <v>       0.09509203       0.02511586      -0.10411398 </v>
   <v>      -0.01020011       0.03834629       0.00876280 </v>
   <v>      -0.04926102      -0.12737140       0.09222694 </v>
   <v>       0.04111082      -0.12688331      -0.06300509 </v>
   <v>      -0.09114826       0.00168187       0.18991912 </v>
   <v>       0.09869830       0.29410437       0.14729748 </v>
   <v>      -0.18061716      -0.02530706       0.00218980 </v>
   <v>       0.23640095      -0.10839129      -0.27313356 </v>
   <v>       0.02816941       0.23421025       0.00906868 </v>
   <v>       0.14634408      -0.00832630       0.07829443 </v>
   <v>      -0.02310086       0.10401272      -0.09153033 </v>
   <v>      -0.19899318       0.10730560      -0.19078226 </v>
   <v>       0.17419244       0.02675676       0.07530432 </v>
   <v>       0.17102258       0.11683771      -0.00806218 </v>
  </varray>
  <varray name="stress" >
   <v>      -1.21197521      -0.37095769       0.21158968 </v>
   <v>      -0.37095768      -1.62161864       0.23310014 </v>
   <v>       0.21158968       0.23310014      -1.51394153 </v>
  </varray>
  <energy>
   <i name="e_fr_energy">    -52.45788696 </i>
   <i name="e_wo_entrp">    -52.45788696 </i>
   <i name="e_0_energy">      0.00000000 </i>
  </energy>
  <time name="totalsc">  107.81  115.90</time>
 </calculation>
 <calculation>
  <scstep>
   <time name="dav">    3.74    3.74</time>
   <time name="total">    4.29    4.31</time>
   <energy>
    <i name="alphaZ">     54.62238137 </i>
    <i name="ewald">  52978.27334227 </i>
    <i name="hartreedc"> -78807.54150875 </i>
    <i name="XCdc">   -296.00837779 </i>
    <i name="pawpsdc">  28012.43663066 </i>
    <i name="pawaedc"> -26858.69175016 </i>
    <i name="eentropy">      0.00000000 </i>
    <i name="bandstr">  -2102.71114571 </i>
    <i name="atom">  26967.16438225 </i>
    <i name="e_fr_energy">    -52.45604587 </i>
    <i name="e_wo_entrp">    -52.45604587 </i>
    <i name="e_0_energy">    -52.45604587 </i>
   </energy>
  </scstep>
  <scstep>
   <time name="dav">    3.86    3.86</time>
   <time name="total">    4.41    4.41</time>
   <energy>
    <i name="e_fr_energy">    -52.46378673 </i>
    <i name="e_wo_entrp">    -52.46378673 </i>
    <i name="e_0_energy">    -52.46378673 </i>
   </energy>
  </scstep>
  <scstep>
   <time name="dav">    3.92    3.92</time>
   <time name="total">    4.47    4.51</time>
   <energy>
    <i name="e_fr_energy">    -52.46356910 </i>
    <i name="e_wo_entrp">    -52.46356910 </i>
    <i name="e_0_energy">    -52.46356910 </i>
   </energy>
  </scstep>
  <scstep>
   <time name="dav">    3.86    3.86</time>
   <time name="total">    4.41    4.49</time>
   <energy>
    <i name="e_fr_energy">    -52.46327514 </i>
    <i name="e_wo_entrp">    -52.46327514 </i>
    <i name="e_0_energy">    -52.46327514 </i>
   </energy>
  </scstep>
  <scstep>
   <time name="dav">    2.79    2.79</time>
   <time name="total">    3.17    3.96</time>
   <energy>
    <i name="alphaZ">     54.62238137 </i>
    <i name="ewald">  52978.27334227 </i>
    <i name="hartreedc"> -78805.85156598 </i>
    <i name="XCdc">   -296.04671272 </i>
    <i name="pawpsdc">  28033.63833904 </i>
    <i name="pawaedc"> -26880.27956961 </i>
    <i name="eentropy">      0.00000000 </i>
    <i name="bandstr">  -2103.98389199 </i>
    <i name="atom">  26967.16438225 </i>
    <i name="e_fr_energy">    -52.46329539 </i>
    <i name="e_wo_entrp">    -52.46329539 </i>
    <i name="e_0_energy">    -52.46329539 </i>
   </energy>
  </scstep>
  <structure>
   <crystal>
    <varray name="basis" >
     <v>      21.91610717       0.00000000       0.00000000 </v>
     <v>       0.00000000      21.91610717       0.00000000 </v>
     <v>       0.00000000       0.00000000      21.91610717 </v>
    </varray>
    <i name="volume">  10526.65153428 </i>
    <varray name="rec_basis" >
     <v>       0.04562854       0.00000000       0.00000000 </v>
     <v>       0.00000000       0.04562854       0.00000000 </v>
     <v>       0.00000000       0.00000000       0.04562854 </v>
    </varray>
   </crystal>
   <varray name="positions" >
    <v>       0.51787166       0.62216240       0.40507023 </v>
    <v>       0.45734933       0.64948001       0.51783684 </v>
    <v>       0.63700147       0.52321556       0.55927870 </v>
    <v>       0.58580014       0.64495588       0.51413569 </v>
    <v>       0.63155958       0.56137279       0.43295133 </v>
    <v>       0.44188131       0.58095101       0.31365118 </v>
    <v>       0.72783617       0.49073116       0.47376561 </v>
    <v>       0.39526907       0.58757365       0.43199247 </v>
    <v>       0.58779552       0.60830958       0.63508725 </v>
    <v>       0.52672087       0.71634730       0.60016647 </v>
    <v>       0.46226502       0.60897509       0.63725284 </v>
    <v>       0.64392538       0.44768542       0.38444304 </v>
    <v>       0.54243382       0.51139316       0.34908061 </v>
    <v>       0.51449328       0.52311345       0.49318706 </v>
    <v>       0.42633113       0.47584700       0.38640675 </v>
    <v>       0.63411724       0.41053724       0.50362872 </v>
    <v>       0.52959215       0.41014707       0.42983795 </v>
    <v>       0.40014813       0.52973433       0.55686537 </v>
    <v>       0.32105395       0.49210190       0.46176182 </v>
    <v>       0.41526959       0.41742833       0.49996927 </v>
    <v>       0.52021451       0.49172203       0.62261294 </v>
    <v>       0.62261218       0.41303000       0.62857887 </v>
    <v>       0.52245493       0.37976667       0.55744579 </v>
    <v>       0.30902285       0.43955019       0.57591393 </v>
    <v>       0.41631890       0.41317565       0.62748246 </v>
    <v>       0.51723439       0.37350367       0.68619835 </v>
   </varray>
  </structure>
  <varray name="forces" >
   <v>       0.01014448       0.02870643       0.12091073 </v>
   <v>      -0.00286335      -0.03051364       0.21478120 </v>
   <v>       0.00430141       0.05233197      -0.00183719 </v>
   <v>       0.00985088      -0.26999303       0.05526520 </v>
   <v>      -0.13390678       0.02870463       0.00429416 </v>
   <v>      -0.05621684       0.06642321      -0.00819190 </v>
   <v>       0.06268789       0.04314392       0.07711753 </v>
   <v>      -0.14114469       0.18506613      -0.14330810 </v>
   <v>       0.01639077      -0.06627978       0.01581157 </v>
   <v>      -0.15602707      -0.08899640       0.09459889 </v>
   <v>      -0.09451009      -0.05769699      -0.16783516 </v>
   <v>       0.07088141      -0.37640755      -0.08735221 </v>
   <v>       0.08822212       0.01895808      -0.11295200 </v>
   <v>      -0.00920996       0.05293621      -0.00214994 </v>
   <v>      -0.07377691      -0.11567990       0.06217718 </v>
   <v>       0.05280992      -0.13131320      -0.07902782 </v>
   <v>      -0.03051511      -0.00342358       0.13944922 </v>
   <v>       0.04204144       0.23334816       0.11072376 </v>
   <v>      -0.16607107       0.00593595      -0.03093492 </v>
   <v>       0.17535785      -0.09370707      -0.22612850 </v>
   <v>       0.04025833       0.18345529       0.02413487 </v>
   <v>       0.18355701       0.01954777       0.07118537 </v>
   <v>      -0.01209032       0.08562254      -0.04822398 </v>
   <v>      -0.19653567       0.09808349      -0.16067088 </v>
   <v>       0.15970832       0.03290586       0.05494366 </v>
   <v>       0.15665603       0.09884152       0.02321928 </v>
  </varray>
  <varray name="stress" >
   <v>      -1.11373113      -0.38473601       0.21567005 </v>
   <v>      -0.38473601      -1.55995496       0.23025460 </v>
   <v>       0.21567005       0.23025461      -1.40657120 </v>
  </varray>
  <energy>
   <i name="e_fr_energy">    -52.46329539 </i>
   <i name="e_wo_entrp">    -52.46329539 </i>
   <i name="e_0_energy">      0.00000000 </i>
  </energy>
  <time name="totalsc">   27.21   28.17</time>
 </calculation>
 <calculation>
  <scstep>
   <time name="dav">    3.68    3.68</time>
   <time name="total">    4.23    4.24</time>
   <energy>
    <i name="alphaZ">     54.62238137 </i>
    <i name="ewald">  52853.40524028 </i>
    <i name="hartreedc"> -78681.92286374 </i>
    <i name="XCdc">   -296.22104809 </i>
    <i name="pawpsdc">  28033.47539681 </i>
    <i name="pawaedc"> -26880.11526647 </i>
    <i name="eentropy">      0.00000000 </i>
    <i name="bandstr">  -2102.90314799 </i>
    <i name="atom">  26967.16438225 </i>
    <i name="e_fr_energy">    -52.49492559 </i>
    <i name="e_wo_entrp">    -52.49492559 </i>
    <i name="e_0_energy">    -52.49492559 </i>
   </energy>
  </scstep>
  <scstep>
   <time name="dav">    3.83    3.83</time>
   <time name="total">    4.38    4.44</time>
   <energy>
    <i name="e_fr_energy">    -52.50338791 </i>
    <i name="e_wo_entrp">    -52.50338791 </i>
    <i name="e_0_energy">    -52.50338791 </i>
   </energy>
  </scstep>
  <scstep>
   <time name="dav">    3.92    3.92</time>
   <time name="total">    4.47    4.48</time>
   <energy>
    <i name="e_fr_energy">    -52.50305673 </i>
    <i name="e_wo_entrp">    -52.50305673 </i>
    <i name="e_0_energy">    -52.50305673 </i>
   </energy>
  </scstep>
  <scstep>
   <time name="dav">    3.83    3.83</time>
   <time name="total">    4.38    4.38</time>
   <energy>
    <i name="e_fr_energy">    -52.50208873 </i>
    <i name="e_wo_entrp">    -52.50208873 </i>
    <i name="e_0_energy">    -52.50208873 </i>
   </energy>
  </scstep>
  <scstep>
   <time name="dav">    2.93    2.93</time>
   <time name="total">    3.48    3.49</time>
   <energy>
    <i name="e_fr_energy">    -52.50186405 </i>
    <i name="e_wo_entrp">    -52.50186405 </i>
    <i name="e_0_energy">    -52.50186405 </i>
   </energy>
  </scstep>
  <scstep>
   <time name="dav">    2.88    2.88</time>
   <time name="total">    3.43    3.44</time>
   <energy>
    <i name="e_fr_energy">    -52.50208999 </i>
    <i name="e_wo_entrp">    -52.50208999 </i>
    <i name="e_0_energy">    -52.50208999 </i>
   </energy>
  </scstep>
  <scstep>
   <time name="dav">    2.88    2.88</time>
   <time name="total">    3.43    3.43</time>
   <energy>
    <i name="e_fr_energy">    -52.50244916 </i>
    <i name="e_wo_entrp">    -52.50244916 </i>
    <i name="e_0_energy">    -52.50244916 </i>
   </energy>
  </scstep>
  <scstep>
   <time name="dav">    2.94    2.93</time>
   <time name="total">    3.49    4.58</time>
   <energy>
    <i name="e_fr_energy">    -52.50273906 </i>
    <i name="e_wo_entrp">    -52.50273906 </i>
    <i name="e_0_energy">    -52.50273906 </i>
   </energy>
  </scstep>
  <scstep>
   <time name="dav">    2.82    2.82</time>
   <time name="total">    3.38    4.04</time>
   <energy>
    <i name="e_fr_energy">    -52.50293971 </i>
    <i name="e_wo_entrp">    -52.50293971 </i>
    <i name="e_0_energy">    -52.50293971 </i>
   </energy>
  </scstep>
  <scstep>
   <time name="dav">    2.85    2.85</time>
   <time name="total">    3.40    3.41</time>
   <energy>
    <i name="e_fr_energy">    -52.50312738 </i>
    <i name="e_wo_entrp">    -52.50312738 </i>
    <i name="e_0_energy">    -52.50312738 </i>
   </energy>
  </scstep>
  <scstep>
   <time name="dav">    2.82    2.82</time>
   <time name="total">    3.38    3.38</time>
   <energy>
    <i name="e_fr_energy">    -52.50329557 </i>
    <i name="e_wo_entrp">    -52.50329557 </i>
    <i name="e_0_energy">    -52.50329557 </i>
   </energy>
  </scstep>
  <scstep>
   <time name="dav">    2.82    2.82</time>
   <time name="total">    3.19    3.21</time>
   <energy>
    <i name="alphaZ">     54.62238137 </i>
    <i name="ewald">  52853.40524028 </i>
    <i name="hartreedc"> -78683.18142098 </i>
    <i name="XCdc">   -296.18713892 </i>
    <i name="pawpsdc">  28010.64579581 </i>
    <i name="pawaedc"> -26856.90164029 </i>
    <i name="eentropy">      0.00000000 </i>
    <i name="bandstr">  -2102.07095796 </i>
    <i name="atom">  26967.16438225 </i>
    <i name="e_fr_energy">    -52.50335845 </i>
    <i name="e_wo_entrp">    -52.50335845 </i>
    <i name="e_0_energy">    -52.50335845 </i>
   </energy>
  </scstep>
  <structure>
   <crystal>
    <varray name="basis" >
     <v>      21.91610717       0.00000000       0.00000000 </v>
     <v>       0.00000000      21.91610717       0.00000000 </v>
     <v>       0.00000000       0.00000000      21.91610717 </v>
    </varray>
    <i name="volume">  10526.65153428 </i>
    <varray name="rec_basis" >
     <v>       0.04562854       0.00000000       0.00000000 </v>
     <v>       0.00000000       0.04562854       0.00000000 </v>
     <v>       0.00000000       0.00000000       0.04562854 </v>
    </varray>
   </crystal>
   <varray name="positions" >
    <v>       0.51773564       0.62226621       0.40516918 </v>
    <v>       0.45726610       0.64941824       0.51825033 </v>
    <v>       0.63716373       0.52322031       0.55929727 </v>
    <v>       0.58587020       0.64443083       0.51436595 </v>
    <v>       0.63147323       0.56134350       0.43272663 </v>
    <v>       0.44179689       0.58118576       0.31368888 </v>
    <v>       0.72792925       0.49091410       0.47401258 </v>
    <v>       0.39491150       0.58800555       0.43164465 </v>
    <v>       0.58799681       0.60815564       0.63528307 </v>
    <v>       0.52631283       0.71626640       0.60051979 </v>
    <v>       0.46194019       0.60909324       0.63713799 </v>
    <v>       0.64410999       0.44665278       0.38416123 </v>
    <v>       0.54260686       0.51139419       0.34878255 </v>
    <v>       0.51444946       0.52333723       0.49310773 </v>
    <v>       0.42604434       0.47560998       0.38637810 </v>
    <v>       0.63431855       0.41013958       0.50338740 </v>
    <v>       0.52980335       0.41010559       0.42988346 </v>
    <v>       0.39996218       0.53004034       0.55694278 </v>
    <v>       0.32064771       0.49227213       0.46145606 </v>
    <v>       0.41535297       0.41722462       0.49962805 </v>
    <v>       0.52041205       0.49191353       0.62277812 </v>
    <v>       0.62327373       0.41325330       0.62873258 </v>
    <v>       0.52251329       0.37985708       0.55756058 </v>
    <v>       0.30848890       0.43973562       0.57570684 </v>
    <v>       0.41664133       0.41330417       0.62754814 </v>
    <v>       0.51755143       0.37367064       0.68645158 </v>
   </varray>
  </structure>
  <varray name="forces" >
   <v>       0.00205367       0.01360672       0.11757175 </v>
   <v>      -0.01903725      -0.04135456       0.15931724 </v>
   <v>      -0.00209794       0.02783671      -0.01957541 </v>
   <v>      -0.00902970      -0.24267541       0.07818321 </v>
   <v>      -0.11916802      -0.04799900      -0.00228170 </v>
   <v>      -0.04563993       0.04588138       0.00309971 </v>
   <v>       0.03678891       0.03702542       0.06219104 </v>
   <v>      -0.13169018       0.16371314      -0.12637475 </v>
   <v>      -0.00933790      -0.05195672       0.02140692 </v>
   <v>      -0.13278890      -0.09819975       0.07826566 </v>
   <v>      -0.07111257      -0.06490646      -0.13766148 </v>
   <v>       0.05484899      -0.31629459      -0.06188264 </v>
   <v>       0.07597307       0.01573007      -0.08854443 </v>
   <v>      -0.01387386       0.03796164       0.00246488 </v>
   <v>      -0.04889113      -0.06737574       0.05915485 </v>
   <v>       0.05570042      -0.09898891      -0.04579452 </v>
   <v>      -0.03736571       0.00922463       0.13359959 </v>
   <v>       0.02685611       0.17772835       0.07525455 </v>
   <v>      -0.11382306       0.00258091       0.00189150 </v>
   <v>       0.13945303      -0.04643966      -0.17960564 </v>
   <v>       0.04765605       0.17135423       0.01477901 </v>
   <v>       0.14319773       0.00964867       0.03902248 </v>
   <v>       0.01095852       0.10116553      -0.02949393 </v>
   <v>      -0.10686562       0.09455827      -0.15765588 </v>
   <v>       0.09956445       0.05623229       0.00218968 </v>
   <v>       0.16767081       0.11194283       0.00047830 </v>
  </varray>
  <varray name="stress" >
   <v>      -1.23471833      -0.37754557       0.20438373 </v>
   <v>      -0.37754557      -1.65525052       0.21846211 </v>
   <v>       0.20438372       0.21846211      -1.48837796 </v>
  </varray>
  <energy>
   <i name="e_fr_energy">    -52.50335845 </i>
   <i name="e_wo_entrp">    -52.50335845 </i>
   <i name="e_0_energy">      0.00000000 </i>
  </energy>
  <time name="totalsc">   51.10   53.30</time>
 </calculation>
 <calculation>
  <scstep>
   <time name="dav">    3.62    3.63</time>
   <time name="total">    4.18    4.19</time>
   <energy>
    <i name="alphaZ">     54.62238137 </i>
    <i name="ewald">  52480.89071313 </i>
    <i name="hartreedc"> -78313.28435254 </i>
    <i name="XCdc">   -296.68087776 </i>
    <i name="pawpsdc">  28010.64530194 </i>
    <i name="pawaedc"> -26856.90109063 </i>
    <i name="eentropy">      0.00000000 </i>
    <i name="bandstr">  -2098.95125892 </i>
    <i name="atom">  26967.16438225 </i>
    <i name="e_fr_energy">    -52.49480118 </i>
    <i name="e_wo_entrp">    -52.49480118 </i>
    <i name="e_0_energy">    -52.49480118 </i>
   </energy>
  </scstep>
  <scstep>
   <time name="dav">    3.80    3.81</time>
   <time name="total">    4.36    4.36</time>
   <energy>
    <i name="e_fr_energy">    -52.57065089 </i>
    <i name="e_wo_entrp">    -52.57065089 </i>
    <i name="e_0_energy">    -52.57065089 </i>
   </energy>
  </scstep>
  <scstep>
   <time name="dav">    4.01    4.01</time>
   <time name="total">    4.56    4.56</time>
   <energy>
    <i name="e_fr_energy">    -52.56892449 </i>
    <i name="e_wo_entrp">    -52.56892449 </i>
    <i name="e_0_energy">    -52.56892449 </i>
   </energy>
  </scstep>
  <scstep>
   <time name="dav">    3.84    3.84</time>
   <time name="total">    4.38    5.04</time>
   <energy>
    <i name="e_fr_energy">    -52.56386046 </i>
    <i name="e_wo_entrp">    -52.56386046 </i>
    <i name="e_0_energy">    -52.56386046 </i>
   </energy>
  </scstep>
  <scstep>
   <time name="dav">    3.92    3.93</time>
   <time name="total">    4.47    4.54</time>
   <energy>
    <i name="e_fr_energy">    -52.56172403 </i>
    <i name="e_wo_entrp">    -52.56172403 </i>
    <i name="e_0_energy">    -52.56172403 </i>
   </energy>
  </scstep>
  <scstep>
   <time name="dav">    2.88    2.88</time>
   <time name="total">    3.43    3.46</time>
   <energy>
    <i name="e_fr_energy">    -52.56216297 </i>
[...]
       <r>    -0.7084     0.0000   162.0000 </r>
       <r>    -0.6700     0.0000   162.0000 </r>
       <r>    -0.6315     0.0000   162.0000 </r>
       <r>    -0.5931     0.0000   162.0000 </r>
       <r>    -0.5547     0.0000   163.0000 </r>
       <r>    -0.5163     0.0000   163.0000 </r>
       <r>    -0.4778     0.0000   164.0000 </r>
       <r>    -0.4394     0.0000   165.0000 </r>
       <r>    -0.4010     0.0000   165.0000 </r>
       <r>    -0.3625     0.0000   165.0000 </r>
       <r>    -0.3241     0.0000   165.0000 </r>
       <r>    -0.2857     0.0000   166.0000 </r>
       <r>    -0.2472     0.0000   166.0000 </r>
       <r>    -0.2088     0.0000   166.0000 </r>
       <r>    -0.1704     0.0000   166.0000 </r>
       <r>    -0.1320     0.0000   167.0000 </r>
       <r>    -0.0935     0.0000   167.0000 </r>
       <r>    -0.0551     0.0000   167.0000 </r>
       <r>    -0.0167     0.0000   167.0000 </r>
       <r>     0.0218     0.0000   167.0000 </r>
       <r>     0.0602     0.0000   168.0000 </r>
       <r>     0.0986     0.0000   168.0000 </r>
       <r>     0.1371     0.0000   169.0000 </r>
       <r>     0.1755     0.0000   169.0000 </r>
       <r>     0.2139     0.0000   169.0000 </r>
       <r>     0.2523     0.0000   170.0000 </r>
       <r>     0.2908     0.0000   170.0000 </r>
       <r>     0.3292     0.0000   170.0000 </r>
       <r>     0.3676     0.0000   170.0000 </r>
       <r>     0.4061     0.0000   170.0000 </r>
       <r>     0.4445     0.0000   171.0000 </r>
       <r>     0.4829     0.0000   171.0000 </r>
       <r>     0.5214     0.0000   172.0000 </r>
       <r>     0.5598     0.0000   173.0000 </r>
       <r>     0.5982     0.0000   173.0000 </r>
       <r>     0.6366     0.0000   174.0000 </r>
       <r>     0.6751     0.0000   176.0000 </r>
       <r>     0.7135     0.0000   177.0000 </r>
       <r>     0.7519     0.0000   178.0000 </r>
       <r>     0.7904     0.0000   179.0000 </r>
       <r>     0.8288     0.0000   180.0000 </r>
       <r>     0.8672     0.0000   180.0000 </r>
       <r>     0.9057     0.0000   182.0000 </r>
       <r>     0.9441     0.0000   183.0000 </r>
       <r>     0.9825     0.0000   184.0000 </r>
       <r>     1.0209     0.0000   184.0000 </r>
       <r>     1.0594     0.0000   184.0000 </r>
       <r>     1.0978     0.0000   184.0000 </r>
       <r>     1.1362     0.0000   184.0000 </r>
       <r>     1.1747     0.0000   184.0000 </r>
       <r>     1.2131     0.0000   184.0000 </r>
       <r>     1.2515     0.0000   184.0000 </r>
       <r>     1.2900     0.0000   184.0000 </r>
       <r>     1.3284     0.0000   184.0000 </r>
       <r>     1.3668     0.0000   184.0000 </r>
       <r>     1.4052     0.0000   184.0000 </r>
       <r>     1.4437     0.0000   184.0000 </r>
       <r>     1.4821     0.0000   184.0000 </r>
      </set>
      <set comment="spin 2">
       <r>   -10.0469     0.0000     0.0000 </r>
       <r>   -10.0085     0.0000     0.0000 </r>
       <r>    -9.9701     0.0000     0.0000 </r>
       <r>    -9.9316     0.0000     0.0000 </r>
       <r>    -9.8932     0.0000     0.0000 </r>
       <r>    -9.8548     0.0000     0.0000 </r>
       <r>    -9.8164     0.0000     0.0000 </r>
       <r>    -9.7779     0.0000     0.0000 </r>
       <r>    -9.7395     0.0000     0.0000 </r>
       <r>    -9.7011     0.0000     0.0000 </r>
       <r>    -9.6626     0.0000     0.0000 </r>
       <r>    -9.6242     0.0000     0.0000 </r>
       <r>    -9.5858     0.0000     0.0000 </r>
       <r>    -9.5473     0.0000     0.0000 </r>
       <r>    -9.5089     0.0000     1.0000 </r>
       <r>    -9.4705     0.0000     1.0000 </r>
       <r>    -9.4321     0.0000     1.0000 </r>
       <r>    -9.3936     0.0000     1.0000 </r>
       <r>    -9.3552     0.0000     1.0000 </r>
       <r>    -9.3168     0.0000     1.0000 </r>
       <r>    -9.2783     0.0000     1.0000 </r>
       <r>    -9.2399     0.0000     1.0000 </r>
       <r>    -9.2015     0.0000     1.0000 </r>
       <r>    -9.1630     0.0000     2.0000 </r>
       <r>    -9.1246     0.0000     2.0000 </r>
       <r>    -9.0862     0.0000     2.0000 </r>
       <r>    -9.0478     0.0000     3.0000 </r>
       <r>    -9.0093     0.0000     5.0000 </r>
       <r>    -8.9709     0.0000     6.0000 </r>
       <r>    -8.9325     0.0000     7.0000 </r>
       <r>    -8.8940    26.0212    10.0000 </r>
       <r>    -8.8556     0.0000    10.0000 </r>
       <r>    -8.8172     0.0000    12.0000 </r>
       <r>    -8.7787     0.0000    13.0000 </r>
       <r>    -8.7403     0.0000    15.0000 </r>
       <r>    -8.7019     0.0000    15.0000 </r>
       <r>    -8.6635     0.0000    17.0000 </r>
       <r>    -8.6250     0.0000    18.0000 </r>
       <r>    -8.5866     0.0000    21.0000 </r>
       <r>    -8.5482     0.0000    22.0000 </r>
       <r>    -8.5097     0.0000    23.0000 </r>
       <r>    -8.4713     0.0000    24.0000 </r>
       <r>    -8.4329     0.0000    27.0000 </r>
       <r>    -8.3944     0.0000    28.0000 </r>
       <r>    -8.3560     0.0000    28.0000 </r>
       <r>    -8.3176     0.0000    30.0000 </r>
       <r>    -8.2792     0.0000    32.0000 </r>
       <r>    -8.2407     0.0000    32.0000 </r>
       <r>    -8.2023     0.0000    34.0000 </r>
       <r>    -8.1639     0.0000    36.0000 </r>
       <r>    -8.1254     0.0000    37.0000 </r>
       <r>    -8.0870     0.0000    38.0000 </r>
       <r>    -8.0486     0.0000    40.0000 </r>
       <r>    -8.0101     0.0000    41.0000 </r>
       <r>    -7.9717     0.0000    44.0000 </r>
       <r>    -7.9333     0.0000    44.0000 </r>
       <r>    -7.8948     0.0000    45.0000 </r>
       <r>    -7.8564     0.0000    46.0000 </r>
       <r>    -7.8180     0.0000    47.0000 </r>
       <r>    -7.7796     0.0000    49.0000 </r>
       <r>    -7.7411     0.0000    51.0000 </r>
       <r>    -7.7027     0.0000    53.0000 </r>
       <r>    -7.6643     0.0000    55.0000 </r>
       <r>    -7.6258     0.0000    56.0000 </r>
       <r>    -7.5874     0.0000    57.0000 </r>
       <r>    -7.5490     0.0000    58.0000 </r>
       <r>    -7.5105     0.0000    60.0000 </r>
       <r>    -7.4721     0.0000    61.0000 </r>
       <r>    -7.4337     0.0000    62.0000 </r>
       <r>    -7.3953     0.0000    64.0000 </r>
       <r>    -7.3568     0.0000    66.0000 </r>
       <r>    -7.3184     0.0000    67.0000 </r>
       <r>    -7.2800     0.0000    69.0000 </r>
       <r>    -7.2415     0.0000    72.0000 </r>
       <r>    -7.2031     0.0000    74.0000 </r>
       <r>    -7.1647    26.0212    77.0000 </r>
       <r>    -7.1262     0.0000    79.0000 </r>
       <r>    -7.0878     0.0000    82.0000 </r>
       <r>    -7.0494     0.0000    84.0000 </r>
       <r>    -7.0110     0.0000    87.0000 </r>
       <r>    -6.9725     0.0000    89.0000 </r>
       <r>    -6.9341     0.0000    92.0000 </r>
       <r>    -6.8957     0.0000    95.0000 </r>
       <r>    -6.8572     0.0000    98.0000 </r>
       <r>    -6.8188     0.0000   102.0000 </r>
       <r>    -6.7804     0.0000   104.0000 </r>
       <r>    -6.7419     4.1852   105.1608 </r>
       <r>    -6.7035     0.0000   109.0000 </r>
       <r>    -6.6651     0.0000   110.0000 </r>
       <r>    -6.6267     0.0000   112.0000 </r>
       <r>    -6.5882     0.0857   114.0033 </r>
       <r>    -6.5498     6.0940   117.2342 </r>
       <r>    -6.5114     0.0000   119.0000 </r>
       <r>    -6.4729     0.0000   122.0000 </r>
       <r>    -6.4345     0.0000   125.0000 </r>
       <r>    -6.3961     0.0000   126.0000 </r>
       <r>    -6.3576    26.0212   128.0000 </r>
       <r>    -6.3192     0.0000   129.0000 </r>
       <r>    -6.2808     0.0000   131.0000 </r>
       <r>    -6.2424     0.0000   133.0000 </r>
       <r>    -6.2039     0.0000   133.0000 </r>
       <r>    -6.1655     0.0000   134.0000 </r>
       <r>    -6.1271     0.0000   134.0000 </r>
       <r>    -6.0886     0.0000   134.0000 </r>
       <r>    -6.0502     0.0000   134.0000 </r>
       <r>    -6.0118     0.0000   134.0000 </r>
       <r>    -5.9733     0.0000   134.0000 </r>
       <r>    -5.9349     0.0000   134.0000 </r>
       <r>    -5.8965     0.0000   134.0000 </r>
       <r>    -5.8581     0.0000   134.0000 </r>
       <r>    -5.8196     0.0000   134.0000 </r>
       <r>    -5.7812     0.0000   134.0000 </r>
       <r>    -5.7428     0.0000   134.0000 </r>
       <r>    -5.7043     0.0000   134.0000 </r>
       <r>    -5.6659     0.0000   135.0000 </r>
       <r>    -5.6275     0.0000   135.0000 </r>
       <r>    -5.5890     0.0000   135.0000 </r>
       <r>    -5.5506     0.0000   135.0000 </r>
       <r>    -5.5122     0.0000   135.0000 </r>
       <r>    -5.4737     0.0000   135.0000 </r>
       <r>    -5.4353     0.0000   135.0000 </r>
       <r>    -5.3969     0.0000   135.0000 </r>
       <r>    -5.3585     0.0000   136.0000 </r>
       <r>    -5.3200     0.0000   136.0000 </r>
       <r>    -5.2816     0.0000   136.0000 </r>
       <r>    -5.2432     0.0000   136.0000 </r>
       <r>    -5.2047     0.0000   136.0000 </r>
       <r>    -5.1663     0.0000   136.0000 </r>
       <r>    -5.1279     0.0000   136.0000 </r>
       <r>    -5.0894     0.0000   136.0000 </r>
       <r>    -5.0510     0.0000   137.0000 </r>
       <r>    -5.0126     0.0000   137.0000 </r>
       <r>    -4.9742     0.0000   137.0000 </r>
       <r>    -4.9357     0.0000   137.0000 </r>
       <r>    -4.8973     0.0000   138.0000 </r>
       <r>    -4.8589     0.0000   138.0000 </r>
       <r>    -4.8204     0.0000   139.0000 </r>
       <r>    -4.7820     0.0000   139.0000 </r>
       <r>    -4.7436     0.0000   139.0000 </r>
       <r>    -4.7051     0.0000   139.0000 </r>
       <r>    -4.6667     0.0000   139.0000 </r>
       <r>    -4.6283     0.0000   139.0000 </r>
       <r>    -4.5899     0.0000   139.0000 </r>
       <r>    -4.5514     0.0000   139.0000 </r>
       <r>    -4.5130     0.0000   139.0000 </r>
       <r>    -4.4746     0.0000   139.0000 </r>
       <r>    -4.4361     0.0000   139.0000 </r>
       <r>    -4.3977     0.0000   140.0000 </r>
       <r>    -4.3593     0.0000   140.0000 </r>
       <r>    -4.3208     0.0000   140.0000 </r>
       <r>    -4.2824     0.0000   140.0000 </r>
       <r>    -4.2440     0.0000   140.0000 </r>
       <r>    -4.2056     0.0000   140.0000 </r>
       <r>    -4.1671     0.0000   140.0000 </r>
       <r>    -4.1287     0.0000   140.0000 </r>
       <r>    -4.0903     0.0000   140.0000 </r>
       <r>    -4.0518     0.0000   141.0000 </r>
       <r>    -4.0134     0.0000   141.0000 </r>
       <r>    -3.9750     0.0000   141.0000 </r>
       <r>    -3.9365     0.0000   141.0000 </r>
       <r>    -3.8981     0.0000   141.0000 </r>
       <r>    -3.8597     0.0000   142.0000 </r>
       <r>    -3.8213     0.0000   142.0000 </r>
       <r>    -3.7828     0.0000   142.0000 </r>
       <r>    -3.7444     0.0000   142.0000 </r>
       <r>    -3.7060     0.0000   142.0000 </r>
       <r>    -3.6675     0.0000   142.0000 </r>
       <r>    -3.6291     0.0000   142.0000 </r>
       <r>    -3.5907     0.0000   142.0000 </r>
       <r>    -3.5522     0.0000   143.0000 </r>
       <r>    -3.5138     0.0000   143.0000 </r>
       <r>    -3.4754     0.0000   143.0000 </r>
       <r>    -3.4370     0.0000   143.0000 </r>
       <r>    -3.3985     0.0000   143.0000 </r>
       <r>    -3.3601     0.0000   143.0000 </r>
       <r>    -3.3217     0.0000   143.0000 </r>
       <r>    -3.2832     0.0000   143.0000 </r>
       <r>    -3.2448     0.0000   143.0000 </r>
       <r>    -3.2064     0.0000   144.0000 </r>
       <r>    -3.1679     0.0000   144.0000 </r>
       <r>    -3.1295     0.0000   144.0000 </r>
       <r>    -3.0911     0.0000   144.0000 </r>
       <r>    -3.0526     0.0000   144.0000 </r>
       <r>    -3.0142     0.0000   144.0000 </r>
       <r>    -2.9758     0.0000   144.0000 </r>
       <r>    -2.9374     0.0000   145.0000 </r>
       <r>    -2.8989     0.0000   145.0000 </r>
       <r>    -2.8605     0.0000   145.0000 </r>
       <r>    -2.8221     0.0000   145.0000 </r>
       <r>    -2.7836     0.0000   145.0000 </r>
       <r>    -2.7452     0.0000   147.0000 </r>
       <r>    -2.7068     0.0000   147.0000 </r>
       <r>    -2.6683     0.0000   148.0000 </r>
       <r>    -2.6299     0.0000   148.0000 </r>
       <r>    -2.5915     0.0000   148.0000 </r>
       <r>    -2.5531     0.0000   148.0000 </r>
       <r>    -2.5146     0.0000   148.0000 </r>
       <r>    -2.4762     0.0000   149.0000 </r>
       <r>    -2.4378     0.0000   149.0000 </r>
       <r>    -2.3993     0.0000   149.0000 </r>
       <r>    -2.3609     0.0000   149.0000 </r>
       <r>    -2.3225     0.0000   149.0000 </r>
       <r>    -2.2840     0.0000   149.0000 </r>
       <r>    -2.2456     0.0000   149.0000 </r>
       <r>    -2.2072     0.0000   149.0000 </r>
       <r>    -2.1688     0.0000   150.0000 </r>
       <r>    -2.1303     0.0000   150.0000 </r>
       <r>    -2.0919     0.0000   150.0000 </r>
       <r>    -2.0535     0.0000   150.0000 </r>
       <r>    -2.0150     0.0000   150.0000 </r>
       <r>    -1.9766     0.0000   151.0000 </r>
       <r>    -1.9382     0.0000   152.0000 </r>
       <r>    -1.8997     0.0000   152.0000 </r>
       <r>    -1.8613     0.0000   152.0000 </r>
       <r>    -1.8229     0.0000   152.0000 </r>
       <r>    -1.7845     0.0000   152.0000 </r>
       <r>    -1.7460     0.0000   152.0000 </r>
       <r>    -1.7076     0.0000   153.0000 </r>
       <r>    -1.6692     0.0000   153.0000 </r>
       <r>    -1.6307     0.0000   153.0000 </r>
       <r>    -1.5923     0.0000   153.0000 </r>
       <r>    -1.5539     0.0000   153.0000 </r>
       <r>    -1.5154     0.0000   153.0000 </r>
       <r>    -1.4770     0.0000   154.0000 </r>
       <r>    -1.4386     0.0000   154.0000 </r>
       <r>    -1.4002     0.0000   154.0000 </r>
       <r>    -1.3617     0.0000   155.0000 </r>
       <r>    -1.3233     0.0000   155.0000 </r>
       <r>    -1.2849     0.0000   155.0000 </r>
       <r>    -1.2464     0.0000   155.0000 </r>
       <r>    -1.2080    26.0212   156.0000 </r>
       <r>    -1.1696     0.0000   156.0000 </r>
       <r>    -1.1311    26.0157   156.9998 </r>
       <r>    -1.0927     0.0000   157.0000 </r>
       <r>    -1.0543     0.0000   157.0000 </r>
       <r>    -1.0159     0.0000   158.0000 </r>
       <r>    -0.9774     0.0000   158.0000 </r>
       <r>    -0.9390     0.0000   160.0000 </r>
       <r>    -0.9006     0.0000   160.0000 </r>
       <r>    -0.8621     0.0000   160.0000 </r>
       <r>    -0.8237     0.0000   161.0000 </r>
       <r>    -0.7853     0.0000   161.0000 </r>
       <r>    -0.7468     0.0000   162.0000 </r>
       <r>    -0.7084     0.0000   162.0000 </r>
       <r>    -0.6700     0.0000   162.0000 </r>
       <r>    -0.6315     0.0000   162.0000 </r>
       <r>    -0.5931     0.0000   162.0000 </r>
       <r>    -0.5547     0.0000   163.0000 </r>
       <r>    -0.5163     0.0000   163.0000 </r>
       <r>    -0.4778     0.0000   164.0000 </r>
       <r>    -0.4394     0.0000   165.0000 </r>
       <r>    -0.4010     0.0000   165.0000 </r>
       <r>    -0.3625     0.0000   165.0000 </r>
       <r>    -0.3241     0.0000   165.0000 </r>
       <r>    -0.2857     0.0000   166.0000 </r>
       <r>    -0.2472     0.0000   166.0000 </r>
       <r>    -0.2088     0.0000   166.0000 </r>
       <r>    -0.1704     0.0000   166.0000 </r>
       <r>    -0.1320     0.0000   167.0000 </r>
       <r>    -0.0935     0.0000   167.0000 </r>
       <r>    -0.0551     0.0000   167.0000 </r>
       <r>    -0.0167     0.0000   167.0000 </r>
       <r>     0.0218     0.0000   167.0000 </r>
       <r>     0.0602     0.0000   168.0000 </r>
       <r>     0.0986     0.0000   168.0000 </r>
       <r>     0.1371     0.0000   169.0000 </r>
       <r>     0.1755     0.0000   169.0000 </r>
       <r>     0.2139     0.0000   169.0000 </r>
       <r>     0.2523     0.0000   170.0000 </r>
       <r>     0.2908     0.0000   170.0000 </r>
       <r>     0.3292     0.0000   170.0000 </r>
       <r>     0.3676     0.0000   170.0000 </r>
       <r>     0.4061     0.0000   170.0000 </r>
       <r>     0.4445     0.0000   171.0000 </r>
       <r>     0.4829     0.0000   171.0000 </r>
       <r>     0.5214     0.0000   172.0000 </r>
       <r>     0.5598     0.0000   173.0000 </r>
       <r>     0.5982     0.0000   173.0000 </r>
       <r>     0.6366     0.0000   174.0000 </r>
       <r>     0.6751     0.0000   176.0000 </r>
       <r>     0.7135     0.0000   177.0000 </r>
       <r>     0.7519     0.0000   178.0000 </r>
       <r>     0.7904     0.0000   179.0000 </r>
       <r>     0.8288     0.0000   180.0000 </r>
       <r>     0.8672     0.0000   180.0000 </r>
       <r>     0.9057     0.0000   182.0000 </r>
       <r>     0.9441     0.0000   183.0000 </r>
       <r>     0.9825     0.0000   184.0000 </r>
       <r>     1.0209     0.0000   184.0000 </r>
       <r>     1.0594     0.0000   184.0000 </r>
       <r>     1.0978     0.0000   184.0000 </r>
       <r>     1.1362     0.0000   184.0000 </r>
       <r>     1.1747     0.0000   184.0000 </r>
       <r>     1.2131     0.0000   184.0000 </r>
       <r>     1.2515     0.0000   184.0000 </r>
       <r>     1.2900     0.0000   184.0000 </r>
       <r>     1.3284     0.0000   184.0000 </r>
       <r>     1.3668     0.0000   184.0000 </r>
       <r>     1.4052     0.0000   184.0000 </r>
       <r>     1.4437     0.0000   184.0000 </r>
       <r>     1.4821     0.0000   184.0000 </r>
      </set>
     </set>
    </array>
   </total>
  </dos>
 </calculation>
 <structure name="finalpos" >
  <crystal>
   <varray name="basis" >
    <v>      21.91610717       0.00000000       0.00000000 </v>
    <v>       0.00000000      21.91610717       0.00000000 </v>
    <v>       0.00000000       0.00000000      21.91610717 </v>
   </varray>
   <i name="volume">  10526.65153428 </i>
   <varray name="rec_basis" >
    <v>       0.04562854       0.00000000       0.00000000 </v>
    <v>       0.00000000       0.04562854       0.00000000 </v>
    <v>       0.00000000       0.00000000       0.04562854 </v>
   </varray>
  </crystal>
  <varray name="positions" >
   <v>       0.50617646       0.59926549       0.41455010 </v>
   <v>       0.44539496       0.65172029       0.51476037 </v>
   <v>       0.64921296       0.51936694       0.56870840 </v>
   <v>       0.57377929       0.62644476       0.52231426 </v>
   <v>       0.61412355       0.53506939       0.44374257 </v>
   <v>       0.44441904       0.58802699       0.30780183 </v>
   <v>       0.73050146       0.49517448       0.47259477 </v>
   <v>       0.37478704       0.60232460       0.41595890 </v>
   <v>       0.59390088       0.61015133       0.64571874 </v>
   <v>       0.51718578       0.70481370       0.60526564 </v>
   <v>       0.46942477       0.58620918       0.62208570 </v>
   <v>       0.64629155       0.43526847       0.37723012 </v>
   <v>       0.54430101       0.50550825       0.33467815 </v>
   <v>       0.50609364       0.51624297       0.51917857 </v>
   <v>       0.42978297       0.48991422       0.38846664 </v>
   <v>       0.64016060       0.41154761       0.50158905 </v>
   <v>       0.53080637       0.42208181       0.43315444 </v>
   <v>       0.37848843       0.54738893       0.54075360 </v>
   <v>       0.31654678       0.49048475       0.44898076 </v>
   <v>       0.41665190       0.42336484       0.49606359 </v>
   <v>       0.55243090       0.49101652       0.64789842 </v>
   <v>       0.63759719       0.40017519       0.62845411 </v>
   <v>       0.52800611       0.39208894       0.55924304 </v>
   <v>       0.31285347       0.44428045       0.57015881 </v>
   <v>       0.43135301       0.45671664       0.62118041 </v>
   <v>       0.51630243       0.37816381       0.68407054 </v>
  </varray>
 </structure>
</modeling>
