<?xml version="1.0" encoding="ISO-8859-1"?>
<modeling>
 <generator>
  <i name="program" type="string">vasp </i>
  <i name="version" type="string">5.3.5  </i>
  <i name="subversion" type="string">31Mar14 (build Feb 01 2018 12:10:03) gamma-only                       parallel </i>
  <i name="platform" type="string">LinuxIFC </i>
  <i name="date" type="string">2019 03 24 </i>
  <i name="time" type="string">03:30:16 </i>
 </generator>
 <incar>
  <i type="string" name="PREC">normal</i>
  <i type="int" name="ISPIN">     2</i>
  <i type="int" name="IBRION">     2</i>
  <i type="int" name="NSW">  1000</i>
  <i type="int" name="ISIF">     2</i>
  <i name="POTIM">      0.10000000</i>
  <i type="logical" name="LPLANE"> T  </i>
  <i type="int" name="ISMEAR">     0</i>
  <i name="SIGMA">      0.00010000</i>
  <i type="logical" name="LWAVE"> F  </i>
  <i type="logical" name="LCHARG"> F  </i>
  <i type="logical" name="LVTOT"> F  </i>
  <i type="string" name="GGA"> PE</i>
 </incar>
 <kpoints>
  <varray name="kpointlist" >
   <v>       0.00000000       0.00000000       0.00000000 </v>
  </varray>
  <varray name="weights" >
   <v>       1.00000000 </v>
  </varray>
 </kpoints>
 <parameters>
  <separator name="general" >
   <i type="string" name="SYSTEM">unknown system</i>
   <i type="logical" name="LCOMPAT"> F  </i>
  </separator>
  <separator name="electronic" >
   <i type="string" name="PREC">normal</i>
   <i name="ENMAX">    249.84400000</i>
   <i name="ENAUG">    412.49600000</i>
   <i name="EDIFF">      0.00010000</i>
   <i type="int" name="IALGO">    38</i>
   <i type="int" name="IWAVPR">    11</i>
   <i type="int" name="NBANDS">   320</i>
   <i name="NELECT">    495.00000000</i>
   <i type="int" name="TURBO">     0</i>
   <i type="int" name="IRESTART">     0</i>
   <i type="int" name="NREBOOT">     0</i>
   <i type="int" name="NMIN">     0</i>
   <i name="EREF">      0.00000000</i>
   <separator name="electronic smearing" >
    <i type="int" name="ISMEAR">     0</i>
    <i name="SIGMA">      0.00010000</i>
    <i name="KSPACING">      0.50000000</i>
    <i type="logical" name="KGAMMA"> T  </i>
   </separator>
   <separator name="electronic projectors" >
    <i type="logical" name="LREAL"> F  </i>
    <v name="ROPT">      0.00000000</v>
    <i type="int" name="LMAXPAW">  -100</i>
    <i type="int" name="LMAXMIX">     2</i>
    <i type="logical" name="NLSPLINE"> F  </i>
   </separator>
   <separator name="electronic startup" >
    <i type="int" name="ISTART">     0</i>
    <i type="int" name="ICHARG">     2</i>
    <i type="int" name="INIWAV">     1</i>
   </separator>
   <separator name="electronic spin" >
    <i type="int" name="ISPIN">     2</i>
    <i type="logical" name="LNONCOLLINEAR"> F  </i>
    <v name="MAGMOM">      1.00000000      1.00000000      1.00000000      1.00000000      1.00000000      1.00000000      1.00000000      1.00000000      1.00000000      1.00000000      1.00000000      1.00000000      1.00000000      1.00000000      1.00000000      1.00000000      1.00000000      1.00000000      1.00000000      1.00000000
      1.00000000      1.00000000      1.00000000      1.00000000      1.00000000      1.00000000      1.00000000      1.00000000      1.00000000      1.00000000      1.00000000      1.00000000      1.00000000      1.00000000      1.00000000      1.00000000      1.00000000      1.00000000      1.00000000      1.00000000
      1.00000000      1.00000000      1.00000000      1.00000000      1.00000000</v>
    <i name="NUPDOWN">     -1.00000000</i>
    <i type="logical" name="LSORBIT"> F  </i>
    <v name="SAXIS">      0.00000000      0.00000000      1.00000000</v>
    <i type="logical" name="LSPIRAL"> F  </i>
    <v name="QSPIRAL">      0.00000000      0.00000000      0.00000000</v>
    <i type="logical" name="LZEROZ"> F  </i>
   </separator>
   <separator name="electronic exchange-correlation" >
    <i type="logical" name="LASPH"> F  </i>
    <i type="logical" name="LMETAGGA"> F  </i>
   </separator>
   <separator name="electronic convergence" >
    <i type="int" name="NELM">    60</i>
    <i type="int" name="NELMDL">    -5</i>
    <i type="int" name="NELMIN">     2</i>
    <i name="ENINI">    249.84400000</i>
    <separator name="electronic convergence detail" >
     <i type="logical" name="LDIAG"> T  </i>
     <i type="logical" name="LSUBROT"> F  </i>
     <i name="WEIMIN">      0.00100000</i>
     <i name="EBREAK">      0.00000008</i>
     <i name="DEPER">      0.30000000</i>
     <i type="int" name="NRMM">     4</i>
     <i name="TIME">      0.40000000</i>
    </separator>
   </separator>
   <separator name="electronic mixer" >
    <i name="AMIX">      0.40000000</i>
    <i name="BMIX">      1.00000000</i>
    <i name="AMIN">      0.10000000</i>
    <i name="AMIX_MAG">      1.60000000</i>
    <i name="BMIX_MAG">      1.00000000</i>
    <separator name="electronic mixer details" >
     <i type="int" name="IMIX">     4</i>
     <i type="int" name="MAXMIX">   -45</i>
     <i name="WC">    100.00000000</i>
     <i type="int" name="INIMIX">     1</i>
     <i type="int" name="MIXPRE">     1</i>
     <i type="int" name="MREMOVE">     5</i>
    </separator>
   </separator>
   <separator name="electronic dipolcorrection" >
    <i type="logical" name="LDIPOL"> F  </i>
    <i type="logical" name="LMONO"> F  </i>
    <i type="int" name="IDIPOL">     0</i>
    <i name="EPSILON">      1.00000000</i>
    <v name="DIPOL">   -100.00000000   -100.00000000   -100.00000000</v>
    <i name="EFIELD">      0.00000000</i>
   </separator>
  </separator>
  <separator name="grids" >
   <i type="int" name="NGX">    90</i>
   <i type="int" name="NGY">    90</i>
   <i type="int" name="NGZ">    90</i>
   <i type="int" name="NGXF">   180</i>
   <i type="int" name="NGYF">   180</i>
   <i type="int" name="NGZF">   180</i>
   <i type="logical" name="ADDGRID"> F  </i>
  </separator>
  <separator name="ionic" >
   <i type="int" name="NSW">  1000</i>
   <i type="int" name="IBRION">     2</i>
   <i type="int" name="ISIF">     2</i>
   <i name="PSTRESS">      0.00000000</i>
   <i name="EDIFFG">      0.00100000</i>
   <i type="int" name="NFREE">     1</i>
   <i name="POTIM">      0.10000000</i>
   <i name="SMASS">     -3.00000000</i>
   <i name="SCALEE">      1.00000000</i>
  </separator>
  <separator name="ionic md" >
   <i name="TEBEG">      0.00010000</i>
   <i name="TEEND">      0.00010000</i>
   <i type="int" name="NBLOCK">     1</i>
   <i type="int" name="KBLOCK">  1000</i>
   <i type="int" name="NPACO">   256</i>
   <i name="APACO">     16.00000000</i>
  </separator>
  <separator name="symmetry" >
   <i type="int" name="ISYM">     2</i>
   <i name="SYMPREC">      0.00001000</i>
  </separator>
  <separator name="dos" >
   <i type="logical" name="LORBIT"> F  </i>
   <v name="RWIGS">     -1.00000000</v>
   <i type="int" name="NEDOS">   301</i>
   <i name="EMIN">     10.00000000</i>
   <i name="EMAX">    -10.00000000</i>
   <i name="EFERMI">      0.00000000</i>
  </separator>
  <separator name="writing" >
   <i type="int" name="NWRITE">     2</i>
   <i type="logical" name="LWAVE"> F  </i>
   <i type="logical" name="LCHARG"> F  </i>
   <i type="logical" name="LPARD"> F  </i>
   <i type="logical" name="LVTOT"> F  </i>
   <i type="logical" name="LVHAR"> F  </i>
   <i type="logical" name="LELF"> F  </i>
   <i type="logical" name="LOPTICS"> F  </i>
   <v name="STM">      0.00000000      0.00000000      0.00000000      0.00000000      0.00000000      0.00000000      0.00000000</v>
  </separator>
  <separator name="performance" >
   <i type="int" name="NPAR">     4</i>
   <i type="int" name="NSIM">     4</i>
   <i type="int" name="NBLK">    -1</i>
   <i type="logical" name="LPLANE"> T  </i>
   <i type="logical" name="LSCALAPACK"> T  </i>
   <i type="logical" name="LSCAAWARE"> F  </i>
   <i type="logical" name="LSCALU"> F  </i>
   <i type="logical" name="LASYNC"> F  </i>
   <i type="logical" name="LORBITALREAL"> F  </i>
  </separator>
  <separator name="miscellaneous" >
   <i type="int" name="IDIOT">     3</i>
   <i type="logical" name="LMUSIC"> F  </i>
   <v name="POMASS">    107.86800000</v>
   <v name="DARWINR">      0.00000000</v>
   <v name="DARWINV">      1.00000000</v>
   <i type="logical" name="LCORR"> T  </i>
  </separator>
  <i type="logical" name="GGA_COMPAT"> T  </i>
  <i type="logical" name="LBERRY"> F  </i>
  <i type="int" name="ICORELEVEL">     0</i>
  <i type="logical" name="LDAU"> F  </i>
  <i type="int" name="I_CONSTRAINED_M">     0</i>
  <separator name="electronic exchange-correlation" >
   <i type="string" name="GGA">PE</i>
   <i type="int" name="VOSKOWN">     0</i>
   <i type="logical" name="LHFCALC"> F  </i>
   <i type="string" name="PRECFOCK"></i>
   <i type="logical" name="LSYMGRAD"> F  </i>
   <i type="logical" name="LHFONE"> F  </i>
   <i type="logical" name="LRHFCALC"> F  </i>
   <i type="logical" name="LTHOMAS"> F  </i>
   <i type="logical" name="LMODELHF"> F  </i>
   <i name="ENCUT4O">     -1.00000000</i>
   <i type="int" name="EXXOEP">     0</i>
   <i type="int" name="FOURORBIT">     0</i>
   <i name="AEXX">      0.00000000</i>
   <i name="HFALPHA">      0.00000000</i>
   <i name="MCALPHA">      0.00000000</i>
   <i name="ALDAX">      1.00000000</i>
   <i name="AGGAX">      1.00000000</i>
   <i name="ALDAC">      1.00000000</i>
   <i name="AGGAC">      1.00000000</i>
   <i type="int" name="NKREDX">     1</i>
   <i type="int" name="NKREDY">     1</i>
   <i type="int" name="NKREDZ">     1</i>
   <i type="logical" name="SHIFTRED"> F  </i>
   <i type="logical" name="ODDONLY"> F  </i>
   <i type="logical" name="EVENONLY"> F  </i>
   <i type="int" name="LMAXFOCK">     0</i>
   <i type="int" name="NMAXFOCKAE">     0</i>
   <i type="logical" name="LFOCKAEDFT"> F  </i>
   <i name="HFSCREEN">      0.00000000</i>
   <i name="HFSCREENC">      0.00000000</i>
   <i type="int" name="NBANDSGWLOW">     0</i>
  </separator>
  <separator name="vdW DFT" >
   <i type="logical" name="LUSE_VDW"> F  </i>
   <i name="Zab_VDW">     -0.84910000</i>
   <i name="PARAM1">      0.12340000</i>
   <i name="PARAM2">      1.00000000</i>
   <i name="PARAM3">      0.00000000</i>
  </separator>
  <separator name="model GW" >
   <i type="int" name="MODEL_GW">     0</i>
   <i name="MODEL_EPS0">    167.96836014</i>
   <i name="MODEL_ALPHA">      1.00000000</i>
  </separator>
  <separator name="linear response parameters" >
   <i type="logical" name="LEPSILON"> F  </i>
   <i type="logical" name="LRPA"> F  </i>
   <i type="logical" name="LNABLA"> F  </i>
   <i type="logical" name="LVEL"> F  </i>
   <i type="int" name="KINTER">     0</i>
   <i name="CSHIFT">      0.10000000</i>
   <i name="OMEGAMAX">     -1.00000000</i>
   <i name="DEG_THRESHOLD">      0.00200000</i>
  </separator>
  <separator name="orbital magnetization" >
   <i type="logical" name="NUCIND"> F  </i>
   <v name="MAGPOS">      0.00000000      0.00000000      0.00000000</v>
   <i type="logical" name="LNICSALL"> T  </i>
   <i type="logical" name="ORBITALMAG"> F  </i>
   <i type="logical" name="LMAGBLOCH"> F  </i>
   <i type="logical" name="LCHIMAG"> F  </i>
   <i type="logical" name="LGAUGE"> T  </i>
   <i type="int" name="MAGATOM">     0</i>
   <v name="MAGDIPOL">      0.00000000      0.00000000      0.00000000</v>
   <v name="AVECCONST">      0.00000000      0.00000000      0.00000000</v>
  </separator>
  <separator name="response functions" >
   <i type="logical" name="LADDER"> F  </i>
   <i type="logical" name="LFXC"> F  </i>
   <i type="logical" name="LHARTREE"> T  </i>
   <i type="int" name="IBSE">     0</i>
   <i type="logical" name="LTCTE"> F  </i>
   <i type="logical" name="LTETE"> F  </i>
   <i type="logical" name="LTRIPLET"> F  </i>
   <i type="logical" name="LFXCEPS"> F  </i>
   <i type="logical" name="LFXHEG"> F  </i>
   <i type="logical" name="L2ORDER"> F  </i>
   <i type="logical" name="LUSEW"> F  </i>
   <i name="ENCUTGW">     -2.00000000</i>
   <i name="ENCUTGWSOFT">     -2.00000000</i>
   <i name="ENCUTLF">     -1.00000000</i>
   <i type="int" name="LMAXMP2">    -1</i>
   <i name="SCISSOR">      0.00000000</i>
   <i type="int" name="NOMEGA">     0</i>
   <i type="int" name="NOMEGAR">     0</i>
   <i type="int" name="NBANDSGW">    -1</i>
   <i type="int" name="NBANDSO">    -1</i>
   <i type="int" name="NBANDSV">    -1</i>
   <i type="int" name="NELM">     1</i>
   <i type="int" name="DIM">     3</i>
   <i type="int" name="ANTIRES">     0</i>
   <i name="OMEGAMAX">    -30.00000000</i>
   <i name="OMEGAMIN">    -30.00000000</i>
   <i name="OMEGATL">   -200.00000000</i>
   <i type="int" name="OMEGAGRID">     0</i>
   <i name="CSHIFT">     -0.10000000</i>
   <i type="logical" name="SELFENERGY"> F  </i>
   <i type="logical" name="LSPECTRAL"> F  </i>
   <i type="logical" name="ODDONLYGW"> F  </i>
   <i type="logical" name="EVENONLYGW"> F  </i>
   <i type="int" name="NKREDLFX">     1</i>
   <i type="int" name="NKREDLFY">     1</i>
   <i type="int" name="NKREDLFZ">     1</i>
   <i type="int" name="MAXMEM">  1800</i>
   <i type="int" name="TELESCOPE">     0</i>
   <i type="int" name="TAUPAR">     1</i>
  </separator>
  <separator name="External order field" >
   <i name="OFIELD_KAPPA">      0.00000000</i>
   <v name="OFIELD_K">      0.00000000      0.00000000      0.00000000</v>
   <i name="OFIELD_Q6_NEAR">      0.00000000</i>
   <i name="OFIELD_Q6_FAR">      0.00000000</i>
   <i name="OFIELD_A">      0.00000000</i>
  </separator>
 </parameters>
 <atominfo>
  <atoms>      45 </atoms>
  <types>       1 </types>
  <array name="atoms" >
   <dimension dim="1">ion</dimension>
   <field type="string">element</field>
   <field type="int">atomtype</field>
   <set>
    <rc><c>Ag</c><c>   1</c></rc>
    <rc><c>Ag</c><c>   1</c></rc>
    <rc><c>Ag</c><c>   1</c></rc>
    <rc><c>Ag</c><c>   1</c></rc>
    <rc><c>Ag</c><c>   1</c></rc>
    <rc><c>Ag</c><c>   1</c></rc>
    <rc><c>Ag</c><c>   1</c></rc>
    <rc><c>Ag</c><c>   1</c></rc>
    <rc><c>Ag</c><c>   1</c></rc>
    <rc><c>Ag</c><c>   1</c></rc>
    <rc><c>Ag</c><c>   1</c></rc>
    <rc><c>Ag</c><c>   1</c></rc>
    <rc><c>Ag</c><c>   1</c></rc>
    <rc><c>Ag</c><c>   1</c></rc>
    <rc><c>Ag</c><c>   1</c></rc>
    <rc><c>Ag</c><c>   1</c></rc>
    <rc><c>Ag</c><c>   1</c></rc>
    <rc><c>Ag</c><c>   1</c></rc>
    <rc><c>Ag</c><c>   1</c></rc>
    <rc><c>Ag</c><c>   1</c></rc>
    <rc><c>Ag</c><c>   1</c></rc>
    <rc><c>Ag</c><c>   1</c></rc>
    <rc><c>Ag</c><c>   1</c></rc>
    <rc><c>Ag</c><c>   1</c></rc>
    <rc><c>Ag</c><c>   1</c></rc>
    <rc><c>Ag</c><c>   1</c></rc>
    <rc><c>Ag</c><c>   1</c></rc>
    <rc><c>Ag</c><c>   1</c></rc>
    <rc><c>Ag</c><c>   1</c></rc>
    <rc><c>Ag</c><c>   1</c></rc>
    <rc><c>Ag</c><c>   1</c></rc>
    <rc><c>Ag</c><c>   1</c></rc>
    <rc><c>Ag</c><c>   1</c></rc>
    <rc><c>Ag</c><c>   1</c></rc>
    <rc><c>Ag</c><c>   1</c></rc>
    <rc><c>Ag</c><c>   1</c></rc>
    <rc><c>Ag</c><c>   1</c></rc>
    <rc><c>Ag</c><c>   1</c></rc>
    <rc><c>Ag</c><c>   1</c></rc>
    <rc><c>Ag</c><c>   1</c></rc>
    <rc><c>Ag</c><c>   1</c></rc>
    <rc><c>Ag</c><c>   1</c></rc>
    <rc><c>Ag</c><c>   1</c></rc>
    <rc><c>Ag</c><c>   1</c></rc>
    <rc><c>Ag</c><c>   1</c></rc>
   </set>
  </array>
  <array name="atomtypes" >
   <dimension dim="1">type</dimension>
   <field type="int">atomspertype</field>
   <field type="string">element</field>
   <field>mass</field>
   <field>valence</field>
   <field type="string">pseudopotential</field>
   <set>
    <rc><c>  45</c><c>Ag</c><c>    107.86800000</c><c>     11.00000000</c><c>  PAW_PBE Ag 02Apr2005                  </c></rc>
   </set>
  </array>
 </atominfo>
 <structure name="initialpos" >
  <crystal>
   <varray name="basis" >
    <v>      23.26820681       0.00000000       0.00000000 </v>
    <v>       0.00000000      23.26820681       0.00000000 </v>
    <v>       0.00000000       0.00000000      23.26820681 </v>
   </varray>
   <i name="volume">  12597.62701064 </i>
   <varray name="rec_basis" >
    <v>       0.04297710       0.00000000       0.00000000 </v>
    <v>       0.00000000       0.04297710       0.00000000 </v>
    <v>       0.00000000       0.00000000       0.04297710 </v>
   </varray>
  </crystal>
  <varray name="positions" >
   <v>       0.39125654       0.74799848       0.58213780 </v>
   <v>       0.61993270       0.55994237       0.63486978 </v>
   <v>       0.48085689       0.75149038       0.66080724 </v>
   <v>       0.67006913       0.42945043       0.36184253 </v>
   <v>       0.43289690       0.64912600       0.62987778 </v>
   <v>       0.51658130       0.63003186       0.52802472 </v>
   <v>       0.61201772       0.74864811       0.49657053 </v>
   <v>       0.38443085       0.54324211       0.60525774 </v>
   <v>       0.62837036       0.36248969       0.64398830 </v>
   <v>       0.45679254       0.48736415       0.53051503 </v>
   <v>       0.63159693       0.64371866       0.44547945 </v>
   <v>       0.56192683       0.46268009       0.57151055 </v>
   <v>       0.62927197       0.35581216       0.44575588 </v>
   <v>       0.43751765       0.61893379       0.43348907 </v>
   <v>       0.45199395       0.50765311       0.40173271 </v>
   <v>       0.52707566       0.41449508       0.47327450 </v>
   <v>       0.69346627       0.45216040       0.47623038 </v>
   <v>       0.55303841       0.65571951       0.66140845 </v>
   <v>       0.54030937       0.58994795       0.37637611 </v>
   <v>       0.52690974       0.69688189       0.43059411 </v>
   <v>       0.55403190       0.53238306       0.47741221 </v>
   <v>       0.51063776       0.37540835       0.63388654 </v>
   <v>       0.67504376       0.46042741       0.59439212 </v>
   <v>       0.66315703       0.55558290       0.52402622 </v>
   <v>       0.40210176       0.41026213       0.60674351 </v>
   <v>       0.52222146       0.29868522       0.43822108 </v>
   <v>       0.37256398       0.64100747       0.53091938 </v>
   <v>       0.65137001       0.53761943       0.40450816 </v>
   <v>       0.46611779       0.39019872       0.37652243 </v>
   <v>       0.50152640       0.75050115       0.54008137 </v>
   <v>       0.46049098       0.33247917       0.53371785 </v>
   <v>       0.41663727       0.72978293       0.46484025 </v>
   <v>       0.57605291       0.32180264       0.54588858 </v>
   <v>       0.62459237       0.65616453       0.56765949 </v>
   <v>       0.34413350       0.34491849       0.52996979 </v>
   <v>       0.38548435       0.42321014       0.45388989 </v>
   <v>       0.55745020       0.47165298       0.36353962 </v>
   <v>       0.57837654       0.46216424       0.68882817 </v>
   <v>       0.45701539       0.47141639       0.68527927 </v>
   <v>       0.36222609       0.53959370       0.47718692 </v>
   <v>       0.50195015       0.55749567       0.62196006 </v>
   <v>       0.69119612       0.35489352       0.54326045 </v>
   <v>       0.31541025       0.45949987       0.54732014 </v>
   <v>       0.58948446       0.75979261       0.61533345 </v>
   <v>       0.57454504       0.35540022       0.34499955 </v>
  </varray>
 </structure>
 <calculation>
  <scstep>
   <time name="dav">    5.06    5.06</time>
   <time name="total">    5.29    5.32</time>
   <energy>
    <i name="alphaZ">    136.72579671 </i>
    <i name="ewald"> 128324.14444057 </i>
    <i name="hartreedc">-173161.27363102 </i>
    <i name="XCdc">   -488.32707559 </i>
    <i name="pawpsdc">  45151.74801313 </i>
    <i name="pawaedc"> -43076.90739955 </i>
    <i name="eentropy">     -0.00000000 </i>
    <i name="bandstr">    620.54856050 </i>
    <i name="atom">  46673.93835389 </i>
    <i name="e_fr_energy">   4180.59705864 </i>
    <i name="e_wo_entrp">   4180.59705864 </i>
    <i name="e_0_energy">   4180.59705864 </i>
   </energy>
  </scstep>
  <scstep>
   <time name="dav">    7.46    7.46</time>
   <time name="total">    7.46    7.47</time>
   <energy>
    <i name="e_fr_energy">    704.15779630 </i>
    <i name="e_wo_entrp">    704.15779630 </i>
    <i name="e_0_energy">    704.15779630 </i>
   </energy>
  </scstep>
  <scstep>
   <time name="dav">    5.98    5.98</time>
   <time name="total">    5.98    5.99</time>
   <energy>
    <i name="e_fr_energy">    -64.13854150 </i>
    <i name="e_wo_entrp">    -64.13854150 </i>
    <i name="e_0_energy">    -64.13854150 </i>
   </energy>
  </scstep>
  <scstep>
   <time name="dav">    5.39    5.40</time>
   <time name="total">    5.40    6.44</time>
   <energy>
    <i name="e_fr_energy">    -96.51176034 </i>
    <i name="e_wo_entrp">    -96.51176034 </i>
    <i name="e_0_energy">    -96.51176034 </i>
   </energy>
  </scstep>
  <scstep>
   <time name="dav">    5.56    5.57</time>
   <time name="total">    5.70    5.71</time>
   <energy>
    <i name="e_fr_energy">    -96.99948146 </i>
    <i name="e_wo_entrp">    -96.99948146 </i>
    <i name="e_0_energy">    -96.99948146 </i>
   </energy>
  </scstep>
  <scstep>
   <time name="dav">    5.09    5.09</time>
   <time name="total">    5.44    5.45</time>
   <energy>
    <i name="e_fr_energy">    -43.58345704 </i>
    <i name="e_wo_entrp">    -43.58345704 </i>
    <i name="e_0_energy">    -43.58345704 </i>
   </energy>
  </scstep>
  <scstep>
   <time name="dav">    5.24    5.24</time>
   <time name="total">    5.59    5.60</time>
   <energy>
    <i name="e_fr_energy">    -36.17913732 </i>
    <i name="e_wo_entrp">    -36.17913732 </i>
    <i name="e_0_energy">    -36.17913732 </i>
   </energy>
  </scstep>
  <scstep>
   <time name="dav">    5.24    5.24</time>
   <time name="total">    5.59    7.31</time>
   <energy>
    <i name="e_fr_energy">    -29.11951569 </i>
    <i name="e_wo_entrp">    -29.11951569 </i>
    <i name="e_0_energy">    -29.11951569 </i>
   </energy>
  </scstep>
  <scstep>
   <time name="dav">    5.39    5.39</time>
   <time name="total">    5.74    5.75</time>
   <energy>
    <i name="e_fr_energy">    -34.41925361 </i>
    <i name="e_wo_entrp">    -34.41925361 </i>
    <i name="e_0_energy">    -34.41925361 </i>
   </energy>
  </scstep>
  <scstep>
   <time name="dav">    5.21    5.21</time>
   <time name="total">    5.56    5.60</time>
   <energy>
    <i name="e_fr_energy">    -45.79354942 </i>
    <i name="e_wo_entrp">    -45.79354942 </i>
    <i name="e_0_energy">    -45.79354942 </i>
   </energy>
  </scstep>
  <scstep>
   <time name="dav">    5.22    5.22</time>
   <time name="total">    5.56    5.60</time>
   <energy>
    <i name="e_fr_energy">    -56.88830309 </i>
    <i name="e_wo_entrp">    -56.88830309 </i>
    <i name="e_0_energy">    -56.88830309 </i>
   </energy>
  </scstep>
  <scstep>
   <time name="dav">    5.24    5.24</time>
   <time name="total">    5.59    5.62</time>
   <energy>
    <i name="e_fr_energy">    -66.43185040 </i>
    <i name="e_wo_entrp">    -66.43185040 </i>
    <i name="e_0_energy">    -66.43185040 </i>
   </energy>
  </scstep>
  <scstep>
   <time name="dav">    5.25    5.25</time>
   <time name="total">    5.60    6.66</time>
   <energy>
    <i name="e_fr_energy">    -77.36672269 </i>
    <i name="e_wo_entrp">    -77.36672269 </i>
    <i name="e_0_energy">    -77.36672269 </i>
   </energy>
  </scstep>
  <scstep>
   <time name="dav">    5.31    5.31</time>
   <time name="total">    5.66    5.78</time>
   <energy>
    <i name="e_fr_energy">    -81.06364692 </i>
    <i name="e_wo_entrp">    -81.06364692 </i>
    <i name="e_0_energy">    -81.06364692 </i>
   </energy>
  </scstep>
  <scstep>
   <time name="dav">    5.14    5.15</time>
   <time name="total">    5.50    5.51</time>
   <energy>
    <i name="e_fr_energy">    -86.53900639 </i>
    <i name="e_wo_entrp">    -86.53900639 </i>
    <i name="e_0_energy">    -86.53900639 </i>
   </energy>
  </scstep>
  <scstep>
   <time name="dav">    5.25    5.26</time>
   <time name="total">    5.61    5.66</time>
   <energy>
    <i name="e_fr_energy">    -88.11878999 </i>
    <i name="e_wo_entrp">    -88.11878999 </i>
    <i name="e_0_energy">    -88.11878999 </i>
   </energy>
  </scstep>
  <scstep>
   <time name="dav">    5.12    5.12</time>
   <time name="total">    5.48    5.49</time>
   <energy>
    <i name="e_fr_energy">    -90.66083923 </i>
    <i name="e_wo_entrp">    -90.66083923 </i>
    <i name="e_0_energy">    -90.66083923 </i>
   </energy>
  </scstep>
  <scstep>
   <time name="dav">    5.21    5.22</time>
   <time name="total">    5.57    5.60</time>
   <energy>
    <i name="e_fr_energy">    -92.71926242 </i>
    <i name="e_wo_entrp">    -92.71926242 </i>
    <i name="e_0_energy">    -92.71926242 </i>
   </energy>
  </scstep>
  <scstep>
   <time name="dav">    5.24    5.24</time>
   <time name="total">    5.59    5.87</time>
   <energy>
    <i name="e_fr_energy">    -93.89970099 </i>
    <i name="e_wo_entrp">    -93.89970099 </i>
    <i name="e_0_energy">    -93.89970099 </i>
   </energy>
  </scstep>
  <scstep>
   <time name="dav">    5.22    5.23</time>
   <time name="total">    5.58    6.44</time>
   <energy>
    <i name="e_fr_energy">    -94.95498044 </i>
    <i name="e_wo_entrp">    -94.95498044 </i>
    <i name="e_0_energy">    -94.95498044 </i>
   </energy>
  </scstep>
  <scstep>
   <time name="dav">    5.28    5.28</time>
   <time name="total">    5.64    5.64</time>
   <energy>
    <i name="e_fr_energy">    -95.32336769 </i>
    <i name="e_wo_entrp">    -95.32336769 </i>
    <i name="e_0_energy">    -95.32336769 </i>
   </energy>
  </scstep>
  <scstep>
   <time name="dav">    4.38    4.39</time>
   <time name="total">    4.74    4.79</time>
   <energy>
    <i name="e_fr_energy">    -95.44314860 </i>
    <i name="e_wo_entrp">    -95.44314860 </i>
    <i name="e_0_energy">    -95.44314860 </i>
   </energy>
  </scstep>
  <scstep>
   <time name="dav">    4.34    4.34</time>
   <time name="total">    4.69    6.59</time>
   <energy>
    <i name="e_fr_energy">    -95.50753070 </i>
    <i name="e_wo_entrp">    -95.50753070 </i>
    <i name="e_0_energy">    -95.50753070 </i>
   </energy>
  </scstep>
  <scstep>
   <time name="dav">    4.00    4.00</time>
   <time name="total">    4.36    4.37</time>
   <energy>
    <i name="e_fr_energy">    -95.51600738 </i>
    <i name="e_wo_entrp">    -95.51600738 </i>
    <i name="e_0_energy">    -95.51600738 </i>
   </energy>
  </scstep>
  <scstep>
   <time name="dav">    3.94    3.94</time>
   <time name="total">    4.30    4.45</time>
   <energy>
    <i name="e_fr_energy">    -95.52751280 </i>
    <i name="e_wo_entrp">    -95.52751280 </i>
    <i name="e_0_energy">    -95.52751280 </i>
   </energy>
  </scstep>
  <scstep>
   <time name="dav">    4.00    4.00</time>
   <time name="total">    4.36    4.37</time>
   <energy>
    <i name="e_fr_energy">    -95.53332982 </i>
    <i name="e_wo_entrp">    -95.53332982 </i>
    <i name="e_0_energy">    -95.53332982 </i>
   </energy>
  </scstep>
  <scstep>
   <time name="dav">    3.93    3.94</time>
   <time name="total">    4.30    4.30</time>
   <energy>
    <i name="e_fr_energy">    -95.53760786 </i>
    <i name="e_wo_entrp">    -95.53760786 </i>
    <i name="e_0_energy">    -95.53760786 </i>
   </energy>
  </scstep>
  <scstep>
   <time name="dav">    3.84    3.84</time>
   <time name="total">    4.20    4.21</time>
   <energy>
    <i name="e_fr_energy">    -95.54000524 </i>
    <i name="e_wo_entrp">    -95.54000524 </i>
    <i name="e_0_energy">    -95.54000524 </i>
   </energy>
  </scstep>
  <scstep>
   <time name="dav">    3.80    3.80</time>
   <time name="total">    4.16    4.67</time>
   <energy>
    <i name="e_fr_energy">    -95.54060638 </i>
    <i name="e_wo_entrp">    -95.54060638 </i>
    <i name="e_0_energy">    -95.54060638 </i>
   </energy>
  </scstep>
  <scstep>
   <time name="dav">    3.74    3.74</time>
   <time name="total">    4.10    4.11</time>
   <energy>
    <i name="e_fr_energy">    -95.54078119 </i>
    <i name="e_wo_entrp">    -95.54078119 </i>
    <i name="e_0_energy">    -95.54078119 </i>
   </energy>
  </scstep>
  <scstep>
   <time name="dav">    3.70    3.70</time>
   <time name="total">    3.92    4.19</time>
   <energy>
    <i name="alphaZ">    136.72579671 </i>
    <i name="ewald"> 128324.14444057 </i>
    <i name="hartreedc">-173074.95869535 </i>
    <i name="XCdc">   -506.23639223 </i>
    <i name="pawpsdc">  49253.48908250 </i>
    <i name="pawaedc"> -47272.27411169 </i>
    <i name="eentropy">      0.00000000 </i>
    <i name="bandstr">  -3630.36933910 </i>
    <i name="atom">  46673.93835389 </i>
    <i name="e_fr_energy">    -95.54086471 </i>
    <i name="e_wo_entrp">    -95.54086471 </i>
    <i name="e_0_energy">    -95.54086471 </i>
   </energy>
  </scstep>
  <structure>
   <crystal>
    <varray name="basis" >
     <v>      23.26820681       0.00000000       0.00000000 </v>
     <v>       0.00000000      23.26820681       0.00000000 </v>
     <v>       0.00000000       0.00000000      23.26820681 </v>
    </varray>
    <i name="volume">  12597.62701064 </i>
    <varray name="rec_basis" >
     <v>       0.04297710       0.00000000       0.00000000 </v>
     <v>       0.00000000       0.04297710       0.00000000 </v>
     <v>       0.00000000       0.00000000       0.04297710 </v>
    </varray>
   </crystal>
   <varray name="positions" >
    <v>       0.39125654       0.74799848       0.58213780 </v>
    <v>       0.61993270       0.55994237       0.63486978 </v>
    <v>       0.48085689       0.75149038       0.66080724 </v>
    <v>       0.67006913       0.42945043       0.36184253 </v>
    <v>       0.43289690       0.64912600       0.62987778 </v>
    <v>       0.51658130       0.63003186       0.52802472 </v>
    <v>       0.61201772       0.74864811       0.49657053 </v>
    <v>       0.38443085       0.54324211       0.60525774 </v>
    <v>       0.62837036       0.36248969       0.64398830 </v>
    <v>       0.45679254       0.48736415       0.53051503 </v>
    <v>       0.63159693       0.64371866       0.44547945 </v>
    <v>       0.56192683       0.46268009       0.57151055 </v>
    <v>       0.62927197       0.35581216       0.44575588 </v>
    <v>       0.43751765       0.61893379       0.43348907 </v>
    <v>       0.45199395       0.50765311       0.40173271 </v>
    <v>       0.52707566       0.41449508       0.47327450 </v>
    <v>       0.69346627       0.45216040       0.47623038 </v>
    <v>       0.55303841       0.65571951       0.66140845 </v>
    <v>       0.54030937       0.58994795       0.37637611 </v>
    <v>       0.52690974       0.69688189       0.43059411 </v>
    <v>       0.55403190       0.53238306       0.47741221 </v>
    <v>       0.51063776       0.37540835       0.63388654 </v>
    <v>       0.67504376       0.46042741       0.59439212 </v>
    <v>       0.66315703       0.55558290       0.52402622 </v>
    <v>       0.40210176       0.41026213       0.60674351 </v>
    <v>       0.52222146       0.29868522       0.43822108 </v>
    <v>       0.37256398       0.64100747       0.53091938 </v>
    <v>       0.65137001       0.53761943       0.40450816 </v>
    <v>       0.46611779       0.39019872       0.37652243 </v>
    <v>       0.50152640       0.75050115       0.54008137 </v>
    <v>       0.46049098       0.33247917       0.53371785 </v>
    <v>       0.41663727       0.72978293       0.46484025 </v>
    <v>       0.57605291       0.32180264       0.54588858 </v>
    <v>       0.62459237       0.65616453       0.56765949 </v>
    <v>       0.34413350       0.34491849       0.52996979 </v>
    <v>       0.38548435       0.42321014       0.45388989 </v>
    <v>       0.55745020       0.47165298       0.36353962 </v>
    <v>       0.57837654       0.46216424       0.68882817 </v>
    <v>       0.45701539       0.47141639       0.68527927 </v>
    <v>       0.36222609       0.53959370       0.47718692 </v>
    <v>       0.50195015       0.55749567       0.62196006 </v>
    <v>       0.69119612       0.35489352       0.54326045 </v>
    <v>       0.31541025       0.45949987       0.54732014 </v>
    <v>       0.58948446       0.75979261       0.61533345 </v>
    <v>       0.57454504       0.35540022       0.34499955 </v>
   </varray>
  </structure>
  <varray name="forces" >
   <v>      -0.35259998       0.14291900      -0.01298657 </v>
   <v>       0.20637957      -0.12089697       0.14547083 </v>
   <v>      -0.10324988       0.23484500       0.10081255 </v>
   <v>      -0.00589185      -0.16111114      -0.22293687 </v>
   <v>      -0.02986739       0.20853799       0.34295920 </v>
   <v>      -0.41535236      -0.11468590       0.19481096 </v>
   <v>       0.15715396       0.24678089       0.00609884 </v>
   <v>      -0.35348280      -0.16227332       0.08897047 </v>
   <v>       0.01467647      -0.11563600       0.16812535 </v>
   <v>      -0.52714988       0.38454505      -0.04243260 </v>
   <v>      -0.10948259       0.03396322       0.18798234 </v>
   <v>       0.47078254      -0.08196145       0.42964481 </v>
   <v>       0.38436920      -0.33691402      -0.15588513 </v>
   <v>       0.00698825       0.09494005      -0.17489037 </v>
   <v>       0.03363363      -0.13752119      -0.02668807 </v>
   <v>      -0.09447817      -0.40222573      -0.38429596 </v>
   <v>       0.12405353       0.03865016      -0.02554590 </v>
   <v>      -0.08428767       0.14820313       0.25896049 </v>
   <v>       0.09286015       0.11758009      -0.18268487 </v>
   <v>      -0.05287243       0.51839920      -0.31304777 </v>
   <v>       0.14181319       0.03902241      -0.34335642 </v>
   <v>      -0.04376057      -0.23947401       0.22373423 </v>
   <v>       0.47495287       0.19361511       0.40438526 </v>
   <v>       0.31910195      -0.00760999      -0.14524818 </v>
   <v>      -0.28920414      -0.10844772       0.09666031 </v>
   <v>      -0.00151653      -0.11197482      -0.15578459 </v>
   <v>      -0.18825076       0.21573351       0.17053164 </v>
   <v>       0.10909173      -0.14946844      -0.22425603 </v>
   <v>      -0.12368255      -0.24399917      -0.33628015 </v>
   <v>       0.03839207       0.31022676       0.11272720 </v>
   <v>      -0.39711238      -0.02292167      -0.03405846 </v>
   <v>      -0.25740126       0.22420048      -0.11939538 </v>
   <v>       0.00198264      -0.04209245       0.01039826 </v>
   <v>       0.36932063       0.30582373       0.03663641 </v>
   <v>      -0.27939399      -0.51224268      -0.03490374 </v>
   <v>      -0.05135400      -0.13517482       0.12747611 </v>
   <v>       0.17651407       0.02824266      -0.13223979 </v>
   <v>      -0.11183824       0.16915618       0.08675234 </v>
   <v>       0.14741456       0.06877056       0.32066151 </v>
   <v>      -0.14450657      -0.10937213      -0.16394397 </v>
   <v>       0.36333517      -0.32337155       0.00171999 </v>
   <v>       0.21230096      -0.26082862       0.08921486 </v>
   <v>      -0.17935035       0.01986232      -0.01504109 </v>
   <v>       0.30496624       0.24900815       0.01079736 </v>
   <v>       0.04600299      -0.09282189      -0.36962940 </v>
  </varray>
  <varray name="stress" >
   <v>       0.01474438       0.05279458       0.02767262 </v>
   <v>       0.05279458       0.67509008       0.43839895 </v>
   <v>       0.02767263       0.43839895      -0.10504694 </v>
  </varray>
  <energy>
   <i name="e_fr_energy">    -95.54086471 </i>
   <i name="e_wo_entrp">    -95.54086471 </i>
   <i name="e_0_energy">      0.00000000 </i>
  </energy>
  <time name="totalsc">  172.25  180.54</time>
 </calculation>
 <calculation>
  <scstep>
   <time name="dav">    5.22    5.23</time>
   <time name="total">    5.59    5.63</time>
   <energy>
    <i name="alphaZ">    136.72579671 </i>
    <i name="ewald"> 128151.61623399 </i>
    <i name="hartreedc">-172903.25400367 </i>
    <i name="XCdc">   -506.40194909 </i>
    <i name="pawpsdc">  49253.46379603 </i>
    <i name="pawaedc"> -47272.24902692 </i>
    <i name="eentropy">      0.00000000 </i>
    <i name="bandstr">  -3629.43869950 </i>
    <i name="atom">  46673.93835389 </i>
    <i name="e_fr_energy">    -95.59949857 </i>
    <i name="e_wo_entrp">    -95.59949857 </i>
    <i name="e_0_energy">    -95.59949857 </i>
   </energy>
  </scstep>
  <scstep>
   <time name="dav">    5.32    5.32</time>
   <time name="total">    5.68    5.68</time>
   <energy>
    <i name="e_fr_energy">    -95.60141712 </i>
    <i name="e_wo_entrp">    -95.60141712 </i>
    <i name="e_0_energy">    -95.60141712 </i>
   </energy>
  </scstep>
  <scstep>
   <time name="dav">    4.21    4.21</time>
   <time name="total">    4.43    4.54</time>
   <energy>
    <i name="alphaZ">    136.72579671 </i>
    <i name="ewald"> 128151.61623399 </i>
    <i name="hartreedc">-172904.27851248 </i>
    <i name="XCdc">   -506.37899686 </i>
    <i name="pawpsdc">  49238.99921891 </i>
    <i name="pawaedc"> -47257.54691490 </i>
    <i name="eentropy">      0.00000000 </i>
    <i name="bandstr">  -3628.67653926 </i>
    <i name="atom">  46673.93835389 </i>
    <i name="e_fr_energy">    -95.60136000 </i>
    <i name="e_wo_entrp">    -95.60136000 </i>
    <i name="e_0_energy">    -95.60136000 </i>
   </energy>
  </scstep>
  <structure>
   <crystal>
    <varray name="basis" >
     <v>      23.26820681       0.00000000       0.00000000 </v>
     <v>       0.00000000      23.26820681       0.00000000 </v>
     <v>       0.00000000       0.00000000      23.26820681 </v>
    </varray>
    <i name="volume">  12597.62701064 </i>
    <varray name="rec_basis" >
     <v>       0.04297710       0.00000000       0.00000000 </v>
     <v>       0.00000000       0.04297710       0.00000000 </v>
     <v>       0.00000000       0.00000000       0.04297710 </v>
    </varray>
   </crystal>
   <varray name="positions" >
    <v>       0.39111033       0.74805774       0.58213242 </v>
    <v>       0.62001828       0.55989224       0.63493010 </v>
    <v>       0.48081408       0.75158776       0.66084905 </v>
    <v>       0.67006669       0.42938362       0.36175008 </v>
    <v>       0.43288451       0.64921247       0.63001999 </v>
    <v>       0.51640906       0.62998430       0.52810551 </v>
    <v>       0.61208289       0.74875045       0.49657306 </v>
    <v>       0.38428427       0.54317482       0.60529463 </v>
    <v>       0.62837645       0.36244174       0.64405802 </v>
    <v>       0.45657395       0.48752360       0.53049743 </v>
    <v>       0.63155153       0.64373274       0.44555740 </v>
    <v>       0.56212205       0.46264610       0.57168871 </v>
    <v>       0.62943135       0.35567246       0.44569124 </v>
    <v>       0.43752055       0.61897316       0.43341655 </v>
    <v>       0.45200789       0.50759608       0.40172164 </v>
    <v>       0.52703649       0.41432829       0.47311515 </v>
    <v>       0.69351772       0.45217642       0.47621978 </v>
    <v>       0.55300346       0.65578096       0.66151583 </v>
    <v>       0.54034787       0.58999671       0.37630035 </v>
    <v>       0.52688781       0.69709685       0.43046430 </v>
    <v>       0.55409070       0.53239924       0.47726983 </v>
    <v>       0.51061962       0.37530905       0.63397932 </v>
    <v>       0.67524071       0.46050770       0.59455981 </v>
    <v>       0.66328935       0.55557975       0.52396599 </v>
    <v>       0.40198184       0.41021716       0.60678359 </v>
    <v>       0.52222083       0.29863879       0.43815648 </v>
    <v>       0.37248591       0.64109693       0.53099010 </v>
    <v>       0.65141525       0.53755745       0.40441517 </v>
    <v>       0.46606650       0.39009754       0.37638299 </v>
    <v>       0.50154232       0.75062979       0.54012812 </v>
    <v>       0.46032631       0.33246966       0.53370372 </v>
    <v>       0.41653054       0.72987590       0.46479075 </v>
    <v>       0.57605374       0.32178519       0.54589289 </v>
    <v>       0.62474551       0.65629135       0.56767468 </v>
    <v>       0.34401764       0.34470608       0.52995532 </v>
    <v>       0.38546306       0.42315409       0.45394275 </v>
    <v>       0.55752339       0.47166469       0.36348479 </v>
    <v>       0.57833016       0.46223439       0.68886414 </v>
    <v>       0.45707652       0.47144491       0.68541223 </v>
    <v>       0.36216617       0.53954835       0.47711894 </v>
    <v>       0.50210081       0.55736158       0.62196078 </v>
    <v>       0.69128415       0.35478536       0.54329744 </v>
    <v>       0.31533588       0.45950811       0.54731390 </v>
    <v>       0.58961092       0.75989587       0.61533792 </v>
    <v>       0.57456411       0.35536173       0.34484627 </v>
   </varray>
  </structure>
  <varray name="forces" >
   <v>      -0.32633221       0.13676826      -0.01114742 </v>
   <v>       0.20492344      -0.09321827       0.13017666 </v>
   <v>      -0.09334541       0.23000460       0.08940198 </v>
   <v>      -0.00264116      -0.15874757      -0.21583055 </v>
   <v>      -0.02405101       0.17646037       0.32176587 </v>
   <v>      -0.39192408      -0.10106624       0.18076007 </v>
   <v>       0.14608879       0.23842429       0.00416879 </v>
   <v>      -0.32998947      -0.13918489       0.09619149 </v>
   <v>       0.01436467      -0.10566985       0.15472474 </v>
   <v>      -0.43979324       0.34897914      -0.04400003 </v>
   <v>      -0.11370207       0.02536866       0.18012386 </v>
   <v>       0.41147266      -0.08588245       0.34707178 </v>
   <v>       0.36530586      -0.32664076      -0.15205922 </v>
   <v>       0.00443979       0.09389489      -0.16083177 </v>
   <v>       0.03691971      -0.13341197      -0.02333610 </v>
   <v>      -0.09288447      -0.34846335      -0.32871782 </v>
   <v>       0.11768582       0.02298210      -0.01974404 </v>
   <v>      -0.07378781       0.13893676       0.23706434 </v>
   <v>       0.08824125       0.11855797      -0.17595567 </v>
   <v>      -0.05403395       0.48804829      -0.28412274 </v>
   <v>       0.12830820       0.01730370      -0.30399226 </v>
   <v>      -0.05022173      -0.22607615       0.20865061 </v>
   <v>       0.46666785       0.17479472       0.38599984 </v>
   <v>       0.30025795      -0.00003911      -0.13049794 </v>
   <v>      -0.26736254      -0.09899866       0.09984777 </v>
   <v>       0.00111893      -0.10733825      -0.14942525 </v>
   <v>      -0.17490423       0.19290944       0.15748203 </v>
   <v>       0.10788617      -0.13478223      -0.21584525 </v>
   <v>      -0.12003418      -0.23065475      -0.32449969 </v>
   <v>       0.02851677       0.29618538       0.10395974 </v>
   <v>      -0.36628722      -0.02154647      -0.03432387 </v>
   <v>      -0.24177599       0.21183129      -0.10555594 </v>
   <v>      -0.00709296      -0.03284338       0.00391480 </v>
   <v>       0.33974182       0.27685458       0.04339657 </v>
   <v>      -0.27414521      -0.48080724      -0.03112180 </v>
   <v>      -0.04425286      -0.14011520       0.12316332 </v>
   <v>       0.16237023       0.02208430      -0.12976052 </v>
   <v>      -0.10529580       0.15676109       0.09314298 </v>
   <v>       0.13087011       0.05373183       0.29600072 </v>
   <v>      -0.14245101      -0.08554054      -0.15931826 </v>
   <v>       0.32790209      -0.28928935       0.00341992 </v>
   <v>       0.19782859      -0.23718537       0.08806874 </v>
   <v>      -0.17234894       0.00669917      -0.01741807 </v>
   <v>       0.28249273       0.23844857       0.01364966 </v>
   <v>       0.04525414      -0.08852737      -0.34464207 </v>
  </varray>
  <varray name="stress" >
   <v>      -0.08600585       0.05382385       0.02708787 </v>
   <v>       0.05382385       0.56870235       0.42725945 </v>
   <v>       0.02708787       0.42725945      -0.20068953 </v>
  </varray>
  <energy>
   <i name="e_fr_energy">    -95.60136000 </i>
   <i name="e_wo_entrp">    -95.60136000 </i>
   <i name="e_0_energy">      0.00000000 </i>
  </energy>
  <time name="totalsc">   25.65   27.63</time>
 </calculation>
 <calculation>
  <scstep>
   <time name="dav">    5.10    5.10</time>
   <time name="total">    5.46    5.47</time>
   <energy>
    <i name="alphaZ">    136.72579671 </i>
    <i name="ewald"> 127635.52743795 </i>
    <i name="hartreedc">-172391.01511866 </i>
    <i name="XCdc">   -506.86217205 </i>
    <i name="pawpsdc">  49229.84716539 </i>
    <i name="pawaedc"> -47248.24894430 </i>
    <i name="eentropy">      0.00000000 </i>
    <i name="bandstr">  -3625.65627795 </i>
    <i name="atom">  46673.93835389 </i>
    <i name="e_fr_energy">    -95.74375902 </i>
    <i name="e_wo_entrp">    -95.74375902 </i>
    <i name="e_0_energy">    -95.74375902 </i>
   </energy>
  </scstep>
  <scstep>
   <time name="dav">    5.26    5.26</time>
   <time name="total">    5.61    5.62</time>
   <energy>
    <i name="e_fr_energy">    -95.76086082 </i>
    <i name="e_wo_entrp">    -95.76086082 </i>
    <i name="e_0_energy">    -95.76086082 </i>
   </energy>
  </scstep>
  <scstep>
   <time name="dav">    5.24    5.25</time>
   <time name="total">    5.60    5.62</time>
   <energy>
    <i name="e_fr_energy">    -95.76035258 </i>
    <i name="e_wo_entrp">    -95.76035258 </i>
    <i name="e_0_energy">    -95.76035258 </i>
   </energy>
  </scstep>
  <scstep>
   <time name="dav">    5.32    5.32</time>
   <time name="total">    5.67    5.82</time>
   <energy>
    <i name="e_fr_energy">    -95.76005624 </i>
    <i name="e_wo_entrp">    -95.76005624 </i>
    <i name="e_0_energy">    -95.76005624 </i>
   </energy>
  </scstep>
  <scstep>
   <time name="dav">    3.79    3.79</time>
   <time name="total">    4.01    4.02</time>
   <energy>
    <i name="alphaZ">    136.72579671 </i>
    <i name="ewald"> 127635.52743795 </i>
    <i name="hartreedc">-172394.62416853 </i>
    <i name="XCdc">   -506.77547174 </i>
    <i name="pawpsdc">  49160.95042955 </i>
    <i name="pawaedc"> -47178.21550173 </i>
    <i name="eentropy">      0.00000000 </i>
    <i name="bandstr">  -3623.28690546 </i>
    <i name="atom">  46673.93835389 </i>
    <i name="e_fr_energy">    -95.76002936 </i>
    <i name="e_wo_entrp">    -95.76002936 </i>
    <i name="e_0_energy">    -95.76002936 </i>
   </energy>
  </scstep>
  <structure>
   <crystal>
    <varray name="basis" >
     <v>      23.26820681       0.00000000       0.00000000 </v>
     <v>       0.00000000      23.26820681       0.00000000 </v>
     <v>       0.00000000       0.00000000      23.26820681 </v>
    </varray>
    <i name="volume">  12597.62701064 </i>
    <varray name="rec_basis" >
     <v>       0.04297710       0.00000000       0.00000000 </v>
     <v>       0.00000000       0.04297710       0.00000000 </v>
     <v>       0.00000000       0.00000000       0.04297710 </v>
    </varray>
   </crystal>
   <varray name="positions" >
    <v>       0.39067169       0.74823553       0.58211626 </v>
    <v>       0.62027502       0.55974184       0.63511106 </v>
    <v>       0.48068563       0.75187991       0.66097446 </v>
    <v>       0.67005936       0.42918320       0.36147275 </v>
    <v>       0.43284736       0.64947189       0.63044663 </v>
    <v>       0.51589237       0.62984163       0.52834785 </v>
    <v>       0.61227839       0.74905744       0.49658064 </v>
    <v>       0.38384454       0.54297295       0.60540531 </v>
    <v>       0.62839470       0.36229789       0.64426716 </v>
    <v>       0.45591818       0.48800198       0.53044465 </v>
    <v>       0.63141534       0.64377499       0.44579125 </v>
    <v>       0.56270770       0.46254414       0.57222319 </v>
    <v>       0.62990951       0.35525334       0.44549732 </v>
    <v>       0.43752925       0.61909127       0.43319899 </v>
    <v>       0.45204973       0.50742501       0.40168844 </v>
    <v>       0.52691896       0.41382792       0.47263708 </v>
    <v>       0.69367204       0.45222451       0.47618801 </v>
    <v>       0.55289860       0.65596533       0.66183798 </v>
    <v>       0.54046339       0.59014298       0.37607309 </v>
    <v>       0.52682204       0.69774174       0.43007487 </v>
    <v>       0.55426712       0.53244778       0.47684270 </v>
    <v>       0.51056518       0.37501115       0.63425764 </v>
    <v>       0.67583155       0.46074856       0.59506286 </v>
    <v>       0.66368631       0.55557028       0.52378530 </v>
    <v>       0.40162207       0.41008225       0.60690384 </v>
    <v>       0.52221895       0.29849950       0.43796268 </v>
    <v>       0.37225173       0.64136530       0.53120224 </v>
    <v>       0.65155096       0.53737152       0.40413620 </v>
    <v>       0.46591264       0.38979401       0.37596465 </v>
    <v>       0.50159008       0.75101571       0.54026835 </v>
    <v>       0.45983231       0.33244115       0.53366136 </v>
    <v>       0.41621033       0.73015480       0.46464222 </v>
    <v>       0.57605620       0.32173283       0.54590583 </v>
    <v>       0.62520495       0.65667179       0.56772026 </v>
    <v>       0.34367008       0.34406885       0.52991190 </v>
    <v>       0.38539917       0.42298593       0.45410133 </v>
    <v>       0.55774297       0.47169983       0.36332028 </v>
    <v>       0.57819103       0.46244482       0.68897206 </v>
    <v>       0.45725990       0.47153046       0.68581113 </v>
    <v>       0.36198641       0.53941229       0.47691500 </v>
    <v>       0.50255280       0.55695931       0.62196292 </v>
    <v>       0.69154825       0.35446089       0.54340843 </v>
    <v>       0.31511277       0.45953282       0.54729519 </v>
    <v>       0.58999029       0.76020563       0.61535136 </v>
    <v>       0.57462134       0.35524626       0.34438646 </v>
   </varray>
  </structure>
  <varray name="forces" >
   <v>      -0.27251764       0.12810457      -0.00722820 </v>
   <v>       0.21291541      -0.02357559       0.09546671 </v>
   <v>      -0.07176534       0.22841220       0.06468226 </v>
   <v>       0.00584160      -0.16373714      -0.21202712 </v>
   <v>      -0.00956271       0.10188838       0.27880199 </v>
   <v>      -0.35396360      -0.07457237       0.15534763 </v>
   <v>       0.12408496       0.23853396      -0.00029241 </v>
   <v>      -0.29423842      -0.08578553       0.12277662 </v>
   <v>       0.01479847      -0.08741113       0.12580242 </v>
   <v>      -0.23333657       0.27404126      -0.05164694 </v>
   <v>      -0.13009512       0.00324118       0.16831881 </v>
   <v>       0.27993297      -0.10159984       0.14952560 </v>
   <v>       0.32938659      -0.31298026      -0.14776679 </v>
   <v>      -0.00071511       0.09576125      -0.13067944 </v>
   <v>       0.04818281      -0.13006722      -0.01469064 </v>
   <v>      -0.09093478      -0.22464069      -0.20450324 </v>
   <v>       0.10877441      -0.01867382      -0.00577708 </v>
   <v>      -0.05000627       0.12074072       0.18987168 </v>
   <v>       0.08211120       0.12815289      -0.16784392 </v>
   <v>      -0.05833846       0.42662370      -0.22161495 </v>
   <v>       0.09861397      -0.03816768      -0.21227898 </v>
   <v>      -0.06896562      -0.20167636       0.17855789 </v>
   <v>       0.46492186       0.13405817       0.35871892 </v>
   <v>       0.26388831       0.02067471      -0.09638536 </v>
   <v>      -0.22077074      -0.07889614       0.11350243 </v>
   <v>       0.00856636      -0.10232003      -0.14236880 </v>
   <v>      -0.14787526       0.14166039       0.13106547 </v>
   <v>       0.11020875      -0.10300069      -0.20323966 </v>
   <v>      -0.11553738      -0.20814720      -0.31170977 </v>
   <v>       0.00375027       0.27551361       0.08657733 </v>
   <v>      -0.30167068      -0.01951072      -0.03743247 </v>
   <v>      -0.21174485       0.18969720      -0.07413912 </v>
   <v>      -0.03017584      -0.00935033      -0.01341499 </v>
   <v>       0.27764615       0.21100713       0.06352546 </v>
   <v>      -0.27381085      -0.42370771      -0.02222622 </v>
   <v>      -0.02727310      -0.16242718       0.11848836 </v>
   <v>       0.13275922       0.00631155      -0.13133045 </v>
   <v>      -0.09465274       0.13316553       0.11784196 </v>
   <v>       0.09417491       0.01622062       0.24700918 </v>
   <v>      -0.14529317      -0.02613990      -0.15519564 </v>
   <v>       0.25095700      -0.21015240       0.00848235 </v>
   <v>       0.17078766      -0.18750156       0.08945227 </v>
   <v>      -0.16321306      -0.02812638      -0.02436746 </v>
   <v>       0.23771766       0.23045538       0.02017099 </v>
   <v>       0.04643676      -0.08209652      -0.29582665 </v>
  </varray>
  <varray name="stress" >
   <v>      -0.33256164       0.05550844       0.02278483 </v>
   <v>       0.05550844       0.30771476       0.40204105 </v>
   <v>       0.02278482       0.40204105      -0.43908361 </v>
  </varray>
  <energy>
   <i name="e_fr_energy">    -95.76002936 </i>
   <i name="e_wo_entrp">    -95.76002936 </i>
   <i name="e_0_energy">      0.00000000 </i>
  </energy>
  <time name="totalsc">   36.31   36.62</time>
 </calculation>
 <calculation>
  <scstep>
   <time name="dav">    5.05    5.06</time>
   <time name="total">    5.42    5.43</time>
   <energy>
    <i name="alphaZ">    136.72579671 </i>
    <i name="ewald"> 126609.99782445 </i>
    <i name="hartreedc">-171373.68934345 </i>
    <i name="XCdc">   -507.71332850 </i>
    <i name="pawpsdc">  49161.63889937 </i>
    <i name="pawaedc"> -47178.91467183 </i>
    <i name="eentropy">      0.00000000 </i>
    <i name="bandstr">  -3617.90358014 </i>
    <i name="atom">  46673.93835389 </i>
    <i name="e_fr_energy">    -95.92004951 </i>
    <i name="e_wo_entrp">    -95.92004951 </i>
    <i name="e_0_energy">    -95.92004951 </i>
   </energy>
  </scstep>
  <scstep>
   <time name="dav">    5.21    5.21</time>
   <time name="total">    5.57    7.48</time>
   <energy>
    <i name="e_fr_energy">    -95.98827432 </i>
    <i name="e_wo_entrp">    -95.98827432 </i>
    <i name="e_0_energy">    -95.98827432 </i>
   </energy>
  </scstep>
  <scstep>
   <time name="dav">    5.24    5.24</time>
   <time name="total">    5.60    5.60</time>
   <energy>
    <i name="e_fr_energy">    -95.98657746 </i>
    <i name="e_wo_entrp">    -95.98657746 </i>
    <i name="e_0_energy">    -95.98657746 </i>
   </energy>
  </scstep>
  <scstep>
   <time name="dav">    5.30    5.31</time>
   <time name="total">    5.66    5.73</time>
   <energy>
    <i name="e_fr_energy">    -95.98502587 </i>
    <i name="e_wo_entrp">    -95.98502587 </i>
    <i name="e_0_energy">    -95.98502587 </i>
   </energy>
  </scstep>
  <scstep>
   <time name="dav">    3.96    3.96</time>
   <time name="total">    4.18    4.80</time>
   <energy>
    <i name="alphaZ">    136.72579671 </i>
    <i name="ewald"> 126609.99782445 </i>
    <i name="hartreedc">-171381.02632733 </i>
    <i name="XCdc">   -507.54623546 </i>
    <i name="pawpsdc">  49033.55867189 </i>
    <i name="pawaedc"> -47048.67313018 </i>
    <i name="eentropy">      0.00000000 </i>
    <i name="bandstr">  -3612.95992523 </i>
    <i name="atom">  46673.93835389 </i>
    <i name="e_fr_energy">    -95.98497126 </i>
    <i name="e_wo_entrp">    -95.98497126 </i>
    <i name="e_0_energy">    -95.98497126 </i>
   </energy>
  </scstep>
  <structure>
   <crystal>
    <varray name="basis" >
     <v>      23.26820681       0.00000000       0.00000000 </v>
     <v>       0.00000000      23.26820681       0.00000000 </v>
     <v>       0.00000000       0.00000000      23.26820681 </v>
    </varray>
    <i name="volume">  12597.62701064 </i>
    <varray name="rec_basis" >
     <v>       0.04297710       0.00000000       0.00000000 </v>
     <v>       0.00000000       0.04297710       0.00000000 </v>
     <v>       0.00000000       0.00000000       0.04297710 </v>
    </varray>
   </crystal>
   <varray name="positions" >
    <v>       0.38979443       0.74859112       0.58208395 </v>
    <v>       0.62078849       0.55944105       0.63547299 </v>
    <v>       0.48042875       0.75246420       0.66122528 </v>
    <v>       0.67004470       0.42878235       0.36091809 </v>
    <v>       0.43277305       0.64999073       0.63129991 </v>
    <v>       0.51485897       0.62955629       0.52883254 </v>
    <v>       0.61266939       0.74967143       0.49659582 </v>
    <v>       0.38296507       0.54256921       0.60562667 </v>
    <v>       0.62843122       0.36201018       0.64468546 </v>
    <v>       0.45460663       0.48895872       0.53033908 </v>
    <v>       0.63114295       0.64385949       0.44625895 </v>
    <v>       0.56387901       0.46234022       0.57329214 </v>
    <v>       0.63086582       0.35441510       0.44510948 </v>
    <v>       0.43754663       0.61932748       0.43276386 </v>
    <v>       0.45213341       0.50708286       0.40162204 </v>
    <v>       0.52668389       0.41282718       0.47168096 </v>
    <v>       0.69398068       0.45232067       0.47612445 </v>
    <v>       0.55268890       0.65633405       0.66248227 </v>
    <v>       0.54069443       0.59043552       0.37561857 </v>
    <v>       0.52669049       0.69903151       0.42929601 </v>
    <v>       0.55461995       0.53254487       0.47598843 </v>
    <v>       0.51045630       0.37441534       0.63481429 </v>
    <v>       0.67701323       0.46123027       0.59606897 </v>
    <v>       0.66448024       0.55555135       0.52342392 </v>
    <v>       0.40090253       0.40981243       0.60714433 </v>
    <v>       0.52221518       0.29822090       0.43757509 </v>
    <v>       0.37178336       0.64190205       0.53162652 </v>
    <v>       0.65182237       0.53699964       0.40357825 </v>
    <v>       0.46560492       0.38918694       0.37512799 </v>
    <v>       0.50168560       0.75178755       0.54054881 </v>
    <v>       0.45884429       0.33238412       0.53357662 </v>
    <v>       0.41556992       0.73071261       0.46434516 </v>
    <v>       0.57606113       0.32162810       0.54593170 </v>
    <v>       0.62612382       0.65743268       0.56781141 </v>
    <v>       0.34297494       0.34279440       0.52982506 </v>
    <v>       0.38527141       0.42264962       0.45441849 </v>
    <v>       0.55818214       0.47177009       0.36299127 </v>
    <v>       0.57791278       0.46286567       0.68918790 </v>
    <v>       0.45762667       0.47170156       0.68660894 </v>
    <v>       0.36162687       0.53914017       0.47650710 </v>
    <v>       0.50345677       0.55615476       0.62196720 </v>
    <v>       0.69207646       0.35381195       0.54363039 </v>
    <v>       0.31466655       0.45958223       0.54725777 </v>
    <v>       0.59074905       0.76082516       0.61537822 </v>
    <v>       0.57473580       0.35501532       0.34346682 </v>
   </varray>
  </structure>
  <varray name="forces" >
   <v>      -0.16138741       0.11276481       0.00313484 </v>
   <v>       0.22431180       0.11763254       0.02848960 </v>
   <v>      -0.02827191       0.21684768       0.01917304 </v>
   <v>       0.02259988      -0.17226232      -0.20435638 </v>
   <v>       0.01252767      -0.02830114       0.18616453 </v>
   <v>      -0.27185092      -0.02948048       0.10475170 </v>
   <v>       0.07737491       0.22100256      -0.00818598 </v>
   <v>      -0.23125958       0.01666481       0.17355678 </v>
   <v>       0.01537218      -0.04714003       0.06576990 </v>
   <v>       0.13672038       0.13602843      -0.06186213 </v>
   <v>      -0.15891871      -0.03648177       0.13944106 </v>
   <v>       0.04932106      -0.13591289      -0.20375431 </v>
   <v>       0.24457396      -0.27814896      -0.13400999 </v>
   <v>      -0.00934963       0.09708919      -0.06822614 </v>
   <v>       0.06917208      -0.12025454       0.00443546 </v>
   <v>      -0.07783336       0.00328014      -0.00071081 </v>
   <v>       0.08738028      -0.10078976       0.01996356 </v>
   <v>      -0.00339663       0.08370202       0.08889555 </v>
   <v>       0.06648319       0.14344874      -0.14821395 </v>
   <v>      -0.06232736       0.30386786      -0.10540365 </v>
   <v>       0.03782702      -0.13502467      -0.03102450 </v>
   <v>      -0.10200658      -0.14685363       0.11545834 </v>
   <v>       0.44802965       0.06168874       0.28406733 </v>
   <v>       0.18373542       0.06114582      -0.02778203 </v>
   <v>      -0.12696555      -0.03873624       0.13451466 </v>
   <v>       0.02329091      -0.09281590      -0.12302715 </v>
   <v>      -0.09217892       0.03843669       0.07773900 </v>
   <v>       0.11254046      -0.03585429      -0.16848329 </v>
   <v>      -0.10331520      -0.16058788      -0.27690834 </v>
   <v>      -0.04238026       0.22405542       0.05287681 </v>
   <v>      -0.16541176      -0.01215958      -0.04130536 </v>
   <v>      -0.14084982       0.13774962      -0.01000282 </v>
   <v>      -0.07174132       0.03796562      -0.04538786 </v>
   <v>       0.16227664       0.07764438       0.10283172 </v>
   <v>      -0.26579180      -0.30263898      -0.00060975 </v>
   <v>       0.00636746      -0.20092996       0.10646463 </v>
   <v>       0.07017153      -0.02437736      -0.13335494 </v>
   <v>      -0.06826982       0.07930882       0.17542631 </v>
   <v>       0.01624917      -0.05294339       0.14446125 </v>
   <v>      -0.15165614       0.09115100      -0.14833138 </v>
   <v>       0.11053370      -0.05989093       0.02118303 </v>
   <v>       0.10886732      -0.08833389       0.09034011 </v>
   <v>      -0.14325524      -0.09308322      -0.03603419 </v>
   <v>       0.14595713       0.19828247       0.03098475 </v>
   <v>       0.04673409      -0.06675556      -0.19314901 </v>
  </varray>
  <varray name="stress" >
   <v>      -0.80420026       0.05356459       0.02013972 </v>
   <v>       0.05356460      -0.20547282       0.35434557 </v>
   <v>       0.02013973       0.35434557      -0.89682020 </v>
  </varray>
  <energy>
   <i name="e_fr_energy">    -95.98497126 </i>
   <i name="e_wo_entrp">    -95.98497126 </i>
   <i name="e_0_energy">      0.00000000 </i>
  </energy>
  <time name="totalsc">   36.38   39.02</time>
 </calculation>
 <calculation>
  <scstep>
   <time name="dav">    5.05    5.05</time>
   <time name="total">    5.40    6.11</time>
   <energy>
    <i name="alphaZ">    136.72579671 </i>
    <i name="ewald"> 124584.86559451 </i>
    <i name="hartreedc">-169364.07107512 </i>
    <i name="XCdc">   -509.28088829 </i>
    <i name="pawpsdc">  49034.84624355 </i>
    <i name="pawaedc"> -47049.97805742 </i>
    <i name="eentropy">      0.00000000 </i>
    <i name="bandstr">  -3602.89787594 </i>
    <i name="atom">  46673.93835389 </i>
    <i name="e_fr_energy">    -95.85190812 </i>
    <i name="e_wo_entrp">    -95.85190812 </i>
    <i name="e_0_energy">    -95.85190812 </i>
   </energy>
  </scstep>
  <scstep>
   <time name="dav">    5.18    5.19</time>
   <time name="total">    5.54    5.55</time>
   <energy>
    <i name="e_fr_energy">    -96.13008537 </i>
    <i name="e_wo_entrp">    -96.13008537 </i>
    <i name="e_0_energy">    -96.13008537 </i>
   </energy>
  </scstep>
  <scstep>
   <time name="dav">    5.24    5.24</time>
   <time name="total">    5.60    5.61</time>
   <energy>
    <i name="e_fr_energy">    -96.12611594 </i>
    <i name="e_wo_entrp">    -96.12611594 </i>
    <i name="e_0_energy">    -96.12611594 </i>
   </energy>
  </scstep>
  <scstep>
   <time name="dav">    5.29    5.29</time>
   <time name="total">    5.64    5.79</time>
   <energy>
    <i name="e_fr_energy">    -96.11780347 </i>
    <i name="e_wo_entrp">    -96.11780347 </i>
    <i name="e_0_energy">    -96.11780347 </i>
   </energy>
  </scstep>
  <scstep>
   <time name="dav">    5.29    5.30</time>
   <time name="total">    5.65    5.80</time>
   <energy>
    <i name="e_fr_energy">    -96.11798219 </i>
    <i name="e_wo_entrp">    -96.11798219 </i>
    <i name="e_0_energy">    -96.11798219 </i>
   </energy>
  </scstep>
  <scstep>
   <time name="dav">    5.36    5.36</time>
   <time name="total">    5.72    5.72</time>
   <energy>
    <i name="e_fr_energy">    -96.11783931 </i>
    <i name="e_wo_entrp">    -96.11783931 </i>
    <i name="e_0_energy">    -96.11783931 </i>
   </energy>
  </scstep>
  <scstep>
   <time name="dav">    3.94    3.94</time>
   <time name="total">    4.16    4.17</time>
   <energy>
    <i name="alphaZ">    136.72579671 </i>
    <i name="ewald"> 124584.86559451 </i>
    <i name="hartreedc">-169377.52302972 </i>
    <i name="XCdc">   -508.96071538 </i>
    <i name="pawpsdc">  48815.82854065 </i>
    <i name="pawaedc"> -46827.07390992 </i>
    <i name="eentropy">      0.00000000 </i>
    <i name="bandstr">  -3593.91855378 </i>
    <i name="atom">  46673.93835389 </i>
    <i name="e_fr_energy">    -96.11792305 </i>
    <i name="e_wo_entrp">    -96.11792305 </i>
    <i name="e_0_energy">    -96.11792305 </i>
   </energy>
  </scstep>
  <structure>
   <crystal>
    <varray name="basis" >
     <v>      23.26820681       0.00000000       0.00000000 </v>
     <v>       0.00000000      23.26820681       0.00000000 </v>
     <v>       0.00000000       0.00000000      23.26820681 </v>
    </varray>
    <i name="volume">  12597.62701064 </i>
    <varray name="rec_basis" >
     <v>       0.04297710       0.00000000       0.00000000 </v>
     <v>       0.00000000       0.04297710       0.00000000 </v>
     <v>       0.00000000       0.00000000       0.04297710 </v>
    </varray>
   </crystal>
   <varray name="positions" >
    <v>       0.38803989       0.74930228       0.58201933 </v>
    <v>       0.62181543       0.55883947       0.63619686 </v>
    <v>       0.47991498       0.75363279       0.66172692 </v>
    <v>       0.67001538       0.42798067       0.35980875 </v>
    <v>       0.43262443       0.65102842       0.63300647 </v>
    <v>       0.51279218       0.62898562       0.52980192 </v>
    <v>       0.61345138       0.75089941       0.49662616 </v>
    <v>       0.38120615       0.54176174       0.60606938 </v>
    <v>       0.62850425       0.36143478       0.64552205 </v>
    <v>       0.45198354       0.49087221       0.53012793 </v>
    <v>       0.63059816       0.64402849       0.44719434 </v>
    <v>       0.56622162       0.46193239       0.57543005 </v>
    <v>       0.63277843       0.35273861       0.44433379 </v>
    <v>       0.43758141       0.61979990       0.43189361 </v>
    <v>       0.45230077       0.50639855       0.40148924 </v>
    <v>       0.52621377       0.41082571       0.46976870 </v>
    <v>       0.69459797       0.45251299       0.47599733 </v>
    <v>       0.55226948       0.65707151       0.66377085 </v>
    <v>       0.54115650       0.59102059       0.37470954 </v>
    <v>       0.52642740       0.70161106       0.42773829 </v>
    <v>       0.55532561       0.53273904       0.47427989 </v>
    <v>       0.51023855       0.37322371       0.63592759 </v>
    <v>       0.67937659       0.46219370       0.59808119 </v>
    <v>       0.66606809       0.55551348       0.52270117 </v>
    <v>       0.39946345       0.40927280       0.60762531 </v>
    <v>       0.52220763       0.29766372       0.43679991 </v>
    <v>       0.37084663       0.64297553       0.53247508 </v>
    <v>       0.65236521       0.53625589       0.40246235 </v>
    <v>       0.46498947       0.38797280       0.37345466 </v>
    <v>       0.50187664       0.75333124       0.54110974 </v>
    <v>       0.45686826       0.33227006       0.53340714 </v>
    <v>       0.41428909       0.73182823       0.46375105 </v>
    <v>       0.57607100       0.32141865       0.54598344 </v>
    <v>       0.62796155       0.65895445       0.56799371 </v>
    <v>       0.34158468       0.34024548       0.52965138 </v>
    <v>       0.38501587       0.42197699       0.45505281 </v>
    <v>       0.55906047       0.47191063       0.36233324 </v>
    <v>       0.57735627       0.46370739       0.68961958 </v>
    <v>       0.45836020       0.47204376       0.68820455 </v>
    <v>       0.36090781       0.53859593       0.47569132 </v>
    <v>       0.50526472       0.55454566       0.62197575 </v>
    <v>       0.69313286       0.35251407       0.54407432 </v>
    <v>       0.31377410       0.45968107       0.54718293 </v>
    <v>       0.59226656       0.76206423       0.61543195 </v>
    <v>       0.57496471       0.35455344       0.34162755 </v>
   </varray>
  </structure>
  <varray name="forces" >
   <v>       0.04042690       0.09971669       0.02307774 </v>
   <v>       0.24340080       0.39039105      -0.08457354 </v>
   <v>       0.04549590       0.18481140      -0.06251811 </v>
   <v>       0.04891648      -0.19230023      -0.15726260 </v>
   <v>       0.03128354      -0.23335214       0.00792248 </v>
   <v>      -0.13087549       0.01657448       0.01838170 </v>
   <v>      -0.01739086       0.18561218      -0.02110423 </v>
   <v>      -0.12223462       0.19951024       0.27424181 </v>
   <v>       0.01379535       0.03170936      -0.04624022 </v>
   <v>       0.71692242      -0.08115755      -0.06396246 </v>
   <v>      -0.21463473      -0.09587359       0.08111415 </v>
   <v>      -0.25572747      -0.22800374      -0.79326338 </v>
   <v>       0.06882266      -0.19774020      -0.09859671 </v>
   <v>      -0.02090853       0.09616740       0.04753043 </v>
   <v>       0.10296843      -0.10544308       0.04459396 </v>
   <v>      -0.04011686       0.35217193       0.31544385 </v>
   <v>       0.04814669      -0.25404377       0.05972367 </v>
   <v>       0.07144114       0.01755572      -0.10894821 </v>
   <v>       0.02936911       0.16639131      -0.10471941 </v>
   <v>      -0.07620474       0.09952907       0.04435278 </v>
   <v>      -0.06814895      -0.26876857       0.27988015 </v>
   <v>      -0.15653367      -0.04259269      -0.00368104 </v>
   <v>       0.41566048      -0.07806388       0.11308644 </v>
   <v>       0.02676660       0.13518344       0.09352221 </v>
   <v>       0.03050738       0.02963994       0.15861195 </v>
   <v>       0.04691161      -0.09094783      -0.08439714 </v>
   <v>       0.00650573      -0.14515099      -0.01029346 </v>
   <v>       0.11149120       0.09636820      -0.08018215 </v>
   <v>      -0.07782829      -0.07378627      -0.20775239 </v>
   <v>      -0.12388075       0.09932957      -0.00754265 </v>
   <v>       0.09497965       0.01090602      -0.04654461 </v>
   <v>       0.01081516       0.03019325       0.10911050 </v>
   <v>      -0.13738946       0.12969100      -0.10095970 </v>
   <v>       0.03911594      -0.15424618       0.17345888 </v>
   <v>      -0.24157974      -0.07872751       0.03108999 </v>
   <v>       0.06158700      -0.26689490       0.08332847 </v>
   <v>      -0.05374741      -0.08232419      -0.13622912 </v>
   <v>      -0.01205701      -0.03258293       0.32588955 </v>
   <v>      -0.13558304      -0.16567521      -0.03201307 </v>
   <v>      -0.19348298       0.30091499      -0.16144573 </v>
   <v>      -0.11652760       0.20434482       0.04262532 </v>
   <v>      -0.00984477       0.08474440       0.08887809 </v>
   <v>      -0.10945815      -0.20051062      -0.05581405 </v>
   <v>      -0.02777089       0.14556243       0.04796070 </v>
   <v>       0.03659583      -0.03883279       0.00421916 </v>
  </varray>
  <varray name="stress" >
   <v>      -1.56044693       0.03158664       0.03156322 </v>
   <v>       0.03158665      -1.07728816       0.27718043 </v>
   <v>       0.03156321       0.27718043      -1.63413253 </v>
  </varray>
  <energy>
   <i name="e_fr_energy">    -96.11792305 </i>
   <i name="e_wo_entrp">    -96.11792305 </i>
   <i name="e_0_energy">      0.00000000 </i>
  </energy>
  <time name="totalsc">   47.68   51.09</time>
 </calculation>
 <calculation>
  <scstep>
   <time name="dav">    5.05    5.06</time>
   <time name="total">    5.41    5.43</time>
   <energy>
    <i name="alphaZ">    136.72579671 </i>
    <i name="ewald"> 123829.36992608 </i>
    <i name="hartreedc">-168626.20024112 </i>
    <i name="XCdc">   -509.74187515 </i>
    <i name="pawpsdc">  48815.94399074 </i>
    <i name="pawaedc"> -46827.18684005 </i>
    <i name="eentropy">      0.00000000 </i>
    <i name="bandstr">  -3589.05780138 </i>
    <i name="atom">  46673.93835389 </i>
    <i name="e_fr_energy">    -96.20869027 </i>
    <i name="e_wo_entrp">    -96.20869027 </i>
    <i name="e_0_energy">    -96.20869027 </i>
   </energy>
  </scstep>
  <scstep>
   <time name="dav">    5.28    5.28</time>
   <time name="total">    5.63    5.64</time>
   <energy>
    <i name="e_fr_energy">    -96.25628352 </i>
    <i name="e_wo_entrp">    -96.25628352 </i>
    <i name="e_0_energy">    -96.25628352 </i>
   </energy>
  </scstep>
  <scstep>
   <time name="dav">    5.30    5.31</time>
   <time name="total">    5.66    5.67</time>
   <energy>
    <i name="e_fr_energy">    -96.25531143 </i>
    <i name="e_wo_entrp">    -96.25531143 </i>
    <i name="e_0_energy">    -96.25531143 </i>
   </energy>
  </scstep>
  <scstep>
   <time name="dav">    5.27    5.28</time>
   <time name="total">    5.63    5.64</time>
   <energy>
    <i name="e_fr_energy">    -96.25417565 </i>
    <i name="e_wo_entrp">    -96.25417565 </i>
    <i name="e_0_energy">    -96.25417565 </i>
   </energy>
  </scstep>
  <scstep>
   <time name="dav">    3.79    3.80</time>
   <time name="total">    4.01    5.68</time>
   <energy>
    <i name="alphaZ">    136.72579671 </i>
    <i name="ewald"> 123829.36992608 </i>
    <i name="hartreedc">-168631.97412207 </i>
    <i name="XCdc">   -509.59655932 </i>
    <i name="pawpsdc">  48709.57289821 </i>
    <i name="pawaedc"> -46719.06054890 </i>
    <i name="eentropy">      0.00000000 </i>
    <i name="bandstr">  -3585.22999504 </i>
    <i name="atom">  46673.93835389 </i>
    <i name="e_fr_energy">    -96.25425044 </i>
    <i name="e_wo_entrp">    -96.25425044 </i>
    <i name="e_0_energy">    -96.25425044 </i>
   </energy>
  </scstep>
  <structure>
   <crystal>
    <varray name="basis" >
     <v>      23.26820681       0.00000000       0.00000000 </v>
     <v>       0.00000000      23.26820681       0.00000000 </v>
     <v>       0.00000000       0.00000000      23.26820681 </v>
    </varray>
    <i name="volume">  12597.62701064 </i>
    <varray name="rec_basis" >
     <v>       0.04297710       0.00000000       0.00000000 </v>
     <v>       0.00000000       0.04297710       0.00000000 </v>
     <v>       0.00000000       0.00000000       0.04297710 </v>
    </varray>
   </crystal>
   <varray name="positions" >
    <v>       0.38763410       0.74971711       0.58205094 </v>
    <v>       0.62262880       0.55951223       0.63621787 </v>
    <v>       0.47986873       0.75435963       0.66173306 </v>
    <v>       0.67011262       0.42734077       0.35915797 </v>
    <v>       0.43265012       0.65081680       0.63350305 </v>
    <v>       0.51192928       0.62886101       0.53011391 </v>
    <v>       0.61363360       0.75164466       0.49658919 </v>
    <v>       0.38044838       0.54196507       0.60678511 </v>
    <v>       0.62855451       0.36134148       0.64565740 </v>
    <v>       0.45279241       0.49123485       0.52993069 </v>
    <v>       0.62998229       0.64386925       0.44763206 </v>
    <v>       0.56632840       0.46132616       0.57432025 </v>
    <v>       0.63346422       0.35184120       0.44390325 </v>
    <v>       0.43754609       0.62013999       0.43175158 </v>
    <v>       0.45256982       0.50597892       0.40154809 </v>
    <v>       0.52599518       0.41102274       0.46991160 </v>
    <v>       0.69487523       0.45201924       0.47609040 </v>
    <v>       0.55230569       0.65731657       0.66389798 </v>
    <v>       0.54134965       0.59154377       0.37422832 </v>
    <v>       0.52618916       0.70255044       0.42739626 </v>
    <v>       0.55537693       0.53221407       0.47440334 </v>
    <v>       0.50983984       0.37279707       0.63623246 </v>
    <v>       0.68093689       0.46229606       0.59889040 </v>
    <v>       0.66657194       0.55579433       0.52269976 </v>
    <v>       0.39912490       0.40918509       0.60810246 </v>
    <v>       0.52230666       0.29731106       0.43640013 </v>
    <v>       0.37059747       0.64296416       0.53269131 </v>
    <v>       0.65275814       0.53625471       0.40197593 </v>
    <v>       0.46464873       0.38747256       0.37253655 </v>
    <v>       0.50166320       0.75397915       0.54125108 </v>
    <v>       0.45651787       0.33226153       0.53325916 </v>
    <v>       0.41395254       0.73220679       0.46381940 </v>
    <v>       0.57577752       0.32163945       0.54578028 </v>
    <v>       0.62856224       0.65904943       0.56841896 </v>
    <v>       0.34067316       0.33935956       0.52966962 </v>
    <v>       0.38507687       0.42121251       0.45541071 </v>
    <v>       0.55919136       0.47177260       0.36185462 </v>
    <v>       0.57717392       0.46387363       0.69044357 </v>
    <v>       0.45827395       0.47178267       0.68858383 </v>
    <v>       0.36028858       0.53909187       0.47511399 </v>
    <v>       0.50552144       0.55453418       0.62207007 </v>
    <v>       0.69340845       0.35233214       0.54439070 </v>
    <v>       0.31328733       0.45927648       0.54704155 </v>
    <v>       0.59263305       0.76272623       0.61555046 </v>
    <v>       0.57510793       0.35433993       0.34111987 </v>
   </varray>
  </structure>
  <varray name="forces" >
   <v>       0.08024901       0.05450292       0.03958077 </v>
   <v>       0.17054900       0.23874779      -0.06603077 </v>
   <v>       0.04039123       0.11771652      -0.09144520 </v>
   <v>       0.04089163      -0.17603268      -0.09895627 </v>
   <v>       0.02124679      -0.15243337      -0.02444382 </v>
   <v>      -0.08818198       0.02973548      -0.01960552 </v>
   <v>      -0.04482607       0.11119823       0.01413725 </v>
   <v>      -0.03277987       0.10867095       0.16707347 </v>
   <v>      -0.01975425       0.07943832      -0.07215015 </v>
   <v>       0.46871092      -0.01364710      -0.01279245 </v>
   <v>      -0.22776275      -0.07575943       0.08193073 </v>
   <v>      -0.07806669      -0.22069951      -0.48008294 </v>
   <v>       0.02317455      -0.16806310      -0.06431435 </v>
   <v>      -0.00504976       0.06315468       0.04685458 </v>
   <v>       0.07720369      -0.07672134       0.07282154 </v>
   <v>      -0.05813260       0.23360600       0.17267177 </v>
   <v>       0.00547743      -0.19698664       0.03811094 </v>
   <v>       0.06566862       0.04124461      -0.13068826 </v>
   <v>       0.01939448       0.09860943      -0.01091374 </v>
   <v>      -0.06768559       0.05651727       0.07413315 </v>
   <v>      -0.00992784      -0.14796958       0.17290747 </v>
   <v>      -0.10354112      -0.00105814      -0.01953849 </v>
   <v>       0.22098315      -0.03505784       0.05754038 </v>
   <v>       0.01485021       0.05075069       0.07461201 </v>
   <v>       0.00478345       0.03992380       0.07158504 </v>
   <v>       0.04740793      -0.01578781      -0.06217750 </v>
   <v>       0.03353846      -0.12104990       0.00106357 </v>
   <v>       0.07042176       0.05047131      -0.01762468 </v>
   <v>      -0.01673170      -0.03844413      -0.14178295 </v>
   <v>      -0.09141656       0.06861536      -0.01173279 </v>
   <v>       0.06190841       0.02943237      -0.05034194 </v>
   <v>       0.02713015       0.00666820       0.12498429 </v>
   <v>      -0.10514096       0.15204445      -0.09784917 </v>
   <v>       0.00338702      -0.07222677       0.12248334 </v>
   <v>      -0.16861378      -0.04275330       0.06076323 </v>
   <v>       0.09546823      -0.18915143       0.10046898 </v>
   <v>      -0.04631490      -0.06228557      -0.11675409 </v>
   <v>      -0.00210126       0.00294587       0.09694945 </v>
   <v>      -0.12333627      -0.14175228      -0.06165008 </v>
   <v>      -0.10642041       0.16862963      -0.07164346 </v>
   <v>      -0.07639050       0.13463868       0.07365440 </v>
   <v>      -0.04640703       0.09495955       0.06805984 </v>
   <v>      -0.02712249      -0.15756326      -0.07137692 </v>
   <v>      -0.06488943       0.10738859       0.01990260 </v>
   <v>       0.01775768      -0.03416750       0.04160676 </v>
[...]
       <r>     0.6249     0.0000   292.0000 </r>
       <r>     0.6655     0.0000   292.0000 </r>
       <r>     0.7061     0.0000   294.0000 </r>
       <r>     0.7467     0.0000   295.0000 </r>
       <r>     0.7873     0.0000   296.0000 </r>
       <r>     0.8278     0.0000   296.0000 </r>
       <r>     0.8684    23.6191   297.9586 </r>
       <r>     0.9090     0.0000   298.0000 </r>
       <r>     0.9496     0.0000   299.0000 </r>
       <r>     0.9902     0.0000   301.0000 </r>
       <r>     1.0308     0.0000   302.0000 </r>
       <r>     1.0713     0.0000   304.0000 </r>
       <r>     1.1119     0.0000   306.0000 </r>
       <r>     1.1525     0.0000   309.0000 </r>
       <r>     1.1931     0.0000   311.0000 </r>
       <r>     1.2337     0.0000   312.0000 </r>
       <r>     1.2743     0.0000   314.0000 </r>
       <r>     1.3149     0.0000   315.0000 </r>
       <r>     1.3554    20.5827   316.8353 </r>
       <r>     1.3960     0.0000   319.0000 </r>
       <r>     1.4366     0.0000   320.0000 </r>
       <r>     1.4772     0.0000   320.0000 </r>
       <r>     1.5178     0.0000   320.0000 </r>
       <r>     1.5584     0.0000   320.0000 </r>
       <r>     1.5989     0.0000   320.0000 </r>
       <r>     1.6395     0.0000   320.0000 </r>
       <r>     1.6801     0.0000   320.0000 </r>
       <r>     1.7207     0.0000   320.0000 </r>
       <r>     1.7613     0.0000   320.0000 </r>
       <r>     1.8019     0.0000   320.0000 </r>
       <r>     1.8425     0.0000   320.0000 </r>
       <r>     1.8830     0.0000   320.0000 </r>
       <r>     1.9236     0.0000   320.0000 </r>
       <r>     1.9642     0.0000   320.0000 </r>
      </set>
      <set comment="spin 2">
       <r>   -10.2111     0.0000     0.0000 </r>
       <r>   -10.1706     0.0000     0.0000 </r>
       <r>   -10.1300     0.0000     0.0000 </r>
       <r>   -10.0894     0.0000     0.0000 </r>
       <r>   -10.0488     0.0000     0.0000 </r>
       <r>   -10.0082     0.0000     0.0000 </r>
       <r>    -9.9676     0.0000     0.0000 </r>
       <r>    -9.9270     0.0000     0.0000 </r>
       <r>    -9.8865     0.0000     0.0000 </r>
       <r>    -9.8459     0.0000     0.0000 </r>
       <r>    -9.8053     0.0000     0.0000 </r>
       <r>    -9.7647     0.0000     0.0000 </r>
       <r>    -9.7241     0.0000     0.0000 </r>
       <r>    -9.6835     0.0000     0.0000 </r>
       <r>    -9.6430     0.0000     0.0000 </r>
       <r>    -9.6024     0.0000     1.0000 </r>
       <r>    -9.5618     0.0000     1.0000 </r>
       <r>    -9.5212     0.0000     1.0000 </r>
       <r>    -9.4806     0.0000     1.0000 </r>
       <r>    -9.4400     0.0000     1.0000 </r>
       <r>    -9.3994     0.0000     1.0000 </r>
       <r>    -9.3589     0.0000     1.0000 </r>
       <r>    -9.3183     0.0000     1.0000 </r>
       <r>    -9.2777     0.0000     1.0000 </r>
       <r>    -9.2371     0.0000     1.0000 </r>
       <r>    -9.1965     0.0000     1.0000 </r>
       <r>    -9.1559     0.0000     2.0000 </r>
       <r>    -9.1154     0.0000     2.0000 </r>
       <r>    -9.0748     0.0000     3.0000 </r>
       <r>    -9.0342     0.0000     3.0000 </r>
       <r>    -8.9936     0.0000     4.0000 </r>
       <r>    -8.9530     0.0000     6.0000 </r>
       <r>    -8.9124     0.0000     8.0000 </r>
       <r>    -8.8719     0.0000     9.0000 </r>
       <r>    -8.8313     0.0000    11.0000 </r>
       <r>    -8.7907     0.0000    12.0000 </r>
       <r>    -8.7501     0.0000    15.0000 </r>
       <r>    -8.7095     0.0000    18.0000 </r>
       <r>    -8.6689     0.0000    19.0000 </r>
       <r>    -8.6283     0.0000    23.0000 </r>
       <r>    -8.5878     0.0000    26.0000 </r>
       <r>    -8.5472     0.0448    28.0018 </r>
       <r>    -8.5066     0.0000    31.0000 </r>
       <r>    -8.4660     0.0000    35.0000 </r>
       <r>    -8.4254     0.0000    37.0000 </r>
       <r>    -8.3848     9.8292    40.3989 </r>
       <r>    -8.3443     0.0000    43.0000 </r>
       <r>    -8.3037     0.0000    46.0000 </r>
       <r>    -8.2631     0.0000    49.0000 </r>
       <r>    -8.2225     0.0000    52.0000 </r>
       <r>    -8.1819     0.0000    54.0000 </r>
       <r>    -8.1413     0.0000    58.0000 </r>
       <r>    -8.1007     0.4942    60.0201 </r>
       <r>    -8.0602     0.0000    63.0000 </r>
       <r>    -8.0196     0.0000    65.0000 </r>
       <r>    -7.9790     0.0000    68.0000 </r>
       <r>    -7.9384     0.0000    71.0000 </r>
       <r>    -7.8978     0.0000    75.0000 </r>
       <r>    -7.8572     0.0000    76.0000 </r>
       <r>    -7.8167     0.0000    80.0000 </r>
       <r>    -7.7761     0.0000    81.0000 </r>
       <r>    -7.7355     0.0000    86.0000 </r>
       <r>    -7.6949     0.0000    89.0000 </r>
       <r>    -7.6543     0.0000    91.0000 </r>
       <r>    -7.6137     0.0000    93.0000 </r>
       <r>    -7.5731     0.0000    97.0000 </r>
       <r>    -7.5326     0.0000   100.0000 </r>
       <r>    -7.4920     0.0000   102.0000 </r>
       <r>    -7.4514     0.0000   106.0000 </r>
       <r>    -7.4108     0.0000   109.0000 </r>
       <r>    -7.3702     0.0000   111.0000 </r>
       <r>    -7.3296     0.0000   115.0000 </r>
       <r>    -7.2891     0.0000   118.0000 </r>
       <r>    -7.2485     0.0000   121.0000 </r>
       <r>    -7.2079     0.0000   123.0000 </r>
       <r>    -7.1673     0.0000   128.0000 </r>
       <r>    -7.1267     0.0000   131.0000 </r>
       <r>    -7.0861     0.0000   133.0000 </r>
       <r>    -7.0455     0.0000   137.0000 </r>
       <r>    -7.0050    24.6400   140.0000 </r>
       <r>    -6.9644    12.1698   143.4939 </r>
       <r>    -6.9238     0.0000   147.0000 </r>
       <r>    -6.8832     0.0000   149.0000 </r>
       <r>    -6.8426     0.0000   154.0000 </r>
       <r>    -6.8020     0.0000   157.0000 </r>
       <r>    -6.7615    24.6400   162.0000 </r>
       <r>    -6.7209     0.0000   167.0000 </r>
       <r>    -6.6803     0.0000   172.0000 </r>
       <r>    -6.6397     0.0000   177.0000 </r>
       <r>    -6.5991     0.0000   180.0000 </r>
       <r>    -6.5585     0.0000   187.0000 </r>
       <r>    -6.5180     0.0000   191.0000 </r>
       <r>    -6.4774     0.0000   195.0000 </r>
       <r>    -6.4368     0.3595   199.0146 </r>
       <r>    -6.3962    21.1557   204.8586 </r>
       <r>    -6.3556     0.0000   209.0000 </r>
       <r>    -6.3150    24.6337   212.9997 </r>
       <r>    -6.2744     0.0000   216.0000 </r>
       <r>    -6.2339     0.0000   220.0000 </r>
       <r>    -6.1933     0.0000   222.0000 </r>
       <r>    -6.1527     0.0000   224.0000 </r>
       <r>    -6.1121     0.0000   226.0000 </r>
       <r>    -6.0715     0.0033   228.0001 </r>
       <r>    -6.0309     0.0000   230.0000 </r>
       <r>    -5.9904     0.0000   231.0000 </r>
       <r>    -5.9498     0.0000   231.0000 </r>
       <r>    -5.9092     0.0000   231.0000 </r>
       <r>    -5.8686     0.0000   232.0000 </r>
       <r>    -5.8280     0.0000   232.0000 </r>
       <r>    -5.7874     0.0000   232.0000 </r>
       <r>    -5.7468     0.0000   233.0000 </r>
       <r>    -5.7063     0.0000   233.0000 </r>
       <r>    -5.6657     0.0000   233.0000 </r>
       <r>    -5.6251     0.0000   234.0000 </r>
       <r>    -5.5845     0.0000   234.0000 </r>
       <r>    -5.5439     0.0000   234.0000 </r>
       <r>    -5.5033     0.0000   234.0000 </r>
       <r>    -5.4628     0.0000   234.0000 </r>
       <r>    -5.4222     0.0000   234.0000 </r>
       <r>    -5.3816     0.0000   234.0000 </r>
       <r>    -5.3410     0.0000   235.0000 </r>
       <r>    -5.3004     0.0000   235.0000 </r>
       <r>    -5.2598     0.0000   236.0000 </r>
       <r>    -5.2192     0.0000   237.0000 </r>
       <r>    -5.1787     0.0000   237.0000 </r>
       <r>    -5.1381     0.0000   237.0000 </r>
       <r>    -5.0975     0.0000   237.0000 </r>
       <r>    -5.0569     0.0000   237.0000 </r>
       <r>    -5.0163     0.0000   237.0000 </r>
       <r>    -4.9757     0.0000   237.0000 </r>
       <r>    -4.9352     0.0000   237.0000 </r>
       <r>    -4.8946     0.0000   237.0000 </r>
       <r>    -4.8540     0.0000   238.0000 </r>
       <r>    -4.8134     0.0000   238.0000 </r>
       <r>    -4.7728     0.0000   238.0000 </r>
       <r>    -4.7322     0.0000   238.0000 </r>
       <r>    -4.6916     0.0000   238.0000 </r>
       <r>    -4.6511     0.0000   239.0000 </r>
       <r>    -4.6105     0.0000   239.0000 </r>
       <r>    -4.5699     0.0000   239.0000 </r>
       <r>    -4.5293     0.0000   239.0000 </r>
       <r>    -4.4887     0.0000   239.0000 </r>
       <r>    -4.4481     0.0000   240.0000 </r>
       <r>    -4.4076     0.0000   240.0000 </r>
       <r>    -4.3670     0.0000   240.0000 </r>
       <r>    -4.3264     0.0000   240.0000 </r>
       <r>    -4.2858     0.0000   240.0000 </r>
       <r>    -4.2452     0.0000   240.0000 </r>
       <r>    -4.2046     0.0000   241.0000 </r>
       <r>    -4.1640     0.0000   241.0000 </r>
       <r>    -4.1235     0.0000   241.0000 </r>
       <r>    -4.0829     0.0000   242.0000 </r>
       <r>    -4.0423     0.0000   242.0000 </r>
       <r>    -4.0017     0.0000   243.0000 </r>
       <r>    -3.9611     0.0000   243.0000 </r>
       <r>    -3.9205     0.0000   244.0000 </r>
       <r>    -3.8800     0.0000   244.0000 </r>
       <r>    -3.8394     0.0000   245.0000 </r>
       <r>    -3.7988     0.0000   245.0000 </r>
       <r>    -3.7582     0.0000   245.0000 </r>
       <r>    -3.7176     0.0000   245.0000 </r>
       <r>    -3.6770     0.0000   245.0000 </r>
       <r>    -3.6365     0.0000   245.0000 </r>
       <r>    -3.5959     0.0000   246.0000 </r>
       <r>    -3.5553     0.0000   247.0000 </r>
       <r>    -3.5147     0.0000   247.0000 </r>
       <r>    -3.4741     0.0000   247.0000 </r>
       <r>    -3.4335     0.0000   247.0000 </r>
       <r>    -3.3929     0.0000   247.0000 </r>
       <r>    -3.3524     0.0000   247.0000 </r>
       <r>    -3.3118     0.0000   248.0000 </r>
       <r>    -3.2712     0.0000   248.0000 </r>
       <r>    -3.2306     0.0000   248.0000 </r>
       <r>    -3.1900     0.0000   248.0000 </r>
       <r>    -3.1494     0.0000   249.0000 </r>
       <r>    -3.1089     0.0000   249.0000 </r>
       <r>    -3.0683     0.0000   249.0000 </r>
       <r>    -3.0277     0.0000   249.0000 </r>
       <r>    -2.9871     0.0000   250.0000 </r>
       <r>    -2.9465     0.0000   250.0000 </r>
       <r>    -2.9059     0.0000   250.0000 </r>
       <r>    -2.8653     0.0000   250.0000 </r>
       <r>    -2.8248     0.0000   250.0000 </r>
       <r>    -2.7842     0.0000   251.0000 </r>
       <r>    -2.7436     0.0000   252.0000 </r>
       <r>    -2.7030     0.0000   252.0000 </r>
       <r>    -2.6624     0.0000   252.0000 </r>
       <r>    -2.6218     0.0000   252.0000 </r>
       <r>    -2.5813     0.0000   252.0000 </r>
       <r>    -2.5407     3.5376   252.1436 </r>
       <r>    -2.5001     0.0000   253.0000 </r>
       <r>    -2.4595     0.0000   254.0000 </r>
       <r>    -2.4189     0.0000   255.0000 </r>
       <r>    -2.3783     0.0000   255.0000 </r>
       <r>    -2.3377     0.0000   255.0000 </r>
       <r>    -2.2972     0.0000   256.0000 </r>
       <r>    -2.2566     0.0000   256.0000 </r>
       <r>    -2.2160     0.0000   256.0000 </r>
       <r>    -2.1754     0.0000   257.0000 </r>
       <r>    -2.1348     0.0000   257.0000 </r>
       <r>    -2.0942     0.0000   258.0000 </r>
       <r>    -2.0537     0.0000   259.0000 </r>
       <r>    -2.0131     0.0000   260.0000 </r>
       <r>    -1.9725     0.0000   260.0000 </r>
       <r>    -1.9319     0.0000   261.0000 </r>
       <r>    -1.8913     0.0000   261.0000 </r>
       <r>    -1.8507     0.0000   261.0000 </r>
       <r>    -1.8101     0.0000   262.0000 </r>
       <r>    -1.7696     0.0000   262.0000 </r>
       <r>    -1.7290     0.0000   263.0000 </r>
       <r>    -1.6884     0.0000   263.0000 </r>
       <r>    -1.6478     0.0000   263.0000 </r>
       <r>    -1.6072     0.0000   263.0000 </r>
       <r>    -1.5666     0.0000   263.0000 </r>
       <r>    -1.5261     0.0000   264.0000 </r>
       <r>    -1.4855    24.6400   265.0000 </r>
       <r>    -1.4449     0.0000   265.0000 </r>
       <r>    -1.4043     0.0000   266.0000 </r>
       <r>    -1.3637     0.0000   266.0000 </r>
       <r>    -1.3231     0.0000   266.0000 </r>
       <r>    -1.2826     0.0000   267.0000 </r>
       <r>    -1.2420     0.0000   267.0000 </r>
       <r>    -1.2014     0.0000   268.0000 </r>
       <r>    -1.1608     0.0000   268.0000 </r>
       <r>    -1.1202     0.0000   268.0000 </r>
       <r>    -1.0796     0.0000   268.0000 </r>
       <r>    -1.0390     0.0000   268.0000 </r>
       <r>    -0.9985     0.0000   269.0000 </r>
       <r>    -0.9579     0.0000   270.0000 </r>
       <r>    -0.9173     0.0000   270.0000 </r>
       <r>    -0.8767     0.0000   271.0000 </r>
       <r>    -0.8361     0.0000   271.0000 </r>
       <r>    -0.7955     0.0000   271.0000 </r>
       <r>    -0.7550     0.0000   272.0000 </r>
       <r>    -0.7144     0.0000   272.0000 </r>
       <r>    -0.6738     0.0000   273.0000 </r>
       <r>    -0.6332     0.0000   273.0000 </r>
       <r>    -0.5926    24.6400   274.0000 </r>
       <r>    -0.5520     0.0000   275.0000 </r>
       <r>    -0.5114     0.0000   275.0000 </r>
       <r>    -0.4709     0.0000   275.0000 </r>
       <r>    -0.4303     0.0000   277.0000 </r>
       <r>    -0.3897     0.0000   277.0000 </r>
       <r>    -0.3491     0.0000   278.0000 </r>
       <r>    -0.3085     0.0000   278.0000 </r>
       <r>    -0.2679     0.0000   279.0000 </r>
       <r>    -0.2274     0.0000   280.0000 </r>
       <r>    -0.1868     0.0000   280.0000 </r>
       <r>    -0.1462     0.0000   280.0000 </r>
       <r>    -0.1056     0.0000   281.0000 </r>
       <r>    -0.0650     0.0000   282.0000 </r>
       <r>    -0.0244     0.0000   283.0000 </r>
       <r>     0.0162     0.0000   283.0000 </r>
       <r>     0.0567     0.0000   284.0000 </r>
       <r>     0.0973     0.0000   284.0000 </r>
       <r>     0.1379     0.0000   285.0000 </r>
       <r>     0.1785     0.0000   285.0000 </r>
       <r>     0.2191     0.0000   286.0000 </r>
       <r>     0.2597     0.0000   286.0000 </r>
       <r>     0.3002     0.0000   286.0000 </r>
       <r>     0.3408     0.0000   286.0000 </r>
       <r>     0.3814     0.0000   287.0000 </r>
       <r>     0.4220     0.0000   287.0000 </r>
       <r>     0.4626     0.0000   288.0000 </r>
       <r>     0.5032     0.0000   288.0000 </r>
       <r>     0.5438     0.0000   290.0000 </r>
       <r>     0.5843     0.0000   291.0000 </r>
       <r>     0.6249     0.0000   292.0000 </r>
       <r>     0.6655     0.0000   292.0000 </r>
       <r>     0.7061     0.0000   293.0000 </r>
       <r>     0.7467     0.0000   295.0000 </r>
       <r>     0.7873     0.0000   296.0000 </r>
       <r>     0.8278     0.0000   296.0000 </r>
       <r>     0.8684     0.0000   297.0000 </r>
       <r>     0.9090     0.0000   298.0000 </r>
       <r>     0.9496     0.0000   299.0000 </r>
       <r>     0.9902     0.0000   300.0000 </r>
       <r>     1.0308     0.0000   301.0000 </r>
       <r>     1.0713     0.0000   304.0000 </r>
       <r>     1.1119     0.0000   306.0000 </r>
       <r>     1.1525     0.0000   307.0000 </r>
       <r>     1.1931     0.0000   310.0000 </r>
       <r>     1.2337     0.0000   312.0000 </r>
       <r>     1.2743     0.0000   313.0000 </r>
       <r>     1.3149     0.0000   315.0000 </r>
       <r>     1.3554     0.0000   316.0000 </r>
       <r>     1.3960     0.0000   318.0000 </r>
       <r>     1.4366     0.0000   320.0000 </r>
       <r>     1.4772     0.0000   320.0000 </r>
       <r>     1.5178     0.0000   320.0000 </r>
       <r>     1.5584     0.0000   320.0000 </r>
       <r>     1.5989     0.0000   320.0000 </r>
       <r>     1.6395     0.0000   320.0000 </r>
       <r>     1.6801     0.0000   320.0000 </r>
       <r>     1.7207     0.0000   320.0000 </r>
       <r>     1.7613     0.0000   320.0000 </r>
       <r>     1.8019     0.0000   320.0000 </r>
       <r>     1.8425     0.0000   320.0000 </r>
       <r>     1.8830     0.0000   320.0000 </r>
       <r>     1.9236     0.0000   320.0000 </r>
       <r>     1.9642     0.0000   320.0000 </r>
      </set>
     </set>
    </array>
   </total>
  </dos>
 </calculation>
 <structure name="finalpos" >
  <crystal>
   <varray name="basis" >
    <v>      23.26820681       0.00000000       0.00000000 </v>
    <v>       0.00000000      23.26820681       0.00000000 </v>
    <v>       0.00000000       0.00000000      23.26820681 </v>
   </varray>
   <i name="volume">  12597.62701064 </i>
   <varray name="rec_basis" >
    <v>       0.04297710       0.00000000       0.00000000 </v>
    <v>       0.00000000       0.04297710       0.00000000 </v>
    <v>       0.00000000       0.00000000       0.04297710 </v>
   </varray>
  </crystal>
  <varray name="positions" >
   <v>       0.38492515       0.74536615       0.58723483 </v>
   <v>       0.62912979       0.56635947       0.63695312 </v>
   <v>       0.47980161       0.75786505       0.65951071 </v>
   <v>       0.67301797       0.42231506       0.35813554 </v>
   <v>       0.43455244       0.64762601       0.63609537 </v>
   <v>       0.51233513       0.62055921       0.53361866 </v>
   <v>       0.61054742       0.75381491       0.49493692 </v>
   <v>       0.37961602       0.53733783       0.60782650 </v>
   <v>       0.62392975       0.36941423       0.64333937 </v>
   <v>       0.46776931       0.49863540       0.53627667 </v>
   <v>       0.62015672       0.64047121       0.45429266 </v>
   <v>       0.58444769       0.46134117       0.56752853 </v>
   <v>       0.63846129       0.33631306       0.43945524 </v>
   <v>       0.43628085       0.61807092       0.43400931 </v>
   <v>       0.45771415       0.50226880       0.40912751 </v>
   <v>       0.52360450       0.41203112       0.47143797 </v>
   <v>       0.66479378       0.44887883       0.47527258 </v>
   <v>       0.55462461       0.66454637       0.64937000 </v>
   <v>       0.53870867       0.59209221       0.37383141 </v>
   <v>       0.52086767       0.70251312       0.43175210 </v>
   <v>       0.56456567       0.52920707       0.47027442 </v>
   <v>       0.50630464       0.38584164       0.62273567 </v>
   <v>       0.69458402       0.46767524       0.60757986 </v>
   <v>       0.67044425       0.55690539       0.52480292 </v>
   <v>       0.39365808       0.41353702       0.59691115 </v>
   <v>       0.52145532       0.29825553       0.43364738 </v>
   <v>       0.37448858       0.63662702       0.53584584 </v>
   <v>       0.65735528       0.53924978       0.39616624 </v>
   <v>       0.46511704       0.38844523       0.36992352 </v>
   <v>       0.49890121       0.75047320       0.54281338 </v>
   <v>       0.45092389       0.32654576       0.53000738 </v>
   <v>       0.40944080       0.73015400       0.46863618 </v>
   <v>       0.57379582       0.32613764       0.54140792 </v>
   <v>       0.64261077       0.66642745       0.56950003 </v>
   <v>       0.33084135       0.33519607       0.53221321 </v>
   <v>       0.39254006       0.41515978       0.46757942 </v>
   <v>       0.56285620       0.47141839       0.35822386 </v>
   <v>       0.57387498       0.46946761       0.68841923 </v>
   <v>       0.44852624       0.46829945       0.68668219 </v>
   <v>       0.36493422       0.53218997       0.48080330 </v>
   <v>       0.50922053       0.55490236       0.63575672 </v>
   <v>       0.69029194       0.35793427       0.54554554 </v>
   <v>       0.29995637       0.45541215       0.54280260 </v>
   <v>       0.59243483       0.77315461       0.61154857 </v>
   <v>       0.57572253       0.35369238       0.34029763 </v>
  </varray>
 </structure>
</modeling>
