20
Energy = -176.06810221 Dir = /p/work1/plile1/GA_structures/Os/20/all_candidates/4171/
Os 8.556033010526711 6.175897689654243 5.160186490146922
Os 9.300451770611618 8.518808238800844 5.721460522308471
Os 6.786698482002152 7.797000155025782 5.891588142331686
Os 9.976522166412316 10.871928493606406 6.327747220293271
Os 7.543200224613162 10.22511342051553 6.520966475954228
Os 5.134948883380565 9.490777925266537 6.7218320555728495
Os 10.088095953800362 6.584970405393271 7.154693297817696
Os 7.605165619532933 5.732434584743594 7.363853167245659
Os 10.682302494586576 8.957147405807932 7.832982189343194
Os 8.161590339372184 8.181196887212838 8.086891215500861
Os 5.605583404592639 7.670491071073308 8.277109691945206
Os 8.929920643831382 10.65669583748298 8.630459792557815
Os 6.461267825518345 10.103508063510697 8.80744327689997
Os 5.746361575693457 5.369350053182825 8.776340606149127
Os 11.296147089332571 7.030195391212941 9.350237566601349
Os 9.015878406510716 6.184767386235396 9.531768004973546
Os 9.630262843993934 8.701396036890854 10.197358168276738
Os 7.0324755406172015 8.108533160537121 10.438892601755699
Os 7.873518366053445 10.347219343702779 10.907650117916095
Os 7.050195377753371 5.769188468879392 10.777159415145231
