11
Energy = -88.72681189 eV
Os 10.307182892701416 13.061767457703606 12.73896860009286
Os 12.35924761870518 11.736346251151948 13.26001087067694
Os 10.096283826111318 10.571976954285034 13.348953578043693
Os 12.342803905893186 13.695996404671511 11.595609266809761
Os 11.771792315841685 12.160893759401928 9.816081418154964
Os 13.779634461946799 11.627213349149256 11.208618923518642
Os 12.861242845613875 10.039557003515146 9.157528348558266
Os 10.481047191919592 9.959055827144232 9.21388390423596
Os 11.753605439173631 10.17733152533879 11.493010780372813
Os 9.627175829484878 11.529840851334923 11.06912799207163
Os 9.492690322383664 9.053206788786225 11.252271385458023
