11
Energy = -88.75285516 eV
Os 9.40971812647067 8.091251061884115 6.303752077125317
Os 7.29925229424135 8.647907298536117 5.017663678987603
Os 7.4244455949422115 6.6944197420861515 6.614687274391994
Os 8.140902838299857 9.98163924378171 7.001197816277157
Os 6.148727305596358 8.602127103658274 7.2645079024650165
Os 8.946549834795132 6.943004507759949 8.59302259005113
Os 10.021084210151976 9.197475273223901 8.50458565898625
Os 7.659242858368623 8.929318016821766 9.345085950324735
Os 6.465054390540115 6.750690691732372 8.970049102458505
Os 9.840117340433792 8.581554390640854 10.833744247752705
Os 8.061855905772232 6.997563369487678 10.968654400791898
