4
Energy = -25.95669539 eV
Os 8.783526249768137 9.39783594336135 9.052274048509819
Os 9.867487430709533 7.332662606281999 9.45308036037582
Os 7.043662342067262 9.605607161346233 7.483729159328251
Os 8.138531504404224 7.541016636036591 7.867581947990274
