4
Energy = -24.35656662 eV
Os 8.301096832478722 8.284925349563515 8.27259032219742
Os 6.294318854086564 7.565975332985194 8.935261255994073
Os 10.097047639401593 7.728717645386226 9.491378435074475
Os 8.453238849623352 9.527358040558196 6.413387539788596
