4
Energy = -21.04091612 eV
Os 10.150077073625036 7.85719825994361 7.979032301792019
Os 11.58746625589252 12.422314282659325 10.928226021821928
Os 9.87285986951169 12.02698118547172 12.01449574590181
Os 8.468424519056546 7.782788935363311 9.17745467604527
