7
Energy = -53.63127602 eV
Os 9.346247413129172 10.958198151466759 9.00523502151897
Os 11.011453851540729 9.120331695360116 9.258463362957063
Os 9.194052440455554 9.432404187886936 10.970674016386576
Os 7.505306907253561 9.338937493739067 9.185869739664184
Os 9.171714126172743 7.539265574644006 9.442290506567474
Os 7.40316381299965 7.499693531487228 7.592975092887015
Os 9.305785513208521 9.02848065006449 7.4905324745880835
