8
Energy = -62.38892845 eV
Os 8.261146627285141 11.564270094252526 11.087035437904415
Os 9.515039172097728 10.033708017428541 9.404278397535764
Os 9.675732898283098 12.479960112478837 9.496958950828512
Os 10.11873815400276 10.416533348696875 11.830859529578719
Os 11.844085513985084 10.006964934541356 9.416736175274158
Os 11.738374193355137 12.007833292955613 10.620721556292338
Os 12.240370718723813 8.870808172692724 11.399318609698176
Os 12.413371782475618 10.812459006608606 12.612932854239695
