unknown system                          
           1
    23.248186    0.000000    0.000000
     0.000000   23.248186    0.000000
     0.000000    0.000000   23.248186
   Ag
  42
Direct configuration=     1
   0.58228361  0.71280382  0.60393864
   0.51134609  0.70571845  0.51089306
   0.64932801  0.61658972  0.61831725
   0.61947124  0.65322417  0.50488866
   0.56173032  0.63913914  0.69701833
   0.44133318  0.69848506  0.41932189
   0.47134881  0.67165362  0.62153557
   0.69514189  0.56629508  0.52413964
   0.70331141  0.51116799  0.62977210
   0.54559825  0.64637748  0.41355553
   0.63827933  0.57154105  0.41738542
   0.59321577  0.52367124  0.67025072
   0.54060052  0.58910410  0.57116511
   0.55339530  0.58788688  0.31660457
   0.74769695  0.51555043  0.43457814
   0.71100098  0.44592671  0.52727658
   0.40171703  0.65748986  0.52386329
   0.38099495  0.60013211  0.41894298
   0.48020359  0.55829964  0.66852171
   0.37355666  0.60514779  0.62488833
   0.52321776  0.53771142  0.45054092
   0.44072416  0.54687876  0.52958916
   0.66372505  0.44512347  0.41382403
   0.59685389  0.49785106  0.52910144
   0.32250307  0.56164732  0.51086783
   0.56986636  0.48135807  0.35193869
   0.45577977  0.53284582  0.35704701
   0.62745354  0.42048810  0.61294076
   0.28709230  0.52469523  0.61498439
   0.50903540  0.44724076  0.63875424
   0.39831861  0.48762630  0.62862810
   0.49482120  0.44349732  0.51758504
   0.61570176  0.37924554  0.49998452
   0.38427584  0.48245866  0.43735945
   0.58355287  0.36967956  0.38312661
   0.47628514  0.42080466  0.39884583
   0.33111394  0.44411981  0.54146828
   0.53967080  0.34478163  0.58655984
   0.41932981  0.37939237  0.59672019
   0.51480768  0.32693789  0.46442299
   0.40054814  0.37300740  0.47889178
   0.44765294  0.28028841  0.54384532
Direct configuration=     2
   0.58231038  0.71284130  0.60394762
   0.51137483  0.70573475  0.51093258
   0.64942588  0.61663935  0.61843607
   0.61949585  0.65328002  0.50485483
   0.56181867  0.63915605  0.69712442
   0.44123083  0.69863069  0.41918921
   0.47123162  0.67169335  0.62159880
   0.69528458  0.56632005  0.52407452
   0.70343517  0.51114669  0.62990267
   0.54561565  0.64657398  0.41350469
   0.63828702  0.57143365  0.41730211
   0.59327424  0.52364313  0.67028112
   0.54067919  0.58923191  0.57110124
   0.55342964  0.58797632  0.31642063
   0.74796848  0.51567835  0.43451711
   0.71107559  0.44593515  0.52724134
   0.40165313  0.65768404  0.52375412
   0.38103367  0.60013906  0.41889888
   0.48008446  0.55840861  0.66863808
   0.37352534  0.60508058  0.62493201
   0.52330710  0.53769943  0.45045118
   0.44050986  0.54681933  0.52971698
   0.66369067  0.44516553  0.41383649
   0.59709833  0.49782828  0.52915076
   0.32244309  0.56161835  0.51095725
   0.56986418  0.48135345  0.35190183
   0.45576930  0.53286773  0.35677083
   0.62743305  0.42048647  0.61306345
   0.28688962  0.52469633  0.61513724
   0.50914641  0.44723952  0.63877618
   0.39816164  0.48765083  0.62873018
   0.49471986  0.44329671  0.51761632
   0.61564918  0.37921107  0.49995154
   0.38424814  0.48253052  0.43743444
   0.58360840  0.36951913  0.38302757
   0.47634811  0.42083154  0.39877714
   0.33109062  0.44409355  0.54138793
   0.53954927  0.34473878  0.58649815
   0.41935535  0.37924074  0.59676409
   0.51473551  0.32685785  0.46445083
   0.40052427  0.37284625  0.47888239
   0.44750773  0.28006550  0.54394911
Direct configuration=     3
   0.58239070  0.71295376  0.60397458
   0.51146106  0.70578363  0.51105115
   0.64971946  0.61678823  0.61879252
   0.61956967  0.65344755  0.50475335
   0.56208371  0.63920678  0.69744270
   0.44092379  0.69906759  0.41879118
   0.47088005  0.67181256  0.62178849
   0.69571266  0.56639495  0.52387915
   0.70380645  0.51108279  0.63029438
   0.54566783  0.64716347  0.41335215
   0.63831008  0.57111142  0.41705219
   0.59344962  0.52355879  0.67037229
   0.54091518  0.58961532  0.57090964
   0.55353268  0.58824462  0.31586881
   0.74878310  0.51606209  0.43433403
   0.71129943  0.44596046  0.52713562
   0.40146143  0.65826659  0.52342658
   0.38114985  0.60015992  0.41876658
   0.47972707  0.55873554  0.66898720
   0.37343140  0.60487896  0.62506306
   0.52357510  0.53766345  0.45018195
   0.43986696  0.54664102  0.53010045
   0.66358756  0.44529172  0.41387389
   0.59783167  0.49775994  0.52929872
   0.32226313  0.56153145  0.51122551
   0.56985766  0.48133959  0.35179126
   0.45573787  0.53293345  0.35594227
   0.62737158  0.42048159  0.61343151
   0.28628156  0.52469963  0.61559580
   0.50947942  0.44723579  0.63884199
   0.39769075  0.48772441  0.62903642
   0.49441586  0.44269490  0.51771014
   0.61549144  0.37910766  0.49985260
   0.38416506  0.48274611  0.43765943
   0.58377500  0.36903782  0.38273044
   0.47653700  0.42091220  0.39857107
   0.33102066  0.44401476  0.54114687
   0.53918468  0.34461021  0.58631308
   0.41943197  0.37878587  0.59689579
   0.51451901  0.32661774  0.46453435
   0.40045264  0.37236281  0.47885422
   0.44707213  0.27939678  0.54426048
Direct configuration=     4
   0.58255133  0.71317866  0.60402848
   0.51163351  0.70588140  0.51128828
   0.65030663  0.61708599  0.61950542
   0.61971730  0.65378260  0.50455040
   0.56261380  0.63930824  0.69807926
   0.44030972  0.69994139  0.41799513
   0.47017692  0.67205096  0.62216788
   0.69656880  0.56654476  0.52348841
   0.70454901  0.51095500  0.63107781
   0.54577220  0.64834245  0.41304708
   0.63835620  0.57046696  0.41655235
   0.59380040  0.52339012  0.67055464
   0.54138717  0.59038214  0.57052644
   0.55373875  0.58878122  0.31476518
   0.75041233  0.51682957  0.43396786
   0.71174711  0.44601110  0.52692418
   0.40107803  0.65943168  0.52277152
   0.38138221  0.60020163  0.41850198
   0.47901228  0.55938939  0.66968544
   0.37324350  0.60447572  0.62532515
   0.52411112  0.53759150  0.44964351
   0.43858117  0.54628441  0.53086740
   0.66338132  0.44554409  0.41394867
   0.59929835  0.49762327  0.52959462
   0.32190321  0.56135765  0.51176205
   0.56984462  0.48131187  0.35157012
   0.45567502  0.53306490  0.35428516
   0.62724863  0.42047184  0.61416764
   0.28506544  0.52470624  0.61651292
   0.51014544  0.44722835  0.63897363
   0.39674896  0.48787159  0.62964889
   0.49380786  0.44149126  0.51789779
   0.61517596  0.37890084  0.49965473
   0.38399888  0.48317729  0.43810941
   0.58410819  0.36807520  0.38213618
   0.47691478  0.42107352  0.39815892
   0.33088074  0.44385717  0.54066476
   0.53845550  0.34435307  0.58594294
   0.41958523  0.37787612  0.59715920
   0.51408602  0.32613750  0.46470138
   0.40030937  0.37139592  0.47879787
   0.44620091  0.27805934  0.54488323
Direct configuration=     5
   0.58287259  0.71362848  0.60413630
   0.51197842  0.70607693  0.51176255
   0.65148097  0.61768151  0.62093123
   0.62001257  0.65445272  0.50414448
   0.56367397  0.63951117  0.69935238
   0.43908156  0.70168899  0.41640303
   0.46877064  0.67252778  0.62292665
   0.69828110  0.56684438  0.52270693
   0.70603413  0.51069940  0.63264466
   0.54598095  0.65070040  0.41243694
   0.63844845  0.56917805  0.41555267
   0.59450195  0.52305277  0.67091935
   0.54233114  0.59191579  0.56976003
   0.55415089  0.58985443  0.31255793
   0.75367078  0.51836453  0.43323552
   0.71264247  0.44611236  0.52650130
   0.40031123  0.66176185  0.52146139
   0.38184693  0.60028507  0.41797277
   0.47758272  0.56069708  0.67108192
   0.37286771  0.60366924  0.62584934
   0.52518314  0.53744759  0.44856662
   0.43600958  0.54557119  0.53240129
   0.66296885  0.44604884  0.41409825
   0.60223172  0.49734993  0.53018644
   0.32118338  0.56101004  0.51283512
   0.56981854  0.48125643  0.35112785
   0.45554932  0.53332778  0.35097094
   0.62700273  0.42045233  0.61563989
   0.28263321  0.52471945  0.61834715
   0.51147747  0.44721345  0.63923689
   0.39486539  0.48816594  0.63087385
   0.49259185  0.43908399  0.51827308
   0.61454499  0.37848719  0.49925898
   0.38366653  0.48403965  0.43900937
   0.58477458  0.36614997  0.38094766
   0.47767035  0.42139615  0.39733462
   0.33060090  0.44354200  0.53970054
   0.53699715  0.34383880  0.58520265
   0.41989173  0.37605662  0.59768601
   0.51322003  0.32517702  0.46503544
   0.40002285  0.36946214  0.47868518
   0.44445849  0.27538447  0.54612873
Direct configuration=     6
   0.58293122  0.71345379  0.60437913
   0.51157140  0.70607264  0.51160889
   0.65223521  0.61769701  0.62093964
   0.62063216  0.65440831  0.50394216
   0.56394341  0.63952589  0.69942380
   0.43881457  0.70230524  0.41596370
   0.46856963  0.67268843  0.62296977
   0.69889164  0.56733911  0.52281767
   0.70654583  0.51067424  0.63274931
   0.54611615  0.65114671  0.41181371
   0.63847384  0.56887693  0.41524049
   0.59453540  0.52346673  0.67103449
   0.54211584  0.59189633  0.56961437
   0.55431638  0.59015690  0.31233735
   0.75433636  0.51862522  0.43296141
   0.71294071  0.44617571  0.52629754
   0.40004445  0.66218935  0.52139569
   0.38214288  0.60024056  0.41812588
   0.47773371  0.56090751  0.67129301
   0.37231378  0.60370798  0.62567337
   0.52482792  0.53724646  0.44900342
   0.43657198  0.54549979  0.53260779
   0.66338259  0.44668896  0.41445230
   0.60203570  0.49752103  0.53012837
   0.32075091  0.56113599  0.51320963
   0.56983643  0.48132734  0.35070832
   0.45559690  0.53328955  0.35034515
   0.62709183  0.42012401  0.61586248
   0.28184478  0.52450840  0.61890424
   0.51103860  0.44755876  0.63927671
   0.39450208  0.48725114  0.63139562
   0.49256435  0.43935868  0.51821521
   0.61430741  0.37854627  0.49927133
   0.38422997  0.48393310  0.43892339
   0.58499137  0.36566538  0.38074829
   0.47763055  0.42153682  0.39748093
   0.33057207  0.44346974  0.53987167
   0.53656018  0.34354272  0.58501966
   0.41969233  0.37613332  0.59805002
   0.51285409  0.32469922  0.46503531
   0.39982950  0.36887020  0.47852736
   0.44396781  0.27442244  0.54626533
Direct configuration=     7
   0.58306635  0.71305118  0.60493877
   0.51063334  0.70606275  0.51125476
   0.65397352  0.61773272  0.62095903
   0.62206013  0.65430595  0.50347587
   0.56456439  0.63955982  0.69958842
   0.43819924  0.70372551  0.41495118
   0.46810635  0.67305869  0.62306915
   0.70029877  0.56847930  0.52307290
   0.70772514  0.51061623  0.63299049
   0.54642774  0.65217532  0.41037734
   0.63853237  0.56818292  0.41452100
   0.59461247  0.52442079  0.67129985
   0.54161963  0.59185149  0.56927866
   0.55469780  0.59085401  0.31182898
   0.75587031  0.51922601  0.43232969
   0.71362808  0.44632173  0.52582793
   0.39942960  0.66317459  0.52124428
   0.38282495  0.60013798  0.41847875
   0.47808170  0.56139249  0.67177951
   0.37103712  0.60379728  0.62526783
   0.52400924  0.53678293  0.45001011
   0.43786814  0.54533523  0.53308373
   0.66433612  0.44816423  0.41526828
   0.60158395  0.49791538  0.52999453
   0.31975419  0.56142627  0.51407277
   0.56987765  0.48149077  0.34974144
   0.45570657  0.53320142  0.34890288
   0.62729718  0.41936734  0.61637550
   0.28002768  0.52402201  0.62018816
   0.51002712  0.44835460  0.63936847
   0.39366475  0.48514280  0.63259812
   0.49250099  0.43999175  0.51808184
   0.61375986  0.37868244  0.49929980
   0.38552853  0.48368754  0.43872523
   0.58549101  0.36454855  0.38028882
   0.47753883  0.42186100  0.39781812
   0.33050564  0.44330320  0.54026608
   0.53555309  0.34286034  0.58459792
   0.41923278  0.37631010  0.59888896
   0.51201072  0.32359804  0.46503500
   0.39938391  0.36750597  0.47816364
   0.44283695  0.27220525  0.54658013
Direct configuration=     8
   0.58292510  0.71235539  0.60487577
   0.51062987  0.70573818  0.51096272
   0.65454640  0.61774220  0.62077049
   0.62204095  0.65425768  0.50318712
   0.56491096  0.63962643  0.69939411
   0.43790179  0.70411624  0.41466176
   0.46801710  0.67304355  0.62290330
   0.70095796  0.56850896  0.52302033
   0.70795912  0.51043445  0.63277364
   0.54662867  0.65238557  0.41015305
   0.63834542  0.56815051  0.41440299
   0.59480528  0.52465795  0.67106326
   0.54171535  0.59208960  0.56936132
   0.55485951  0.59094832  0.31177149
   0.75628285  0.51956457  0.43229659
   0.71365136  0.44666369  0.52578751
   0.39906748  0.66321536  0.52131017
   0.38344384  0.60001809  0.41910381
   0.47787893  0.56143060  0.67164118
   0.37038885  0.60336160  0.62478728
   0.52346668  0.53694438  0.44993887
   0.43782808  0.54563244  0.53357968
   0.66421090  0.44852198  0.41553270
   0.60158475  0.49800708  0.53013417
   0.31996599  0.56150483  0.51448783
   0.56998326  0.48139233  0.34941606
   0.45601201  0.53314118  0.34858227
   0.62718346  0.41942005  0.61626444
   0.27973959  0.52365300  0.62049838
   0.50972011  0.44872299  0.63924942
   0.39315730  0.48520751  0.63335957
   0.49255026  0.44012294  0.51806487
   0.61338116  0.37908058  0.49924689
   0.38634016  0.48359811  0.43895991
   0.58580469  0.36479725  0.38064899
   0.47790569  0.42171196  0.39806924
   0.33064490  0.44337134  0.54050011
   0.53497709  0.34280192  0.58447918
   0.41911604  0.37575440  0.59864603
   0.51173808  0.32324441  0.46497898
   0.39919212  0.36718777  0.47834649
   0.44242480  0.27175653  0.54667195
Direct configuration=     9
   0.58250133  0.71026803  0.60468677
   0.51061943  0.70476449  0.51008660
   0.65626505  0.61777064  0.62020488
   0.62198341  0.65411288  0.50232089
   0.56595068  0.63982625  0.69881121
   0.43700946  0.70528842  0.41379350
   0.46774938  0.67299814  0.62240575
   0.70293552  0.56859793  0.52286262
   0.70866107  0.50988914  0.63212308
   0.54723146  0.65301634  0.40948018
   0.63778457  0.56805326  0.41404894
   0.59538372  0.52536944  0.67035350
   0.54200251  0.59280395  0.56960929
   0.55534466  0.59123126  0.31159901
   0.75752046  0.52058026  0.43219728
   0.71372119  0.44768956  0.52566624
   0.39798111  0.66333768  0.52150786
   0.38530052  0.59965842  0.42097899
   0.47727059  0.56154492  0.67122618
   0.36844404  0.60205456  0.62334565
   0.52183898  0.53742872  0.44972517
   0.43770790  0.54652408  0.53506755
   0.66383523  0.44959520  0.41632598
   0.60158714  0.49828216  0.53055308
   0.32060140  0.56174048  0.51573300
   0.57030010  0.48109701  0.34843992
   0.45692831  0.53296044  0.34762044
   0.62684230  0.41957819  0.61593124
   0.27887533  0.52254597  0.62142904
   0.50879906  0.44982816  0.63889227
   0.39163495  0.48540162  0.63564393
   0.49269807  0.44051651  0.51801395
   0.61224505  0.38027501  0.49908814
   0.38877504  0.48332982  0.43966395
   0.58674574  0.36554334  0.38172949
   0.47900628  0.42126483  0.39882261
   0.33106266  0.44357578  0.54120219
   0.53324908  0.34262667  0.58412295
   0.41876584  0.37408731  0.59791723
   0.51092018  0.32218352  0.46481092
   0.39861678  0.36623318  0.47889505
   0.44118833  0.27041035  0.54694741
Direct configuration=    10
   0.58239887  0.70976331  0.60464107
   0.51061691  0.70452905  0.50987475
   0.65668061  0.61777751  0.62006812
   0.62196950  0.65407786  0.50211144
   0.56620208  0.63987457  0.69867027
   0.43679369  0.70557185  0.41358356
   0.46768465  0.67298715  0.62228544
   0.70341369  0.56861944  0.52282448
   0.70883080  0.50975728  0.63196578
   0.54737722  0.65316886  0.40931748
   0.63764896  0.56802975  0.41396333
   0.59552358  0.52554148  0.67018188
   0.54207194  0.59297667  0.56966925
   0.55546197  0.59129967  0.31155730
   0.75781971  0.52082586  0.43217326
   0.71373808  0.44793762  0.52563692
   0.39771843  0.66336725  0.52155566
   0.38574946  0.59957146  0.42143241
   0.47712350  0.56157257  0.67112584
   0.36797379  0.60173852  0.62299707
   0.52144540  0.53754583  0.44967350
   0.43767884  0.54673967  0.53542731
   0.66374439  0.44985470  0.41651779
   0.60158771  0.49834867  0.53065437
   0.32075504  0.56179746  0.51603408
   0.57037671  0.48102561  0.34820389
   0.45714987  0.53291674  0.34738787
   0.62675981  0.41961643  0.61585067
   0.27866636  0.52227829  0.62165406
   0.50857635  0.45009539  0.63880591
   0.39126685  0.48544855  0.63619628
   0.49273381  0.44061168  0.51800163
   0.61197034  0.38056382  0.49904976
   0.38936379  0.48326495  0.43983419
   0.58697328  0.36572374  0.38199075
   0.47927240  0.42115672  0.39900477
   0.33116367  0.44362521  0.54137195
   0.53283125  0.34258430  0.58403681
   0.41868116  0.37368421  0.59774101
   0.51072242  0.32192700  0.46477028
   0.39847766  0.36600237  0.47902769
   0.44088936  0.27008485  0.54701402
Direct configuration=    11
   0.58210193  0.70906030  0.60400359
   0.51041893  0.70385949  0.50943503
   0.65730457  0.61765946  0.61972753
   0.62211768  0.65367077  0.50185272
   0.56650097  0.63964001  0.69860162
   0.43651589  0.70582680  0.41366882
   0.46709072  0.67258631  0.62195214
   0.70373497  0.56880275  0.52261344
   0.70895102  0.50948515  0.63175864
   0.54729962  0.65338433  0.40905294
   0.63726953  0.56818380  0.41402093
   0.59572760  0.52554909  0.66948234
   0.54253705  0.59317135  0.56987518
   0.55570199  0.59119811  0.31146004
   0.75808020  0.52101335  0.43204252
   0.71362412  0.44825732  0.52562802
   0.39745955  0.66383015  0.52162937
   0.38726941  0.59924624  0.42209853
   0.47685894  0.56186549  0.67074264
   0.36764797  0.60173162  0.62288373
   0.52093310  0.53793264  0.44945151
   0.43776093  0.54695187  0.53636073
   0.66369246  0.45062121  0.41688393
   0.60153564  0.49906461  0.53059480
   0.32091607  0.56161346  0.51629639
   0.57047899  0.48099675  0.34784650
   0.45742243  0.53272500  0.34710310
   0.62624064  0.41978377  0.61559429
   0.27811632  0.52164624  0.62179793
   0.50836356  0.45038439  0.63833025
   0.39091916  0.48501456  0.63713255
   0.49259376  0.44066810  0.51811241
   0.61122439  0.38106597  0.49931416
   0.39038948  0.48320762  0.44076153
   0.58719396  0.36603608  0.38256645
   0.48002509  0.42074923  0.39912754
   0.33164317  0.44377797  0.54161639
   0.53251836  0.34278421  0.58389999
   0.41824379  0.37390653  0.59769891
   0.51062460  0.32154804  0.46474945
   0.39826884  0.36595202  0.47919413
   0.44056651  0.26943175  0.54692121
Direct configuration=    12
   0.58121111  0.70695127  0.60209113
   0.50982500  0.70185081  0.50811586
   0.65917644  0.61730532  0.61870577
   0.62256223  0.65244950  0.50107657
   0.56739765  0.63893633  0.69839567
   0.43568248  0.70659164  0.41392461
   0.46530893  0.67138380  0.62095224
   0.70469883  0.56935268  0.52198029
   0.70931165  0.50866874  0.63113721
   0.54706681  0.65403075  0.40825933
   0.63613122  0.56864594  0.41419373
   0.59633965  0.52557195  0.66738372
   0.54393238  0.59375537  0.57049297
   0.55642207  0.59089342  0.31116826
   0.75886167  0.52157583  0.43165029
   0.71328225  0.44921643  0.52560130
   0.39668292  0.66521883  0.52185050
   0.39182925  0.59827057  0.42409691
   0.47606525  0.56274426  0.66959305
   0.36667051  0.60171091  0.62254372
   0.51939618  0.53909308  0.44878556
   0.43800721  0.54758846  0.53916098
   0.66353669  0.45292075  0.41798235
   0.60137942  0.50121242  0.53041611
   0.32139918  0.56106146  0.51708330
   0.57078583  0.48091020  0.34677433
   0.45824012  0.53214976  0.34624880
   0.62468312  0.42028580  0.61482517
   0.27646620  0.51975010  0.62222955
   0.50772519  0.45125141  0.63690326
   0.38987606  0.48371258  0.63994139
   0.49217363  0.44083737  0.51844472
   0.60898652  0.38257241  0.50010736
   0.39346655  0.48303563  0.44354356
   0.58785603  0.36697312  0.38429355
   0.48228316  0.41952676  0.39949584
   0.33308166  0.44423624  0.54234971
   0.53157969  0.34338393  0.58348952
   0.41693167  0.37457348  0.59757259
   0.51033115  0.32041116  0.46468695
   0.39764240  0.36580096  0.47969344
   0.43959798  0.26747248  0.54664277
Direct configuration=    13
   0.58070831  0.70686617  0.60117871
   0.50947188  0.70093021  0.50803030
   0.65937638  0.61734942  0.61883688
   0.62271300  0.65228476  0.50068135
   0.56755814  0.63815218  0.69822650
   0.43547114  0.70691915  0.41423269
   0.46490183  0.67095361  0.62055067
   0.70489373  0.56936956  0.52134697
   0.70944128  0.50836928  0.63127967
   0.54664696  0.65397603  0.40741155
   0.63563091  0.56913308  0.41400057
   0.59606772  0.52548159  0.66640186
   0.54409921  0.59394579  0.57111480
   0.55667511  0.59070803  0.31079675
   0.75894032  0.52147923  0.43130983
   0.71291095  0.44915519  0.52572754
   0.39593133  0.66593650  0.52184051
   0.39434840  0.59757984  0.42462321
   0.47614189  0.56272854  0.66907840
   0.36609669  0.60165823  0.62360641
   0.51887986  0.53949129  0.44886018
   0.43904952  0.54765452  0.54083759
   0.66315938  0.45365146  0.41861340
   0.60138585  0.50209788  0.52944509
   0.32137172  0.56063254  0.51681379
   0.57106402  0.48090183  0.34663960
   0.45813138  0.53137646  0.34588819
   0.62406551  0.42046547  0.61435632
   0.27635979  0.51939909  0.62180520
   0.50760856  0.45174172  0.63629522
   0.38959173  0.48353488  0.64166067
   0.49189629  0.44107879  0.51807419
   0.60854720  0.38359565  0.50036223
   0.39488205  0.48276179  0.44496553
   0.58852997  0.36690661  0.38481005
   0.48231917  0.41960785  0.39947481
   0.33340385  0.44459159  0.54254986
   0.53112117  0.34326982  0.58352057
   0.41672669  0.37461426  0.59779037
   0.51021305  0.31988549  0.46502931
   0.39800606  0.36562205  0.47940523
   0.43954592  0.26802645  0.54641135
Direct configuration=    14
   0.58040199  0.70681432  0.60062284
   0.50925675  0.70036934  0.50797818
   0.65949819  0.61737629  0.61891675
   0.62280486  0.65218440  0.50044056
   0.56765592  0.63767446  0.69812344
   0.43534239  0.70711868  0.41442038
   0.46465381  0.67069153  0.62030603
   0.70501248  0.56937985  0.52096114
   0.70952026  0.50818684  0.63136646
   0.54639117  0.65394268  0.40689506
   0.63532611  0.56942987  0.41388289
   0.59590205  0.52542655  0.66580368
   0.54420085  0.59406180  0.57149364
   0.55682927  0.59059509  0.31057042
   0.75898824  0.52142038  0.43110241
   0.71268474  0.44911788  0.52580444
   0.39547344  0.66637372  0.52183441
   0.39588313  0.59715902  0.42494385
   0.47618859  0.56271897  0.66876485
   0.36574710  0.60162614  0.62425383
   0.51856531  0.53973389  0.44890564
   0.43968453  0.54769477  0.54185903
   0.66292951  0.45409664  0.41899785
   0.60138976  0.50263733  0.52885352
   0.32135499  0.56037123  0.51664960
   0.57123351  0.48089673  0.34655752
   0.45806513  0.53090534  0.34566850
   0.62368924  0.42057493  0.61407068
   0.27629497  0.51918525  0.62154667
   0.50753751  0.45204044  0.63592478
   0.38941851  0.48342662  0.64270811
   0.49172732  0.44122587  0.51784844
   0.60827955  0.38421904  0.50051751
   0.39574442  0.48259496  0.44583183
   0.58894056  0.36686610  0.38512472
   0.48234110  0.41965725  0.39946200
   0.33360013  0.44480807  0.54267181
   0.53084182  0.34320030  0.58353949
   0.41660180  0.37463910  0.59792306
   0.51014109  0.31956524  0.46523788
   0.39822762  0.36551306  0.47922965
   0.43951421  0.26836395  0.54627036
Direct configuration=    15
   0.57978936  0.70671062  0.59951110
   0.50882648  0.69924762  0.50787393
   0.65974181  0.61743002  0.61907650
   0.62298857  0.65198367  0.49995900
   0.56785148  0.63671901  0.69791731
   0.43508488  0.70751774  0.41479577
   0.46415777  0.67016736  0.61981675
   0.70524996  0.56940043  0.52018947
   0.70967821  0.50782196  0.63154004
   0.54587960  0.65387600  0.40586207
   0.63471650  0.57002343  0.41364753
   0.59557071  0.52531646  0.66460731
   0.54440414  0.59429381  0.57225131
   0.55713760  0.59036921  0.31011776
   0.75908407  0.52130268  0.43068757
   0.71223232  0.44904326  0.52595825
   0.39455767  0.66724817  0.52182223
   0.39895260  0.59631739  0.42558512
   0.47628197  0.56269982  0.66813777
   0.36504792  0.60156195  0.62554867
   0.51793621  0.54021909  0.44899657
   0.44095454  0.54777528  0.54390190
   0.66246977  0.45498698  0.41976675
   0.60139760  0.50371623  0.52767037
   0.32132153  0.55984860  0.51632121
   0.57157248  0.48088653  0.34639336
   0.45793264  0.52996310  0.34522911
   0.62293671  0.42079385  0.61349941
   0.27616532  0.51875757  0.62102962
   0.50739540  0.45263787  0.63518391
   0.38907207  0.48321011  0.64480300
   0.49138939  0.44152003  0.51739696
   0.60774425  0.38546582  0.50082807
   0.39746915  0.48226130  0.44756444
   0.58976173  0.36678507  0.38575405
   0.48238498  0.41975606  0.39943637
   0.33399270  0.44524104  0.54291569
   0.53028312  0.34306125  0.58357733
   0.41635204  0.37468879  0.59818842
   0.50999719  0.31892473  0.46565503
   0.39867074  0.36529507  0.47887848
   0.43945077  0.26903895  0.54598839
Direct configuration=    16
   0.58019538  0.70677934  0.60024790
   0.50911164  0.69999104  0.50794302
   0.65958035  0.61739441  0.61897063
   0.62286682  0.65211670  0.50027816
   0.56772188  0.63735223  0.69805392
   0.43525554  0.70725327  0.41454698
   0.46448652  0.67051475  0.62014102
   0.70509257  0.56938679  0.52070089
   0.70957352  0.50806379  0.63142500
   0.54621864  0.65392019  0.40654668
   0.63512052  0.56963005  0.41380352
   0.59579031  0.52538942  0.66540020
   0.54426941  0.59414004  0.57174917
   0.55693326  0.59051891  0.31041776
   0.75902056  0.52138069  0.43096251
   0.71253216  0.44909271  0.52585631
   0.39516460  0.66666863  0.52183031
   0.39691832  0.59687518  0.42516012
   0.47622008  0.56271251  0.66855337
   0.36551130  0.60160449  0.62469052
   0.51835314  0.53989753  0.44893631
   0.44011284  0.54772192  0.54254799
   0.66277446  0.45439691  0.41925716
   0.60139240  0.50300120  0.52845450
   0.32134370  0.56019497  0.51653885
   0.57134783  0.48089329  0.34650216
   0.45802045  0.53058756  0.34552031
   0.62343545  0.42064876  0.61387802
   0.27625124  0.51904102  0.62137229
   0.50748958  0.45224192  0.63567492
   0.38930167  0.48335360  0.64341462
   0.49161335  0.44132508  0.51769618
   0.60809902  0.38463952  0.50062225
   0.39632609  0.48248243  0.44641616
   0.58921750  0.36683877  0.38533696
   0.48235590  0.41969058  0.39945335
   0.33373252  0.44495409  0.54275405
   0.53065340  0.34315340  0.58355225
   0.41651757  0.37465586  0.59801255
   0.51009256  0.31934922  0.46537857
   0.39837706  0.36543954  0.47911122
   0.43949281  0.26859159  0.54617527
Direct configuration=    17
   0.58017459  0.70740465  0.60055028
   0.50869255  0.69909172  0.50759895
   0.65943181  0.61751103  0.61903769
   0.62235805  0.65255383  0.50003991
   0.56763838  0.63670307  0.69765234
   0.43505752  0.70764201  0.41469583
   0.46428296  0.67054388  0.62008816
   0.70497830  0.56932083  0.52073898
   0.70940242  0.50815259  0.63179888
   0.54547827  0.65391437  0.40598697
   0.63490873  0.57005592  0.41300793
   0.59572049  0.52520902  0.66505145
   0.54503854  0.59451545  0.57230934
   0.55674954  0.59007902  0.30962290
   0.75896816  0.52097704  0.43044311
   0.71233433  0.44871167  0.52642211
   0.39352831  0.66641210  0.52203496
   0.39972069  0.59664236  0.42594811
   0.47632609  0.56221380  0.66885582
   0.36495494  0.60133943  0.62561537
   0.51782281  0.54035884  0.44894679
   0.44020861  0.54788009  0.54433214
   0.66221859  0.45458003  0.41955799
   0.60151141  0.50338349  0.52708894
   0.32234782  0.56033467  0.51562244
   0.57151211  0.48068772  0.34680887
   0.45804369  0.52953139  0.34495483
   0.62335668  0.42090608  0.61355122
   0.27659017  0.51934404  0.62072605
   0.50702063  0.45217408  0.63515548
   0.38893099  0.48340135  0.64459427
   0.49194018  0.44103787  0.51735768
   0.60770426  0.38525989  0.50052283
   0.39701150  0.48267911  0.44718527
   0.58941009  0.36646934  0.38550439
   0.48246389  0.41946776  0.39878024
   0.33406922  0.44479830  0.54314786
   0.53058653  0.34304405  0.58386788
   0.41645632  0.37491133  0.59836218
   0.51083349  0.31969104  0.46518520
   0.39881929  0.36532127  0.47882510
   0.43928099  0.26962836  0.54630720
Direct configuration=    18
   0.58014267  0.70836437  0.60101437
   0.50804934  0.69771145  0.50707087
   0.65920382  0.61769002  0.61914061
   0.62157718  0.65322474  0.49967424
   0.56751022  0.63570674  0.69703600
   0.43475359  0.70823865  0.41492428
   0.46397053  0.67058859  0.62000703
   0.70480291  0.56921959  0.52079743
   0.70913980  0.50828889  0.63237272
   0.54434196  0.65390544  0.40512793
   0.63458369  0.57070956  0.41178685
   0.59561334  0.52493215  0.66451620
   0.54621900  0.59509163  0.57316910
   0.55646758  0.58940388  0.30840294
   0.75888775  0.52035752  0.42964593
   0.71203070  0.44812683  0.52729048
   0.39101694  0.66601839  0.52234905
   0.40402177  0.59628503  0.42715751
   0.47648879  0.56144839  0.66932002
   0.36410105  0.60093262  0.62703483
   0.51700885  0.54106686  0.44896288
   0.44035561  0.54812285  0.54707044
   0.66136543  0.45486109  0.42001970
   0.60169406  0.50397024  0.52499308
   0.32388894  0.56054908  0.51421592
   0.57176426  0.48037220  0.34727962
   0.45807935  0.52791036  0.34408692
   0.62323578  0.42130102  0.61304964
   0.27711036  0.51980913  0.61973421
   0.50630088  0.45206995  0.63435825
   0.38836207  0.48347463  0.64640479
   0.49244180  0.44059705  0.51683815
   0.60709838  0.38621203  0.50037024
   0.39806347  0.48298098  0.44836570
   0.58970568  0.36590235  0.38576136
   0.48262964  0.41912578  0.39774716
   0.33458598  0.44455919  0.54375228
   0.53048389  0.34287621  0.58435230
   0.41636231  0.37530342  0.59889878
   0.51197067  0.32021566  0.46488841
   0.39949803  0.36513975  0.47838596
   0.43895588  0.27121959  0.54650969
Direct configuration=    19
   0.57986831  0.70931889  0.60156014
   0.50689389  0.69643963  0.50819395
   0.65954041  0.61814356  0.61876654
   0.62122057  0.65336812  0.49925262
   0.56707282  0.63593439  0.69695834
   0.43387877  0.70919158  0.41505582
   0.46362666  0.66997463  0.61981021
   0.70439685  0.56914519  0.52055525
   0.70907051  0.50877215  0.63287028
   0.54363299  0.65321849  0.40354861
   0.63450226  0.57136900  0.41088586
   0.59557936  0.52400746  0.66500492
   0.54675939  0.59521319  0.57359759
   0.55578252  0.58866576  0.30770682