   26   26 1000    2
  0.3560374E+03  0.2099695E-08  0.2099695E-08  0.2099695E-08  0.1000000E-15
  1.000000000000000E-004
  CAR 
 unknown system                          
    286      1    184
 
  0.0000000E+00  0.0000000E+00  0.0000000E+00  0.1000000E+01
    1       -9.416152     -9.416152
    2       -9.005416     -9.005416
    3       -8.990666     -8.990666
    4       -8.943498     -8.943498
    5       -8.927325     -8.927325
    6       -8.926503     -8.926503
    7       -8.908812     -8.908812
    8       -8.877458     -8.877458
    9       -8.854381     -8.854382
   10       -8.797546     -8.797546
   11       -8.782326     -8.782326
   12       -8.757628     -8.757628
   13       -8.709071     -8.709071
   14       -8.680423     -8.680423
   15       -8.668663     -8.668663
   16       -8.643186     -8.643186
   17       -8.625148     -8.625148
   18       -8.599648     -8.599648
   19       -8.583718     -8.583718
   20       -8.559829     -8.559829
   21       -8.535081     -8.535081
   22       -8.499475     -8.499475
   23       -8.492113     -8.492113
   24       -8.467471     -8.467471
   25       -8.428916     -8.428916
   26       -8.365662     -8.365662
   27       -8.360091     -8.360091
   28       -8.330925     -8.330925
   29       -8.291435     -8.291435
   30       -8.240795     -8.240795
   31       -8.207631     -8.207631
   32       -8.194539     -8.194539
   33       -8.163186     -8.163186
   34       -8.139530     -8.139530
   35       -8.108320     -8.108320
   36       -8.075457     -8.075457
   37       -8.066237     -8.066237
   38       -8.048441     -8.048441
   39       -8.029713     -8.029713
   40       -7.998985     -7.998985
   41       -7.984500     -7.984500
   42       -7.967736     -7.967736
   43       -7.945727     -7.945727
   44       -7.856183     -7.856183
   45       -7.850351     -7.850351
   46       -7.835889     -7.835889
   47       -7.803397     -7.803397
   48       -7.780815     -7.780815
   49       -7.752551     -7.752551
   50       -7.727371     -7.727371
   51       -7.725975     -7.725975
   52       -7.702551     -7.702551
   53       -7.686486     -7.686486
   54       -7.665091     -7.665091
   55       -7.657732     -7.657732
   56       -7.609551     -7.609551
   57       -7.535081     -7.535081
   58       -7.523158     -7.523158
   59       -7.489708     -7.489708
   60       -7.462715     -7.462715
   61       -7.446928     -7.446928
   62       -7.427554     -7.427554
   63       -7.380014     -7.380014
   64       -7.374079     -7.374079
   65       -7.349813     -7.349813
   66       -7.333132     -7.333132
   67       -7.324898     -7.324898
   68       -7.296161     -7.296161
   69       -7.263617     -7.263617
   70       -7.255336     -7.255336
   71       -7.246367     -7.246367
   72       -7.204083     -7.204083
   73       -7.194877     -7.194877
   74       -7.175217     -7.175217
   75       -7.140878     -7.140878
   76       -7.123330     -7.123330
   77       -7.121695     -7.121695
   78       -7.093938     -7.093938
   79       -7.088671     -7.088671
   80       -7.068138     -7.068138
   81       -7.060686     -7.060686
   82       -7.059494     -7.059494
   83       -7.034189     -7.034189
   84       -7.018806     -7.018806
   85       -6.995375     -6.995375
   86       -6.993184     -6.993184
   87       -6.992530     -6.992530
   88       -6.958199     -6.958199
   89       -6.948862     -6.948862
   90       -6.939527     -6.939527
   91       -6.910033     -6.910033
   92       -6.899358     -6.899358
   93       -6.894072     -6.894072
   94       -6.862962     -6.862962
   95       -6.858905     -6.858905
   96       -6.844373     -6.844373
   97       -6.819195     -6.819195
   98       -6.801800     -6.801800
   99       -6.779513     -6.779513
  100       -6.751852     -6.751852
  101       -6.739432     -6.739432
  102       -6.736649     -6.736649
  103       -6.725764     -6.725764
  104       -6.714913     -6.714913
  105       -6.702299     -6.702299
  106       -6.696667     -6.696667
  107       -6.686162     -6.686162
  108       -6.677782     -6.677782
  109       -6.654381     -6.654381
  110       -6.615317     -6.615317
  111       -6.602794     -6.602794
  112       -6.589450     -6.589450
  113       -6.553339     -6.553339
  114       -6.545766     -6.545766
  115       -6.510631     -6.510631
  116       -6.504983     -6.504983
  117       -6.500248     -6.500248
  118       -6.485173     -6.485173
  119       -6.480252     -6.480252
  120       -6.431917     -6.431917
  121       -6.424621     -6.424621
  122       -6.418271     -6.418271
  123       -6.388074     -6.388074
  124       -6.383147     -6.383147
  125       -6.369797     -6.369797
  126       -6.346550     -6.346550
  127       -6.326060     -6.326060
  128       -6.308077     -6.308077
  129       -6.283862     -6.283862
  130       -6.261589     -6.261589
  131       -6.234849     -6.234849
  132       -6.211800     -6.211800
  133       -6.182072     -6.182072
  134       -6.154276     -6.154276
  135       -5.624910     -5.624910
  136       -5.622224     -5.622224
  137       -5.084347     -5.084347
  138       -4.812301     -4.812301
  139       -4.363284     -4.363284
  140       -4.334671     -4.334671
  141       -4.207251     -4.207251
  142       -3.904939     -3.904939
  143       -3.730847     -3.730847
  144       -3.022540     -3.022540
  145       -2.828879     -2.828879
  146       -2.753134     -2.753134
  147       -2.700756     -2.700756
  148       -2.473926     -2.473925
  149       -2.311955     -2.311955
  150       -2.229782     -2.229782
  151       -2.126169     -2.126169
  152       -2.089177     -2.089177
  153       -1.813662     -1.813662
  154       -1.570491     -1.570490
  155       -1.291378     -1.291378
  156       -1.162856     -1.162855
  157       -0.953723     -0.953722
  158       -0.915158     -0.915157
  159       -0.876761     -0.876761
  160       -0.788527     -0.788526
  161       -0.689505     -0.689505
  162       -0.611656     -0.611655
  163       -0.586170     -0.586169
  164       -0.456200     -0.456199
  165       -0.240632     -0.240630
  166       -0.185109     -0.185108
  167       -0.028914     -0.028912
  168       -0.000241     -0.000239
  169        0.074584      0.074585
  170        0.210394      0.210397
  171        0.505034      0.505040
  172        0.546480      0.546482
  173        0.689247      0.689254
  174        0.722697      0.722707
  175        0.732737      0.732745
  176        0.743684      0.743685
  177        0.786292      0.786293
  178        0.857302      0.857305
  179        0.880048      0.880057
  180        0.969540      0.969544
  181        1.003518      1.003523
  182        1.007755      1.007759
  183        1.055735      1.055738
  184        1.060442      1.060447
