unknown system                          
           1
    23.062615    0.000000    0.000000
     0.000000   23.062615    0.000000
     0.000000    0.000000   23.062615
   Ag
  39
Direct configuration=     1
   0.47483920  0.35302176  0.37718810
   0.56953572  0.40669245  0.42398692
   0.51872240  0.58190673  0.32684158
   0.49835314  0.46386489  0.34383475
   0.62257231  0.63147434  0.36614294
   0.69264019  0.57223946  0.43787214
   0.76003053  0.51079887  0.51070324
   0.66755094  0.45299115  0.46392345
   0.60165279  0.51350617  0.38108693
   0.49198292  0.35003251  0.49749345
   0.40325518  0.43742727  0.42059445
   0.41384450  0.54520290  0.37997022
   0.42915549  0.65849487  0.34270243
   0.52265940  0.67900262  0.41217177
   0.58798844  0.40288902  0.54308140
   0.48921439  0.47301900  0.52078910
   0.60934102  0.64894673  0.48508998
   0.51478675  0.55981712  0.44666268
   0.68008491  0.46918562  0.58899548
   0.38319029  0.52797294  0.49727515
   0.50769990  0.68816281  0.53154991
   0.49219746  0.38801086  0.61024181
   0.69077357  0.59425263  0.55917755
   0.51352417  0.54367808  0.61212367
   0.38686435  0.32440230  0.45311251
   0.58007096  0.45767096  0.65329730
   0.59548797  0.52949574  0.52786786
   0.42269015  0.63621129  0.46224357
   0.38114613  0.41039934  0.53549440
   0.48714365  0.67956563  0.64655076
   0.64935556  0.55550315  0.66535849
   0.38285525  0.38912068  0.65254483
   0.59402078  0.64337668  0.60513391
   0.42196315  0.60857591  0.57664282
   0.38799205  0.50044234  0.61225662
   0.55182676  0.59921640  0.71005050
   0.42952369  0.58182165  0.69460028
   0.49409681  0.53315131  0.78274483
   0.46031233  0.45940102  0.70354740
Direct configuration=     2
   0.47483864  0.35288560  0.37709109
   0.56947712  0.40664397  0.42395253
   0.51873467  0.58193524  0.32676680
   0.49833753  0.46393114  0.34384716
   0.62257971  0.63157772  0.36608233
   0.69268140  0.57218492  0.43787052
   0.76027561  0.51078036  0.51075554
   0.66771308  0.45301610  0.46394253
   0.60184904  0.51345597  0.38099087
   0.49190260  0.34995908  0.49749578
   0.40324636  0.43734305  0.42060114
   0.41370240  0.54532715  0.37987065
   0.42903657  0.65852998  0.34262993
   0.52269527  0.67916416  0.41204023
   0.58818041  0.40283333  0.54312154
   0.48909961  0.47288388  0.52078431
   0.60949066  0.64893253  0.48512029
   0.51474600  0.55989436  0.44669488
   0.68025430  0.46908825  0.58897614
   0.38307906  0.52801222  0.49715052
   0.50763123  0.68817695  0.53148778
   0.49208260  0.38799789  0.61028932
   0.69097341  0.59430270  0.55914789
   0.51342824  0.54375649  0.61223007
   0.38669067  0.32424282  0.45310937
   0.58008093  0.45756155  0.65342483
   0.59556735  0.52955097  0.52783261
   0.42248377  0.63632336  0.46218800
   0.38119209  0.41029759  0.53546236
   0.48714284  0.67959315  0.64666680
   0.64945744  0.55546378  0.66538918
   0.38265120  0.38893616  0.65265606
   0.59398835  0.64342814  0.60510631
   0.42181906  0.60877166  0.57657334
   0.38803513  0.50046323  0.61236017
   0.55186870  0.59934692  0.71012072
   0.42946747  0.58177812  0.69465888
   0.49405730  0.53316762  0.78305411
   0.46040736  0.45940712  0.70340260
Direct configuration=     3
   0.47483697  0.35247710  0.37680007
   0.56930131  0.40649852  0.42384935
   0.51877149  0.58202074  0.32654244
   0.49829071  0.46412989  0.34388440
   0.62260193  0.63188786  0.36590051
   0.69280504  0.57202131  0.43786568
   0.76101085  0.51072482  0.51091244
   0.66819950  0.45309094  0.46399978
   0.60243781  0.51330536  0.38070270
   0.49166163  0.34973878  0.49750276
   0.40321992  0.43709039  0.42062121
   0.41327610  0.54569988  0.37957194
   0.42867980  0.65863531  0.34241244
   0.52280289  0.67964878  0.41164563
   0.58875632  0.40266627  0.54324197
   0.48875527  0.47247851  0.52076995
   0.60993958  0.64888993  0.48521121
   0.51462374  0.56012608  0.44679147
   0.68076246  0.46879614  0.58891809
   0.38274537  0.52813006  0.49677662
   0.50742524  0.68821939  0.53130141
   0.49173802  0.38795898  0.61043183
   0.69157293  0.59445289  0.55905893
   0.51314048  0.54399171  0.61254929
   0.38616963  0.32376440  0.45309995
   0.58011084  0.45723331  0.65380744
   0.59580546  0.52971665  0.52772685
   0.42186460  0.63665955  0.46202129
   0.38132997  0.40999235  0.53536621
   0.48714040  0.67967569  0.64701492
   0.64976307  0.55534564  0.66548125
   0.38203905  0.38838259  0.65298975
   0.59389107  0.64358254  0.60502352
   0.42138678  0.60935893  0.57636488
   0.38816437  0.50052591  0.61267080
   0.55199451  0.59973847  0.71033137
   0.42929883  0.58164753  0.69483467
   0.49393876  0.53321657  0.78398195
   0.46069246  0.45942540  0.70296821
Direct configuration=     4
   0.47483364  0.35166010  0.37621803
   0.56894969  0.40620761  0.42364299
   0.51884513  0.58219175  0.32609373
   0.49819707  0.46452739  0.34395888
   0.62264638  0.63250815  0.36553686
   0.69305233  0.57169408  0.43785598
   0.76248132  0.51061375  0.51122623
   0.66917233  0.45324064  0.46411428
   0.60361536  0.51300416  0.38012634
   0.49117971  0.34929817  0.49751672
   0.40316703  0.43658509  0.42066135
   0.41242351  0.54644536  0.37897454
   0.42796626  0.65884598  0.34197745
   0.52301812  0.68061802  0.41085643
   0.58990815  0.40233216  0.54348283
   0.48806659  0.47166777  0.52074123
   0.61083741  0.64880474  0.48539306
   0.51437923  0.56058951  0.44698466
   0.68177877  0.46821193  0.58880199
   0.38207799  0.52836574  0.49602883
   0.50701326  0.68830426  0.53092866
   0.49104887  0.38788115  0.61071687
   0.69277196  0.59475328  0.55888102
   0.51256494  0.54446217  0.61318772
   0.38512756  0.32280755  0.45308110
   0.58017067  0.45657684  0.65457266
   0.59628170  0.53004803  0.52751532
   0.42062628  0.63733194  0.46168788
   0.38160572  0.40938186  0.53517393
   0.48713553  0.67984078  0.64771115
   0.65037434  0.55510937  0.66566538
   0.38081474  0.38727544  0.65365713
   0.59369651  0.64389134  0.60485792
   0.42052223  0.61053347  0.57594797
   0.38842286  0.50065127  0.61329206
   0.55224613  0.60052157  0.71075269
   0.42896155  0.58138636  0.69518626
   0.49370167  0.53331446  0.78583761
   0.46126265  0.45946197  0.70209942
Direct configuration=     5
   0.47482698  0.35002610  0.37505396
   0.56824645  0.40562579  0.42323028
   0.51899240  0.58253376  0.32519631
   0.49800978  0.46532238  0.34410784
   0.62273526  0.63374873  0.36480956
   0.69354690  0.57103963  0.43783659
   0.76542228  0.51039160  0.51185383
   0.67111799  0.45354002  0.46434329
   0.60597044  0.51240175  0.37897363
   0.49021587  0.34841696  0.49754464
   0.40306125  0.43557447  0.42074163
   0.41071832  0.54793631  0.37777972
   0.42653917  0.65926731  0.34110749
   0.52344858  0.68255650  0.40927802
   0.59221180  0.40166392  0.54396454
   0.48668923  0.47004629  0.52068379
   0.61263307  0.64863435  0.48575676
   0.51389021  0.56151637  0.44737104
   0.68381141  0.46704350  0.58856981
   0.38074323  0.52883710  0.49453324
   0.50618930  0.68847400  0.53018316
   0.48967057  0.38772551  0.61128695
   0.69517004  0.59535406  0.55852519
   0.51141387  0.54540308  0.61446457
   0.38304341  0.32089384  0.45304342
   0.58029032  0.45526389  0.65610310
   0.59723417  0.53071078  0.52709227
   0.41814963  0.63867671  0.46102104
   0.38215723  0.40816089  0.53478936
   0.48712578  0.68017095  0.64910362
   0.65159688  0.55463684  0.66603365
   0.37836613  0.38506115  0.65499188
   0.59330739  0.64450894  0.60452672
   0.41879312  0.61288255  0.57511414
   0.38893983  0.50090200  0.61453459
   0.55274939  0.60208777  0.71159531
   0.42828699  0.58086402  0.69588945
   0.49322750  0.53351024  0.78954895
   0.46240304  0.45953511  0.70036184
Direct configuration=     6
   0.47456386  0.34964023  0.37493186
   0.56845521  0.40576668  0.42355951
   0.51906316  0.58268717  0.32534042
   0.49788527  0.46556537  0.34456231
   0.62287777  0.63385841  0.36486341
   0.69390831  0.57080273  0.43783607
   0.76640869  0.51047866  0.51196343
   0.67137034  0.45336845  0.46431886
   0.60617686  0.51240591  0.37868612
   0.49003013  0.34822923  0.49749029
   0.40327657  0.43546677  0.42049117
   0.41036176  0.54777447  0.37755589
   0.42615394  0.65951056  0.34088044
   0.52338324  0.68286605  0.40910672
   0.59202690  0.40148625  0.54405965
   0.48698317  0.47022177  0.52075572
   0.61261240  0.64885894  0.48546266
   0.51373096  0.56183713  0.44734460
   0.68432638  0.46699915  0.58862745
   0.38050831  0.52882874  0.49451914
   0.50601382  0.68823040  0.52985923
   0.48943493  0.38751245  0.61089870
   0.69581181  0.59546159  0.55870701
   0.51137758  0.54537722  0.61429591
   0.38252760  0.32044450  0.45285814
   0.58048057  0.45522328  0.65602934
   0.59714798  0.53067324  0.52737278
   0.41761790  0.63941951  0.46033906
   0.38213797  0.40786262  0.53537402
   0.48703024  0.68013833  0.64913643
   0.65166552  0.55454895  0.66568613
   0.37790151  0.38492788  0.65516899
   0.59347468  0.64420218  0.60439792
   0.41822871  0.61312621  0.57533318
   0.38899136  0.50063290  0.61399767
   0.55282877  0.60196030  0.71232786
   0.42828859  0.58081319  0.69652391
   0.49283560  0.53366387  0.78961029
   0.46304683  0.46007388  0.70067288
Direct configuration=     7
   0.47378197  0.34849350  0.37456901
   0.56907556  0.40618537  0.42453791
   0.51927345  0.58314305  0.32576868
   0.49751526  0.46628746  0.34591286
   0.62330126  0.63418437  0.36502346
   0.69498232  0.57009874  0.43783453
   0.76934003  0.51073739  0.51228911
   0.67212026  0.45285856  0.46424626
   0.60679030  0.51241828  0.37783174
   0.48947817  0.34767135  0.49732877
   0.40391645  0.43514670  0.41974686
   0.40930217  0.54729353  0.37689071
   0.42500913  0.66023345  0.34020574
   0.52318905  0.68378596  0.40859769
   0.59147741  0.40095823  0.54434229
   0.48785668  0.47074327  0.52096947
   0.61255096  0.64952636  0.48458867
   0.51325771  0.56279033  0.44726602
   0.68585673  0.46686738  0.58879875
   0.37981020  0.52880389  0.49447725
   0.50549232  0.68750648  0.52889657
   0.48873469  0.38687930  0.60974494
   0.69771896  0.59578113  0.55924734
   0.51126972  0.54530037  0.61379470
   0.38099477  0.31910919  0.45230755
   0.58104594  0.45510260  0.65581014
   0.59689184  0.53056171  0.52820636
   0.41603774  0.64162690  0.45831242
   0.38208075  0.40697624  0.53711145
   0.48674631  0.68004138  0.64923393
   0.65186950  0.55428779  0.66465339
   0.37652081  0.38453182  0.65569534
   0.59397183  0.64329056  0.60401514
   0.41655145  0.61385031  0.57598411
   0.38914450  0.49983323  0.61240209
   0.55306469  0.60158146  0.71450482
   0.42829336  0.58066217  0.69840935
   0.49167095  0.53412042  0.78979257
   0.46495998  0.46167496  0.70159720
Direct configuration=     8
   0.47362227  0.34824672  0.37480306
   0.56896402  0.40642652  0.42490912
   0.51918794  0.58361576  0.32623106
   0.49753282  0.46638762  0.34692546
   0.62361918  0.63405388  0.36534370
   0.69554708  0.56971901  0.43807533
   0.77028944  0.51089034  0.51231582
   0.67264962  0.45288125  0.46459284
   0.60688388  0.51256726  0.37768754
   0.48892654  0.34750063  0.49670761
   0.40408304  0.43473113  0.42020980
   0.40892845  0.54721434  0.37673260
   0.42469565  0.66038761  0.33974582
   0.52291018  0.68412717  0.40824325
   0.59122521  0.40095021  0.54455144
   0.48816797  0.47109536  0.52077127
   0.61258214  0.64959813  0.48432055
   0.51304024  0.56342236  0.44732467
   0.68646671  0.46691319  0.58843228
   0.37995163  0.52891393  0.49431509
   0.50508771  0.68667254  0.52871162
   0.48812253  0.38699691  0.60992538
   0.69830793  0.59570804  0.55908907
   0.51105128  0.54573693  0.61393568
   0.38056216  0.31915119  0.45220091
   0.58129801  0.45510311  0.65516810
   0.59725071  0.53058691  0.52871893
   0.41516964  0.64224472  0.45796091
   0.38224473  0.40620596  0.53701971
   0.48696185  0.67938049  0.64897824
   0.65157324  0.55428470  0.66413271
   0.37659149  0.38501692  0.65612155
   0.59397418  0.64260844  0.60385213
   0.41559792  0.61385756  0.57597142
   0.38971946  0.49958607  0.61212594
   0.55328281  0.60116999  0.71474332
   0.42829834  0.58062556  0.69856698
   0.49096618  0.53442820  0.79033741
   0.46561100  0.46193851  0.70114687
Direct configuration=     9
   0.47314318  0.34750639  0.37550522
   0.56862938  0.40714995  0.42602274
   0.51893139  0.58503388  0.32761820
   0.49758550  0.46668813  0.34996328
   0.62457294  0.63366241  0.36630444
   0.69724136  0.56857984  0.43879772
   0.77313766  0.51134919  0.51239594
   0.67423771  0.45294930  0.46563257
   0.60716465  0.51301418  0.37725495
   0.48727164  0.34698846  0.49484414
   0.40458281  0.43348441  0.42159862
   0.40780730  0.54697677  0.37625826
   0.42375521  0.66085008  0.33836607
   0.52207355  0.68515082  0.40717993
   0.59046863  0.40092613  0.54517889
   0.48910186  0.47215165  0.52017669
   0.61267568  0.64981345  0.48351618
   0.51238780  0.56531845  0.44750063
   0.68829662  0.46705064  0.58733288
   0.38037592  0.52924407  0.49382863
   0.50387390  0.68417071  0.52815675
   0.48628605  0.38734972  0.61046672
   0.70007482  0.59548880  0.55861426
   0.51039596  0.54704664  0.61435861
   0.37926432  0.31927721  0.45188099
   0.58205422  0.45510465  0.65324199
   0.59832733  0.53066250  0.53025664
   0.41256533  0.64409817  0.45690636
   0.38273668  0.40389514  0.53674449
   0.48760846  0.67739782  0.64821120
   0.65068446  0.55427544  0.66257066
   0.37680356  0.38647222  0.65740020
   0.59398125  0.64056206  0.60336307
   0.41273732  0.61387929  0.57593333
   0.39144435  0.49884460  0.61129749
   0.55393717  0.59993557  0.71545881
   0.42831328  0.58051574  0.69903986
   0.48885187  0.53535154  0.79197191
   0.46756406  0.46272916  0.69979588
Direct configuration=    10
   0.47344267  0.34736693  0.37537408
   0.56882301  0.40771897  0.42669872
   0.51861643  0.58569597  0.32838800
   0.49757704  0.46727060  0.35118525
   0.62490405  0.63332998  0.36679165
   0.69759735  0.56852060  0.43896597
   0.77444855  0.51131486  0.51231223
   0.67447411  0.45294569  0.46602287
   0.60740593  0.51309302  0.37805287
   0.48722201  0.34766892  0.49523929
   0.40446786  0.43388895  0.42261081
   0.40764170  0.54709625  0.37636980
   0.42346432  0.66070722  0.33761839
   0.52177928  0.68540350  0.40678777
   0.59009272  0.40090778  0.54508262
   0.48916249  0.47221747  0.51998483
   0.61271698  0.64933332  0.48381855
   0.51240149  0.56638091  0.44841592
   0.68889833  0.46701929  0.58675930
   0.38105406  0.52925409  0.49328342
   0.50317956  0.68222556  0.52783567
   0.48628696  0.38748452  0.60940367
   0.70028699  0.59545064  0.55800122
   0.50993934  0.54804728  0.61421759
   0.37834654  0.31887833  0.45146248
   0.58216008  0.45520438  0.65201583
   0.59868922  0.53097175  0.53060291
   0.41157599  0.64391089  0.45705061
   0.38307694  0.40311279  0.53701290
   0.48799118  0.67593164  0.64757112
   0.65067213  0.55379920  0.66209587
   0.37689368  0.38758509  0.65835070
   0.59379199  0.64034422  0.60241339
   0.41160241  0.61385451  0.57554595
   0.39239536  0.49845417  0.61099907
   0.55385404  0.59898963  0.71554903
   0.42790972  0.58047387  0.69849256
   0.48776952  0.53564548  0.79262606
   0.46833315  0.46344691  0.69993620
Direct configuration=    11
   0.47382170  0.34719042  0.37520812
   0.56906805  0.40843910  0.42755420
   0.51821783  0.58653388  0.32936224
   0.49756635  0.46800776  0.35273173
   0.62532309  0.63290928  0.36740825
   0.69804789  0.56844563  0.43917889
   0.77610757  0.51127140  0.51220629
   0.67477329  0.45294112  0.46651681
   0.60771129  0.51319279  0.37906268
   0.48715919  0.34853010  0.49573938
   0.40432238  0.43440092  0.42389180
   0.40743213  0.54724747  0.37651096
   0.42309619  0.66052642  0.33667216
   0.52140686  0.68572329  0.40629147
   0.58961698  0.40088456  0.54496080
   0.48923921  0.47230078  0.51974202
   0.61276925  0.64872569  0.48420122
   0.51241881  0.56772552  0.44957428
   0.68965983  0.46697962  0.58603339
   0.38191228  0.52926677  0.49259344
   0.50230084  0.67976385  0.52742934
   0.48628812  0.38765510  0.60805832
   0.70055550  0.59540234  0.55722539
   0.50936146  0.54931366  0.61403911
   0.37718503  0.31837353  0.45093284
   0.58229404  0.45533059  0.65046406
   0.59914720  0.53136313  0.53104113
   0.41032393  0.64367387  0.45723317
   0.38350755  0.40212269  0.53735260
   0.48847554  0.67407610  0.64676107
   0.65065652  0.55319649  0.66149499
   0.37700774  0.38899350  0.65955361
   0.59355246  0.64006852  0.60121150
   0.41016612  0.61382315  0.57505570
   0.39359892  0.49796004  0.61062141
   0.55374884  0.59779250  0.71566320
   0.42739899  0.58042088  0.69779993
   0.48639975  0.53601748  0.79345392
   0.46930648  0.46435526  0.70011377
Direct configuration=    12
   0.47368250  0.34725524  0.37526907
   0.56897806  0.40817464  0.42724003
   0.51836421  0.58622616  0.32900446
   0.49757028  0.46773705  0.35216380
   0.62516920  0.63306378  0.36718181
   0.69788243  0.56847316  0.43910069
   0.77549831  0.51128736  0.51224520
   0.67466342  0.45294279  0.46633542
   0.60759915  0.51315615  0.37869183
   0.48718226  0.34821384  0.49555573
   0.40437581  0.43421290  0.42342137
   0.40750909  0.54719194  0.37645912
   0.42323138  0.66059282  0.33701966
   0.52154363  0.68560585  0.40647373
   0.58979169  0.40089309  0.54500554
   0.48921104  0.47227019  0.51983119
   0.61275005  0.64894884  0.48406068
   0.51241245  0.56723172  0.44914889
   0.68938017  0.46699419  0.58629998
   0.38159710  0.52926211  0.49284683
   0.50262354  0.68066789  0.52757856
   0.48628770  0.38759246  0.60855239
   0.70045689  0.59542008  0.55751031
   0.50957368  0.54884859  0.61410466
   0.37761159  0.31855892  0.45112735
   0.58224485  0.45528424  0.65103393
   0.59897901  0.53121940  0.53088020
   0.41078374  0.64376091  0.45716613
   0.38334941  0.40248630  0.53722785
   0.48829766  0.67475753  0.64705856
   0.65066225  0.55341783  0.66171566
   0.37696585  0.38847627  0.65911185
   0.59364043  0.64016977  0.60165288
   0.41069359  0.61383467  0.57523574
   0.39315692  0.49814151  0.61076011
   0.55378748  0.59823214  0.71562127
   0.42758655  0.58044034  0.69805430
   0.48690279  0.53588087  0.79314989
   0.46894903  0.46402167  0.70004856
Direct configuration=    13
   0.47411434  0.34800131  0.37563345
   0.56914898  0.40845961  0.42742071
   0.51837598  0.58626424  0.32989711
   0.49753996  0.46852567  0.35317310
   0.62504879  0.63296183  0.36744940
   0.69828681  0.56860466  0.43910868
   0.77588678  0.51114098  0.51200897
   0.67475543  0.45296085  0.46643536
   0.60750415  0.51328460  0.37999812
   0.48705323  0.34846641  0.49527509
   0.40429439  0.43408011  0.42358465
   0.40773012  0.54760902  0.37643187
   0.42296903  0.66030699  0.33673802
   0.52153397  0.68559125  0.40641169
   0.59047352  0.40078572  0.54447970
   0.48923072  0.47277153  0.51969883
   0.61264661  0.64839173  0.48394035
   0.51263054  0.56820310  0.45062847
   0.68973583  0.46683305  0.58595460
   0.38198491  0.52917574  0.49295648
   0.50220362  0.67830864  0.52684382
   0.48632956  0.38811987  0.60890084
   0.70054428  0.59532452  0.55720043
   0.50942130  0.54941315  0.61291574
   0.37770492  0.31858301  0.45054949
   0.58183194  0.45574436  0.65015176
   0.59875043  0.53108162  0.53086474
   0.41019500  0.64319458  0.45669081
   0.38320649  0.40205136  0.53800734
   0.48826196  0.67391911  0.64664770
   0.65098317  0.55329256  0.66128682
   0.37743162  0.38951804  0.66006781
   0.59405302  0.64031339  0.60139596
   0.40970279  0.61371066  0.57511736
   0.39377846  0.49795921  0.61017850
   0.55355932  0.59699672  0.71558559
   0.42644065  0.58037247  0.69762070
   0.48592661  0.53627867  0.79338761
   0.46967594  0.46434487  0.70030752
Direct configuration=    14
   0.47464724  0.34892197  0.37608310
   0.56935990  0.40881126  0.42764367
   0.51839049  0.58631122  0.33099864
   0.49750256  0.46949884  0.35441859
   0.62490021  0.63283601  0.36777960
   0.69878581  0.56876694  0.43911854
   0.77636615  0.51096035  0.51171747
   0.67486897  0.45298313  0.46655869
   0.60738692  0.51344311  0.38161009
   0.48689401  0.34877808  0.49492878
   0.40419392  0.43391624  0.42378614
   0.40800288  0.54812370  0.37639824
   0.42264529  0.65995427  0.33639048
   0.52152205  0.68557323  0.40633514
   0.59131490  0.40065323  0.54383081
   0.48925501  0.47339018  0.51953549
   0.61251896  0.64770426  0.48379186
   0.51289966  0.56940179  0.45245428
   0.69017473  0.46663419  0.58552840
   0.38246347  0.52906916  0.49309180
   0.50168544  0.67539730  0.52593715
   0.48638123  0.38877070  0.60933083
   0.70065212  0.59520660  0.55681803
   0.50923325  0.55010983  0.61144862
   0.37782010  0.31861274  0.44983640
   0.58132242  0.45631214  0.64906314
   0.59846835  0.53091161  0.53084566
   0.40946850  0.64249573  0.45610426
   0.38303012  0.40151465  0.53896924
   0.48821790  0.67288448  0.64614071
   0.65137919  0.55313797  0.66075763
   0.37800637  0.39080359  0.66124748
   0.59456217  0.64049063  0.60107891
   0.40848014  0.61355763  0.57497127
   0.39454545  0.49773426  0.60946080
   0.55327778  0.59547220  0.71554155
   0.42502660  0.58028871  0.69708565
   0.48472199  0.53676957  0.79368097
   0.47057295  0.46474369  0.70062708
Direct configuration=    15
   0.47519650  0.34982203  0.37610410
   0.56947826  0.40854310  0.42735103
   0.51869838  0.58617361  0.33180658
   0.49748606  0.46994676  0.35528115
   0.62482572  0.63296780  0.36752924
   0.69945574  0.56893602  0.43892180
   0.77611326  0.51076757  0.51142411
   0.67545294  0.45308163  0.46632992
   0.60706650  0.51397558  0.38278960
   0.48683138  0.34913911  0.49521481
   0.40371183  0.43390814  0.42387938
   0.40800069  0.54786224  0.37658266
   0.42247870  0.65997957  0.33619733
   0.52142867  0.68577958  0.40618524
   0.59180237  0.40026960  0.54377135
   0.48918091  0.47274999  0.51936868
   0.61281249  0.64736113  0.48344384
   0.51284544  0.57027490  0.45368846
   0.69034150  0.46650872  0.58552672
   0.38223500  0.52858703  0.49297163
   0.50162351  0.67320776  0.52584674
   0.48675456  0.38925380  0.60936979
   0.70087450  0.59493426  0.55680291
   0.50883633  0.55124620  0.61046797
   0.37848402  0.31901937  0.44916143
   0.58109086  0.45720845  0.64801693
   0.59895981  0.53019165  0.53086095
   0.40866308  0.64229536  0.45520426
   0.38276455  0.40086703  0.53911401
   0.48802552  0.67236086  0.64593572
   0.65183040  0.55336053  0.66028016
   0.37849873  0.39146130  0.66280222
   0.59533632  0.64074020  0.60178898
   0.40724734  0.61380020  0.57525814
   0.39516940  0.49769127  0.60942433
   0.55283292  0.59383154  0.71474372
   0.42395750  0.57985189  0.69672839
   0.48350283  0.53745125  0.79379453
   0.47105065  0.46553815  0.70097638
Direct configuration=    16
   0.47598318  0.35111114  0.37613418
   0.56964779  0.40815902  0.42693189
   0.51913936  0.58597652  0.33296376
   0.49746243  0.47058830  0.35651654
   0.62471903  0.63315656  0.36717067
   0.70041526  0.56917818  0.43864001
   0.77575106  0.51049147  0.51100396
   0.67628935  0.45322271  0.46600225
   0.60660757  0.51473820  0.38447896
   0.48674167  0.34965619  0.49562447
   0.40302135  0.43389653  0.42401293
   0.40799756  0.54748776  0.37684680
   0.42224009  0.66001580  0.33592069
   0.52129494  0.68607513  0.40597053
   0.59250053  0.39972016  0.54368619
   0.48907478  0.47183308  0.51912977
   0.61323289  0.64686968  0.48294537
   0.51276779  0.57152541  0.45545612
   0.69058036  0.46632902  0.58552432
   0.38190778  0.52789651  0.49279953
   0.50153482  0.67007179  0.52571725
   0.48728925  0.38994572  0.60942560
   0.70119301  0.59454420  0.55678124
   0.50826784  0.55287377  0.60906343
   0.37943491  0.31960176  0.44819471
   0.58075921  0.45849220  0.64651848
   0.59966371  0.52916050  0.53088286
   0.40750953  0.64200838  0.45391524
   0.38238420  0.39993949  0.53932134
   0.48774999  0.67161090  0.64564213
   0.65247666  0.55367928  0.65959631
   0.37920390  0.39240329  0.66502898
   0.59644509  0.64109766  0.60280598
   0.40548166  0.61414763  0.57566900
   0.39606305  0.49762971  0.60937209
   0.55219577  0.59148171  0.71360103
   0.42242629  0.57922626  0.69621670
   0.48175669  0.53842758  0.79395718
   0.47173484  0.46667602  0.70147666
Direct configuration=    17
   0.47626690  0.35167832  0.37586241
   0.57032552  0.40781751  0.42683860
   0.51909759  0.58611306  0.33347531
   0.49749111  0.47059135  0.35707428
   0.62497662  0.63351756  0.36673722
   0.70088936  0.56954917  0.43815718
   0.77573082  0.51023453  0.51090798
   0.67662745  0.45307921  0.46565483
   0.60637175  0.51519513  0.38557742
   0.48694977  0.34976085  0.49597268
   0.40243237  0.43402224  0.42390726
   0.40778854  0.54721255  0.37689945
   0.42232611  0.66006724  0.33570469
   0.52112951  0.68636909  0.40590503
   0.59277340  0.39928242  0.54357246
   0.48915906  0.47115839  0.51892036
   0.61365937  0.64667636  0.48304802
   0.51241032  0.57139365  0.45602050
   0.69078298  0.46607162  0.58567905
   0.38149845  0.52772502  0.49298574
   0.50155260  0.66879908  0.52629063
   0.48724033  0.39019847  0.60968760
   0.70147940  0.59442294  0.55671016
   0.50783177  0.55391104  0.60770003
   0.37996662  0.31965804  0.44754883
   0.58068852  0.45954189  0.64579749
   0.60007845  0.52861538  0.53085769
   0.40698102  0.64207032  0.45369954
   0.38216371  0.39966063  0.53952793
   0.48759196  0.67136385  0.64574838
   0.65305960  0.55377984  0.65954688
   0.37984848  0.39279988  0.66611525
   0.59699250  0.64149452  0.60319233
   0.40410738  0.61452111  0.57557852
   0.39647879  0.49713586  0.60929755
   0.55182408  0.58971354  0.71289273
   0.42181302  0.57907560  0.69610199
   0.48035381  0.53937816  0.79428082
   0.47220615  0.46728975  0.70147037
Direct configuration=    18
   0.47711806  0.35337986  0.37504708
   0.57235871  0.40679300  0.42655872
   0.51897227  0.58652269  0.33500995
   0.49757715  0.47060051  0.35874749
   0.62574940  0.63460055  0.36543688
   0.70231167  0.57066215  0.43670868
   0.77567011  0.50946371  0.51062006
   0.67764178  0.45264870  0.46461254
   0.60566428  0.51656594  0.38887279
   0.48757408  0.35007482  0.49701729
   0.40066542  0.43439935  0.42359028
   0.40716149  0.54638694  0.37705739
   0.42258414  0.66022156  0.33505669
   0.52063323  0.68725098  0.40570851
   0.59359201  0.39796919  0.54323127
   0.48941189  0.46913432  0.51829214
   0.61493882  0.64609640  0.48335595
   0.51133788  0.57099838  0.45771364
   0.69139082  0.46529941  0.58614325
   0.38027046  0.52721057  0.49354438
   0.50160592  0.66498095  0.52801075
   0.48709357  0.39095675  0.61047360
   0.70233858  0.59405918  0.55649690
   0.50652356  0.55702285  0.60360984
   0.38156176  0.31982687  0.44561121
   0.58047644  0.46269095  0.64363452
   0.60132268  0.52698000  0.53078216
   0.40539548  0.64225614  0.45305246
   0.38150223  0.39882407  0.54014768
   0.48711787  0.67062272  0.64606713
   0.65480845  0.55408155  0.65939858
   0.38178224  0.39398966  0.66937406
   0.59863472  0.64268510  0.60435136
   0.39998454  0.61564154  0.57530707
   0.39772600  0.49565434  0.60907394
   0.55070902  0.58440901  0.71076781
   0.41997321  0.57862363  0.69575786
   0.47614518  0.54222989  0.79525176
   0.47362008  0.46913095  0.70145152
Direct configuration=    19
   0.47716463  0.35354482  0.37496326
   0.57352235  0.40615799  0.42641380
   0.51864969  0.58686211  0.33563878
   0.49789411  0.47056162  0.35937862
   0.62596997  0.63527511  0.36525933
   0.70287975  0.57106324  0.43617877
   0.77587939  0.50912505  0.51059925
   0.67814183  0.45245000  0.46450087
   0.60522798  0.51730632  0.39029187
   0.48788530  0.34951269  0.49684341
   0.39992629  0.43438095  0.42342071
   0.40673099  0.54663713  0.37702219
   0.42282159  0.66018560  0.33498018
   0.52057558  0.68714925  0.40630866
   0.59395934  0.39753775  0.54341127
   0.48961611  0.46885826  0.51805500
   0.61504686  0.64579411  0.48336095
   0.51062094  0.56971991  0.45750528
   0.69178821  0.46472607  0.58610654
   0.37995029  0.52730839  0.49401640
   0.50152884  0.66481960  0.52874103
   0.48699211  0.39095980  0.61094335
   0.70273500  0.59387231  0.55610244
   0.50563041  0.55806847  0.60076108
   0.38213746  0.31950638  0.44513181
   0.58020841  0.46428844  0.64280961
   0.60155446  0.52659192  0.53035789
   0.40523619  0.64235311  0.45348859
   0.38136772  0.39852068  0.54013813
   0.48688558  0.67035063  0.64679787
   0.65583623  0.55428221  0.65981121
   0.38249920  0.39416387  0.67037887
   0.59885525  0.64288559  0.60456171
   0.39833773  0.61604996  0.57525220
   0.39812872  0.49534547  0.60876138
   0.55011172  0.58188311  0.71006679
   0.41948749  0.57887173  0.69522705
   0.47440498  0.54386817  0.79575841
   0.47475646  0.47010737  0.70160061
Direct configuration=    20
   0.47725671  0.35387097  0.37479754
   0.57582301  0.40490249  0.42612728
   0.51801191  0.58753318  0.33688203
   0.49852077  0.47048473  0.36062644
   0.62640606  0.63660877  0.36490831
   0.70400290  0.57185624  0.43513107
   0.77629316  0.50845549  0.51055811
   0.67913047  0.45205717  0.46428008
   0.60436539  0.51877011  0.39309755
   0.48850060  0.34840128  0.49649964
   0.39846494  0.43434458  0.42308545
   0.40587984  0.54713180  0.37695261
   0.42329106  0.66011451  0.33482891
   0.52046161  0.68694811  0.40749523
   0.59468560  0.39668474  0.54376713
   0.49001988  0.46831246  0.51758616
   0.61526049  0.64519646  0.48337085
   0.50920346  0.56719225  0.45709333
   0.69257389  0.46359251  0.58603396
   0.37931727  0.52750179  0.49494963
   0.50137645  0.66450059  0.53018488
   0.48679152  0.39096582  0.61187209
   0.70351877  0.59350284  0.55532255
   0.50386457  0.56013577  0.59512878
   0.38327567  0.31887272  0.44418397
   0.57967849  0.46744684  0.64117867
   0.60201273  0.52582464  0.52951907
   0.40492126  0.64254484  0.45435086
   0.38110179  0.39792083  0.54011926