  32  32   0   0
  0.2801046E+03  0.2077256E-08  0.2077256E-08  0.2077256E-08  0.1000000E-15
  1.000000000000000E-004
  CAR 
 unknown system                          
      1.81709559    -10.09510343  301     -3.65258913      1.00000000
    -10.095  0.0000E+00  0.0000E+00  0.0000E+00  0.0000E+00
    -10.055  0.0000E+00  0.0000E+00  0.0000E+00  0.0000E+00
    -10.016  0.0000E+00  0.0000E+00  0.0000E+00  0.0000E+00
     -9.976  0.0000E+00  0.0000E+00  0.0000E+00  0.0000E+00
     -9.936  0.0000E+00  0.0000E+00  0.0000E+00  0.0000E+00
     -9.897  0.0000E+00  0.0000E+00  0.0000E+00  0.0000E+00
     -9.857  0.0000E+00  0.0000E+00  0.0000E+00  0.0000E+00
     -9.817  0.0000E+00  0.0000E+00  0.0000E+00  0.0000E+00
     -9.777  0.0000E+00  0.0000E+00  0.0000E+00  0.0000E+00
     -9.738  0.0000E+00  0.0000E+00  0.0000E+00  0.0000E+00
     -9.698  0.0000E+00  0.0000E+00  0.0000E+00  0.0000E+00
     -9.658  0.0000E+00  0.0000E+00  0.0000E+00  0.0000E+00
     -9.619  0.0000E+00  0.0000E+00  0.0000E+00  0.0000E+00
     -9.579  0.0000E+00  0.0000E+00  0.0000E+00  0.0000E+00
     -9.539  0.0000E+00  0.0000E+00  0.1000E-02  0.1000E-02
     -9.499  0.0000E+00  0.0000E+00  0.1000E-02  0.1000E-02
     -9.460  0.0000E+00  0.0000E+00  0.1000E-02  0.1000E-02
     -9.420  0.0000E+00  0.0000E+00  0.1000E-02  0.1000E-02
     -9.380  0.0000E+00  0.0000E+00  0.1000E-02  0.1000E-02
     -9.341  0.0000E+00  0.0000E+00  0.1000E-02  0.1000E-02
     -9.301  0.0000E+00  0.0000E+00  0.1000E-02  0.1000E-02
     -9.261  0.0000E+00  0.0000E+00  0.1000E-02  0.1000E-02
     -9.222  0.0000E+00  0.0000E+00  0.1000E-02  0.1000E-02
     -9.182  0.0000E+00  0.0000E+00  0.1000E-02  0.1000E-02
     -9.142  0.0000E+00  0.0000E+00  0.1000E-02  0.1000E-02
     -9.102  0.0000E+00  0.0000E+00  0.1000E-02  0.1000E-02
     -9.063  0.0000E+00  0.0000E+00  0.1000E-02  0.1000E-02
     -9.023  0.0000E+00  0.0000E+00  0.3000E-02  0.3000E-02
     -8.983  0.0000E+00  0.0000E+00  0.5000E-02  0.5000E-02
     -8.944  0.0000E+00  0.0000E+00  0.6000E-02  0.6000E-02
     -8.904  0.0000E+00  0.0000E+00  0.7000E-02  0.7000E-02
     -8.864  0.0000E+00  0.0000E+00  0.9000E-02  0.9000E-02
     -8.824  0.0000E+00  0.0000E+00  0.1000E-01  0.1000E-01
     -8.785  0.0000E+00  0.0000E+00  0.1200E-01  0.1200E-01
     -8.745  0.0000E+00  0.0000E+00  0.1300E-01  0.1300E-01
     -8.705  0.0000E+00  0.0000E+00  0.1400E-01  0.1400E-01
     -8.666  0.0000E+00  0.0000E+00  0.1400E-01  0.1400E-01
     -8.626  0.0000E+00  0.0000E+00  0.1500E-01  0.1500E-01
     -8.586  0.0000E+00  0.0000E+00  0.1700E-01  0.1700E-01
     -8.547  0.0000E+00  0.0000E+00  0.1900E-01  0.1900E-01
     -8.507  0.0000E+00  0.0000E+00  0.1900E-01  0.1900E-01
     -8.467  0.0000E+00  0.0000E+00  0.2200E-01  0.2200E-01
     -8.427  0.0000E+00  0.0000E+00  0.2500E-01  0.2500E-01
     -8.388  0.0000E+00  0.0000E+00  0.2800E-01  0.2800E-01
     -8.348  0.0000E+00  0.0000E+00  0.2900E-01  0.2900E-01
     -8.308  0.0000E+00  0.0000E+00  0.3000E-01  0.3000E-01
     -8.269  0.0000E+00  0.0000E+00  0.3200E-01  0.3200E-01
     -8.229  0.0000E+00  0.0000E+00  0.3400E-01  0.3400E-01
     -8.189  0.0000E+00  0.0000E+00  0.3600E-01  0.3600E-01
     -8.149  0.0000E+00  0.0000E+00  0.3800E-01  0.3800E-01
     -8.110  0.0000E+00  0.0000E+00  0.4200E-01  0.4200E-01
     -8.070  0.0000E+00  0.0000E+00  0.4400E-01  0.4400E-01
     -8.030  0.0000E+00  0.0000E+00  0.4500E-01  0.4500E-01
     -7.991  0.0000E+00  0.0000E+00  0.4700E-01  0.4700E-01
     -7.951  0.0000E+00  0.0000E+00  0.5000E-01  0.5000E-01
     -7.911  0.0000E+00  0.0000E+00  0.5100E-01  0.5100E-01
     -7.871  0.0000E+00  0.0000E+00  0.5200E-01  0.5200E-01
     -7.832  0.0000E+00  0.0000E+00  0.5600E-01  0.5600E-01
     -7.792  0.0000E+00  0.0000E+00  0.5800E-01  0.5800E-01
     -7.752  0.0000E+00  0.0000E+00  0.6100E-01  0.6100E-01
     -7.713  0.0000E+00  0.0000E+00  0.6300E-01  0.6300E-01
     -7.673  0.0000E+00  0.0000E+00  0.6400E-01  0.6400E-01
     -7.633  0.0000E+00  0.0000E+00  0.6500E-01  0.6500E-01
     -7.594  0.0000E+00  0.0000E+00  0.6800E-01  0.6800E-01
     -7.554  0.0000E+00  0.0000E+00  0.6800E-01  0.6800E-01
     -7.514  0.0000E+00  0.0000E+00  0.7000E-01  0.7000E-01
     -7.474  0.0000E+00  0.0000E+00  0.7200E-01  0.7200E-01
     -7.435  0.2518E-01  0.2518E-01  0.7600E-01  0.7600E-01
     -7.395  0.0000E+00  0.0000E+00  0.7800E-01  0.7800E-01
     -7.355  0.0000E+00  0.0000E+00  0.8000E-01  0.8000E-01
     -7.316  0.0000E+00  0.0000E+00  0.8300E-01  0.8300E-01
     -7.276  0.0000E+00  0.0000E+00  0.8500E-01  0.8500E-01
     -7.236  0.0000E+00  0.0000E+00  0.8700E-01  0.8700E-01
     -7.196  0.0000E+00  0.0000E+00  0.8800E-01  0.8800E-01
     -7.157  0.0000E+00  0.0000E+00  0.9100E-01  0.9100E-01
     -7.117  0.0000E+00  0.0000E+00  0.9300E-01  0.9300E-01
     -7.077  0.0000E+00  0.0000E+00  0.9400E-01  0.9400E-01
     -7.038  0.0000E+00  0.0000E+00  0.9500E-01  0.9500E-01
     -6.998  0.0000E+00  0.0000E+00  0.9600E-01  0.9600E-01
     -6.958  0.0000E+00  0.0000E+00  0.9800E-01  0.9800E-01
     -6.919  0.0000E+00  0.0000E+00  0.1010E+00  0.1010E+00
     -6.879  0.0000E+00  0.0000E+00  0.1040E+00  0.1040E+00
     -6.839  0.0000E+00  0.0000E+00  0.1060E+00  0.1060E+00
     -6.799  0.0000E+00  0.0000E+00  0.1090E+00  0.1090E+00
     -6.760  0.1723E-02  0.1719E-02  0.1131E+00  0.1131E+00
     -6.720  0.2380E-13  0.2360E-13  0.1150E+00  0.1150E+00
     -6.680  0.2518E-01  0.2518E-01  0.1220E+00  0.1220E+00
     -6.641  0.0000E+00  0.0000E+00  0.1240E+00  0.1240E+00
     -6.601  0.2518E-01  0.2518E-01  0.1290E+00  0.1290E+00
     -6.561  0.0000E+00  0.0000E+00  0.1310E+00  0.1310E+00
     -6.521  0.0000E+00  0.0000E+00  0.1330E+00  0.1330E+00
     -6.482  0.0000E+00  0.0000E+00  0.1370E+00  0.1370E+00
     -6.442  0.8644E-06  0.8607E-06  0.1410E+00  0.1410E+00
     -6.402  0.0000E+00  0.0000E+00  0.1440E+00  0.1440E+00
     -6.363  0.2518E-01  0.2518E-01  0.1470E+00  0.1470E+00
     -6.323  0.0000E+00  0.0000E+00  0.1500E+00  0.1500E+00
     -6.283  0.0000E+00  0.0000E+00  0.1530E+00  0.1530E+00
     -6.243  0.0000E+00  0.0000E+00  0.1550E+00  0.1550E+00
     -6.204  0.2518E-01  0.2518E-01  0.1590E+00  0.1590E+00
     -6.164  0.0000E+00  0.0000E+00  0.1610E+00  0.1610E+00
     -6.124  0.2484E-01  0.2483E-01  0.1630E+00  0.1630E+00
     -6.085  0.0000E+00  0.0000E+00  0.1630E+00  0.1630E+00
     -6.045  0.0000E+00  0.0000E+00  0.1640E+00  0.1640E+00
     -6.005  0.0000E+00  0.0000E+00  0.1640E+00  0.1640E+00
     -5.966  0.0000E+00  0.0000E+00  0.1640E+00  0.1640E+00
     -5.926  0.0000E+00  0.0000E+00  0.1640E+00  0.1640E+00
     -5.886  0.0000E+00  0.0000E+00  0.1640E+00  0.1640E+00
     -5.846  0.0000E+00  0.0000E+00  0.1640E+00  0.1640E+00
     -5.807  0.0000E+00  0.0000E+00  0.1640E+00  0.1640E+00
     -5.767  0.0000E+00  0.0000E+00  0.1640E+00  0.1640E+00
     -5.727  0.0000E+00  0.0000E+00  0.1640E+00  0.1640E+00
     -5.688  0.0000E+00  0.0000E+00  0.1650E+00  0.1650E+00
     -5.648  0.0000E+00  0.0000E+00  0.1650E+00  0.1650E+00
     -5.608  0.0000E+00  0.0000E+00  0.1650E+00  0.1650E+00
     -5.568  0.0000E+00  0.0000E+00  0.1650E+00  0.1650E+00
     -5.529  0.0000E+00  0.0000E+00  0.1650E+00  0.1650E+00
     -5.489  0.0000E+00  0.0000E+00  0.1650E+00  0.1650E+00
     -5.449  0.0000E+00  0.0000E+00  0.1660E+00  0.1660E+00
     -5.410  0.0000E+00  0.0000E+00  0.1670E+00  0.1670E+00
     -5.370  0.0000E+00  0.0000E+00  0.1670E+00  0.1670E+00
     -5.330  0.0000E+00  0.0000E+00  0.1670E+00  0.1670E+00
     -5.291  0.0000E+00  0.0000E+00  0.1680E+00  0.1680E+00
     -5.251  0.0000E+00  0.0000E+00  0.1680E+00  0.1680E+00
     -5.211  0.0000E+00  0.0000E+00  0.1690E+00  0.1690E+00
     -5.171  0.0000E+00  0.0000E+00  0.1690E+00  0.1690E+00
     -5.132  0.0000E+00  0.0000E+00  0.1690E+00  0.1690E+00
     -5.092  0.0000E+00  0.0000E+00  0.1690E+00  0.1690E+00
     -5.052  0.0000E+00  0.0000E+00  0.1690E+00  0.1690E+00
     -5.013  0.0000E+00  0.0000E+00  0.1690E+00  0.1690E+00
     -4.973  0.0000E+00  0.0000E+00  0.1690E+00  0.1690E+00
     -4.933  0.0000E+00  0.0000E+00  0.1690E+00  0.1690E+00
     -4.893  0.0000E+00  0.0000E+00  0.1690E+00  0.1690E+00
     -4.854  0.0000E+00  0.0000E+00  0.1690E+00  0.1690E+00
     -4.814  0.0000E+00  0.0000E+00  0.1690E+00  0.1690E+00
     -4.774  0.0000E+00  0.0000E+00  0.1690E+00  0.1690E+00
     -4.735  0.0000E+00  0.0000E+00  0.1690E+00  0.1690E+00
     -4.695  0.0000E+00  0.0000E+00  0.1690E+00  0.1690E+00
     -4.655  0.0000E+00  0.0000E+00  0.1690E+00  0.1690E+00
     -4.615  0.0000E+00  0.0000E+00  0.1690E+00  0.1690E+00
     -4.576  0.0000E+00  0.0000E+00  0.1700E+00  0.1700E+00
     -4.536  0.0000E+00  0.0000E+00  0.1700E+00  0.1700E+00
     -4.496  0.0000E+00  0.0000E+00  0.1700E+00  0.1700E+00
     -4.457  0.0000E+00  0.0000E+00  0.1700E+00  0.1700E+00
     -4.417  0.0000E+00  0.0000E+00  0.1700E+00  0.1700E+00
     -4.377  0.0000E+00  0.0000E+00  0.1700E+00  0.1700E+00
     -4.338  0.0000E+00  0.0000E+00  0.1710E+00  0.1710E+00
     -4.298  0.0000E+00  0.0000E+00  0.1710E+00  0.1710E+00
     -4.258  0.0000E+00  0.0000E+00  0.1710E+00  0.1710E+00
     -4.218  0.0000E+00  0.0000E+00  0.1710E+00  0.1710E+00
     -4.179  0.0000E+00  0.0000E+00  0.1710E+00  0.1710E+00
     -4.139  0.0000E+00  0.0000E+00  0.1710E+00  0.1710E+00
     -4.099  0.0000E+00  0.0000E+00  0.1710E+00  0.1710E+00
     -4.060  0.0000E+00  0.0000E+00  0.1710E+00  0.1710E+00
     -4.020  0.0000E+00  0.0000E+00  0.1710E+00  0.1710E+00
     -3.980  0.0000E+00  0.0000E+00  0.1710E+00  0.1710E+00
     -3.940  0.0000E+00  0.0000E+00  0.1710E+00  0.1710E+00
     -3.901  0.0000E+00  0.0000E+00  0.1720E+00  0.1720E+00
     -3.861  0.0000E+00  0.0000E+00  0.1720E+00  0.1720E+00
     -3.821  0.0000E+00  0.0000E+00  0.1720E+00  0.1720E+00
     -3.782  0.0000E+00  0.0000E+00  0.1720E+00  0.1720E+00
     -3.742  0.0000E+00  0.0000E+00  0.1730E+00  0.1730E+00
     -3.702  0.0000E+00  0.0000E+00  0.1740E+00  0.1740E+00
     -3.663  0.0000E+00  0.0000E+00  0.1760E+00  0.1760E+00
     -3.623  0.0000E+00  0.0000E+00  0.1760E+00  0.1760E+00
     -3.583  0.0000E+00  0.0000E+00  0.1760E+00  0.1760E+00
     -3.543  0.0000E+00  0.0000E+00  0.1760E+00  0.1760E+00
     -3.504  0.0000E+00  0.0000E+00  0.1760E+00  0.1760E+00
     -3.464  0.0000E+00  0.0000E+00  0.1760E+00  0.1760E+00
     -3.424  0.0000E+00  0.0000E+00  0.1760E+00  0.1760E+00
     -3.385  0.0000E+00  0.0000E+00  0.1760E+00  0.1760E+00
     -3.345  0.0000E+00  0.0000E+00  0.1760E+00  0.1760E+00
     -3.305  0.0000E+00  0.0000E+00  0.1760E+00  0.1760E+00
     -3.265  0.0000E+00  0.0000E+00  0.1760E+00  0.1760E+00
     -3.226  0.0000E+00  0.0000E+00  0.1760E+00  0.1760E+00
     -3.186  0.0000E+00  0.0000E+00  0.1760E+00  0.1760E+00
     -3.146  0.0000E+00  0.0000E+00  0.1770E+00  0.1770E+00
     -3.107  0.0000E+00  0.0000E+00  0.1770E+00  0.1770E+00
     -3.067  0.0000E+00  0.0000E+00  0.1770E+00  0.1770E+00
     -3.027  0.0000E+00  0.0000E+00  0.1770E+00  0.1770E+00
     -2.987  0.0000E+00  0.0000E+00  0.1770E+00  0.1770E+00
     -2.948  0.0000E+00  0.0000E+00  0.1770E+00  0.1770E+00
     -2.908  0.0000E+00  0.0000E+00  0.1770E+00  0.1770E+00
     -2.868  0.0000E+00  0.0000E+00  0.1780E+00  0.1780E+00
     -2.829  0.0000E+00  0.0000E+00  0.1780E+00  0.1780E+00
     -2.789  0.0000E+00  0.0000E+00  0.1780E+00  0.1780E+00
     -2.749  0.0000E+00  0.0000E+00  0.1780E+00  0.1780E+00
     -2.710  0.0000E+00  0.0000E+00  0.1780E+00  0.1780E+00
     -2.670  0.0000E+00  0.0000E+00  0.1790E+00  0.1790E+00
     -2.630  0.0000E+00  0.0000E+00  0.1790E+00  0.1790E+00
     -2.590  0.0000E+00  0.0000E+00  0.1800E+00  0.1800E+00
     -2.551  0.0000E+00  0.0000E+00  0.1800E+00  0.1800E+00
     -2.511  0.0000E+00  0.0000E+00  0.1800E+00  0.1800E+00
     -2.471  0.0000E+00  0.0000E+00  0.1800E+00  0.1800E+00
     -2.432  0.0000E+00  0.0000E+00  0.1800E+00  0.1800E+00
     -2.392  0.0000E+00  0.0000E+00  0.1810E+00  0.1810E+00
     -2.352  0.0000E+00  0.0000E+00  0.1810E+00  0.1810E+00
     -2.312  0.0000E+00  0.0000E+00  0.1810E+00  0.1810E+00
     -2.273  0.0000E+00  0.0000E+00  0.1830E+00  0.1830E+00
     -2.233  0.0000E+00  0.0000E+00  0.1830E+00  0.1830E+00
     -2.193  0.0000E+00  0.0000E+00  0.1830E+00  0.1830E+00
     -2.154  0.0000E+00  0.0000E+00  0.1830E+00  0.1830E+00
     -2.114  0.0000E+00  0.0000E+00  0.1830E+00  0.1830E+00
     -2.074  0.0000E+00  0.0000E+00  0.1830E+00  0.1830E+00
     -2.035  0.0000E+00  0.0000E+00  0.1830E+00  0.1830E+00
     -1.995  0.0000E+00  0.0000E+00  0.1840E+00  0.1840E+00
     -1.955  0.0000E+00  0.0000E+00  0.1840E+00  0.1840E+00
     -1.915  0.0000E+00  0.0000E+00  0.1850E+00  0.1850E+00
     -1.876  0.0000E+00  0.0000E+00  0.1860E+00  0.1860E+00
     -1.836  0.0000E+00  0.0000E+00  0.1860E+00  0.1860E+00
     -1.796  0.0000E+00  0.0000E+00  0.1860E+00  0.1860E+00
     -1.757  0.0000E+00  0.0000E+00  0.1870E+00  0.1870E+00
     -1.717  0.0000E+00  0.0000E+00  0.1870E+00  0.1870E+00
     -1.677  0.0000E+00  0.0000E+00  0.1870E+00  0.1870E+00
     -1.637  0.0000E+00  0.0000E+00  0.1870E+00  0.1870E+00
     -1.598  0.0000E+00  0.0000E+00  0.1870E+00  0.1870E+00
     -1.558  0.0000E+00  0.0000E+00  0.1870E+00  0.1870E+00
     -1.518  0.0000E+00  0.0000E+00  0.1870E+00  0.1870E+00
     -1.479  0.0000E+00  0.0000E+00  0.1890E+00  0.1890E+00
     -1.439  0.0000E+00  0.0000E+00  0.1900E+00  0.1900E+00
     -1.399  0.0000E+00  0.0000E+00  0.1900E+00  0.1900E+00
     -1.359  0.0000E+00  0.0000E+00  0.1910E+00  0.1910E+00
     -1.320  0.0000E+00  0.0000E+00  0.1910E+00  0.1910E+00
     -1.280  0.0000E+00  0.0000E+00  0.1910E+00  0.1910E+00
     -1.240  0.0000E+00  0.0000E+00  0.1920E+00  0.1920E+00
     -1.201  0.0000E+00  0.0000E+00  0.1920E+00  0.1920E+00
     -1.161  0.0000E+00  0.0000E+00  0.1920E+00  0.1920E+00
     -1.121  0.0000E+00  0.0000E+00  0.1920E+00  0.1920E+00
     -1.082  0.0000E+00  0.0000E+00  0.1930E+00  0.1930E+00
     -1.042  0.0000E+00  0.0000E+00  0.1940E+00  0.1940E+00
     -1.002  0.0000E+00  0.0000E+00  0.1940E+00  0.1940E+00
     -0.962  0.0000E+00  0.0000E+00  0.1940E+00  0.1940E+00
     -0.923  0.0000E+00  0.0000E+00  0.1940E+00  0.1940E+00
     -0.883  0.0000E+00  0.0000E+00  0.1940E+00  0.1940E+00
     -0.843  0.0000E+00  0.0000E+00  0.1940E+00  0.1940E+00
     -0.804  0.0000E+00  0.0000E+00  0.1940E+00  0.1940E+00
     -0.764  0.0000E+00  0.0000E+00  0.1940E+00  0.1940E+00
     -0.724  0.0000E+00  0.0000E+00  0.1940E+00  0.1940E+00
     -0.684  0.0000E+00  0.0000E+00  0.1950E+00  0.1950E+00
     -0.645  0.0000E+00  0.0000E+00  0.1950E+00  0.1950E+00
     -0.605  0.0000E+00  0.0000E+00  0.1950E+00  0.1950E+00
     -0.565  0.0000E+00  0.0000E+00  0.1950E+00  0.1950E+00
     -0.526  0.0000E+00  0.0000E+00  0.1950E+00  0.1950E+00
     -0.486  0.2512E-01  0.2512E-01  0.1960E+00  0.1960E+00
     -0.446  0.0000E+00  0.0000E+00  0.1970E+00  0.1970E+00
     -0.407  0.0000E+00  0.0000E+00  0.1980E+00  0.1980E+00
     -0.367  0.0000E+00  0.0000E+00  0.1980E+00  0.1980E+00
     -0.327  0.0000E+00  0.0000E+00  0.1980E+00  0.1980E+00
     -0.287  0.0000E+00  0.0000E+00  0.1980E+00  0.1980E+00
     -0.248  0.0000E+00  0.0000E+00  0.1980E+00  0.1980E+00
     -0.208  0.0000E+00  0.0000E+00  0.1980E+00  0.1980E+00
     -0.168  0.0000E+00  0.0000E+00  0.1980E+00  0.1980E+00
     -0.129  0.0000E+00  0.0000E+00  0.2000E+00  0.2000E+00
     -0.089  0.0000E+00  0.0000E+00  0.2010E+00  0.2010E+00
     -0.049  0.0000E+00  0.0000E+00  0.2010E+00  0.2010E+00
     -0.009  0.0000E+00  0.0000E+00  0.2010E+00  0.2010E+00
      0.030  0.0000E+00  0.0000E+00  0.2020E+00  0.2020E+00
      0.070  0.0000E+00  0.0000E+00  0.2020E+00  0.2020E+00
      0.110  0.0000E+00  0.0000E+00  0.2020E+00  0.2020E+00
      0.149  0.0000E+00  0.0000E+00  0.2020E+00  0.2020E+00
      0.189  0.0000E+00  0.0000E+00  0.2020E+00  0.2020E+00
      0.229  0.0000E+00  0.0000E+00  0.2030E+00  0.2030E+00
      0.269  0.0000E+00  0.0000E+00  0.2030E+00  0.2030E+00
      0.308  0.7704E-02  0.7948E-02  0.2033E+00  0.2033E+00
      0.348  0.0000E+00  0.0000E+00  0.2050E+00  0.2050E+00
      0.388  0.0000E+00  0.0000E+00  0.2050E+00  0.2050E+00
      0.427  0.0000E+00  0.0000E+00  0.2060E+00  0.2060E+00
      0.467  0.0000E+00  0.0000E+00  0.2060E+00  0.2060E+00
      0.507  0.0000E+00  0.0000E+00  0.2070E+00  0.2070E+00
      0.546  0.0000E+00  0.0000E+00  0.2070E+00  0.2070E+00
      0.586  0.0000E+00  0.0000E+00  0.2080E+00  0.2080E+00
      0.626  0.0000E+00  0.0000E+00  0.2090E+00  0.2090E+00
      0.666  0.0000E+00  0.0000E+00  0.2100E+00  0.2100E+00
      0.705  0.0000E+00  0.0000E+00  0.2100E+00  0.2100E+00
      0.745  0.0000E+00  0.0000E+00  0.2110E+00  0.2110E+00
      0.785  0.0000E+00  0.0000E+00  0.2120E+00  0.2120E+00
      0.824  0.0000E+00  0.0000E+00  0.2130E+00  0.2130E+00
      0.864  0.0000E+00  0.0000E+00  0.2150E+00  0.2150E+00
      0.904  0.0000E+00  0.0000E+00  0.2150E+00  0.2150E+00
      0.944  0.0000E+00  0.0000E+00  0.2150E+00  0.2150E+00
      0.983  0.0000E+00  0.0000E+00  0.2150E+00  0.2150E+00
      1.023  0.0000E+00  0.0000E+00  0.2170E+00  0.2170E+00
      1.063  0.0000E+00  0.0000E+00  0.2180E+00  0.2180E+00
      1.102  0.0000E+00  0.0000E+00  0.2190E+00  0.2190E+00
      1.142  0.0000E+00  0.0000E+00  0.2210E+00  0.2210E+00
      1.182  0.3616E-05  0.6454E-05  0.2220E+00  0.2220E+00
      1.221  0.0000E+00  0.0000E+00  0.2230E+00  0.2230E+00
      1.261  0.0000E+00  0.0000E+00  0.2260E+00  0.2260E+00
      1.301  0.0000E+00  0.0000E+00  0.2280E+00  0.2280E+00
      1.341  0.0000E+00  0.0000E+00  0.2280E+00  0.2280E+00
      1.380  0.0000E+00  0.0000E+00  0.2280E+00  0.2280E+00
      1.420  0.0000E+00  0.0000E+00  0.2280E+00  0.2280E+00
      1.460  0.0000E+00  0.0000E+00  0.2280E+00  0.2280E+00
      1.499  0.0000E+00  0.0000E+00  0.2280E+00  0.2280E+00
      1.539  0.0000E+00  0.0000E+00  0.2280E+00  0.2280E+00
      1.579  0.0000E+00  0.0000E+00  0.2280E+00  0.2280E+00
      1.619  0.0000E+00  0.0000E+00  0.2280E+00  0.2280E+00
      1.658  0.0000E+00  0.0000E+00  0.2280E+00  0.2280E+00
      1.698  0.0000E+00  0.0000E+00  0.2280E+00  0.2280E+00
      1.738  0.0000E+00  0.0000E+00  0.2280E+00  0.2280E+00
      1.777  0.0000E+00  0.0000E+00  0.2280E+00  0.2280E+00
      1.817  0.0000E+00  0.0000E+00  0.2280E+00  0.2280E+00
