31
Energy = -65.05810692 eV
Ag 11.046387362334796 9.557205148699286 6.7150737120852835
Ag 13.285283763433393 11.356981058863578 6.837995967726642
Ag 10.577508845715087 7.767376716727571 8.853710330002109
Ag 12.615133650376249 9.792337055971156 9.048126915410425
Ag 12.938548134659793 13.83977124112914 8.226941757256252
Ag 10.808338777506398 12.053902626891194 7.946760933858645
Ag 8.797347228969542 10.085362912730186 8.432472144577876
Ag 14.580465048483708 11.817626967859034 9.30016725865193
Ag 12.268296398805191 7.916150374449432 11.2539772333642
Ag 7.963047013487317 7.907218050199758 9.937857091482947
Ag 11.769573763365646 12.253048616226165 10.714449166441481
Ag 9.942729641446608 6.375725116377267 11.195721166657389
Ag 15.084745813937346 14.620620992850908 9.72962668648711
Ag 10.492353224726152 14.641319477222384 9.148294593515905
Ag 10.279655695147799 9.860723108247473 10.802410706686228
Ag 13.839400190556697 10.25696434000724 11.505625111851177
Ag 10.781780783774153 7.217907207166467 13.69630303344936
Ag 12.57682916397537 15.003451441475118 10.998550137608696
Ag 14.45201535329336 12.987788104153791 11.856792147289664
Ag 8.510993840186956 8.409762240123996 12.641282966208074
Ag 8.97897220578519 12.454005544372063 10.00757243804321
Ag 7.381581949964431 10.417086959848808 10.995242942940587
Ag 9.705485504822382 11.657399716085742 12.980535730057678
Ag 11.79046211408513 9.749219892117658 13.329886163424963
Ag 13.887707391100244 11.382913812914577 14.077114948602667
Ag 12.064710284462993 13.353609280706786 13.332460179901366
Ag 7.405404171480043 13.003957605740819 12.249960848311671
Ag 7.202302583420183 10.603512791159396 13.788922032272268
Ag 9.918195541034896 14.370634100438489 11.859698374326305
Ag 11.331850950633337 11.583219059330617 15.386928657514066
Ag 9.51163685783681 9.494054930022823 14.994410010972333
