   50   50 1000    2
  0.2500891E+03  0.2321070E-08  0.2321070E-08  0.2321070E-08  0.1000000E-15
  1.000000000000000E-004
  CAR 
 unknown system                          
    550      1    356
 
  0.0000000E+00  0.0000000E+00  0.0000000E+00  0.1000000E+01
    1       -9.738614     -9.738614
    2       -9.174325     -9.174325
    3       -9.157084     -9.157084
    4       -9.093880     -9.093880
    5       -9.056396     -9.056396
    6       -9.046924     -9.046924
    7       -9.010765     -9.010765
    8       -8.966258     -8.966258
    9       -8.958531     -8.958531
   10       -8.950242     -8.950242
   11       -8.916235     -8.916234
   12       -8.902540     -8.902540
   13       -8.847554     -8.847554
   14       -8.828014     -8.828014
   15       -8.792610     -8.792610
   16       -8.785996     -8.785996
   17       -8.759015     -8.759015
   18       -8.741547     -8.741547
   19       -8.728371     -8.728371
   20       -8.714390     -8.714390
   21       -8.687653     -8.687653
   22       -8.676216     -8.676216
   23       -8.661890     -8.661890
   24       -8.640513     -8.640513
   25       -8.608534     -8.608534
   26       -8.576433     -8.576433
   27       -8.567174     -8.567174
   28       -8.550930     -8.550930
   29       -8.538758     -8.538758
   30       -8.526492     -8.526492
   31       -8.514630     -8.514630
   32       -8.493600     -8.493600
   33       -8.477908     -8.477908
   34       -8.475351     -8.475351
   35       -8.461333     -8.461333
   36       -8.446509     -8.446509
   37       -8.431899     -8.431899
   38       -8.420551     -8.420551
   39       -8.401480     -8.401480
   40       -8.390452     -8.390452
   41       -8.379652     -8.379652
   42       -8.373652     -8.373652
   43       -8.358876     -8.358876
   44       -8.349702     -8.349702
   45       -8.328198     -8.328198
   46       -8.313635     -8.313635
   47       -8.302189     -8.302189
   48       -8.295244     -8.295244
   49       -8.290965     -8.290965
   50       -8.282907     -8.282907
   51       -8.266745     -8.266745
   52       -8.247812     -8.247812
   53       -8.237600     -8.237600
   54       -8.218162     -8.218162
   55       -8.203996     -8.203996
   56       -8.196686     -8.196686
   57       -8.182683     -8.182683
   58       -8.166640     -8.166640
   59       -8.152734     -8.152735
   60       -8.140787     -8.140787
   61       -8.127725     -8.127725
   62       -8.122639     -8.122639
   63       -8.106099     -8.106099
   64       -8.092819     -8.092819
   65       -8.086629     -8.086629
   66       -8.057249     -8.057249
   67       -8.053136     -8.053136
   68       -8.034526     -8.034526
   69       -8.029327     -8.029327
   70       -8.005737     -8.005737
   71       -8.001749     -8.001749
   72       -7.997219     -7.997219
   73       -7.972738     -7.972738
   74       -7.950185     -7.950185
   75       -7.944490     -7.944490
   76       -7.934631     -7.934631
   77       -7.923442     -7.923442
   78       -7.907074     -7.907074
   79       -7.887744     -7.887744
   80       -7.882185     -7.882185
   81       -7.861128     -7.861128
   82       -7.841986     -7.841986
   83       -7.830549     -7.830549
   84       -7.821216     -7.821216
   85       -7.814219     -7.814219
   86       -7.803432     -7.803432
   87       -7.773582     -7.773582
   88       -7.767423     -7.767423
   89       -7.754913     -7.754913
   90       -7.734638     -7.734638
   91       -7.734082     -7.734082
   92       -7.713781     -7.713781
   93       -7.695148     -7.695148
   94       -7.681048     -7.681048
   95       -7.672891     -7.672891
   96       -7.645360     -7.645360
   97       -7.623394     -7.623394
   98       -7.617434     -7.617434
   99       -7.603414     -7.603414
  100       -7.602169     -7.602169
  101       -7.581711     -7.581711
  102       -7.572236     -7.572236
  103       -7.554104     -7.554104
  104       -7.552748     -7.552748
  105       -7.545967     -7.545967
  106       -7.520566     -7.520566
  107       -7.508915     -7.508915
  108       -7.494488     -7.494488
  109       -7.488849     -7.488849
  110       -7.480061     -7.480061
  111       -7.471134     -7.471134
  112       -7.464960     -7.464960
  113       -7.442489     -7.442489
  114       -7.425623     -7.425623
  115       -7.413819     -7.413819
  116       -7.403411     -7.403411
  117       -7.395088     -7.395088
  118       -7.367268     -7.367268
  119       -7.362263     -7.362263
  120       -7.346777     -7.346777
  121       -7.338644     -7.338644
  122       -7.328120     -7.328120
  123       -7.325689     -7.325689
  124       -7.302168     -7.302168
  125       -7.293620     -7.293620
  126       -7.285371     -7.285371
  127       -7.267230     -7.267230
  128       -7.258864     -7.258864
  129       -7.240521     -7.240521
  130       -7.226944     -7.226944
  131       -7.211580     -7.211580
  132       -7.201305     -7.201305
  133       -7.187785     -7.187785
  134       -7.181328     -7.181328
  135       -7.171579     -7.171579
  136       -7.167597     -7.167597
  137       -7.150901     -7.150902
  138       -7.123792     -7.123792
  139       -7.121817     -7.121817
  140       -7.108861     -7.108861
  141       -7.089461     -7.089461
  142       -7.077523     -7.077523
  143       -7.069909     -7.069909
  144       -7.047922     -7.047922
  145       -7.045102     -7.045102
  146       -7.029456     -7.029456
  147       -7.015755     -7.015755
  148       -6.996936     -6.996936
  149       -6.996083     -6.996083
  150       -6.975377     -6.975377
  151       -6.970071     -6.970071
  152       -6.962739     -6.962739
  153       -6.944690     -6.944690
  154       -6.938668     -6.938668
  155       -6.931407     -6.931407
  156       -6.922040     -6.922040
  157       -6.912686     -6.912686
  158       -6.895752     -6.895752
  159       -6.881501     -6.881501
  160       -6.871171     -6.871171
  161       -6.866789     -6.866789
  162       -6.857322     -6.857322
  163       -6.848520     -6.848520
  164       -6.840789     -6.840789
  165       -6.829662     -6.829662
  166       -6.823928     -6.823928
  167       -6.815126     -6.815126
  168       -6.803614     -6.803614
  169       -6.795967     -6.795967
  170       -6.788002     -6.788002
  171       -6.777826     -6.777826
  172       -6.773355     -6.773355
  173       -6.758418     -6.758418
  174       -6.752324     -6.752324
  175       -6.748848     -6.748848
  176       -6.736670     -6.736670
  177       -6.731546     -6.731546
  178       -6.722637     -6.722637
  179       -6.709935     -6.709936
  180       -6.696819     -6.696819
  181       -6.692126     -6.692126
  182       -6.685323     -6.685323
  183       -6.671701     -6.671701
  184       -6.666546     -6.666546
  185       -6.656263     -6.656263
  186       -6.648528     -6.648528
  187       -6.647174     -6.647174
  188       -6.633838     -6.633838
  189       -6.629964     -6.629964
  190       -6.625803     -6.625803
  191       -6.618051     -6.618051
  192       -6.605484     -6.605484
  193       -6.594050     -6.594050
  194       -6.585081     -6.585082
  195       -6.583008     -6.583008
  196       -6.570885     -6.570885
  197       -6.563335     -6.563335
  198       -6.555336     -6.555336
  199       -6.549215     -6.549215
  200       -6.541080     -6.541080
  201       -6.535221     -6.535221
  202       -6.523353     -6.523353
  203       -6.520744     -6.520744
  204       -6.514723     -6.514723
  205       -6.510753     -6.510753
  206       -6.494172     -6.494173
  207       -6.485348     -6.485348
  208       -6.484678     -6.484678
  209       -6.474678     -6.474678
  210       -6.467155     -6.467155
  211       -6.465136     -6.465136
  212       -6.454043     -6.454043
  213       -6.444904     -6.444904
  214       -6.440364     -6.440364
  215       -6.429498     -6.429498
  216       -6.424714     -6.424714
  217       -6.418488     -6.418488
  218       -6.413124     -6.413124
  219       -6.405813     -6.405813
  220       -6.397485     -6.397485
  221       -6.395013     -6.395013
  222       -6.371206     -6.371206
  223       -6.366068     -6.366068
  224       -6.361456     -6.361456
  225       -6.356855     -6.356855
  226       -6.338792     -6.338792
  227       -6.331118     -6.331118
  228       -6.322248     -6.322248
  229       -6.312811     -6.312812
  230       -6.304931     -6.304931
  231       -6.301691     -6.301691
  232       -6.282637     -6.282637
  233       -6.272337     -6.272337
  234       -6.253628     -6.253628
  235       -6.239880     -6.239880
  236       -6.237718     -6.237718
  237       -6.226516     -6.226516
  238       -6.213335     -6.213335
  239       -6.205441     -6.205441
  240       -6.203585     -6.203585
  241       -6.189550     -6.189550
  242       -6.167195     -6.167195
  243       -6.155502     -6.155502
  244       -6.144158     -6.144158
  245       -6.132413     -6.132413
  246       -6.130382     -6.130382
  247       -6.116044     -6.116044
  248       -6.097444     -6.097444
  249       -6.088592     -6.088592
  250       -6.069335     -6.069335
  251       -6.055125     -6.055125
  252       -6.042147     -6.042147
  253       -6.024793     -6.024793
  254       -6.018273     -6.018273
  255       -5.992613     -5.992613
  256       -5.980457     -5.980457
  257       -5.968587     -5.968587
  258       -5.929611     -5.929611
  259       -5.775050     -5.775050
  260       -5.602845     -5.602845
  261       -5.133398     -5.133398
  262       -5.123090     -5.123090
  263       -4.973554     -4.973554
  264       -4.865093     -4.865093
  265       -4.793230     -4.793230
  266       -4.586562     -4.586562
  267       -4.576326     -4.576326
  268       -4.294387     -4.294387
  269       -4.031562     -4.031562
  270       -3.819518     -3.819518
  271       -3.641513     -3.641513
  272       -3.543017     -3.543017
  273       -3.510842     -3.510842
  274       -3.407216     -3.407215
  275       -3.362941     -3.362941
  276       -3.086620     -3.086620
  277       -3.000507     -3.000506
  278       -2.924725     -2.924724
  279       -2.881191     -2.881191
  280       -2.804611     -2.804611
  281       -2.694788     -2.694788
  282       -2.396068     -2.396068
  283       -2.341158     -2.341158
  284       -2.224389     -2.224389
  285       -2.063927     -2.063926
  286       -1.996260     -1.996260
  287       -1.937077     -1.937077
  288       -1.901230     -1.901230
  289       -1.819018     -1.819018
  290       -1.625771     -1.625771
  291       -1.587653     -1.587652
  292       -1.523304     -1.523304
  293       -1.496757     -1.496757
  294       -1.409226     -1.409226
  295       -1.368353     -1.368353
  296       -1.298839     -1.298839
  297       -1.166680     -1.166680
  298       -1.119963     -1.119963
  299       -1.035282     -1.035282
  300       -0.933101     -0.933101
  301       -0.885117     -0.885117
  302       -0.837745     -0.837745
  303       -0.714919     -0.714919
  304       -0.630728     -0.630727
  305       -0.486605     -0.486605
  306       -0.457909     -0.457909
  307       -0.432981     -0.432981
  308       -0.370536     -0.370536
  309       -0.290856     -0.290856
  310       -0.244951     -0.244950
  311       -0.049918     -0.049917
  312       -0.012619     -0.012618
  313        0.058410      0.058411
  314        0.185831      0.185832
  315        0.228118      0.228118
  316        0.279550      0.279551
  317        0.333918      0.333918
  318        0.413488      0.413488
  319        0.456124      0.456125
  320        0.540585      0.540587
  321        0.603243      0.603244
  322        0.637328      0.637334
  323        0.699491      0.699498
  324        0.751274      0.751282
  325        0.814653      0.814654
  326        0.870114      0.870116
  327        0.883985      0.883990
  328        0.896497      0.896500
  329        0.935800      0.935804
  330        0.994344      0.994348
  331        1.006275      1.006277
  332        1.036614      1.036616
  333        1.044643      1.044647
  334        1.079022      1.079025
  335        1.121384      1.121389
  336        1.128127      1.128133
  337        1.134891      1.134894
  338        1.154398      1.154403
  339        1.179219      1.179222
  340        1.201663      1.201665
  341        1.237733      1.237736
  342        1.248668      1.248671
  343        1.272130      1.272133
  344        1.310798      1.310801
  345        1.359857      1.359858
  346        1.380513      1.380516
  347        1.389015      1.389018
  348        1.406942      1.406944
  349        1.415029      1.415031
  350        1.428598      1.428602
  351        1.464582      1.464585
  352        1.487798      1.487799
  353        1.509746      1.509751
  354        1.521768      1.521771
  355        1.543347      1.543350
  356        1.567206      1.567214
