13
Energy = -3.91297478 eV
Zn 9.06239423243198 8.346482169829454 7.647531886630798
Zn 8.757843134490924 5.291270030670116 8.389911144970467
Zn 9.364466109759677 6.122783025444294 5.414672040927048
Zn 6.824491687281854 7.409881321265217 9.632372688735423
Zn 7.760401600453251 8.767726961752397 4.824859129857612
Zn 6.2422485362660955 9.304205375749989 7.348698952027316
Zn 6.70714226141945 6.000812085732586 3.841227955167447
Zn 6.739336068450392 6.712613916314151 6.714478685356979
Zn 5.778079155875301 4.642818167862051 8.628604799974761
Zn 4.139346065175524 7.291764999414878 8.029206074929531
Zn 4.7159167473503 8.118838311614574 5.062941622100486
Zn 7.263675010195406 4.105558636077407 6.112869967363577
Zn 4.447677986959064 5.068531047282408 5.801950150952147
