16
Energy = -6.21555831 eV
Zn 8.788871312297529 10.047218 11.36060286908615
Zn 8.788871312297529 10.047218 8.733833130913851
Zn 11.324276401267726 12.979647646341961 10.047218
Zn 11.30556468770247 10.047218 8.733833130913851
Zn 11.324276401267726 7.1147883536580405 10.047218
Zn 11.30556468770247 10.047218 11.36060286908615
Zn 10.047218 12.269886076435814 12.261257497740276
Zn 10.047218 7.8245499235641915 7.833178502259727
Zn 13.420360431238382 8.695250789179156 10.047218
Zn 8.770159598732276 7.1147883536580405 10.047218
Zn 8.770159598732276 12.979647646341961 10.047218
Zn 10.047218 12.269886076435814 7.833178502259727
Zn 13.420360431238382 11.399185210820846 10.047218
Zn 10.047218 7.8245499235641915 12.261257497740276
Zn 6.674075568761619 8.695250789179156 10.047218
Zn 6.674075568761619 11.399185210820846 10.047218
