10
Energy = -3.42801675 eV
Zn 9.628934072438408 10.147820826634048 6.109246081117462
Zn 7.604724149852485 9.84885001252905 7.671011248588456
Zn 10.385763756781872 10.276511553519128 8.617807816144177
Zn 5.972868121267148 9.34197407218136 9.60533813381002
Zn 9.771263719064534 7.88600891160901 7.5212445480012855
Zn 10.366253209468782 10.134623696733154 11.270536249428497
Zn 8.373449797028831 8.414185147482648 10.1487739660223
Zn 10.969046272919243 7.80241187273395 10.016474065556835
Zn 7.915834069932138 11.0826717295108 10.280924270399543
Zn 12.490171874350203 8.543251220170763 12.236952664035607
