10
Energy = -4.34313554 eV
Zn 7.336205941016854 7.917164967455894 6.533432333679072
Zn 9.707599954005264 9.067895741653157 7.4111860309046325
Zn 9.636136062990738 6.995028656010965 5.819440086510359
Zn 7.449144745171617 10.498454025487232 7.107509626931133
Zn 9.055121363145311 6.5170462816618135 8.281174054431371
Zn 6.417808952425858 6.268527128794655 8.39488550310475
Zn 6.0549144823094965 8.85166504613825 8.642842573352596
Zn 10.20542187766087 8.240556450633274 9.906273208609498
Zn 8.366737254681546 10.042065401866797 9.503936208226852
Zn 7.695292133629952 7.525979067335722 10.32370314128713
