14
Energy = -5.8845114 eV
Zn 9.03025894051545 9.118963963709563 8.051593652770949
Zn 11.80877518501915 8.975626634453551 8.196905091621094
Zn 6.285204557352958 9.000454094139297 8.37478908168905
Zn 10.367276824328627 11.507024637986728 8.193486998900433
Zn 7.828267817526477 11.571727514538658 8.317479487584944
Zn 10.479486887390367 6.811597924773657 8.105340558567624
Zn 7.5764397182023 6.798678325242791 8.300312007237375
Zn 9.204740240655601 10.79050365171979 10.408936585021555
Zn 12.886105616343743 11.267791612394008 8.621026641553467
Zn 5.334685607110669 11.343326117308525 8.859040781873109
Zn 10.603177992057567 8.098155639925368 10.35743125835853
Zn 7.62964335734805 8.226109176254667 10.474010558190308
Zn 9.083752511307168 4.764851505588043 8.789313431602599
Zn 9.2240007227581 9.067005201965735 12.29214984294469
