15
Energy = -5.79824216 eV
Zn 11.201934794089391 12.202561150723076 9.523204294387376
Zn 8.93630025274625 11.085729749160938 9.027920561218144
Zn 11.114392216713345 9.468485171024174 13.754168367709735
Zn 6.406380829427888 9.987249021456702 9.007590636014488
Zn 7.532437509116037 10.018761557503852 11.255529972217992
Zn 9.602111667543747 11.82230040621922 11.460529257877395
Zn 8.984406602477396 8.385119643889848 9.300973517036478
Zn 13.893226956302803 9.89486257698595 9.752282844832719
Zn 10.039713560183557 8.398699930323444 11.598172959332082
Zn 11.894006322172348 10.454221585205467 11.45625740433007
Zn 11.514538286481532 8.769175836294723 9.38965638435964
Zn 7.90004280690789 9.369396671627891 7.059024105051696
Zn 8.75331654202966 10.324651167038505 13.43182652341592
Zn 12.512038819988783 10.80696244216784 7.744187258159688
Zn 10.420108345813087 9.498327359433286 7.009627930020786
