20
Energy = -11.76100097 eV
Zn 7.854771844651169 8.195318174790705 9.161460908335439
Zn 6.088356756048703 9.668853876278863 10.380835819541058
Zn 9.366755219842034 9.523866218731255 7.347025092258675
Zn 9.940712868172644 6.9910025581471595 8.302787523074565
Zn 7.705331402309908 10.901140159447674 8.787013094977262
Zn 7.679970257263202 8.36255853566147 11.862447750159845
Zn 8.024286752657938 11.09241317938239 11.436082069633544
Zn 12.114301503246981 8.244312814433398 9.417746720652714
Zn 9.651485404340859 12.187727584975468 7.495364594827671
Zn 9.922719188580958 7.519383171199759 10.85713397122571
Zn 8.821012349342086 13.06161347751877 9.787764292972115
Zn 10.43316047794671 11.990957186137482 11.613721689510536
Zn 11.617583931016112 8.25216676838752 6.8764152264514555
Zn 12.097782041815012 10.653727250138598 13.069035233954441
Zn 11.36090592012047 12.876219053449582 9.306626794062046
Zn 12.12647489899471 8.381098014311267 11.96475233906821
Zn 9.938329029710184 9.972932619703748 9.918735942905451
Zn 11.709921805362336 10.603401190117065 7.986818169242797
Zn 9.782658807284951 9.531096310059118 12.716736344286398
Zn 12.45757785457819 10.71074359034492 10.469339764962115
