29
Energy = -17.60199907 eV
Zn 13.87966605744968 9.882612144788286 8.481891085524328
Zn 13.812052199728145 10.337033230245424 11.111181080670615
Zn 13.201235497415814 12.502063707968869 12.98454852403669
Zn 12.231742277253913 8.616966722848671 12.477892025045158
Zn 12.60604497120344 8.002253785002882 10.039823727935705
Zn 12.401082775836228 7.928127126468435 7.383374924988807
Zn 11.983835668952173 10.638220347708383 14.106335314848936
Zn 12.017861081901302 10.21990567512869 6.371983965476073
Zn 12.421754630291753 12.035402063444975 8.131387791211898
Zn 12.977343387018324 12.84565321924271 10.473707805495293
Zn 9.779132083778814 8.748387715834872 6.673351254241368
Zn 10.977831326482411 9.882491071938125 9.129101133084271
Zn 11.097065573971394 10.846525534367052 11.471437868517523
Zn 10.354491615088614 7.190562024006862 8.719909508873764
Zn 10.15514640091642 7.858808530033396 11.168198309968664
Zn 10.974563565411733 13.551843304488811 12.021139377061235
Zn 7.990712623018015 7.591615936225242 9.558408546560171
Zn 10.442496520791552 12.797614844409475 9.553599313013006
Zn 8.833190830094193 10.247261476334284 10.424617333185308
Zn 9.757768425800112 12.039026814606402 13.767881232897157
Zn 9.870234835072562 11.447753329290812 7.305835116656994
Zn 7.66080343004954 9.766909170182078 7.945465162657935
Zn 9.782139443610145 9.286092626393607 13.342103551410796
Zn 7.73701439182138 8.33784215181677 12.075525780009839
Zn 8.57795209628107 12.840711374910276 11.424423650980941
Zn 8.02675423217003 12.264545450035497 8.860825341720176
Zn 6.0004143857786705 9.057482606225445 10.243247403031127
Zn 6.368143351713971 11.47194389458516 10.734686096778587
Zn 7.550928471324904 10.782378389208192 13.001157567166779
