29
Energy = -16.62395311 eV
Zn 12.53497823661785 10.285330312849926 8.095528371463502
Zn 9.372923814846805 13.170653140278311 14.531926366469541
Zn 13.811533256203564 8.421789296372257 11.986293514016236
Zn 12.308672674475575 13.482091769049907 11.104786830595645
Zn 12.200668009832262 9.603885043532038 13.584274203225025
Zn 9.11670602507415 8.55487362840729 10.348167317998149
Zn 8.427480946412148 12.057004272162484 12.341136422529596
Zn 15.456449952546834 10.56249517339121 8.450771204602251
Zn 8.418137507191654 12.378411071397169 9.628527012681495
Zn 11.600800892706962 9.044756089804276 10.579902768098687
Zn 10.319397287344412 10.50536990632938 15.10883490354491
Zn 15.67082725278373 12.205579475003768 10.445035608999092
Zn 10.327371810177462 14.363748132534214 9.726730609052604
Zn 7.271641307791638 9.819093048473837 11.751270609831364
Zn 8.18308864962256 11.513041947772797 16.00843198057362
Zn 13.5776865929977 12.541729391442972 9.006976804429964
Zn 14.418070848169775 8.922894497926043 6.770839771314798
Zn 13.952180701115752 8.437115371128364 9.403194483051264
Zn 11.589954327926113 12.174053519361808 13.343932529042736
Zn 8.255103895211063 14.424363812508567 11.167084735077713
Zn 7.005493780757075 10.179551400321268 14.264590341431685
Zn 10.405106941368189 14.46271462369176 12.541773639354837
Zn 9.736656753358135 9.60746771858172 12.673317274490072
Zn 7.371856084022992 10.10382352106944 9.238845939273034
Zn 10.558630757605222 11.478938880159669 10.923156376659984
Zn 9.963990399890116 10.322419453532722 8.578388955126526
Zn 15.719584477339287 9.729357829180653 11.02636001110455
Zn 13.2754278281868 11.106890635546588 11.491198336148962
Zn 11.130317802097636 12.568010464093705 8.08598031946954
