24
Energy = -13.53795744 eV
Zn 10.654176819137614 10.822023784087085 10.487867259212816
Zn 8.853746352103114 8.084838665273713 13.839056900069743
Zn 9.838923860717738 11.274054227344621 7.711671995970197
Zn 11.05390830347861 8.27079566464923 11.05270613485431
Zn 12.878109524570675 9.489844054269453 12.53172475327437
Zn 12.134039123440512 12.964900916062284 9.954082634944822
Zn 8.37911848058427 9.438852668993507 11.337199840080439
Zn 11.44894294307436 7.61739632501692 13.853587535668082
Zn 9.794440984746817 6.201560827349874 12.363184434597084
Zn 13.96289106503473 11.156519867409989 10.83317938829819
Zn 10.303572954742368 10.192066301674487 13.10000990812287
Zn 9.830180033405219 13.852750939636291 8.609563129688873
Zn 8.123002755344313 11.783435543252757 12.285008916849844
Zn 12.638640104162068 10.850883725550165 8.485493727425176
Zn 9.842241663361845 13.477026009972683 11.138669336498923
Zn 10.835003404654083 8.97568989536956 8.574529645554708
Zn 11.80340487212218 12.902223410574036 7.269297371635982
Zn 11.715674497716334 15.472457235045425 7.22139277447568
Zn 8.271617340920592 11.751429444251043 9.716084983095216
Zn 9.993252815258515 12.786070157251952 13.658372193166596
Zn 13.269289758619392 8.864967389970696 9.96446862691024
Zn 8.266312018100411 9.363170512100545 8.594753243682305
Zn 8.964171478455963 7.300071374586166 9.961188526693846
Zn 12.067999280114222 12.029631494173138 12.379567173096005
