34
Energy = -19.16073977 eV
Zn 14.710525204992086 13.296733295407977 9.891159733338599
Zn 8.571643974731652 11.412401504812903 14.169848587978237
Zn 10.753900261484631 12.151637073194543 7.147270017343449
Zn 11.603173595080387 14.914536674445952 11.699532857846984
Zn 15.797528883275664 11.554898501313604 11.618161882966133
Zn 9.975084244555104 12.83315631481389 12.137837102514808
Zn 15.161499738871857 13.831647849148174 12.493875724119423
Zn 13.670861259028785 15.794098049545028 13.234681142213608
Zn 15.161490141013857 6.680866380006278 11.092674076569317
Zn 14.785042279889892 10.738702107313749 9.319703682239513
Zn 12.701350299448777 12.014936020379928 8.796374955280857
Zn 6.802309156705678 13.462700434329752 13.008702498789328
Zn 10.323661404462214 12.770282177056954 15.537813544054668
Zn 8.110052610595359 13.939825077940585 15.047287780151947
Zn 10.481754269144023 8.366515658526296 11.276671903378363
Zn 14.203052720078187 15.655612934752966 10.706717811516919
Zn 10.946526047839145 10.896903496168617 10.510893715742059
Zn 7.64111955870597 11.64516665472839 11.491866024657911
Zn 8.694502054252267 9.470011174192473 12.61633791207789
Zn 15.782133656622399 9.10504183753138 11.186766421312303
Zn 11.111248328163663 10.573831312013033 13.252115718682754
Zn 14.435725513018747 8.115796668006618 8.971670685798184
Zn 12.473945089007394 13.618517793921862 14.014219179792377
Zn 12.720086824709627 7.463350271653764 10.900059258993084
Zn 10.075967481243136 14.914172034546931 13.84037354714671
Zn 8.608775404016852 9.813426130534376 10.037577778496182
Zn 8.81132876331515 10.634071336792958 7.643489248551516
Zn 12.735481607571906 12.523770187773342 11.589494718245358
Zn 12.336149490950111 14.574574898097673 9.295751959321928
Zn 13.231117209806921 9.943349633115039 11.646728306163993
Zn 12.497552584557122 11.370984734666008 15.38621096413806
Zn 11.40310679014089 11.695320232058167 17.809316138719346
Zn 14.216694446424917 11.498709933781958 13.587588450480023
Zn 10.203616329225076 13.195865563223654 9.573516040029682
