39
Energy = -26.10417388 eV
Zn 9.115803935339375 8.474874081684284 6.306278964119861
Zn 10.23689917359752 10.710888769436442 6.7028530826178185
Zn 11.131514534489167 13.113758195288348 6.962501532161053
Zn 8.755789652160388 12.51114695911315 7.947086011129365
Zn 11.789933515635017 8.583526670357987 6.848320804306148
Zn 10.35708291959302 6.401437273843368 6.9661832571029185
Zn 8.357697985608727 9.992849468124547 8.470103464563303
Zn 12.742751012648895 10.968054398681803 7.4433424262109575
Zn 8.174027237559137 7.219454326143083 8.417898431636084
Zn 10.225845110338385 14.216562335595015 9.152270547631614
Zn 10.907446143143664 11.156300543902086 9.410279170023559
Zn 12.417435445100955 6.450270987962547 8.535606731865844
Zn 12.660499491613573 13.167199895682936 8.995723675356006
Zn 10.473572569581705 8.567266962651773 9.26798914684903
Zn 13.506508263416475 8.690063465664593 8.8427447009282
Zn 10.11989920487802 5.614919705690479 9.365903315572343
Zn 6.63198036721386 11.24655912952815 9.949031808645824
Zn 8.80095556909456 12.431398238430257 10.604968421000171
Zn 11.676147256716717 14.568478387994315 11.250538141852898
Zn 11.563162328308247 6.7452265348410325 11.158129056107244
Zn 13.752550961190748 10.952767352361306 9.874639489807391
Zn 9.086678626885222 14.856745952984225 11.508290900335174
Zn 8.753482844573476 6.977619812693652 11.048982371669627
Zn 9.377375220861838 9.889360801513863 11.16886347529356
Zn 6.970022327612843 8.738413286655806 10.37734461289227
Zn 13.74190462994043 13.054851147640337 11.294006831794809
Zn 12.166199379942958 9.314989724389594 11.222809859819904
Zn 8.497928374005193 12.746606610311902 13.125220207151225
Zn 11.069024261808067 11.838189168373953 11.87453265960422
Zn 10.176927330602433 7.981495324348792 12.941109099931978
Zn 10.347698166862683 14.577439933086323 13.62553238484198
Zn 6.836351226758794 10.713827423478222 12.412302095031729
Zn 7.551857645964459 8.301675922043794 12.891927452787753
Zn 13.863991770242974 10.897164149261863 12.575392918771046
Zn 9.01008435403685 10.267248508655365 13.791523275746748
Zn 12.73902389279022 13.624006230780966 13.524630522470602
Zn 11.64589134965975 9.849365148124392 13.821990543835184
Zn 10.685976784492343 12.177133617803896 14.548510537958474
Zn 13.231724282576383 11.560508701722325 14.924283217421335
