36
Energy = -24.2457755 eV
Zn 9.598474288751367 10.043445975146708 10.216279441228442
Zn 11.552378339055522 13.319827879600803 13.466975069003164
Zn 12.368079572580843 14.288811195144705 11.200664106963432
Zn 9.427765089039042 9.912796083832161 7.5070566295920305
Zn 12.13011656911507 10.185821639556186 10.289690130850655
Zn 11.65470488542284 8.257713649942778 12.23202272370023
Zn 10.720794967935689 12.382022537822845 10.321468597802054
Zn 13.424782870384622 12.700499944404164 9.466253896728684
Zn 9.815520217585455 14.452368579379273 11.810437515419634
Zn 14.310387700425924 8.40188903909836 8.689065505264137
Zn 13.980745151973784 10.76544832697023 7.94253922479888
Zn 7.443151272660911 8.393032325073966 8.546869037731446
Zn 14.143025868568818 8.109435153738772 11.167767276475649
Zn 7.917292990269693 10.555275840859567 12.229947070172699
Zn 13.319670068056405 11.985128743548977 12.001333446645477
Zn 8.134877170259983 12.7573775882772 10.855017862485884
Zn 10.85586792032299 15.955266966485885 9.995015580848277
Zn 11.35328506664223 9.370892700898212 14.627631123167157
Zn 9.080198168488659 14.498215176389092 8.933987290771684
Zn 14.805094159357145 10.470746664417243 10.398213890613567
Zn 12.081802826436615 7.446269176505496 9.725912797802406
Zn 8.994558456197133 12.60010975027127 13.425668374752629
Zn 11.63676617723811 14.255382785287038 8.271072276352927
Zn 8.895169299785051 10.32477637940314 14.713927957629963
Zn 9.676005454384903 7.375225556984161 10.81376738943729
Zn 12.910707357851216 11.430532351358844 14.595214415539596
Zn 13.710219732968474 9.625045139965069 13.091253786954626
Zn 10.63467311065857 11.91541608072875 15.45414132316221
Zn 8.645123131026367 12.095214441110024 8.363790216366802
Zn 9.17934299369744 8.436256955415152 13.048073698574363
Zn 6.9378911809699 10.611614781873534 9.70915948037144
Zn 11.34647581238748 11.695089941178901 7.88221054206055
Zn 11.966682684261023 9.162557754165125 7.724614402633837
Zn 7.206042389415037 8.286128690410372 11.07334169018958
Zn 10.790182573205763 10.824732784553914 12.385455508527873
Zn 9.893014482621036 7.650501420202568 8.365030719380284
