39
Energy = -25.40453508 eV
Zn 11.884575319160861 9.315036310568884 15.244393625836903
Zn 9.906086203121442 9.376802336675702 13.459203305910663
Zn 8.285583708433949 9.65323216556845 11.508935260007839
Zn 11.523917489598679 10.87152192363596 17.22069192286561
Zn 9.641788564047118 11.117428728693287 15.59732967931109
Zn 12.25927449450648 8.444759869540567 12.859076242562937
Zn 8.308678664833815 11.517164604887956 13.468900219562379
Zn 10.793577841189741 8.896450335910746 10.820204917395564
Zn 14.25172952671246 9.77727929868691 14.204758028238704
Zn 13.444139985479971 8.206940702426055 10.460729478167792
Zn 14.784112169943775 7.835626271383073 12.606513843638876
Zn 7.436611934500234 10.765900714356455 9.365201011988507
Zn 13.377842482787699 11.734643321197227 15.575052025282329
Zn 11.741329431694592 11.368558017838055 13.436882316381366
Zn 10.227865902207956 11.52440820269652 11.389621256986798
Zn 9.893888494627967 10.435527305217649 8.844908270600339
Zn 6.946456544844036 12.087774984669794 11.408950408679416
Zn 11.366464302379946 13.254319162399641 16.440616909263934
Zn 9.926742848561657 13.47415416797444 14.37622116813193
Zn 12.131149119695142 9.071046964177134 8.447121842979282
Zn 11.372633424720814 11.016733654561149 6.793274464003503
Zn 12.463949680261694 11.108689782697773 10.269025812625168
Zn 14.928469587415726 10.233574271079034 11.628224636471256
Zn 13.753457350476715 10.261204721904633 6.7221133692164
Zn 8.897977607157491 13.751443635316653 12.039570465077508
Zn 8.806775126835806 12.97138411151218 9.560441053717526
Zn 14.384279162291925 12.25198301724637 13.112612302813325
Zn 11.157698870037422 12.952220317452431 8.418291778832844
Zn 12.734446054716814 13.980176688134312 14.33898022069826
Zn 12.176649177784943 13.190580622839766 11.725393183764059
Zn 13.719326169852554 12.504055632509603 7.809007372488449
Zn 14.692529553448727 10.07864519639451 9.080972212393883
Zn 10.844996618728686 15.31551316425094 12.740879850359173
Zn 10.622956721649503 14.735636462815245 10.182869080112935
Zn 14.794192439157499 12.484424540009195 10.356860815406886
Zn 13.222234381472237 14.420782259300816 9.412457036874718
Zn 14.484468643644407 14.579504167869619 11.781319065035287
Zn 13.225877532376995 16.223176811050745 13.264063769191562
Zn 12.557524690733745 16.39635919101498 10.868712316586711
