4
Energy = -0.32095968 eV
Zn 9.603870348195349 8.864087123320425 10.099309447387588
Zn 11.261677878480402 6.913146050818517 11.777715626064563
Zn 10.076725164330133 14.581044252201405 9.74968982605451
Zn 10.9670349157421 11.550245172735796 10.282830763545865
