4
Energy = -0.32456929 eV
Zn 9.418409665664807 9.694537253755769 8.825006281255508
Zn 9.525103578751045 9.613886961126509 5.8137696821606
Zn 10.66020094810117 8.879477955427431 13.207009266947278
Zn 9.596341580628957 11.014206777929648 11.3911069627683
