4
Energy = -0.3373289 eV
Zn 8.495496367203058 9.320961997973855 7.423340337928032
Zn 11.155875525678436 6.112605406619626 10.103339446139948
Zn 8.944875585358005 8.142968332064392 10.079113889696531
Zn 6.611057206910117 11.615523901161053 7.607365828439571
