43
Energy = -29.45648903 eV
Zn 12.188262256026311 13.013602091117292 6.66077243625712
Zn 11.310884121643141 10.720063537408697 6.288445873609033
Zn 9.644625342220111 12.37521337226781 7.509955134213418
Zn 11.201910203621052 14.171471997800756 8.716796328180447
Zn 8.874468457527898 13.604412720657605 9.671693287119908
Zn 14.02725111834411 13.684336287250169 8.335459653244165
Zn 9.414599791111694 9.643851621116703 7.5453082621105025
Zn 10.541071552778481 15.479265299745071 11.008549954544215
Zn 8.403163197710507 14.504707369046644 12.041437144457742
Zn 12.06698574692558 11.613936227045485 9.235966494587341
Zn 12.942440401493926 15.37133318249207 10.126296477301002
Zn 12.03221931001076 9.011684987952538 8.081134923155592
Zn 9.626793823682418 10.964292662264384 9.987357455826356
Zn 15.461023090951475 11.738507329636763 9.115479168183104
Zn 10.24582154429915 8.287722505681963 9.779507813860437
Zn 7.629589393677097 8.526522788239987 9.037376755193712
Zn 7.9136656798361225 11.997474296700695 11.571589298252624
Zn 11.097501901838594 12.89373444253124 11.271363292577359
Zn 13.772330994801258 12.98356422356548 10.87853386648126
Zn 10.49622704701064 14.11221292829686 13.561225584654707
Zn 13.798276045234571 10.903556527285026 7.283734866524507
Zn 14.028462375246665 9.618361366481764 9.615292828968881
Zn 12.652403804614865 7.477057714587557 10.140176047014638
Zn 8.237159221715102 12.84796411761513 14.032097976848442
Zn 11.849236578286737 10.107214565770892 11.243645715497097
Zn 8.475389979279853 9.085713708165427 11.578652911085918
Zn 7.170270451649509 10.322872131877817 13.480042886648945
Zn 12.774431334652963 14.865105091679878 12.645979838965836
Zn 10.125910112288416 11.193518709681914 12.940826849310897
Zn 10.999832496606011 7.77662198776908 12.198765971529731
Zn 12.77686995598835 13.650415149919265 14.994199950768248
Zn 15.001729776850178 10.826356871072022 11.709430150921422
Zn 12.608052311939671 11.72942235963521 13.082928137988407
Zn 13.782382774994183 8.514774399626866 12.199186882335983
Zn 10.478396132589726 12.521975134962362 15.599772856251565
Zn 8.36890297709089 10.841954523853381 15.59059846120464
Zn 9.393154279183875 8.780101073678022 13.99483706682373
Zn 12.125029185336707 9.17582568955898 14.038428598648334
Zn 14.883637533712204 13.304255999436533 13.25715722455332
Zn 15.033692131850934 12.241041585874052 15.489629114563337
Zn 14.642337182099157 10.075475313261855 14.133847068969626
Zn 10.620098940395675 9.868539462144275 15.982364321058952
Zn 12.814874472808444 11.074211112330113 15.817938549873016
