4
Energy = -0.31801598 eV
Zn 11.706381753287145 7.2003892204275415 9.883118483014284
Zn 9.07226332253513 7.646432054184428 8.102621900318587
Zn 8.56273628353138 12.224244614086889 9.040033631095673
Zn 7.1847590704747875 9.630468355503238 9.548153897549785
