41
Energy = -28.12809261 eV
Zn 8.489595223176496 10.038582101196884 14.154398858737801
Zn 7.882952831514253 8.467540940515317 11.959638927431024
Zn 10.710364766975196 9.402566272340781 15.29873671769721
Zn 9.315257183401968 7.586187670635675 14.038103710645544
Zn 11.813677836705619 7.14607158824722 13.92307632164621
Zn 6.340408405581424 10.439948013666223 12.534970593242114
Zn 10.17546745962201 7.304537148267512 11.598406492338295
Zn 13.103023698337301 9.729398135713893 14.721081705647894
Zn 10.4526989634537 11.837860208940809 13.69234781150268
Zn 6.997590964286718 10.100151657416575 9.984350403190785
Zn 8.8193202516672 8.254631940212324 9.514168488565199
Zn 7.973113448322336 12.313648584112867 13.183076489496107
Zn 9.278269577969306 10.719856868730663 11.283854668909857
Zn 12.628691554849578 6.769836315539301 11.049604914066856
Zn 12.890653714481894 12.30010939289255 14.158250313521332
Zn 11.36692395132662 9.615752941622823 12.456142026858382
Zn 13.810349878854748 8.124283508716724 12.796409973285686
Zn 10.789733433626616 6.620246436436993 9.191030203341263
Zn 11.141232471653412 9.51971291046053 9.88452730625396
Zn 6.540642797454693 12.529220282296809 11.056832822359077
Zn 8.619309587853229 10.243109645543727 7.896651101924338
Zn 9.02250352370487 13.367374303477893 11.056357737029739
Zn 14.161507734831844 10.661815961684008 12.534771645792189
Zn 10.55556267096373 8.45609769283946 7.416678166689711
Zn 13.721503512264071 9.040957064853922 10.336139238901568
Zn 12.936032424136059 7.453680856297222 8.334167167950017
Zn 11.723094702440076 11.888768551882224 11.293643869736941
Zn 7.44025491913055 12.516093328416565 8.762689578255063
Zn 11.86073863790081 14.139282478483842 12.66323433289618
Zn 14.377603147869726 13.241918144600776 12.257190115936853
Zn 12.973528292537615 9.939470842598858 7.912470842743713
Zn 8.701896273279404 12.517518045314162 6.618100301773326
Zn 10.346471172513715 11.903042636788353 9.165441443478734
Zn 14.032375392019102 11.589689149941716 10.0880464010565
Zn 10.908409128056405 14.977112836135854 10.48275748477261
Zn 10.814606892088124 10.804158010671166 6.500823059328478
Zn 13.35866143605147 14.118046034348474 10.109222307108189
Zn 9.271174796402704 14.402967180910384 8.440070535940668
Zn 12.714127236227794 12.426284783920778 8.014169701415828
Zn 11.01615878910895 13.35202501106521 6.268768210359626
Zn 11.812968570777258 14.845681596332565 8.133181147310097
