45
Energy = -30.59549189 eV
Zn 13.37155500151556 15.198105037542597 12.762012425279938
Zn 15.302540293881565 13.686448855431584 12.199684857667195
Zn 12.22352630945076 14.931669839315381 15.160722345362753
Zn 15.357112822567235 11.934045543183045 10.29647371225691
Zn 14.101266362820608 13.248267460144453 14.42605987841882
Zn 13.290391330425027 13.692700483522124 10.535175016426956
Zn 11.037110734249813 15.958603786131004 13.180149775402972
Zn 15.673519982964683 11.426534695103207 13.212092681834898
Zn 10.768236296819637 14.553802865554548 10.408877128528376
Zn 11.859974166442514 12.980182250153433 12.854642917256209
Zn 12.056707231200749 14.088435393247497 8.279915417109168
Zn 13.473963717604905 11.996712817625095 8.448390594773604
Zn 14.267886037712165 9.728764720523497 9.386990123394169
Zn 13.43708601064505 10.78195023322535 14.677320123389055
Zn 13.190614270132764 11.192432844937047 11.626794980457081
Zn 9.891700047773222 13.91819454000622 14.452926280319964
Zn 11.666256917207185 12.489630375121731 15.742959987470138
Zn 15.92484108296847 9.659112325673254 11.30912434933915
Zn 8.978425938119091 14.90934632383092 12.249564146423548
Zn 15.060844520106523 8.961127941138846 13.550055875360995
Zn 12.746236343883103 8.275872912776004 14.145520472434981
Zn 10.330782279705343 11.06381675618791 8.832725852848883
Zn 9.598731074559925 13.699525566945873 8.038863431821753
Zn 11.24089003853828 9.962633650380795 15.918870345883068
Zn 11.46276899033343 12.188734714774645 6.643593318550175
Zn 11.290505986179936 10.410809391523754 13.152453273546522
Zn 8.184759728026483 13.646546256575403 10.2612615100019
Zn 10.411402120331466 11.868532659010905 11.126303541576872
Zn 8.244627090608478 12.487798722147044 12.6468770018383
Zn 12.605391267413514 9.796728228953087 7.3602037959735025
Zn 9.41150771279628 11.44158990932297 14.701726946715965
Zn 13.229693641980619 8.58289086006232 11.620556601854805
Zn 8.121070219995872 9.789320292194372 7.749070471945475
Zn 10.911584152332393 9.316826484056858 10.670321794243527
Zn 10.307781938392994 7.981925770811954 12.77808868213039
Zn 10.754392330020206 7.505930349378843 15.39789257228745
Zn 8.914144879545763 11.913706452380966 6.169123116883059
Zn 12.480095306051812 7.871560026688346 9.160899142191315
Zn 8.817173996600886 8.96017555470896 14.865714634611594
Zn 7.502457543295699 12.207584620358109 8.250944406411643
Zn 10.300075860640504 9.82270082760153 6.278386318511739
Zn 7.275568613757864 11.13217368170481 10.55685219944451
Zn 8.445655231116728 9.908434724874313 12.504088384784644
Zn 10.155043411981543 8.218312668791192 8.328584324977674
Zn 8.36879347666392 8.824653156369756 10.173682344027961
