54
Energy = -36.11648412 eV
Zn 14.837312292809505 12.18493869679779 13.564971020487217
Zn 13.857635769135008 12.21641295092676 9.804983717355189
Zn 12.830886159495495 16.62241021124446 11.398380793805021
Zn 16.659295473987356 12.19333321371008 9.196460016361476
Zn 13.115951806292241 16.686996834149923 14.093043041688892
Zn 10.358397899930676 9.320859667880505 17.177987223031774
Zn 17.549470721455613 16.851589760476706 15.974006019787554
Zn 13.343178043513852 12.640380192767868 18.714895443464577
Zn 17.152748617471296 12.486364321281611 16.543504890922517
Zn 10.878532956089968 10.410788097443737 12.252409599470477
Zn 13.951057218511297 19.22788825046657 13.519078248651539
Zn 15.814761207669365 13.123446671992893 18.695909530844656
Zn 12.260250632128491 16.47503450899648 16.59374348567926
Zn 11.844654943208269 12.88828924245315 11.624855130562127
Zn 14.28703162205366 13.253540902048018 15.804737889474769
Zn 13.323322183451413 10.734360142500973 11.792769076408133
Zn 18.28042981409752 16.953820473360995 13.579380390120559
Zn 10.176418124864162 15.27930442979477 15.599592645334731
Zn 15.19887950548168 15.02271636845954 14.066893581273764
Zn 13.688059712540257 10.081821755066493 15.25456447548883
Zn 6.671764588642631 16.130256255167485 11.386471042880865
Zn 18.162586817494265 12.010249005252989 14.282523156673696
Zn 14.808731351745163 16.85537919222443 16.096492905580625
Zn 15.02663768632942 9.35690623172323 13.186961932975743
Zn 17.744466435304748 14.452298825820005 14.577537764308572
Zn 12.1229187776435 6.328677345621857 12.609757599814646
Zn 16.350163481123644 14.841985283213102 16.797394943344614
Zn 12.129748239318332 11.400915966596514 16.820320295429454
Zn 14.966709071999267 14.09620080576871 8.470171347989707
Zn 10.29474951022761 17.779141149655988 15.508116396958435
Zn 15.166679660524098 17.30781582928815 12.313380908993425
Zn 10.045166101944938 14.4068410969032 13.257021006378418
Zn 12.706032740708421 14.020041881488407 13.839493827099389
Zn 15.746815487301653 10.730906991309476 11.012239114572969
Zn 10.423696513656283 12.684291180949295 15.144346386836105
Zn 17.0845300867111 14.546369609545426 9.814616694220966
Zn 15.009642917125685 16.112089588478373 10.074587778135289
Zn 14.907704547476996 11.055613140864015 17.320067646735826
Zn 12.756917264415145 14.540033648776047 9.705312442266207
Zn 14.645794765588295 13.93107474233311 11.694923187786094
Zn 10.78861099889598 16.77679290404378 13.081786363388794
Zn 8.428249519352846 14.131665401854749 11.168544442822988
Zn 11.870413217402213 13.90519475703701 16.956950289273045
Zn 16.226100557604987 18.393318014175904 14.415133862605545
Zn 9.199503476478505 12.119146157452631 12.725387716007425
Zn 16.965449824801016 15.39355143841861 12.144278141298873
Zn 11.613549774129865 19.410928006499518 14.221383179386699
Zn 16.292998268094372 10.409095638246425 15.234961308054901
Zn 17.25999232401406 12.835232333999839 11.988931902642987
Zn 17.386159974347343 10.176344368890389 12.82293451503593
Zn 10.650886571627366 15.2852283342862 10.784101987400717
Zn 10.976778066985093 10.239014903082522 14.801384361468465
Zn 14.037091034844552 15.045217998532573 17.903661997938094
Zn 12.510540478968382 8.760141237314981 13.337665637453714
