53
Energy = -37.33764573 eV
Zn 13.966764797347283 11.969885230348511 7.1570217777966585
Zn 11.162862843537537 12.738892480360525 7.17413935297251
Zn 14.34053439900847 9.420556571823834 7.693569677175063
Zn 9.290412165309245 10.840595894994737 6.706388020852304
Zn 12.48520983389785 7.591227506070392 7.2126770717640944
Zn 11.971759920156824 10.239512670879321 7.064614521944437
Zn 13.041767116260308 14.320004700910609 7.8575807496014844
Zn 7.820310652323686 8.856475384302652 7.269112506473339
Zn 8.681674524682142 12.724080535103544 8.400398627801618
Zn 13.841066196044343 6.839269445977636 9.167041353622901
Zn 6.744226855734756 10.994822601185826 8.328552825776072
Zn 15.756335849863584 11.156271346475183 9.099138997530796
Zn 8.564418033709709 7.007763663453119 9.159042977576636
Zn 10.257717928744293 8.705519509205507 8.178369268672125
Zn 11.224121913433514 13.698982379294904 9.90317328503328
Zn 15.410877498005599 13.654631511348162 8.677789427011142
Zn 6.136319547897279 8.407138791096472 9.09242644417012
Zn 13.113349554579123 11.862864153342235 9.583096758185285
Zn 12.724894030786832 9.329152618009985 9.904811228210791
Zn 10.678494192987223 11.103505321489928 9.323425454082374
Zn 11.21696552298814 6.588104954903257 9.307525917932002
Zn 6.8288633782407056 12.739312208502486 10.35998700264466
Zn 15.560843761471347 8.574757341467265 9.76920767462719
Zn 8.792751638293604 14.46226563777311 10.230417962949163
Zn 8.544882051881697 9.874071671172018 9.98771399895347
Zn 13.697469481583944 14.818773428487168 10.250706447114982
Zn 5.849282729801311 10.377224473970216 10.746555439240753
Zn 7.463057118908479 7.681528259028611 11.340976453353978
Zn 10.55314610060204 9.049891872621942 11.300300735192387
Zn 9.17996912742392 11.8766191395235 11.421512530244467
Zn 11.85734268967682 16.068308376641383 11.593721880993302
Zn 14.874327569926978 10.260143174417177 11.497597960767555
Zn 11.865827415951967 11.492290760668213 11.700474264972003
Zn 9.805963373933459 6.459251631197589 11.509620947958092
Zn 12.49474045305503 7.12691354146371 11.49538761026311
Zn 9.457278291458492 16.28340454559072 11.967397467279055
Zn 14.950758258139293 12.754727412047453 11.254521959494355
Zn 7.633129367914407 9.879753914573582 12.547405481081645
Zn 7.830536705459946 14.333740881543125 12.621652076127802
Zn 10.457016386769142 13.724313164041362 12.701269722318624
Zn 6.722229346165576 12.148330195445704 12.96551320336999
Zn 13.001470003565705 9.243851094259556 12.862630423779889
Zn 13.01756986362963 13.871483365237847 12.589219422249466
Zn 10.262009678244747 10.49485971671405 13.364094647719154
Zn 8.869127826769914 7.9284002707659385 13.558523245381627
Zn 11.338809215718452 7.575160737697722 13.728456185169621
Zn 8.902172635958289 12.735143894234582 14.501767542875367
Zn 13.920301690354545 11.609454100589245 13.581171045055793
Zn 8.132499425914652 10.311495605131087 15.055547038941958
Zn 11.75763762695041 12.663783222133901 14.713458973671761
Zn 12.344782407538002 10.160634224101239 15.200339651801338
Zn 10.166006358633455 8.79909731038971 15.739020631225486
Zn 10.165858549364149 11.299501464589422 16.311678035593737
