55
Energy = -39.64248571 eV
Zn 11.969757326498629 12.315410967303972 13.400674785501186
Zn 11.244286084679569 13.80678968846428 11.327647564025744
Zn 9.656076724317211 11.211179216117008 15.342075084423307
Zn 9.148156675143145 8.901972390370705 14.265782678142672
Zn 11.704339259986291 9.687417000307697 14.968487380039488
Zn 7.694588555423585 14.207149140811836 10.354195551231799
Zn 13.8656080344142 13.569193110366054 14.565869572684301
Zn 11.510601461693426 16.41365251588417 11.70875648539452
Zn 13.950543578204242 8.42900044778664 14.527622605247597
Zn 16.441385282493638 10.716446645629825 11.094497089526811
Zn 9.390310630894628 12.052365106803395 10.776732952840403
Zn 9.118732439803951 15.379746766944628 12.530054663209526
Zn 7.20461163836744 9.742309938264901 9.4035511747324
Zn 11.546436044644386 14.948701074609627 13.959196428716295
Zn 10.439378754425949 10.417826194927805 12.526627601637532
Zn 10.464470594760682 11.503143304720153 8.035288507926012
Zn 14.513946301967586 9.197542590202524 10.332160569097073
Zn 14.125351401177074 10.955491897899984 15.052884176404255
Zn 9.505108475729902 12.958305394192113 13.3358788179902
Zn 9.526410553361535 16.05630431559875 10.118068556856088
Zn 15.936409124314173 15.57585345723164 10.970808920431805
Zn 13.766254110523251 13.09619084902323 11.60422188370862
Zn 15.882815260184705 14.316450399561074 13.132243541828762
Zn 15.805569547053757 11.794035459076799 13.326313863721634
Zn 7.8500030782721675 12.112482237824066 8.654036236990994
Zn 6.830852293658642 11.641859189038092 11.207469669760325
Zn 8.85172701558824 7.745709263909711 7.9517748559062005
Zn 7.801603389019368 7.453387133175622 10.245308970859144
Zn 11.680701222536817 7.444981167482242 13.620331090722617
Zn 10.720398790925353 9.15614028970024 6.92860953507979
Zn 8.340146196870286 10.141977185856152 7.107279746731219
Zn 11.898116145906608 6.316301096358124 11.203362314274925
Zn 16.657871973426353 13.179164502674725 10.918913322475898
Zn 9.567132532682923 7.481064767521277 12.151213378030835
Zn 14.478149074538983 14.370501504227677 9.24214416030344
Zn 12.068897374557462 8.911712510738406 11.079432954856081
Zn 13.513987290922891 10.588958240508596 12.42107719730463
Zn 14.01252386515799 7.333058891754313 12.166922467558097
Zn 11.9131058459455 11.468328093028944 10.534979961853004
Zn 9.884921856283166 6.148464421569509 9.766036383091032
Zn 13.768125722428074 16.647384648575688 10.475517698683296
Zn 12.518397819419775 12.97671603462472 8.401845376197722
Zn 9.944084920393033 13.860429441297685 8.802082143341838
Zn 7.064343558373907 13.639274375110615 12.78937108584293
Zn 12.715176233863236 10.105553203972649 8.430915889638365
Zn 11.693857226391955 7.697387561997881 8.816654143572798
Zn 12.058921345831381 12.052251533890832 16.079717385478965
Zn 14.604771647736309 11.696796199226185 9.410710178655231
Zn 15.776745467367116 9.088207635497204 12.897993604061465
Zn 7.5760520563974945 11.205462852031815 13.741450902109445
Zn 9.889062311283661 9.624091937343385 9.955777033265672
Zn 10.180630721902908 13.76987222380799 15.763343427459482
Zn 7.604766919659123 9.290845407750476 12.025267379553757
Zn 11.930456299955022 15.46405509073416 9.228235019723723
Zn 13.764350282754007 15.706131826784768 12.89361437141322
