5
Energy = -1.20891609 eV
Zn 9.280377884247761 8.404099206634724 7.11832706044545
Zn 9.979613700203213 8.426627167623884 9.998462730682707
Zn 7.896788270322991 6.825575476290477 8.745621280023329
Zn 7.511308224624345 9.46454172869407 8.785268283280322
Zn 6.436673436039648 7.983921566736863 6.459592885377994
