55
Energy = -29.15808473 eV
Zn 7.28040332905814 10.566733059534606 12.565865163553147
Zn 12.621100193226633 15.507096722333525 14.628493963208761
Zn 19.195706394517103 16.613216812263392 12.388268336144218
Zn 10.831634535288678 14.3348755337331 16.27585202662739
Zn 9.532455063870893 17.102061813313146 9.870484438585997
Zn 7.791582713858878 15.433317273466258 13.728056664592264
Zn 19.165174889515136 12.873016364085272 6.982621078294179
Zn 13.779475864734062 10.968979155218058 14.58689473097046
Zn 11.301303551529545 11.788639934380512 16.155926999360144
Zn 18.068640203932326 10.616074486337833 7.801333615449316
Zn 9.167079895569303 10.720210024591038 8.6827342489782
Zn 8.931288085598876 11.842306583038 17.218629495676858
Zn 8.612101137917971 12.313786426334758 10.824329355136658
Zn 17.738706167522487 7.554588203147421 11.705668889137376
Zn 12.167681863221967 9.212791918654773 16.658510543637114
Zn 10.776499592774028 10.856060191773688 11.711330321952726
Zn 15.640969013166355 12.526075121378524 15.65485284004717
Zn 7.5525979124627165 13.002411230724158 13.123915600627772
Zn 9.201003084836017 8.999404399054988 13.146664152195818
Zn 8.892812852067706 11.119935308979823 14.69288955376113
Zn 14.667115295290476 9.256123461578882 16.626538737092293
Zn 18.42060863132429 12.798426912253442 9.509395198135534
Zn 9.873281540909268 8.523530897711161 15.561854298055202
Zn 9.231100330298254 18.717114651188815 7.8075117514124095
Zn 10.776278142503735 14.997843816458342 9.408650115785857
Zn 13.262078805224558 13.388374047022348 15.913710958962229
Zn 12.057067102923622 12.604590866497954 13.53148024591821
Zn 17.144254729262947 8.44314568022603 6.790632808704261
Zn 17.473138838316018 9.885815834908755 12.79638430869633
Zn 9.91048245760684 9.65613024581606 17.846796485674336
Zn 16.186852517709717 10.090782292191642 14.856048991531724
Zn 11.477048997934677 9.992218374510351 14.044922727517376
Zn 8.269584648416988 13.614488836824636 15.546427363382715
Zn 18.083701672076582 11.875541756939004 14.549594516623038
Zn 17.507575190801585 12.40126566519327 11.939593350802248
Zn 17.61140029523007 10.365330910015222 10.332405022015035
Zn 18.181280205861828 14.821396028831286 10.975566335025364
Zn 18.694885619681365 18.116296387510047 14.334288133054597
Zn 11.171423781079639 13.393960218230927 11.32632365731899
Zn 16.92315534737324 16.669210032864555 15.42576573117621
Zn 16.619554767462922 15.263729176611225 13.02238844302429
Zn 15.0363636067101 15.037072696229814 15.035341591375687
Zn 10.959664399963643 12.41307695674659 8.997143854723076
Zn 17.489575173631913 7.803533803735471 9.248813515834163
Zn 8.654846529974687 9.387116697026732 10.724901650091116
Zn 17.61099956450684 14.220226777470021 15.555855536218269
Zn 10.708560846973462 17.13944166488286 14.32372257884673
Zn 8.91965647400564 16.02062997840033 16.28188323068887
Zn 8.239634870428404 17.81173899066215 14.67981897607156
Zn 6.970956185327957 20.02333752550057 14.824389871021143
Zn 15.671743256161559 9.747497048113505 8.53241125882053
Zn 10.439491900003445 14.653291203357716 13.509877233627273
Zn 8.894387022047018 14.839117662748402 11.43303367362647
Zn 19.041946883551038 14.061120799774134 13.429155426117603
Zn 8.964635147866508 17.40844866273373 12.266597528200807
