9
Energy = -2.95472277 eV
Zn 8.970804375018409 6.280706595931158 8.97129
Zn 8.971208148419738 7.696594555751751 11.337022801304467
Zn 7.342720474596773 8.293623524457 8.97129
Zn 10.599089135411353 8.292855940466628 8.97129
Zn 8.971208148419738 7.696594555751751 6.605557198695528
Zn 8.971439759745385 10.410418651473465 7.645481359183841
Zn 11.311566872412099 10.82950418800834 8.97129
Zn 8.971439759745385 10.410418651473465 10.297098640816156
Zn 6.632133270269129 10.830893224762594 8.97129
