10
Energy = -45.54815811 eV
Sc 11.953875192249333 11.425103763075839 8.432999990418487
Sc 12.150079187970022 12.210625944302837 11.291726498004424
Sc 11.480432657395948 8.491534689702036 7.657405403250272
Sc 11.420156355608379 9.224308548432392 10.496675883349617
Sc 9.711043169052642 10.918181691704474 12.26440667639854
Sc 9.508329177833339 12.72125663999731 9.988230028489731
Sc 9.358873941127914 10.266253564449139 8.555921222747614
Sc 9.097608703249195 8.052438877454142 12.307662648897937
Sc 9.11561545993683 7.547421810629076 9.37257190201483
Sc 7.474572804784524 9.948843514452845 10.664556224942784
