16
Energy = -77.28266867 eV
Sc 11.469528793248678 13.238095709764087 9.85514501994537
Sc 12.343502036020242 11.499991300037731 12.020326709513347
Sc 12.837888754577769 10.55046414077383 8.923804222038031
Sc 10.259605011274882 11.99522277936347 7.518194765860906
Sc 9.72755454815206 12.755815362586343 12.323473484505255
Sc 12.589824204124149 8.668863348309348 11.593703121014928
Sc 8.433670959945893 13.063508644411135 9.527576251238377
Sc 10.502823882166648 9.162759828147752 7.093356412731786
Sc 11.967608523147527 7.519192526211907 8.994714199867172
Sc 10.1435139490094 10.134378652939544 10.12818580273414
Sc 7.427986561737599 11.14893562548225 11.497263831385029
Sc 10.234434848956642 6.956864716655007 11.449406828634409
Sc 9.87713676104307 9.66435115752591 13.097017860989052
Sc 7.68812843016683 10.18356223425059 8.374386371756948
Sc 8.939882141381938 7.263713045389264 8.657725242922211
Sc 7.674896525707921 8.317794059285646 11.073419761896293
