15
Energy = -71.71754471 eV
Sc 7.9477504368840695 9.1154338071814 7.872422057258745
Sc 6.150260882105194 11.351411963481581 8.730718613597016
Sc 12.584792945326747 9.744003312965809 10.019957864089198
Sc 7.868062392243847 7.308734760053497 10.332706342471175
Sc 10.243481547505336 8.44508617204121 11.845318086108318
Sc 7.57873679279673 10.228767362475594 11.091494533112888
Sc 10.52301307860598 11.678780160904108 11.806287861849512
Sc 11.019033343598679 9.99264844630351 7.00502913904817
Sc 12.678396769114558 6.864752199468226 11.090255080858807
Sc 9.917425654955933 10.340940820547578 9.49078271752973
Sc 11.329952902107541 12.681062821778138 8.849386221407013
Sc 10.589376056190385 7.436857325217963 8.972168933200678
Sc 8.40523111909198 12.92769131479931 10.022235254267036
Sc 8.709178025793658 11.957753350878347 7.228908245548638
Sc 10.03602686544261 5.5067949936669605 11.223047861417202
