14
Energy = -67.17077115 eV
Sc 12.468908250683734 10.578609551320726 13.756241337243235
Sc 12.964903525024349 9.105806172058465 10.932713509859003
Sc 9.585075689760716 11.830499208113146 13.657544171463373
Sc 10.37216624822945 9.514314983941938 9.195743749127743
Sc 8.31121407678731 11.202417220983895 10.857703801948587
Sc 14.195898733697916 11.94572356208114 11.508710602380477
Sc 12.898860511720734 11.312395594533763 8.724167010356402
Sc 12.115576367784348 13.618726537213261 13.15955058111684
Sc 10.039418063400742 12.597823070046795 8.645475850595314
Sc 9.553302136352887 14.028009066686877 11.400598706912008
Sc 12.401164495928445 14.098873368750509 10.073969671288545
Sc 10.038258474322111 9.03724700624063 12.28648992755604
Sc 11.24874661726046 11.562381503559536 11.188825618542792
Sc 12.376982959259978 7.623845300511346 13.449201786017268
