18
Energy = -87.47154481 eV
Sc 10.788400300187902 14.510805146842754 12.971385080964456
Sc 10.400759292593754 11.541418977937626 14.249013727486377
Sc 8.562577734894383 15.801734605146653 11.425178446775432
Sc 8.939152529259722 10.716847855794674 11.769460598230465
Sc 14.140593861548831 10.634942792751158 9.80375319995482
Sc 14.001873282522054 9.625142459741939 12.622740146842023
Sc 9.664833167381413 13.192177849005637 10.367911397147704
Sc 11.26977085110427 15.613373535301571 10.213179384705263
Sc 15.380228510095339 12.171944914976494 12.01870247500584
Sc 11.24772955076401 10.097042679959825 9.94574643696224
Sc 11.072807070584853 8.990278041987116 12.93341019719466
Sc 13.617260811907945 14.565574300467595 11.688260951000307
Sc 12.152019116929443 11.891178528904756 11.834501662711801
Sc 8.073009366918734 13.351119705108157 13.000204515131966
Sc 12.592261765139677 13.08183090405454 9.14407530043309
Sc 13.430195785688598 12.624321948774945 14.3511505752007
Sc 12.840051197211782 9.852759398336161 15.313893566531778
Sc 15.713003301826667 10.773501247094272 14.769422874925434
