11
Energy = -50.11006835 eV
Sc 12.012444820885914 10.701727955488625 9.724473725635086
Sc 8.939147586097906 11.210591137583808 9.661196913230503
Sc 8.342484744894909 8.361619090188482 9.97155319245097
Sc 9.979403513277905 9.298558011196985 7.681497085096248
Sc 12.122918536656439 11.997239111438482 12.4287956919892
Sc 9.102448275492636 12.400126567791423 12.406048377102882
Sc 11.39435958020847 7.81420679093762 9.96800136432793
Sc 10.350609990634839 9.660975748227795 12.016080312733674
Sc 7.125399652297557 9.814470681058197 7.762453914150227
Sc 10.799011075141163 13.503440768323017 10.19438024449695
Sc 13.243318453381654 9.189137040571165 11.916666191029547
