16
Energy = -77.47616614 eV
Sc 10.848638668409373 7.0779814408225805 10.718755912707683
Sc 9.507432610978617 8.766600304228287 8.48921171660218
Sc 12.612742809905122 9.184588559874557 9.032830348158177
Sc 12.953350345044072 8.924982585172083 12.152851513367578
Sc 10.827561917394036 11.430627226826696 8.110128404322998
Sc 10.404522466041321 9.972657684317626 11.056827094217873
Sc 7.98640061917812 8.416873858250177 11.160432242859839
Sc 10.168519962943366 8.319863644272134 13.48806963651497
Sc 8.382935652450152 10.820477306071338 13.06750624053401
Sc 8.234763048996118 11.483193048185507 9.844855368948622
Sc 12.480194392826887 11.802566274812488 10.74380519449738
Sc 13.448210313122525 13.100444161564333 8.548557792721498
Sc 11.4771643102836 11.261255447849601 13.65930286651576
Sc 10.751588019465995 14.05339670475798 9.310775551945593
Sc 12.727474589429187 14.415308708436829 11.487600125227676
Sc 9.893735642183685 13.132860345741262 11.905864577314777
