12
Energy = -55.7706897 eV
Sc 12.622956275405052 9.903070396453968 8.318384806604033
Sc 12.534874808879863 8.725637393691436 10.97627220330566
Sc 8.654326051841164 12.517548340064927 10.20185721304718
Sc 11.827607393074931 11.811055287682027 10.774999128777587
Sc 10.774431051429971 12.549966703294547 8.167238686794668
Sc 10.751867119752573 14.570238300924323 10.392426665287356
Sc 9.940158601477041 7.541145335933688 11.716167795284086
Sc 8.371402281044134 10.178251890814332 12.198870593932666
Sc 11.275498119023844 7.147647579897304 8.909039094718546
Sc 11.015046574305819 10.093185955841125 13.193897001306333
Sc 9.966614899630686 9.725057161818858 9.6695295978581
Sc 9.877356014603428 12.862263844401848 12.808430913826836
