28
Energy = -140.68782078 eV
Sc 19.1376996797275 18.935916145869232 12.307136619931937
Sc 15.233357683487746 14.935077016974464 12.286951481679166
Sc 15.110934990379626 12.900988878784954 14.669434430832213
Sc 13.158451280073894 12.849979252691043 11.818544409119719
Sc 17.783288603006454 11.425521912943129 14.63834819938222
Sc 13.217016301303227 12.456750229181745 16.905857919062893
Sc 12.158160910371217 17.8203016147106 13.790448266244672
Sc 14.962836010618267 10.213185387319418 15.003509521355001
Sc 17.74387579060221 16.519224858212265 11.922018723338137
Sc 16.1219919522078 11.78825522906127 12.218492462941658
Sc 19.639751227594846 16.505560202663165 14.346673748755013
Sc 17.02829902829839 15.218093465044042 14.640325230159382
Sc 14.6961625120243 17.032976754010193 15.225974290262805
Sc 10.42106351805718 14.022803203422916 12.788759775118848
Sc 9.850158793682 17.033582898968437 12.007705756521878
Sc 12.834482469047702 14.756328820879416 14.308208901635076
Sc 12.144780256010156 15.77668449826816 16.875828396051546
Sc 12.16971225624123 11.549765092301156 14.251995896078048
Sc 15.077969968808471 14.846626572371825 17.083251806179337
Sc 12.550742072481434 15.95957423996068 11.411378844728793
Sc 16.47589055756026 12.19688570943931 17.2268827829523
Sc 17.305118358478605 18.30037169077422 14.388399066289828
Sc 9.920289297928857 16.136487211136643 14.839585220326557
Sc 18.968299369029584 13.766034810998622 16.14167472078849
Sc 17.76501696346623 16.56828846304457 16.957355037824218
Sc 18.61277393197931 13.657028182129539 12.871125091003686
Sc 10.418157610601734 13.421399521140339 15.88982951510551
Sc 15.018762548498033 17.984193926657372 12.343381061872535
