20
Energy = -97.1694812 eV
Sc 10.755431208301692 11.752031549396138 15.087218991634783
Sc 11.097059980549231 15.46456928280921 11.888588745867171
Sc 12.163314718710582 10.771748342812849 10.255785620862264
Sc 9.53688234643242 14.678547491997136 14.36783493172926
Sc 11.38643242381639 12.633548180842503 12.619276165539436
Sc 9.741692762863398 13.007757264755524 10.316626475472598
Sc 8.381610398155754 12.398675635664208 12.999932959905559
Sc 15.698876418799099 14.831704990296322 14.968957152179051
Sc 12.443060351001556 14.53235714293906 14.906305754536731
Sc 14.365145628567056 8.934812947341115 9.191524374337355
Sc 12.80226271044267 9.917634614399896 13.12770098442826
Sc 14.055856227447403 15.641772381959045 12.765458218364659
Sc 16.360483392378264 13.971903382128556 12.038144390288636
Sc 8.088633589271971 15.106321985554583 11.767744749213351
Sc 10.013751663218434 9.991517478971621 12.186844153580363
Sc 14.303616025415788 12.600787038132506 13.610897160502105
Sc 12.197466263815642 7.929854016053984 11.049611081014206
Sc 13.515471930043047 13.611839008209875 10.68311275854277
Sc 15.046886550003835 8.195399884902388 12.017425491736356
Sc 15.076961539231082 11.058113509299368 11.181905968730941
