23
Energy = -114.16550009 eV
Sc 15.086305886188505 13.515591325437445 11.700808724531273
Sc 13.675528700489327 11.738088330551385 9.60956845079091
Sc 12.632809586738034 14.684235281878012 10.120064875563877
Sc 12.688499578869816 14.466543859038872 13.292790780622294
Sc 15.468102494087313 10.53452656647361 12.142164820281815
Sc 11.485662460500002 12.79786452223285 7.656663939121084
Sc 14.89550307488549 12.312433202881742 14.464725255764725
Sc 10.13960088629832 15.548951875079052 11.704425836264276
Sc 12.703156904010651 11.611577289532308 12.562817712626334
Sc 9.628579523336068 14.818946490954962 8.788112207420994
Sc 12.0865868207643 12.20551570992904 15.43855424265278
Sc 7.8593719480881745 13.695182068612528 10.921559626249987
Sc 13.58981811550622 8.859262977805361 10.564457308167848
Sc 9.811012465889846 13.0902986778637 13.390124871641255
Sc 10.615227139209415 12.482432016685955 10.487808326181593
Sc 13.03271957574027 9.080410572599574 13.953106267196988
Sc 8.585933269677726 11.879971927563329 8.510204876998788
Sc 11.200140149500516 9.998748918569856 8.771697844143468
Sc 10.110205435399527 10.299031605103934 14.269073281779782
Sc 8.38418027660136 10.776504097243157 11.659301635069697
Sc 10.975305535914991 9.21796683395661 11.692898035502308
Sc 12.429443494639433 6.597502033811598 12.10408218351883
Sc 10.393141181350309 7.34453045408471 13.960103653226177
