25
Energy = -125.39901654 eV
Sc 14.381353423098966 11.991005390274386 9.117247144360874
Sc 16.081563964442637 14.455428826243025 9.938785810283651
Sc 11.079605393819005 11.896972451599245 9.75071869705968
Sc 13.445846608380645 13.885854388147747 11.257917933219511
Sc 9.871451622106541 9.54558833159158 11.546406351949603
Sc 8.372794268774795 12.206244145323753 11.444931799304456
Sc 13.283059251543493 10.760094004939765 11.659058187922929
Sc 10.413114377465924 14.520820878184049 11.10095904492185
Sc 17.843091703483125 14.43486362677984 12.457116722746836
Sc 15.282817613671575 16.28503513512674 12.33004541215076
Sc 16.09324802054194 11.97008759571985 11.662475829561386
Sc 10.853849470149397 11.962000074419036 12.700031971446318
Sc 11.93707343195742 16.13593832777447 13.151144317269338
Sc 17.486270579894693 12.504886835296688 14.922612285712388
Sc 14.112391992167488 16.22491883816356 15.184365057720532
Sc 14.291101796394729 11.08320508995741 14.564716547786192
Sc 9.598643099753458 14.081399510471087 14.102089688743439
Sc 8.854902775789725 10.67520583557239 14.2091859052424
Sc 12.656992927371212 13.591972429878107 14.292345010294104
Sc 11.62708828752342 9.47395804661116 14.115309020011136
Sc 11.303857743940672 11.830512905858 15.996097493750808
Sc 15.389794494867582 13.790266131613775 13.839990924989857
Sc 17.11124399086511 15.499287557709973 15.185123570809406
Sc 11.603302336916155 15.102854813133394 16.3732874181206
Sc 14.541964102233576 13.60802210676408 16.61446113177497
