22
Energy = -109.26988834 eV
Sc 16.281794607616803 13.459896128113282 15.767747949226624
Sc 9.489875816170343 11.472740725963854 14.426797691752482
Sc 8.600191973335091 14.247927813546108 13.417773456182237
Sc 11.625687059770822 10.743235011496992 16.219098334646567
Sc 13.665091114035901 15.429751827756379 11.623810491961011
Sc 10.577953641761944 13.863767291242796 15.964507647022035
Sc 16.015432252879894 12.884993639541893 10.391855394645285
Sc 11.242823917127005 12.252555950434333 8.7085840639658
Sc 12.00589331657735 10.05803192352169 12.940137534052809
Sc 13.791287047625184 15.282293662685172 15.010451070348925
Sc 15.22791796798165 13.470365136666762 13.160785448797906
Sc 12.362708224526376 12.639710757399783 14.083911484132637
Sc 10.157399894170116 12.422316126496899 11.790255889825922
Sc 14.997315574212735 10.563549837833287 11.979931972518058
Sc 13.510419450715073 12.92342388691892 16.904263307076146
Sc 13.605996514013432 13.942708103600154 8.651408425107196
Sc 11.25792431681792 15.278213471862276 13.291280196975839
Sc 14.699291001702337 10.926472167537524 14.929964437211673
Sc 10.899194345168336 14.879583438098644 10.354955266739191
Sc 12.951618679536413 12.580659633455927 11.100021105342
Sc 14.060545514855008 11.033799793943441 8.894404461452186
Sc 17.40471602355853 11.725021676845563 13.339570903691207
