20
Energy = -97.78684971 eV
Sc 12.839712100665437 13.17690266664318 10.34677571578499
Sc 12.078972658622408 15.680152076690094 12.223003833609178
Sc 9.744367154828907 13.920808745078574 11.02171830230771
Sc 14.434498056731575 13.762916856187056 13.129495347801187
Sc 11.551308980441146 12.884084119438164 13.202621262609943
Sc 14.288822724622195 11.62514292837322 8.141659369782035
Sc 15.686527328079917 12.145929882016302 10.719097270970336
Sc 9.610189951777436 15.052535914909084 13.98187879473974
Sc 10.673815795065071 11.951803154588195 8.467748308342602
Sc 12.442581205653637 14.881263999805144 15.232807446598148
Sc 11.9357435016824 8.254997033475643 11.665042674074465
Sc 13.307140395503293 11.878355472461921 15.43133824130797
Sc 10.192558187017754 10.793190237175178 11.275771280988021
Sc 13.670250146951755 10.684343231074052 12.478644094462727
Sc 10.983193758730662 10.118112208391326 14.24632528271466
Sc 12.462186669476049 10.09613272156452 9.600387333706228
Sc 15.076188649137624 9.277003890564306 10.153904620105289
Sc 8.620411476665662 12.17719800135786 13.47781698219264
Sc 9.941679405550346 8.846018796923385 9.151886068268041
Sc 10.365425090253286 12.6986813007391 15.957651007090377
