21
Energy = -102.96724635 eV
Sc 8.854320026065253 10.444335084314305 9.546573080416616
Sc 8.535122655754495 10.315145165909518 13.953919158655378
Sc 6.777746081227143 9.741954449411267 11.57719309404621
Sc 8.101456475930114 12.56609261773176 11.624501938848706
Sc 9.539480044848435 8.279161795595018 11.60608600942955
Sc 10.902974489646397 12.853160800693566 9.799827570393388
Sc 10.076977445832599 15.106206071606069 11.682510488671019
Sc 11.059696092271867 11.182955081709023 7.178906661594788
Sc 10.527906193026167 10.994145159271739 12.190293709304386
Sc 9.552410337368899 13.322866729308636 14.074047892196413
Sc 13.003925031942096 13.404014484295041 7.661986203905357
Sc 11.944226533465258 9.751316487551616 9.791845272694857
Sc 11.53953178663282 11.318159074972945 15.097688447610466
Sc 13.956451165480946 10.57103975292814 7.661151607589149
Sc 12.306157020744893 13.33953532277373 12.675238783449982
Sc 11.159118547779133 8.531340596640433 14.055267178798637
Sc 12.650291281120591 7.446143675166027 11.655098402055156
Sc 12.910131942356248 15.108025374137014 10.318222701028303
Sc 13.914453958130064 12.136081985042075 10.285441500761785
Sc 13.363112116251976 10.191735049235465 12.66869782590518
Sc 14.918398199240734 9.172643340097006 10.302125299495716
