25
Energy = -125.3367747 eV
Sc 14.570971491336769 8.617802691623478 9.165201784278572
Sc 14.692259460182237 7.845308142721653 12.001135211868181
Sc 15.821544751100962 10.672017972223868 11.355592947086047
Sc 12.162409766099229 7.321117349539202 10.279727776106636
Sc 14.360887714388124 11.419146149937305 8.487191104943674
Sc 11.588539426882166 9.787732408179968 8.548727017202813
Sc 14.279016337871447 9.858150805776733 14.105514990302291
Sc 12.976751711352248 10.480141260241034 11.065912937631497
Sc 13.399172957698589 12.526576465497108 13.44581766500153
Sc 14.311844847200117 13.454558827931944 10.651568230212666
Sc 11.815357935144068 8.530093392052773 13.0720808885866
Sc 11.344322878872187 10.867976809905414 15.019421947486588
Sc 9.638863087897171 9.075098276016595 10.84037358818597
Sc 8.927420128737475 9.208123351117225 13.816288904179583
Sc 11.744728788550187 12.841750533681486 9.23368623727524
Sc 10.331665833062818 11.6359194187015 12.288325808256689
Sc 11.665343756610142 14.293428336038742 11.824394776178679
Sc 8.938433337704106 11.811776177433183 9.556846130469365
Sc 10.631148644046563 14.02117978892805 14.519958255810918
Sc 12.263323908107363 15.975519712059004 9.601682128728422
Sc 8.384985892315129 12.045488605767794 14.656445759453641
Sc 7.342252574536005 10.976443092626912 11.981398011342698
Sc 9.559616041210488 14.858413304464637 9.695866573426141
Sc 8.41128714309863 13.999737265171678 12.272020724407586
Sc 10.14160270358845 16.662927010543562 11.99099783139047
