33
Energy = -168.9719631 eV
Sc 7.527905438698648 11.131742609332006 11.449519507354456
Sc 8.752411513496751 8.736516482157333 10.316227775716985
Sc 8.269276790651421 10.982584039820997 8.199139311042957
Sc 8.456873038918072 8.674891259003914 13.250884941512867
Sc 7.051801640173189 13.610401993035099 9.540819150988996
Sc 8.726666508270787 11.621589937420232 14.289317731232176
Sc 9.026107104533205 13.995455641702637 7.411080476156755
Sc 7.9049391049805235 13.944979569035642 12.391570250692144
Sc 10.897186100644662 9.379879397181531 14.884991870250094
Sc 10.964545828147376 11.795857446266035 6.990554980062469
Sc 10.589491289874855 10.570009321199795 12.210495862421274
Sc 11.244418139894181 9.790831330346068 9.204667881849458
Sc 11.184060262548815 7.785657021147166 12.076155015651254
Sc 9.8970995698695 12.595476765009735 9.95183398779015
Sc 11.437686425903674 12.473995338031493 15.567824176128171
Sc 9.536385949191388 15.464622617323334 10.199026941966155
Sc 13.679411026284741 8.23208216234112 14.170212968132953
Sc 13.135437076586443 10.109121807123888 16.758220714462773
Sc 10.757650125427347 13.744059028311986 12.787833498215496
Sc 13.640785694269807 9.49799225387285 11.118641005186117
Sc 11.947130285211678 14.28900630817312 8.437473959881657
Sc 13.066835794306053 12.838828778956406 11.071084466644729
Sc 12.72577558979338 15.737036679086833 11.004569413424338
Sc 13.48528435896512 11.138317832743809 13.828687490257598
Sc 13.702826242481317 11.504599405487854 8.464019002340278
Sc 14.844605283050091 14.35059791988614 9.086855463099955
Sc 13.593063521249924 14.348592570663516 13.886894536750512
Sc 14.509120494476809 12.697116591104855 16.35178627859518
Sc 15.860738398755302 10.036250623692668 15.75223160383579
Sc 16.082142772968243 9.612086637528314 12.822255484049727
Sc 15.643861058001717 14.84687350265372 11.817284495201386
Sc 15.818279250435316 11.953252798665188 10.820958035818045
Sc 16.18928492715708 12.52821356081367 13.784459776128172
