36
Energy = -186.3321029 eV
Sc 9.947120212382327 9.16102717597589 15.977176249843962
Sc 11.091836709796908 12.079172992213003 16.016186162143327
Sc 8.41148854726329 11.429366203320804 14.429194501246975
Sc 9.676552242514383 14.323481092835284 14.117864445383036
Sc 12.997731045463926 9.540422637172291 15.885497380553533
Sc 12.243099272941873 15.046914397095271 15.866031827882964
Sc 11.429330233987589 7.206023081086416 14.314552900555265
Sc 14.167752672189831 12.718397819058744 15.957587655973478
Sc 8.828798704024658 8.516987680090601 13.112859122248842
Sc 14.772283650835597 10.771010077895882 13.800071032592328
Sc 7.143243058935037 13.61789512602557 12.374776718556383
Sc 9.807533099594366 12.234062071917364 11.879799497801274
Sc 7.083816411925521 10.786598003911694 11.762172523286061
Sc 12.48792563110874 13.138451653099546 13.56291995737623
Sc 14.010905655562867 8.124583000494054 12.960781171504212
Sc 12.020591621897937 16.087022705390726 12.849115734052084
Sc 11.36791588815394 10.114528502340924 13.483552337694578
Sc 14.6453840401896 15.203324067554492 14.147623180487212
Sc 14.637610050224458 15.763583304004149 10.950767040437212
Sc 8.136076367736672 12.66787818525594 9.540313453337754
Sc 15.418830450475719 13.09622749784675 12.19374359611422
Sc 12.362455373144003 13.970975597990833 10.617409080080652
Sc 14.982345134081763 12.691698664002773 9.330496243805513
Sc 13.250062151751164 10.461943512132393 10.912698375733322
Sc 16.119522038116916 10.107231472701052 11.041150994565337
Sc 9.226641104610561 9.52222346653532 10.15735363402984
Sc 11.913344208510198 16.776322947005184 9.730727854495578
Sc 11.43619570777577 7.783108940614855 11.234297146677406
Sc 10.99785701868985 11.617867933481897 9.15548454560805
Sc 9.512807504774678 15.157586016339279 11.015168254385005
Sc 14.26837928182904 7.756809047253062 9.924703038894743
Sc 12.878940072193657 12.143684356679055 7.115063845061336
Sc 13.613458417442992 15.017437116828262 8.046607464950563
Sc 14.743342638773479 10.054385975366548 8.19701034488118
Sc 10.647195629192408 14.438647187752581 8.14556514292699
Sc 11.953055686530144 8.968438630921227 8.271966371005204
