30
Energy = -152.37896864 eV
Sc 15.57613430559486 8.134047348283408 9.854644618380965
Sc 9.011244613730929 13.029548064598318 12.033552282514288
Sc 11.254761068788532 11.619972829469809 13.526095369813603
Sc 12.74780748931194 13.2201722451459 7.476178305139081
Sc 14.876303368372783 8.76627146371513 12.930441762393356
Sc 7.217506871231423 14.899867044432138 13.042330819039188
Sc 16.17654317503027 10.82906311846531 10.868044476048208
Sc 11.21220478348554 12.23312120883424 10.282757055991329
Sc 9.999452204672998 14.43357838797953 14.597310398916726
Sc 11.678053905454917 8.554959615874473 13.10906264252226
Sc 10.627575313290357 12.077801122265853 16.56921518860389
Sc 12.396871954608931 14.383130249700903 12.394767849207756
Sc 11.379646249544928 10.643408707994043 7.761317761465149
Sc 9.743040354962696 13.244938998573762 7.51495405299782
Sc 14.567070430838193 10.706868030385857 8.15244054613721
Sc 11.233709835206433 15.066066964090496 9.428722029237182
Sc 8.11912860704061 11.981706922645477 14.725717340112444
Sc 8.561764316861868 11.238334336062563 9.436061959637746
Sc 13.251804514728905 9.98280362986551 10.769711241089738
Sc 12.996476340000465 10.232627442801366 15.453336118253924
Sc 9.811118692760495 15.921738437852369 11.938097122355543
Sc 10.545591252142327 8.732281071827172 10.085001779303456
Sc 8.17343694808303 14.566392886336839 9.796071149827373
Sc 14.269202078608796 11.884516692114559 13.026162878780466
Sc 12.978414069842303 8.053327329708164 8.286789651457093
Sc 8.913723060977421 9.918466239821624 12.357458045030606
Sc 12.944767224254948 13.429356525286027 15.336456984424704
Sc 14.136995504523204 13.099872310897034 10.110488450640956
Sc 13.094734364165983 6.918389461571358 11.01985632918789
Sc 9.854443888834135 9.51815880875665 15.303889022848152
