3
Energy = -9.88482508 eV
Sc 10.526974544873035 9.289058289291432 10.504262355437486
Sc 10.431494687392899 11.984236374560657 10.148424096443337
Sc 11.813886822517379 11.26584784536894 12.203316263533758
