45
Energy = -232.90089524 eV
Sc 18.334260811673264 13.884377364537723 14.62686338308253
Sc 17.11595881758495 13.370541671568343 17.487594520155195
Sc 17.25884607671315 15.682437733204058 12.48208034256208
Sc 15.895850468002177 13.042482812728176 20.190537113148217
Sc 18.099114583201523 12.343088183581935 12.095096923451148
Sc 16.135471180000277 15.607796885369597 15.419605317848921
Sc 15.09087350906528 15.450786495875928 18.32623363254891
Sc 16.889086920212005 13.84078310851439 9.856944535585196
Sc 16.998401299435628 11.297657578132746 15.183692395198893
Sc 15.226188120212477 10.925363985526948 18.051334823733328
Sc 13.317500950800511 15.842414254918053 14.177009134618999
Sc 15.483946090995136 13.204740874816057 13.186319085255784
Sc 15.790146640879602 10.128777972966688 12.448423117318542
Sc 14.39114835480697 13.038193549101589 16.0936657224819
Sc 13.197921696351289 12.975818550198163 18.92943303157493
Sc 14.30306155805269 9.983128106660113 15.09208344482729
Sc 14.224754691235049 17.9659648770551 16.21021287487672
Sc 14.575958188723893 15.344230115704262 11.102377524413505
Sc 16.9058839746957 10.827654604786444 9.636327917231487
Sc 12.408817289204077 15.429870549380487 17.14430193446576
Sc 16.411864416558124 12.2498031751198 7.170690122829893
Sc 11.646651474549675 18.328886621428467 17.52919619417705
Sc 14.337070028783943 14.300942516311748 8.248785313121642
Sc 14.23392565348447 12.199592623830405 10.505510879928378
Sc 10.317549468635933 13.153900684530297 17.819740339005
Sc 12.04409528891295 18.976666543392714 14.611614526080702
Sc 11.473353670217294 13.620200848622805 15.110977376239273
Sc 14.542542955493182 9.144597864565029 9.661932790957424
Sc 12.095531166601784 11.017787945974636 16.72245274457722
Sc 13.246647566034722 8.531815297859925 12.373588355733585
Sc 12.54827340383156 11.427976863611601 13.1639264892072
Sc 13.848121099529001 18.088480259842207 12.356046478829086
Sc 10.435733362022868 16.575644811538762 15.18962484291398
Sc 13.732722687252629 11.282937968568461 7.752670547860756
Sc 8.499819135956532 14.415674587193255 16.136055142056946
Sc 11.814886999990613 14.261327573622864 11.787882584562897
Sc 12.205950269895437 16.38955413632053 9.73961436110205
Sc 9.352354483926133 11.864036880645983 14.75179422034433
Sc 11.79612749055492 10.258663114677505 10.302958064170937
Sc 10.872197879993632 17.113290560281843 12.31959453577792
Sc 10.597462244110236 9.340142403388398 13.118232261300507
Sc 9.069872521869485 14.587555093692593 13.243405493058436
Sc 11.578628428374047 13.223989754812617 9.073114638870287
Sc 9.723185019437976 12.083605757162635 11.5589797117403
Sc 9.467862331261035 15.083353036137435 10.25958344446177
