46
Energy = -242.15199973 eV
Sc 17.105345733452037 8.162005961169495 11.48796849313189
Sc 14.519278832779174 7.854419951161125 10.245138901480946
Sc 16.218194011585986 10.191740122447664 9.106495195929417
Sc 14.518854852254119 8.130969559757514 13.417783665519767
Sc 12.053001919904137 8.9890009148969 11.623600157356853
Sc 18.21806916237066 10.85425005125153 11.348200528024423
Sc 17.16953757475765 9.940875263650813 14.026875262781333
Sc 13.024636424718844 10.328454402919952 9.04371589882113
Sc 14.957148589392437 10.486262034928261 11.720884162897098
Sc 9.612700194290525 10.164510651292499 9.46754257765614
Sc 11.584182905771588 8.887864289337728 14.779551355836087
Sc 16.40068472614456 13.17537697115968 10.86023368730163
Sc 12.36190453655164 11.469712203774709 13.657987732178936
Sc 14.44349685298034 10.08177197335759 15.76597488272999
Sc 17.378122252668646 12.19115060287188 16.23349184494415
Sc 9.436167311782336 9.622248335979744 12.64150313170229
Sc 15.399454095547409 12.358260277901731 14.123835666898389
Sc 18.13898132803642 13.153631710475269 13.47580687635359
Sc 11.438837382002244 12.6182250284238 8.186637429106447
Sc 14.580399375625513 12.898184521557226 8.02038921373155
Sc 13.393131362101245 12.982172806062312 10.527805482697552
Sc 14.51784707875164 13.00160533569417 17.037888328657555
Sc 16.346805690603112 14.971730259704758 15.267396846828138
Sc 16.692482503546504 16.01297834772784 12.38390408602635
Sc 14.094368211217455 16.006743629250135 17.240762456768277
Sc 11.993754349055534 15.519569231483787 8.979612623788572
Sc 10.810545028626178 11.860582737057433 11.149505455079057
Sc 11.772259873762506 11.568336462952644 16.68350482637445
Sc 14.222000533949279 14.65297912198749 12.744820482354692
Sc 12.422340335585172 14.395897871328224 15.315491322378653
Sc 14.939388200636538 15.512596381937628 9.782045570673361
Sc 9.169943453864617 11.140266868173175 15.121381156450798
Sc 13.08853080154868 17.274458165678876 11.421152331010811
Sc 12.055668889897525 14.244010797749173 18.382973015785176
Sc 7.876788846209149 12.021549195611298 11.874451795386465
Sc 14.270981683300949 17.11075996345069 14.368642025123895
Sc 11.279341891363018 14.907491318208455 11.75052136315727
Sc 9.831649740381346 13.555895557665881 13.73137427296531
Sc 9.217278317432786 14.030121834259235 9.638147178704427
Sc 9.51998349607767 13.91426213450415 16.630960528098342
Sc 11.081871815993015 16.641880011777744 16.792777138478524
Sc 11.321696376159732 17.134756652745263 13.80892148444772
Sc 7.099605702494239 13.546931522790256 14.599704738963553
Sc 7.926158515598551 15.043655310060464 12.045531354895335
Sc 9.801563963003181 17.218022196852456 11.11091141641339
Sc 8.668008292344496 16.264350565862216 14.62750684444269
