45
Energy = -234.1778894 eV
Sc 10.408306786181901 13.724374798256823 18.234825284290334
Sc 12.493558176389765 15.473509175608354 16.787583888485297
Sc 13.47419749135472 13.466790209286984 18.9501146102335
Sc 11.194551844200314 11.106641335777981 19.42684061138028
Sc 10.44703589616157 17.8493358065531 11.551165630324679
Sc 15.51888579572702 15.163572092655752 16.895681454974152
Sc 11.69312857094535 15.847998416768819 13.676889768724475
Sc 14.484615831597997 16.77346750516213 14.529323958229538
Sc 10.342143647901 13.466413973055968 15.089933973346168
Sc 9.330200359335553 11.18571050775142 16.972751239686424
Sc 13.526082921024484 17.011871221061963 11.507886087014123
Sc 8.756826006006303 15.181454315697785 12.59739426716142
Sc 12.453000171243644 11.796117816009202 16.667442754581646
Sc 13.85669957797488 13.79266024495771 14.768228816132257
Sc 16.465518890962485 17.126308521519398 12.070166205638884
Sc 15.520476209110726 12.186924016598539 17.0718224312473
Sc 11.884017409491262 17.045652159746414 8.82845501850062
Sc 8.766692448044008 16.381506321155076 9.540686877883918
Sc 13.960287452042381 10.276765174372791 18.814940791489445
Sc 8.583415121424057 12.016329246102027 12.977819246990082
Sc 11.707567990146126 8.96014147640715 17.07153939609994
Sc 16.722179038260702 14.614166946576038 13.863329864609707
Sc 8.617946726842293 13.35952616425212 10.08519257159095
Sc 10.704443756941599 10.39724254354935 14.469178425917852
Sc 11.090390012556092 15.075253257316783 10.729607050525434
Sc 11.378555087580489 12.687032448846722 12.330776978952747
Sc 15.315894981485464 16.311222534159494 9.213643888514222
Sc 14.43816357940547 14.176477900329973 11.804379090728974
Sc 17.227432893140275 14.655890344910487 10.797231053332053
Sc 13.527016411003974 11.043210706372191 13.475961409468615
Sc 16.416798051573565 11.574359513986813 14.343348988129701
Sc 13.318679927675786 14.15112583621644 8.93490693770224
Sc 10.43526242224379 14.448723637494657 7.766750350355576
Sc 14.607973895532966 9.523787731429678 15.857761353149883
Sc 13.771967900386137 11.095268284268602 10.419139690130129
Sc 12.762665271655077 8.203213034346959 13.792049968157427
Sc 11.14013293435444 9.69285934755824 11.505872900044315
Sc 16.611827387030328 11.80235538938235 11.440214086173603
Sc 11.210452972089053 11.910937802159202 9.279634136242423
Sc 16.007735080348375 12.907918950093425 8.695232467724328
Sc 15.5468797861954 9.122219224811237 12.565966501668571
Sc 13.637932084027575 11.61675903434645 7.286360668918869
Sc 13.579151328469548 7.930149840813684 10.765716004289134
Sc 12.484236023149187 9.138805894909254 8.398165022173544
Sc 15.577782820497148 9.63942888033572 8.963756007683902
