44
Energy = -231.33139286 eV
Sc 17.745615476225623 13.091187455350434 12.96607636154493
Sc 18.000967473493148 10.620617283256772 11.11707022101825
Sc 16.54583949702497 13.74155956250702 10.287649554824423
Sc 17.22341303695297 10.688383400512093 14.277911817871296
Sc 15.971742919847063 15.451368063518636 13.011899502276467
Sc 16.69628151101184 13.472121047641787 15.872873029915622
Sc 14.992830687967041 16.367053322415984 10.187321060757764
Sc 15.727710412811577 11.139492285024355 8.754375622664027
Sc 15.443041154333732 11.286251159883685 11.861802925829451
Sc 14.007314322797233 13.727190181288169 8.507417232227978
Sc 15.665532776249027 8.710827251793512 10.337532725838594
Sc 14.623700149528144 12.828048989398129 14.196713195502767
Sc 15.18628530567873 8.538291939253439 13.37544121488955
Sc 13.650383497461162 13.965530183020102 11.49364940770126
Sc 11.991650470194548 16.40367009224119 9.799974093790054
Sc 14.720817410614693 10.22044678910678 15.869895940632823
Sc 13.210982776472157 16.833963977668844 12.66271376734546
Sc 13.417710536040095 9.003479664113643 8.205161048572183
Sc 13.007050754064728 11.067928291775477 10.243094176190182
Sc 11.688290525133421 11.405852879956964 7.60995111974011
Sc 12.706151909851988 10.444796222338194 13.44706049973972
Sc 12.928416154563722 8.085832892857068 11.320699986912102
Sc 11.138715964584817 13.617342352353461 9.412357232853804
Sc 12.329742886807676 8.013016571697497 14.774672758698518
Sc 13.88999849220972 15.481813994796504 15.487952242595686
Sc 13.776499055880205 12.888427356023946 17.07980991472013
Sc 10.636519044229525 14.788598467826708 12.181530413668062
Sc 10.129888861309865 17.661566715798937 11.882664959554775
Sc 8.764114391083952 11.936500586591814 9.171963674811323
Sc 10.56033191522517 9.417864778313293 9.608541089707451
Sc 10.3246451493561 11.669625011779774 11.878238868678386
Sc 10.30885180313931 8.541822123384215 12.444532418425766
Sc 8.875988547001855 15.567584420274146 9.906605803241629
Sc 11.502335822097756 13.340760218155316 14.861038192701486
Sc 10.899934112432451 16.537450502018018 14.737301176654542
Sc 11.909832534703423 10.611441758218193 16.501955302111124
Sc 9.558330772671468 10.046852689315909 14.802191398320877
Sc 7.730153228106697 13.354424810581587 11.50650179567625
Sc 11.461122009053561 14.781233845966328 17.408984014797063
Sc 8.118291478275205 15.835208524116666 13.22505118041365
Sc 7.8969992997137215 10.346588295549397 11.934397879157101
Sc 8.398537247960501 12.835336863896273 14.302558806826466
Sc 9.556855898321205 12.340855153491365 17.095422598265035
Sc 8.81301770365842 15.094143058849152 16.17232767388561
