40
Energy = -207.49883312 eV
Sc 15.943379341586374 12.255408574656494 8.92095351982183
Sc 13.559947567551886 11.222513412041398 6.939865893334358
Sc 14.239129689440603 14.164642292255502 6.8949692441931925
Sc 14.127495351012488 9.608730889094693 9.534007782214093
Sc 16.17640518366564 10.440616243514643 11.566119931053382
Sc 15.196933859948798 15.277064247662109 9.6672241422218
Sc 11.442518075661546 8.348699277351896 11.054207594491594
Sc 11.21590237373389 13.24231853108776 7.110913099919103
Sc 11.556478840081446 7.271933756144885 13.798366560179751
Sc 14.947902289505867 13.073846669432383 11.807373267179583
Sc 13.09118504875422 12.918082342927761 9.341723842738746
Sc 17.487413456439107 13.095971244087385 12.878028662568116
Sc 11.186784427278639 10.664318657016938 9.020301589749009
Sc 15.999887042394045 10.812621662687805 14.447462351458348
Sc 12.189859504768348 15.78832084623732 8.559720847783588
Sc 14.313626909934525 8.238106145013294 12.545395476658893
Sc 12.905544045632588 10.827867221078618 11.875282252170752
Sc 8.972513136038081 10.802484779140634 11.140580012717727
Sc 8.834825844569615 7.784793065077875 12.75199354267336
Sc 13.651772584252736 12.571425461283098 14.425940939196773
Sc 10.933834974402188 12.954916795799713 12.912775787893692
Sc 10.108274100670275 13.667362327360555 10.06256289525157
Sc 12.75272811345111 15.067979979135458 11.42565563204678
Sc 15.49180421754464 15.743510923542278 12.964423273650693
Sc 7.263342812706162 10.186842013950754 13.628581134280928
Sc 13.137414760927749 9.59148121552611 14.998042802922356
Sc 10.412294774173143 10.119198835165488 13.573387737553453
Sc 12.624471984941104 15.349724528254617 14.153481400866564
Sc 9.514494994730219 8.797613780753753 15.698411586049218
Sc 14.509873824643654 11.653675779258219 17.025291967950118
Sc 13.041141597483923 17.835296132267857 12.7873902775549
Sc 15.890658840977432 14.039631939005579 15.513529968396197
Sc 8.055172251311614 13.248318051269772 12.916239598553291
Sc 10.15329071913734 16.04823875564731 12.680936427140123
Sc 14.48752643516989 17.020517349103145 15.542521657771427
Sc 8.571788005486846 11.833585366698026 15.520417549479967
Sc 11.383231226701858 11.792985641319865 16.145371690360427
Sc 10.001438728144901 14.508168845476824 15.362518385805114
Sc 12.977362031095318 14.455123543431776 16.863510535757356
Sc 11.366733222645186 17.49406085481956 15.412232055810586
