51
Energy = -268.37918078 eV
Sc 7.777316611999096 9.79198642841288 16.059116602410104
Sc 7.109737120332803 11.697452712089266 13.891106786264604
Sc 7.621620204195595 12.841767069719527 16.776252306561013
Sc 8.782508194118357 9.308436806385089 13.226098863464053
Sc 9.846119706914628 10.887102064120931 17.88131571178951
Sc 7.8868828439993 12.688369445243094 11.258540611888309
Sc 10.847253747945246 8.940893128806756 15.620518123252717
Sc 7.234090860619834 14.572848039092824 13.930182142236317
Sc 10.398157182385752 11.291895383385503 11.999893168475493
Sc 9.789812588495257 11.95357686315496 15.060203418858213
Sc 12.006486532932291 8.658640962780062 12.437225615250204
Sc 10.308387459712682 16.705015203329097 10.668457807617061
Sc 9.484097177847586 15.099976210765728 15.83287433293713
Sc 9.996194360821328 14.234352750640006 12.806868846993453
Sc 11.294087140966697 13.580168595575055 17.572771319443877
Sc 12.910506739640377 11.039121292954224 17.305354873939013
Sc 12.853036360126733 12.954090282297066 11.891003146463422
Sc 12.50405572678674 11.004060171582566 14.317637332230259
Sc 10.717993728183847 13.507975918645807 9.863506748251863
Sc 14.185325638421475 8.93490919270261 15.686275680015697
Sc 9.347974086150352 17.07636734466046 13.619446729341492
Sc 14.354877472669836 8.063025049488395 10.236867818367495
Sc 14.818444394873833 7.577628333696048 13.071162637095602
Sc 12.40684874680105 10.552350592444048 9.85292797665878
Sc 12.517363430817513 14.146520634802776 14.913343662354338
Sc 11.332374725815754 19.098361546578474 12.82432031153777
Sc 16.242719225646233 11.024206139828177 16.972723440880305
Sc 16.801776592976466 9.396094081695573 14.354292147969584
Sc 12.179931713618222 16.33148508392426 12.768260225033298
Sc 13.618538532141507 13.047555546600602 8.463138327561795
Sc 11.80581014737063 17.24170439686371 15.55470393835579
Sc 15.568855951416548 10.670681604671959 9.059703571709445
Sc 13.337486701505972 15.372201290146682 10.346211918300437
Sc 17.15158880324839 9.18628869156225 11.307886502505124
Sc 14.523832887893759 13.509153495911885 17.24003061845371
Sc 14.652047323339747 10.428220462857398 12.036956301936344
Sc 15.127458037439586 12.046662414457087 14.618852248314639
Sc 15.75993861454458 13.330093213628711 10.631820616077988
Sc 13.300460434033159 18.205511695454508 10.54424709339281
Sc 15.103697928084436 15.04864782111085 13.240815359516661
Sc 14.345956665786675 18.15003433210371 13.595630718579248
Sc 17.644982656670283 11.856499571844548 12.925722301492282
Sc 16.58858730037166 13.243608370503106 7.704544806277404
Sc 16.131373387454623 17.068716147454982 11.19909104488117
Sc 15.244817133100025 16.003023390562475 8.286617236799216
Sc 14.771201187805534 16.258616707635014 15.968428341063378
Sc 18.35012317121908 12.096369230226141 9.96001415360071
Sc 17.07972604397215 14.076051365400017 15.472973623960865
Sc 18.091384551895388 14.725391239638684 12.412822741720788
Sc 17.87251807792426 15.185631643484273 9.461447369233074
Sc 17.154376138544656 17.010850408089176 14.238782608000752
