54
Energy = -285.37768802 eV
Sc 15.426288886996183 12.84847340419236 7.081937361774214
Sc 12.895526505511786 10.93435553372698 6.989448888755115
Sc 15.623282126480074 9.909759435252216 7.612353796007112
Sc 13.747058173252482 14.994460172545224 8.279216238063276
Sc 17.5558674771381 11.919194309893857 9.252189324090947
Sc 16.40350848593177 14.781374913781882 9.595051647805887
Sc 13.049514176945122 9.081438026235084 9.40258249882996
Sc 14.358277351667867 11.75369830179212 9.501263184887295
Sc 11.50902440914179 13.1200376290509 8.4490241103682
Sc 16.30362683936184 9.3088658851868 10.633527336021922
Sc 18.506984350783487 13.852670424576662 11.81331007735149
Sc 14.005567675730067 17.07102535302064 10.752736320816235
Sc 11.281406759214255 15.751186786808974 9.89322619118071
Sc 13.858076580272359 9.63083251490389 12.352033244703536
Sc 18.795337499627554 10.700265057393722 11.84559978407787
Sc 9.161607788693654 13.31292215491901 10.400495455751328
Sc 13.865916685651683 14.178063596799241 11.261479522546562
Sc 10.281227241206759 10.476945595270402 9.104707597297587
Sc 16.1606181072871 12.070761469993144 12.029309247886063
Sc 16.387084536054434 14.088443301187896 14.245561236897954
Sc 11.763993867893785 11.712198462511383 11.291815685471876
Sc 10.730633038538896 8.826946430849258 11.703582746393167
Sc 16.523299150532214 9.809952922835876 13.909930163677124
Sc 11.424905708554693 17.5423996702009 12.404987571126334
Sc 10.83826771935954 14.53267265531028 12.626880207323557
Sc 18.504568885876846 12.119186158499282 14.46143404704945
Sc 16.305660040275537 16.299201779803496 12.35074287156434
Sc 8.662051390113074 10.928852125510648 12.102087625757019
Sc 14.279537264037923 18.398549717437778 13.879537422605559
Sc 13.757256432861452 12.129906544742818 14.157497888662101
Sc 11.864082660028163 8.934928571028717 14.368754594900473
Sc 16.314837684495295 16.881534102058872 15.661542621493092
Sc 14.036620757154235 9.628510006669783 16.04827858024656
Sc 13.58044745134016 15.638846681346262 13.791758929983475
Sc 10.750158690798903 11.698514722362665 14.24496453864043
Sc 17.58927139214107 14.329538588534197 17.022563396899653
Sc 8.630265488768076 16.158638243468626 11.447449884152281
Sc 16.06475112277891 11.794618453403 16.303879809162503
Sc 11.75388316494874 17.64122609583968 15.325357882050843
Sc 10.828350959472052 10.072220511866915 16.901255370387105
Sc 9.241708546311795 16.544362661148604 14.410737925109727
Sc 11.325872799271488 14.398511399444061 15.737952828302051
Sc 14.491724267390651 14.745638683603309 16.63833480362597
Sc 8.093856665841745 13.708545273318544 13.417976244192229
Sc 8.99082484154355 9.160375983062353 14.521628910870486
Sc 13.722276567271782 17.60146127491076 17.365388121996638
Sc 15.91222735606936 16.185046544428594 18.79301515688902
Sc 12.994174695159247 12.175486934703397 17.274404751367385
Sc 8.398388898609564 11.74252553510823 15.951618360486021
Sc 15.461788269633633 13.17896140233092 19.0495417188388
Sc 10.542279415007028 16.3600586928448 17.764005828246706
Sc 8.385734895129687 14.64477611071137 16.45686171893277
Sc 12.882673519143172 14.909920625144006 19.04391313581734
Sc 10.189207246598498 13.091803822473473 18.210986661136012
