55
Energy = -291.39638998 eV
Sc 13.981920297298867 14.430873367666832 15.70308257108087
Sc 13.697092289916275 16.865279669196056 13.613286051144469
Sc 10.92161203519227 13.338111321407572 18.02207040925685
Sc 10.774085412247624 10.354751564854421 16.79269731412163
Sc 13.382196849735376 11.859765479025315 17.714756029341043
Sc 9.239911465825056 16.794861372558085 12.775231940680397
Sc 16.47825708153554 15.795814135041931 17.00848404169515
Sc 13.503264519949186 19.818126529743303 14.496083178781259
Sc 15.977562879432641 9.537551005144234 17.583073615170925
Sc 18.805064978535206 11.75230186223864 13.483119398862344
Sc 10.767041162581272 12.910505385297496 12.172432765332163
Sc 11.093181775524059 17.96221398660855 15.034919159903922
Sc 8.193108294211221 11.607604208444126 11.031070523904123
Sc 13.896177864798279 17.465502991979957 16.66871782475351
Sc 11.94152034112476 12.114695408920129 14.919857161772006
Sc 11.998343126693051 13.085903889197072 9.54390862195749
Sc 16.46824039764132 10.252997010223092 11.755277404769236
Sc 16.16371212021456 12.58110486924855 17.175569997178673
Sc 11.026090913997297 15.013755639133533 14.344815253599268
Sc 11.884865844065631 18.723082099174857 12.14920264245002
Sc 18.102637047620714 17.787093864779546 12.565399629022535
Sc 16.629991376863263 15.43825480516148 13.996227636581606
Sc 18.99752701832401 16.836207995679437 15.221328842666658
Sc 18.53043285148955 13.855566442815439 15.66032563374097
Sc 9.107378988672702 14.422834694185552 10.265774806086489
Sc 8.188325487998279 13.92112709996934 13.271827827729487
Sc 10.433039917440228 8.531865787678129 8.795409777994346
Sc 8.99741074241186 8.600614860564914 11.560168781837845
Sc 14.076842218425561 10.135480404831503 15.448921742134525
Sc 12.467365915032182 10.67007295618213 7.883400695037327
Sc 9.63185405262112 11.56196157530497 8.442290299796996
Sc 14.366759206437361 8.184221423783905 12.973689590287286
Sc 19.335494549904862 14.93057241265794 12.875613168056306
Sc 11.505558259470916 9.075627106223006 13.769169172770177
Sc 15.899120622975879 16.253041311157883 11.177584764527772
Sc 13.584663173667934 10.963926338119114 12.42139906373436
Sc 15.94071928443822 12.315492852168804 14.165843646296755
Sc 16.92915773983466 9.377016193959358 14.604239615226032
Sc 13.953179794827319 13.943613845506 12.004362322217009
Sc 11.722740601465391 7.305194118255564 11.251358697317817
Sc 15.142742700494408 19.053622579343187 12.089047935034204
Sc 14.481810474074484 14.699619657192386 9.012811855601049
Sc 11.696553383761923 15.777102811137778 11.26595240974235
Sc 8.732629240818552 15.938776067379424 15.900578023753805
Sc 14.806016767766035 11.799868654699615 9.748467965474518
Sc 13.903386375752145 8.914696775786377 10.020642651449881
Sc 13.852531093538367 14.72817390565564 18.667165945477567
Sc 16.97187801719769 13.33691412387776 11.439884038458676
Sc 18.478251820963525 10.914205412553237 16.45437381982165
Sc 9.095772487241454 12.937459819613068 15.893858868465086
Sc 11.193342257489622 10.306517932392085 10.802496461589476
Sc 11.489042787857867 15.98170833893031 17.197717139965366
Sc 9.163412534471059 10.884043705448077 13.78865678279894
Sc 13.586818440177836 17.475430202355607 9.890903217967935
Sc 16.249858140803926 18.31476715239765 14.922946288431287
