5
Energy = -17.28974829 eV
Sc 10.39493779238777 7.165543468863683 8.52457844
Sc 10.39493779238777 9.88361341113632 8.52457844
Sc 7.810104857060324 10.723164981916101 8.52457844
Sc 6.212806899441152 8.52457844 8.52457844
Sc 7.810104857060324 6.3259918980839025 8.52457844
