55
Energy = -287.82754171 eV
Sc 14.34350968962965 14.552622289643246 14.467083479664705
Sc 8.884780520145643 9.669417367976664 12.840837618619979
Sc 13.656191947821727 8.94544704345764 16.771445874191294
Sc 9.361761804361539 14.34799457015734 15.472853916054827
Sc 13.858058585941336 12.871849762615778 11.56262876257579
Sc 14.681957274866953 12.827243079947806 17.159092479298035
Sc 14.363455603999105 17.780846157070773 14.164921087576614
Sc 13.97508480056345 15.998398957927167 11.717217071156226
Sc 16.73235563652356 17.570570607417345 16.26158202401319
Sc 14.405779406137379 11.028169767980879 14.537687040578351
Sc 13.94594294579142 9.753069274127824 11.661424257097663
Sc 12.06043011507718 14.389049175401937 16.67874645086956
Sc 9.351322489602886 11.437165607787577 15.525316524620095
Sc 16.465833218067687 14.343909530398967 10.694995174183997
Sc 10.425575208379671 12.941472704377018 18.59537484952743
Sc 14.28852248092412 7.848977051043678 13.96895493620352
Sc 16.437142310546687 11.402351263025007 10.680405451656853
Sc 17.145925320352656 11.258782493968418 16.1230550895964
Sc 11.640146812519355 12.846762709662757 13.96195250347511
Sc 8.316780424026277 14.446037101125782 9.970934025975144
Sc 16.477918406998114 8.274138878574517 16.119009111226624
Sc 11.68790926835983 16.041931211682545 14.176440871420798
Sc 8.304509642396336 11.378827927508052 9.950334909762878
Sc 14.140607963490245 16.50719684272953 16.93231383942696
Sc 11.661262588044071 9.653686760505705 14.195245840185283
Sc 11.065122952881971 12.911362946422546 8.860295426052478
Sc 16.967338535926807 14.608462618394315 16.198024611272984
Sc 16.654745144992784 12.865853123631803 13.410652396345132
Sc 16.62294684823631 12.853751837107096 7.993772375381029
Sc 9.049793430263895 12.901355204187334 6.88599412883229
Sc 16.730318750387596 16.106823821913668 13.487454190104204
Sc 12.042797013327386 16.661929278497237 9.060397769380618
Sc 9.639320172874584 15.676496071781884 7.662263680201278
Sc 16.734577217603782 9.608649314823447 13.392209562525444
Sc 9.273076616181612 17.29552472445628 10.097021862760089
Sc 9.668797351818844 10.138297571505856 7.691128303696109
Sc 11.08812539097185 14.82807280672038 11.344902926562613
Sc 12.038475891729844 9.081339587716666 9.021975437546931
Sc 11.857002489848938 14.41409168503315 6.324434339882791
Sc 11.471564599780848 17.907264652405495 11.947558338469173
Sc 9.217813757039037 8.496528363795786 10.06643264930917
Sc 11.877765880800007 11.366704834772507 6.3179693227545
Sc 11.072811465414917 10.936290103261658 11.30738163441609
Sc 14.051911522775729 14.36490308325337 8.680023803924202
Sc 14.438145110489918 12.916452701966186 6.005245912403904
Sc 11.445957347550026 7.860440228527933 11.88715793226049
Sc 14.011172846943683 11.425626996718156 8.668734828019662
Sc 16.304087169571545 12.802260311234095 19.36336159849594
Sc 8.821507343786797 12.890551906265822 12.710954963581223
Sc 12.053341940265069 11.366141806499071 16.718506713605073
Sc 16.194319478341633 15.7629846346657 18.794697182271403
Sc 8.873587596379274 16.123852934216004 12.841694130132248
Sc 13.419017066091728 14.421607678189222 19.37441134545163
Sc 15.702188910322542 10.087381765635687 18.44582505013125
Sc 13.235795102298331 11.4392686797525 19.48585380473681
