6
Energy = -25.18747073 eV
Sc 13.767070559987985 11.796312903352696 15.56359836116651
Sc 13.009946659157578 11.163663560819371 12.874824184269688
Sc 14.814834932772841 13.457203116749302 13.430472326747267
Sc 12.062786504886105 13.655016364706931 14.139063697265845
Sc 12.786433167940938 13.700716945508871 11.271179719861523
Sc 13.36947050818304 15.998974394788117 12.731049591363563
