8
Energy = -35.14788642 eV
Sc 6.529983779108925 8.015914662684825 7.297894537380996
Sc 7.8148152054145195 7.049841562961828 9.94869477524487
Sc 10.447144345996731 5.884658040447914 10.009094719467456
Sc 9.324932249879604 6.648545740525047 7.469663660699836
Sc 6.252128752781368 10.812214096310022 6.692489550087642
Sc 7.371812157414534 10.047850397432041 9.227920442652897
Sc 10.17376926273795 8.684959626615322 9.398513010785376
Sc 8.883015881382951 9.653617507739451 6.7533309383973865
