9
Energy = -40.35321074 eV
Sc 11.431633572610345 12.051067383262936 13.066304398202169
Sc 10.97955830964201 11.728181909961616 10.116799906186834
Sc 10.2499739679317 10.83412650639251 6.891629406560957
Sc 11.475353782244252 9.3721085696237 11.945339363697192
Sc 8.981281938929099 10.75756933890798 12.141030950505828
Sc 8.862650628948968 8.20728065954786 7.433087474184143
Sc 11.156034388981713 9.018019838461715 8.958938076862545
Sc 8.482330363429963 10.476095005578967 9.16193302248791
Sc 8.99545654513976 8.019801861993129 10.629011740178527
