9
Energy = -40.5735351 eV
Sc 11.7255520034695 12.282595102368507 9.298370429804384
Sc 10.493554923438552 10.321094708321969 7.371560209197953
Sc 10.611972866677608 8.71934490211441 12.451935339155153
Sc 12.99069776524455 10.733539576260045 12.12413509235058
Sc 12.065043837151562 9.411394082160859 9.7674216074156
Sc 10.26471809394099 11.289154309938667 11.51670202750194
Sc 9.184716418762207 8.986507382909197 9.703085100127225
Sc 8.649982633974936 11.824813622966355 9.24868089709098
Sc 7.773682347979957 10.001622548521897 11.974776664734012
