<?xml version="1.0" encoding="ISO-8859-1"?>
<modeling>
 <generator>
  <i name="program" type="string">vasp </i>
  <i name="version" type="string">5.3.5  </i>
  <i name="subversion" type="string">31Mar14 (build Feb 01 2018 12:10:03) gamma-only                       parallel </i>
  <i name="platform" type="string">LinuxIFC </i>
  <i name="date" type="string">2019 03 21 </i>
  <i name="time" type="string">20:20:55 </i>
 </generator>
 <incar>
  <i type="string" name="PREC">normal</i>
  <i type="int" name="ISPIN">     2</i>
  <i type="int" name="IBRION">     2</i>
  <i type="int" name="NSW">  1000</i>
  <i type="int" name="ISIF">     2</i>
  <i name="POTIM">      0.10000000</i>
  <i type="logical" name="LPLANE"> T  </i>
  <i type="int" name="ISMEAR">     0</i>
  <i name="SIGMA">      0.00010000</i>
  <i type="logical" name="LWAVE"> F  </i>
  <i type="logical" name="LCHARG"> F  </i>
  <i type="logical" name="LVTOT"> F  </i>
  <i type="string" name="GGA"> PE</i>
 </incar>
 <kpoints>
  <varray name="kpointlist" >
   <v>       0.00000000       0.00000000       0.00000000 </v>
  </varray>
  <varray name="weights" >
   <v>       1.00000000 </v>
  </varray>
 </kpoints>
 <parameters>
  <separator name="general" >
   <i type="string" name="SYSTEM">unknown system</i>
   <i type="logical" name="LCOMPAT"> F  </i>
  </separator>
  <separator name="electronic" >
   <i type="string" name="PREC">normal</i>
   <i name="ENMAX">    249.84400000</i>
   <i name="ENAUG">    412.49600000</i>
   <i name="EDIFF">      0.00010000</i>
   <i type="int" name="IALGO">    38</i>
   <i type="int" name="IWAVPR">    11</i>
   <i type="int" name="NBANDS">   124</i>
   <i name="NELECT">    187.00000000</i>
   <i type="int" name="TURBO">     0</i>
   <i type="int" name="IRESTART">     0</i>
   <i type="int" name="NREBOOT">     0</i>
   <i type="int" name="NMIN">     0</i>
   <i name="EREF">      0.00000000</i>
   <separator name="electronic smearing" >
    <i type="int" name="ISMEAR">     0</i>
    <i name="SIGMA">      0.00010000</i>
    <i name="KSPACING">      0.50000000</i>
    <i type="logical" name="KGAMMA"> T  </i>
   </separator>
   <separator name="electronic projectors" >
    <i type="logical" name="LREAL"> F  </i>
    <v name="ROPT">      0.00000000</v>
    <i type="int" name="LMAXPAW">  -100</i>
    <i type="int" name="LMAXMIX">     2</i>
    <i type="logical" name="NLSPLINE"> F  </i>
   </separator>
   <separator name="electronic startup" >
    <i type="int" name="ISTART">     0</i>
    <i type="int" name="ICHARG">     2</i>
    <i type="int" name="INIWAV">     1</i>
   </separator>
   <separator name="electronic spin" >
    <i type="int" name="ISPIN">     2</i>
    <i type="logical" name="LNONCOLLINEAR"> F  </i>
    <v name="MAGMOM">      1.00000000      1.00000000      1.00000000      1.00000000      1.00000000      1.00000000      1.00000000      1.00000000      1.00000000      1.00000000      1.00000000      1.00000000      1.00000000      1.00000000      1.00000000      1.00000000      1.00000000</v>
    <i name="NUPDOWN">     -1.00000000</i>
    <i type="logical" name="LSORBIT"> F  </i>
    <v name="SAXIS">      0.00000000      0.00000000      1.00000000</v>
    <i type="logical" name="LSPIRAL"> F  </i>
    <v name="QSPIRAL">      0.00000000      0.00000000      0.00000000</v>
    <i type="logical" name="LZEROZ"> F  </i>
   </separator>
   <separator name="electronic exchange-correlation" >
    <i type="logical" name="LASPH"> F  </i>
    <i type="logical" name="LMETAGGA"> F  </i>
   </separator>
   <separator name="electronic convergence" >
    <i type="int" name="NELM">    60</i>
    <i type="int" name="NELMDL">    -5</i>
    <i type="int" name="NELMIN">     2</i>
    <i name="ENINI">    249.84400000</i>
    <separator name="electronic convergence detail" >
     <i type="logical" name="LDIAG"> T  </i>
     <i type="logical" name="LSUBROT"> F  </i>
     <i name="WEIMIN">      0.00100000</i>
     <i name="EBREAK">      0.00000020</i>
     <i name="DEPER">      0.30000000</i>
     <i type="int" name="NRMM">     4</i>
     <i name="TIME">      0.40000000</i>
    </separator>
   </separator>
   <separator name="electronic mixer" >
    <i name="AMIX">      0.40000000</i>
    <i name="BMIX">      1.00000000</i>
    <i name="AMIN">      0.10000000</i>
    <i name="AMIX_MAG">      1.60000000</i>
    <i name="BMIX_MAG">      1.00000000</i>
    <separator name="electronic mixer details" >
     <i type="int" name="IMIX">     4</i>
     <i type="int" name="MAXMIX">   -45</i>
     <i name="WC">    100.00000000</i>
     <i type="int" name="INIMIX">     1</i>
     <i type="int" name="MIXPRE">     1</i>
     <i type="int" name="MREMOVE">     5</i>
    </separator>
   </separator>
   <separator name="electronic dipolcorrection" >
    <i type="logical" name="LDIPOL"> F  </i>
    <i type="logical" name="LMONO"> F  </i>
    <i type="int" name="IDIPOL">     0</i>
    <i name="EPSILON">      1.00000000</i>
    <v name="DIPOL">   -100.00000000   -100.00000000   -100.00000000</v>
    <i name="EFIELD">      0.00000000</i>
   </separator>
  </separator>
  <separator name="grids" >
   <i type="int" name="NGX">    80</i>
   <i type="int" name="NGY">    80</i>
   <i type="int" name="NGZ">    80</i>
   <i type="int" name="NGXF">   160</i>
   <i type="int" name="NGYF">   160</i>
   <i type="int" name="NGZF">   160</i>
   <i type="logical" name="ADDGRID"> F  </i>
  </separator>
  <separator name="ionic" >
   <i type="int" name="NSW">  1000</i>
   <i type="int" name="IBRION">     2</i>
   <i type="int" name="ISIF">     2</i>
   <i name="PSTRESS">      0.00000000</i>
   <i name="EDIFFG">      0.00100000</i>
   <i type="int" name="NFREE">     1</i>
   <i name="POTIM">      0.10000000</i>
   <i name="SMASS">     -3.00000000</i>
   <i name="SCALEE">      1.00000000</i>
  </separator>
  <separator name="ionic md" >
   <i name="TEBEG">      0.00010000</i>
   <i name="TEEND">      0.00010000</i>
   <i type="int" name="NBLOCK">     1</i>
   <i type="int" name="KBLOCK">  1000</i>
   <i type="int" name="NPACO">   256</i>
   <i name="APACO">     16.00000000</i>
  </separator>
  <separator name="symmetry" >
   <i type="int" name="ISYM">     2</i>
   <i name="SYMPREC">      0.00001000</i>
  </separator>
  <separator name="dos" >
   <i type="logical" name="LORBIT"> F  </i>
   <v name="RWIGS">     -1.00000000</v>
   <i type="int" name="NEDOS">   301</i>
   <i name="EMIN">     10.00000000</i>
   <i name="EMAX">    -10.00000000</i>
   <i name="EFERMI">      0.00000000</i>
  </separator>
  <separator name="writing" >
   <i type="int" name="NWRITE">     2</i>
   <i type="logical" name="LWAVE"> F  </i>
   <i type="logical" name="LCHARG"> F  </i>
   <i type="logical" name="LPARD"> F  </i>
   <i type="logical" name="LVTOT"> F  </i>
   <i type="logical" name="LVHAR"> F  </i>
   <i type="logical" name="LELF"> F  </i>
   <i type="logical" name="LOPTICS"> F  </i>
   <v name="STM">      0.00000000      0.00000000      0.00000000      0.00000000      0.00000000      0.00000000      0.00000000</v>
  </separator>
  <separator name="performance" >
   <i type="int" name="NPAR">     4</i>
   <i type="int" name="NSIM">     4</i>
   <i type="int" name="NBLK">    -1</i>
   <i type="logical" name="LPLANE"> T  </i>
   <i type="logical" name="LSCALAPACK"> T  </i>
   <i type="logical" name="LSCAAWARE"> F  </i>
   <i type="logical" name="LSCALU"> F  </i>
   <i type="logical" name="LASYNC"> F  </i>
   <i type="logical" name="LORBITALREAL"> F  </i>
  </separator>
  <separator name="miscellaneous" >
   <i type="int" name="IDIOT">     3</i>
   <i type="logical" name="LMUSIC"> F  </i>
   <v name="POMASS">    107.86800000</v>
   <v name="DARWINR">      0.00000000</v>
   <v name="DARWINV">      1.00000000</v>
   <i type="logical" name="LCORR"> T  </i>
  </separator>
  <i type="logical" name="GGA_COMPAT"> T  </i>
  <i type="logical" name="LBERRY"> F  </i>
  <i type="int" name="ICORELEVEL">     0</i>
  <i type="logical" name="LDAU"> F  </i>
  <i type="int" name="I_CONSTRAINED_M">     0</i>
  <separator name="electronic exchange-correlation" >
   <i type="string" name="GGA">PE</i>
   <i type="int" name="VOSKOWN">     0</i>
   <i type="logical" name="LHFCALC"> F  </i>
   <i type="string" name="PRECFOCK"></i>
   <i type="logical" name="LSYMGRAD"> F  </i>
   <i type="logical" name="LHFONE"> F  </i>
   <i type="logical" name="LRHFCALC"> F  </i>
   <i type="logical" name="LTHOMAS"> F  </i>
   <i type="logical" name="LMODELHF"> F  </i>
   <i name="ENCUT4O">     -1.00000000</i>
   <i type="int" name="EXXOEP">     0</i>
   <i type="int" name="FOURORBIT">     0</i>
   <i name="AEXX">      0.00000000</i>
   <i name="HFALPHA">      0.00000000</i>
   <i name="MCALPHA">      0.00000000</i>
   <i name="ALDAX">      1.00000000</i>
   <i name="AGGAX">      1.00000000</i>
   <i name="ALDAC">      1.00000000</i>
   <i name="AGGAC">      1.00000000</i>
   <i type="int" name="NKREDX">     1</i>
   <i type="int" name="NKREDY">     1</i>
   <i type="int" name="NKREDZ">     1</i>
   <i type="logical" name="SHIFTRED"> F  </i>
   <i type="logical" name="ODDONLY"> F  </i>
   <i type="logical" name="EVENONLY"> F  </i>
   <i type="int" name="LMAXFOCK">     0</i>
   <i type="int" name="NMAXFOCKAE">     0</i>
   <i type="logical" name="LFOCKAEDFT"> F  </i>
   <i name="HFSCREEN">      0.00000000</i>
   <i name="HFSCREENC">      0.00000000</i>
   <i type="int" name="NBANDSGWLOW">     0</i>
  </separator>
  <separator name="vdW DFT" >
   <i type="logical" name="LUSE_VDW"> F  </i>
   <i name="Zab_VDW">     -0.84910000</i>
   <i name="PARAM1">      0.12340000</i>
   <i name="PARAM2">      1.00000000</i>
   <i name="PARAM3">      0.00000000</i>
  </separator>
  <separator name="model GW" >
   <i type="int" name="MODEL_GW">     0</i>
   <i name="MODEL_EPS0">    269.25628455</i>
   <i name="MODEL_ALPHA">      1.00000000</i>
  </separator>
  <separator name="linear response parameters" >
   <i type="logical" name="LEPSILON"> F  </i>
   <i type="logical" name="LRPA"> F  </i>
   <i type="logical" name="LNABLA"> F  </i>
   <i type="logical" name="LVEL"> F  </i>
   <i type="int" name="KINTER">     0</i>
   <i name="CSHIFT">      0.10000000</i>
   <i name="OMEGAMAX">     -1.00000000</i>
   <i name="DEG_THRESHOLD">      0.00200000</i>
  </separator>
  <separator name="orbital magnetization" >
   <i type="logical" name="NUCIND"> F  </i>
   <v name="MAGPOS">      0.00000000      0.00000000      0.00000000</v>
   <i type="logical" name="LNICSALL"> T  </i>
   <i type="logical" name="ORBITALMAG"> F  </i>
   <i type="logical" name="LMAGBLOCH"> F  </i>
   <i type="logical" name="LCHIMAG"> F  </i>
   <i type="logical" name="LGAUGE"> T  </i>
   <i type="int" name="MAGATOM">     0</i>
   <v name="MAGDIPOL">      0.00000000      0.00000000      0.00000000</v>
   <v name="AVECCONST">      0.00000000      0.00000000      0.00000000</v>
  </separator>
  <separator name="response functions" >
   <i type="logical" name="LADDER"> F  </i>
   <i type="logical" name="LFXC"> F  </i>
   <i type="logical" name="LHARTREE"> T  </i>
   <i type="int" name="IBSE">     0</i>
   <i type="logical" name="LTCTE"> F  </i>
   <i type="logical" name="LTETE"> F  </i>
   <i type="logical" name="LTRIPLET"> F  </i>
   <i type="logical" name="LFXCEPS"> F  </i>
   <i type="logical" name="LFXHEG"> F  </i>
   <i type="logical" name="L2ORDER"> F  </i>
   <i type="logical" name="LUSEW"> F  </i>
   <i name="ENCUTGW">     -2.00000000</i>
   <i name="ENCUTGWSOFT">     -2.00000000</i>
   <i name="ENCUTLF">     -1.00000000</i>
   <i type="int" name="LMAXMP2">    -1</i>
   <i name="SCISSOR">      0.00000000</i>
   <i type="int" name="NOMEGA">     0</i>
   <i type="int" name="NOMEGAR">     0</i>
   <i type="int" name="NBANDSGW">    -1</i>
   <i type="int" name="NBANDSO">    -1</i>
   <i type="int" name="NBANDSV">    -1</i>
   <i type="int" name="NELM">     1</i>
   <i type="int" name="DIM">     3</i>
   <i type="int" name="ANTIRES">     0</i>
   <i name="OMEGAMAX">    -30.00000000</i>
   <i name="OMEGAMIN">    -30.00000000</i>
   <i name="OMEGATL">   -200.00000000</i>
   <i type="int" name="OMEGAGRID">     0</i>
   <i name="CSHIFT">     -0.10000000</i>
   <i type="logical" name="SELFENERGY"> F  </i>
   <i type="logical" name="LSPECTRAL"> F  </i>
   <i type="logical" name="ODDONLYGW"> F  </i>
   <i type="logical" name="EVENONLYGW"> F  </i>
   <i type="int" name="NKREDLFX">     1</i>
   <i type="int" name="NKREDLFY">     1</i>
   <i type="int" name="NKREDLFZ">     1</i>
   <i type="int" name="MAXMEM">  1800</i>
   <i type="int" name="TELESCOPE">     0</i>
   <i type="int" name="TAUPAR">     1</i>
  </separator>
  <separator name="External order field" >
   <i name="OFIELD_KAPPA">      0.00000000</i>
   <v name="OFIELD_K">      0.00000000      0.00000000      0.00000000</v>
   <i name="OFIELD_Q6_NEAR">      0.00000000</i>
   <i name="OFIELD_Q6_FAR">      0.00000000</i>
   <i name="OFIELD_A">      0.00000000</i>
  </separator>
 </parameters>
 <atominfo>
  <atoms>      17 </atoms>
  <types>       1 </types>
  <array name="atoms" >
   <dimension dim="1">ion</dimension>
   <field type="string">element</field>
   <field type="int">atomtype</field>
   <set>
    <rc><c>Ag</c><c>   1</c></rc>
    <rc><c>Ag</c><c>   1</c></rc>
    <rc><c>Ag</c><c>   1</c></rc>
    <rc><c>Ag</c><c>   1</c></rc>
    <rc><c>Ag</c><c>   1</c></rc>
    <rc><c>Ag</c><c>   1</c></rc>
    <rc><c>Ag</c><c>   1</c></rc>
    <rc><c>Ag</c><c>   1</c></rc>
    <rc><c>Ag</c><c>   1</c></rc>
    <rc><c>Ag</c><c>   1</c></rc>
    <rc><c>Ag</c><c>   1</c></rc>
    <rc><c>Ag</c><c>   1</c></rc>
    <rc><c>Ag</c><c>   1</c></rc>
    <rc><c>Ag</c><c>   1</c></rc>
    <rc><c>Ag</c><c>   1</c></rc>
    <rc><c>Ag</c><c>   1</c></rc>
    <rc><c>Ag</c><c>   1</c></rc>
   </set>
  </array>
  <array name="atomtypes" >
   <dimension dim="1">type</dimension>
   <field type="int">atomspertype</field>
   <field type="string">element</field>
   <field>mass</field>
   <field>valence</field>
   <field type="string">pseudopotential</field>
   <set>
    <rc><c>  17</c><c>Ag</c><c>    107.86800000</c><c>     11.00000000</c><c>  PAW_PBE Ag 02Apr2005                  </c></rc>
   </set>
  </array>
 </atominfo>
 <structure name="initialpos" >
  <crystal>
   <varray name="basis" >
    <v>      19.68586518       0.00000000       0.00000000 </v>
    <v>       0.00000000      19.68586518       0.00000000 </v>
    <v>       0.00000000       0.00000000      19.68586518 </v>
   </varray>
   <i name="volume">   7628.92806221 </i>
   <varray name="rec_basis" >
    <v>       0.05079787       0.00000000       0.00000000 </v>
    <v>       0.00000000       0.05079787       0.00000000 </v>
    <v>       0.00000000       0.00000000       0.05079787 </v>
   </varray>
  </crystal>
  <varray name="positions" >
   <v>       0.59200897       0.46469614       0.39528829 </v>
   <v>       0.60021017       0.41129020       0.52101962 </v>
   <v>       0.58246953       0.59952380       0.36678811 </v>
   <v>       0.64381637       0.54865130       0.50387451 </v>
   <v>       0.49087594       0.34259295       0.57469079 </v>
   <v>       0.47050266       0.41334183       0.45101188 </v>
   <v>       0.46459721       0.51868052       0.35058069 </v>
   <v>       0.53509140       0.69119144       0.45520464 </v>
   <v>       0.50989565       0.54284216       0.48206158 </v>
   <v>       0.37076918       0.51525412       0.46232411 </v>
   <v>       0.60241954       0.38341285       0.65716366 </v>
   <v>       0.40949825       0.45608622       0.57891720 </v>
   <v>       0.46814737       0.41523949       0.69819518 </v>
   <v>       0.41682723       0.63718455       0.41648527 </v>
   <v>       0.54357350       0.50903722       0.61897880 </v>
   <v>       0.56161840       0.63812442       0.57903548 </v>
   <v>       0.42388592       0.60035575       0.57022429 </v>
  </varray>
 </structure>
 <calculation>
  <scstep>
   <time name="dav">    1.34    1.34</time>
   <time name="total">    1.58    1.60</time>
   <energy>
    <i name="alphaZ">     32.22170401 </i>
    <i name="ewald">  25703.48322841 </i>
    <i name="hartreedc"> -42589.27918788 </i>
    <i name="XCdc">   -188.05002541 </i>
    <i name="pawpsdc">  17057.32702718 </i>
    <i name="pawaedc"> -16273.49835094 </i>
    <i name="eentropy">      0.00000000 </i>
    <i name="bandstr">    280.82651275 </i>
    <i name="atom">  17632.37671147 </i>
    <i name="e_fr_energy">   1655.40761959 </i>
    <i name="e_wo_entrp">   1655.40761959 </i>
    <i name="e_0_energy">   1655.40761959 </i>
   </energy>
  </scstep>
  <scstep>
   <time name="dav">    2.20    2.21</time>
   <time name="total">    2.21    2.22</time>
   <energy>
    <i name="e_fr_energy">    438.22605752 </i>
    <i name="e_wo_entrp">    438.22605752 </i>
    <i name="e_0_energy">    438.22605752 </i>
   </energy>
  </scstep>
  <scstep>
   <time name="dav">    1.76    1.76</time>
   <time name="total">    1.76    1.77</time>
   <energy>
    <i name="e_fr_energy">     -6.49287986 </i>
    <i name="e_wo_entrp">     -6.49287986 </i>
    <i name="e_0_energy">     -6.49287986 </i>
   </energy>
  </scstep>
  <scstep>
   <time name="dav">    1.52    1.52</time>
   <time name="total">    1.52    1.72</time>
   <energy>
    <i name="e_fr_energy">    -32.11429364 </i>
    <i name="e_wo_entrp">    -32.11429364 </i>
    <i name="e_0_energy">    -32.11429364 </i>
   </energy>
  </scstep>
  <scstep>
   <time name="dav">    1.49    1.49</time>
   <time name="total">    1.57    1.58</time>
   <energy>
    <i name="e_fr_energy">    -32.46775829 </i>
    <i name="e_wo_entrp">    -32.46775829 </i>
    <i name="e_0_energy">    -32.46775829 </i>
   </energy>
  </scstep>
  <scstep>
   <time name="dav">    1.40    1.40</time>
   <time name="total">    1.71    3.90</time>
   <energy>
    <i name="e_fr_energy">     -9.54208302 </i>
    <i name="e_wo_entrp">     -9.54208302 </i>
    <i name="e_0_energy">     -9.54208302 </i>
   </energy>
  </scstep>
  <scstep>
   <time name="dav">    1.45    1.45</time>
   <time name="total">    1.76    1.76</time>
   <energy>
    <i name="e_fr_energy">     -8.82345021 </i>
    <i name="e_wo_entrp">     -8.82345021 </i>
    <i name="e_0_energy">     -8.82345021 </i>
   </energy>
  </scstep>
  <scstep>
   <time name="dav">    1.43    1.43</time>
   <time name="total">    1.74    1.75</time>
   <energy>
    <i name="e_fr_energy">    -10.98840247 </i>
    <i name="e_wo_entrp">    -10.98840247 </i>
    <i name="e_0_energy">    -10.98840247 </i>
   </energy>
  </scstep>
  <scstep>
   <time name="dav">    1.52    1.51</time>
   <time name="total">    1.83    1.83</time>
   <energy>
    <i name="e_fr_energy">    -10.29491785 </i>
    <i name="e_wo_entrp">    -10.29491785 </i>
    <i name="e_0_energy">    -10.29491785 </i>
   </energy>
  </scstep>
  <scstep>
   <time name="dav">    1.40    1.40</time>
   <time name="total">    1.71    1.72</time>
   <energy>
    <i name="e_fr_energy">    -14.30548083 </i>
    <i name="e_wo_entrp">    -14.30548083 </i>
    <i name="e_0_energy">    -14.30548083 </i>
   </energy>
  </scstep>
  <scstep>
   <time name="dav">    1.41    1.41</time>
   <time name="total">    1.73    1.73</time>
   <energy>
    <i name="e_fr_energy">    -21.70916157 </i>
    <i name="e_wo_entrp">    -21.70916157 </i>
    <i name="e_0_energy">    -21.70916157 </i>
   </energy>
  </scstep>
  <scstep>
   <time name="dav">    1.39    1.39</time>
   <time name="total">    1.70    1.71</time>
   <energy>
    <i name="e_fr_energy">    -25.45775630 </i>
    <i name="e_wo_entrp">    -25.45775630 </i>
    <i name="e_0_energy">    -25.45775630 </i>
   </energy>
  </scstep>
  <scstep>
   <time name="dav">    1.38    1.38</time>
   <time name="total">    1.70    1.70</time>
   <energy>
    <i name="e_fr_energy">    -29.19582659 </i>
    <i name="e_wo_entrp">    -29.19582659 </i>
    <i name="e_0_energy">    -29.19582659 </i>
   </energy>
  </scstep>
  <scstep>
   <time name="dav">    1.54    1.55</time>
   <time name="total">    1.86    2.02</time>
   <energy>
    <i name="e_fr_energy">    -29.22692861 </i>
    <i name="e_wo_entrp">    -29.22692861 </i>
    <i name="e_0_energy">    -29.22692861 </i>
   </energy>
  </scstep>
  <scstep>
   <time name="dav">    1.44    1.45</time>
   <time name="total">    1.76    1.77</time>
   <energy>
    <i name="e_fr_energy">    -29.48261124 </i>
    <i name="e_wo_entrp">    -29.48261124 </i>
    <i name="e_0_energy">    -29.48261124 </i>
   </energy>
  </scstep>
  <scstep>
   <time name="dav">    1.44    1.44</time>
   <time name="total">    1.76    2.12</time>
   <energy>
    <i name="e_fr_energy">    -30.37796506 </i>
    <i name="e_wo_entrp">    -30.37796506 </i>
    <i name="e_0_energy">    -30.37796506 </i>
   </energy>
  </scstep>
  <scstep>
   <time name="dav">    1.40    1.40</time>
   <time name="total">    1.72    1.82</time>
   <energy>
    <i name="e_fr_energy">    -31.05485246 </i>
    <i name="e_wo_entrp">    -31.05485246 </i>
    <i name="e_0_energy">    -31.05485246 </i>
   </energy>
  </scstep>
  <scstep>
   <time name="dav">    1.40    1.40</time>
   <time name="total">    1.72    1.73</time>
   <energy>
    <i name="e_fr_energy">    -31.49469986 </i>
    <i name="e_wo_entrp">    -31.49469986 </i>
    <i name="e_0_energy">    -31.49469986 </i>
   </energy>
  </scstep>
  <scstep>
   <time name="dav">    1.43    1.43</time>
   <time name="total">    1.75    1.78</time>
   <energy>
    <i name="e_fr_energy">    -31.77324903 </i>
    <i name="e_wo_entrp">    -31.77324903 </i>
    <i name="e_0_energy">    -31.77324903 </i>
   </energy>
  </scstep>
  <scstep>
   <time name="dav">    1.42    1.42</time>
   <time name="total">    1.74    1.75</time>
   <energy>
    <i name="e_fr_energy">    -31.94004780 </i>
    <i name="e_wo_entrp">    -31.94004780 </i>
    <i name="e_0_energy">    -31.94004780 </i>
   </energy>
  </scstep>
  <scstep>
   <time name="dav">    1.19    1.19</time>
   <time name="total">    1.52    1.53</time>
   <energy>
    <i name="e_fr_energy">    -31.97049858 </i>
    <i name="e_wo_entrp">    -31.97049858 </i>
    <i name="e_0_energy">    -31.97049858 </i>
   </energy>
  </scstep>
  <scstep>
   <time name="dav">    1.14    1.14</time>
   <time name="total">    1.46    1.49</time>
   <energy>
    <i name="e_fr_energy">    -31.99944212 </i>
    <i name="e_wo_entrp">    -31.99944212 </i>
    <i name="e_0_energy">    -31.99944212 </i>
   </energy>
  </scstep>
  <scstep>
   <time name="dav">    1.12    1.12</time>
   <time name="total">    1.44    1.45</time>
   <energy>
    <i name="e_fr_energy">    -32.00452029 </i>
    <i name="e_wo_entrp">    -32.00452029 </i>
    <i name="e_0_energy">    -32.00452029 </i>
   </energy>
  </scstep>
  <scstep>
   <time name="dav">    1.15    1.15</time>
   <time name="total">    1.47    1.49</time>
   <energy>
    <i name="e_fr_energy">    -32.00803147 </i>
    <i name="e_wo_entrp">    -32.00803147 </i>
    <i name="e_0_energy">    -32.00803147 </i>
   </energy>
  </scstep>
  <scstep>
   <time name="dav">    1.12    1.12</time>
   <time name="total">    1.45    1.45</time>
   <energy>
    <i name="e_fr_energy">    -32.01143419 </i>
    <i name="e_wo_entrp">    -32.01143419 </i>
    <i name="e_0_energy">    -32.01143419 </i>
   </energy>
  </scstep>
  <scstep>
   <time name="dav">    1.07    1.07</time>
   <time name="total">    1.40    1.40</time>
   <energy>
    <i name="e_fr_energy">    -32.01213328 </i>
    <i name="e_wo_entrp">    -32.01213328 </i>
    <i name="e_0_energy">    -32.01213328 </i>
   </energy>
  </scstep>
  <scstep>
   <time name="dav">    1.07    1.07</time>
   <time name="total">    1.40    1.42</time>
   <energy>
    <i name="e_fr_energy">    -32.01241942 </i>
    <i name="e_wo_entrp">    -32.01241942 </i>
    <i name="e_0_energy">    -32.01241942 </i>
   </energy>
  </scstep>
  <scstep>
   <time name="dav">    1.07    1.07</time>
   <time name="total">    1.30    1.32</time>
   <energy>
    <i name="alphaZ">     32.22170401 </i>
    <i name="ewald">  25703.48322841 </i>
    <i name="hartreedc"> -42576.85100019 </i>
    <i name="XCdc">   -193.96972281 </i>
    <i name="pawpsdc">  18328.08960662 </i>
    <i name="pawaedc"> -17572.71702371 </i>
    <i name="eentropy">      0.00000000 </i>
    <i name="bandstr">  -1384.64596100 </i>
    <i name="atom">  17632.37671147 </i>
    <i name="e_fr_energy">    -32.01245720 </i>
    <i name="e_wo_entrp">    -32.01245720 </i>
    <i name="e_0_energy">    -32.01245720 </i>
   </energy>
  </scstep>
  <structure>
   <crystal>
    <varray name="basis" >
     <v>      19.68586518       0.00000000       0.00000000 </v>
     <v>       0.00000000      19.68586518       0.00000000 </v>
     <v>       0.00000000       0.00000000      19.68586518 </v>
    </varray>
    <i name="volume">   7628.92806221 </i>
    <varray name="rec_basis" >
     <v>       0.05079787       0.00000000       0.00000000 </v>
     <v>       0.00000000       0.05079787       0.00000000 </v>
     <v>       0.00000000       0.00000000       0.05079787 </v>
    </varray>
   </crystal>
   <varray name="positions" >
    <v>       0.59200897       0.46469614       0.39528829 </v>
    <v>       0.60021017       0.41129020       0.52101962 </v>
    <v>       0.58246953       0.59952380       0.36678811 </v>
    <v>       0.64381637       0.54865130       0.50387451 </v>
    <v>       0.49087594       0.34259295       0.57469079 </v>
    <v>       0.47050266       0.41334183       0.45101188 </v>
    <v>       0.46459721       0.51868052       0.35058069 </v>
    <v>       0.53509140       0.69119144       0.45520464 </v>
    <v>       0.50989565       0.54284216       0.48206158 </v>
    <v>       0.37076918       0.51525412       0.46232411 </v>
    <v>       0.60241954       0.38341285       0.65716366 </v>
    <v>       0.40949825       0.45608622       0.57891720 </v>
    <v>       0.46814737       0.41523949       0.69819518 </v>
    <v>       0.41682723       0.63718455       0.41648527 </v>
    <v>       0.54357350       0.50903722       0.61897880 </v>
    <v>       0.56161840       0.63812442       0.57903548 </v>
    <v>       0.42388592       0.60035575       0.57022429 </v>
   </varray>
  </structure>
  <varray name="forces" >
   <v>       0.16443825      -0.09000897      -0.27728437 </v>
   <v>       0.19164592       0.05474067       0.09022611 </v>
   <v>       0.19908047      -0.08827402       0.05287958 </v>
   <v>       0.22610742      -0.08430266      -0.09609626 </v>
   <v>      -0.03664421       0.06054600      -0.12084424 </v>
   <v>      -0.18404228      -0.64054830      -0.11703597 </v>
   <v>      -0.16329691      -0.35618805      -0.20498534 </v>
   <v>       0.16990199       0.30618123       0.28745393 </v>
   <v>       0.00300870       0.41001099      -0.22124117 </v>
   <v>      -0.28718115       0.04175620      -0.16076723 </v>
   <v>      -0.10321053       0.19965125      -0.01161714 </v>
   <v>      -0.05973806       0.08414857       0.19283769 </v>
   <v>       0.14163864       0.12510743      -0.09162112 </v>
   <v>      -0.16692663      -0.02422190       0.15689293 </v>
   <v>      -0.02080158      -0.31340964       0.19365114 </v>
   <v>       0.16045059       0.30738273       0.28885271 </v>
   <v>      -0.23443063       0.00742847       0.03869875 </v>
  </varray>
  <varray name="stress" >
   <v>      -0.60360071       0.11415038       0.04736272 </v>
   <v>       0.11415038      -0.88008238       0.58101197 </v>
   <v>       0.04736272       0.58101197      -0.99863719 </v>
  </varray>
  <energy>
   <i name="e_fr_energy">    -32.01245720 </i>
   <i name="e_wo_entrp">    -32.01245720 </i>
   <i name="e_0_energy">      0.00000000 </i>
  </energy>
  <time name="totalsc">   48.59   51.95</time>
 </calculation>
 <calculation>
  <scstep>
   <time name="dav">    1.45    1.45</time>
   <time name="total">    1.77    1.78</time>
   <energy>
    <i name="alphaZ">     32.22170401 </i>
    <i name="ewald">  25672.42345936 </i>
    <i name="hartreedc"> -42546.00715929 </i>
    <i name="XCdc">   -194.01920115 </i>
    <i name="pawpsdc">  18328.06902309 </i>
    <i name="pawaedc"> -17572.69573915 </i>
    <i name="eentropy">      0.00000000 </i>
    <i name="bandstr">  -1384.40002469 </i>
    <i name="atom">  17632.37671147 </i>
    <i name="e_fr_energy">    -32.03122634 </i>
    <i name="e_wo_entrp">    -32.03122634 </i>
    <i name="e_0_energy">    -32.03122634 </i>
   </energy>
  </scstep>
  <scstep>
   <time name="dav">    1.43    1.43</time>
   <time name="total">    1.75    1.75</time>
   <energy>
    <i name="e_fr_energy">    -32.03190053 </i>
    <i name="e_wo_entrp">    -32.03190053 </i>
    <i name="e_0_energy">    -32.03190053 </i>
   </energy>
  </scstep>
  <scstep>
   <time name="dav">    1.04    1.04</time>
   <time name="total">    1.27    1.28</time>
   <energy>
    <i name="alphaZ">     32.22170401 </i>
    <i name="ewald">  25672.42345936 </i>
    <i name="hartreedc"> -42546.30482310 </i>
    <i name="XCdc">   -194.01200117 </i>
    <i name="pawpsdc">  18323.94249906 </i>
    <i name="pawaedc"> -17568.50356434 </i>
    <i name="eentropy">      0.00000000 </i>
    <i name="bandstr">  -1384.17590727 </i>
    <i name="atom">  17632.37671147 </i>
    <i name="e_fr_energy">    -32.03192198 </i>
    <i name="e_wo_entrp">    -32.03192198 </i>
    <i name="e_0_energy">    -32.03192198 </i>
   </energy>
  </scstep>
  <structure>
   <crystal>
    <varray name="basis" >
     <v>      19.68586518       0.00000000       0.00000000 </v>
     <v>       0.00000000      19.68586518       0.00000000 </v>
     <v>       0.00000000       0.00000000      19.68586518 </v>
    </varray>
    <i name="volume">   7628.92806221 </i>
    <varray name="rec_basis" >
     <v>       0.05079787       0.00000000       0.00000000 </v>
     <v>       0.00000000       0.05079787       0.00000000 </v>
     <v>       0.00000000       0.00000000       0.05079787 </v>
    </varray>
   </crystal>
   <varray name="positions" >
    <v>       0.59208956       0.46465202       0.39515238 </v>
    <v>       0.60030410       0.41131703       0.52106385 </v>
    <v>       0.58256711       0.59948053       0.36681403 </v>
    <v>       0.64392719       0.54860998       0.50382741 </v>
    <v>       0.49085798       0.34262263       0.57463156 </v>
    <v>       0.47041246       0.41302788       0.45095452 </v>
    <v>       0.46451717       0.51850594       0.35048022 </v>
    <v>       0.53517467       0.69134151       0.45534553 </v>
    <v>       0.50989712       0.54304311       0.48195314 </v>
    <v>       0.37062842       0.51527459       0.46224531 </v>
    <v>       0.60236896       0.38351070       0.65715797 </v>
    <v>       0.40946898       0.45612746       0.57901171 </v>
    <v>       0.46821679       0.41530081       0.69815027 </v>
    <v>       0.41674542       0.63717268       0.41656217 </v>
    <v>       0.54356331       0.50888361       0.61907371 </v>
    <v>       0.56169704       0.63827508       0.57917705 </v>
    <v>       0.42377102       0.60035939       0.57024326 </v>
   </varray>
  </structure>
  <varray name="forces" >
   <v>       0.14356771      -0.08945933      -0.25151743 </v>
   <v>       0.17824836       0.05838623       0.07242345 </v>
   <v>       0.18322649      -0.07828291       0.05992927 </v>
   <v>       0.20290374      -0.07868301      -0.09078723 </v>
   <v>      -0.03369963       0.05901216      -0.11562851 </v>
   <v>      -0.16707869      -0.57652738      -0.10914356 </v>
   <v>      -0.15183218      -0.34404069      -0.18374813 </v>
   <v>       0.15644152       0.28036239       0.26568564 </v>
   <v>       0.00126604       0.36974131      -0.21115380 </v>
   <v>      -0.25993477       0.02665817      -0.14566448 </v>
   <v>      -0.09272516       0.18658963      -0.00674679 </v>
   <v>      -0.06021655       0.08747476       0.16736018 </v>
   <v>       0.13133657       0.11650289      -0.07883703 </v>
   <v>      -0.14560681      -0.01919271       0.15354521 </v>
   <v>      -0.01922021      -0.26750216       0.16296246 </v>
   <v>       0.14784956       0.26523329       0.27869486 </v>
   <v>      -0.21452599       0.00372736       0.03262590 </v>
  </varray>
  <varray name="stress" >
   <v>      -0.65443020       0.10895309       0.04652118 </v>
   <v>       0.10895309      -0.92968377       0.56678804 </v>
   <v>       0.04652118       0.56678803      -1.03675466 </v>
  </varray>
  <energy>
   <i name="e_fr_energy">    -32.03192198 </i>
   <i name="e_wo_entrp">    -32.03192198 </i>
   <i name="e_0_energy">      0.00000000 </i>
  </energy>
  <time name="totalsc">    7.08    7.13</time>
 </calculation>
 <calculation>
  <scstep>
   <time name="dav">    1.42    1.43</time>
   <time name="total">    1.74    1.76</time>
   <energy>
    <i name="alphaZ">     32.22170401 </i>
    <i name="ewald">  25579.66600190 </i>
    <i name="hartreedc"> -42454.46757208 </i>
    <i name="XCdc">   -194.15452508 </i>
    <i name="pawpsdc">  18321.45176117 </i>
    <i name="pawaedc"> -17565.97378525 </i>
    <i name="eentropy">      0.00000000 </i>
    <i name="bandstr">  -1383.19694788 </i>
    <i name="atom">  17632.37671147 </i>
    <i name="e_fr_energy">    -32.07665175 </i>
    <i name="e_wo_entrp">    -32.07665175 </i>
    <i name="e_0_energy">    -32.07665175 </i>
   </energy>
  </scstep>
  <scstep>
   <time name="dav">    1.44    1.45</time>
   <time name="total">    1.76    1.77</time>
   <energy>
    <i name="e_fr_energy">    -32.08217489 </i>
    <i name="e_wo_entrp">    -32.08217489 </i>
    <i name="e_0_energy">    -32.08217489 </i>
   </energy>
  </scstep>
  <scstep>
   <time name="dav">    1.46    1.45</time>
   <time name="total">    1.77    1.77</time>
   <energy>
    <i name="e_fr_energy">    -32.08208015 </i>
    <i name="e_wo_entrp">    -32.08208015 </i>
    <i name="e_0_energy">    -32.08208015 </i>
   </energy>
  </scstep>
  <scstep>
   <time name="dav">    1.42    1.42</time>
   <time name="total">    1.66    1.66</time>
   <energy>
    <i name="alphaZ">     32.22170401 </i>
    <i name="ewald">  25579.66600190 </i>
    <i name="hartreedc"> -42455.61991180 </i>
    <i name="XCdc">   -194.12786858 </i>
    <i name="pawpsdc">  18302.32733415 </i>
    <i name="pawaedc"> -17546.54256219 </i>
    <i name="eentropy">      0.00000000 </i>
    <i name="bandstr">  -1382.38342051 </i>
    <i name="atom">  17632.37671147 </i>
    <i name="e_fr_energy">    -32.08201155 </i>
    <i name="e_wo_entrp">    -32.08201155 </i>
    <i name="e_0_energy">    -32.08201155 </i>
   </energy>
  </scstep>
  <structure>
   <crystal>
    <varray name="basis" >
     <v>      19.68586518       0.00000000       0.00000000 </v>
     <v>       0.00000000      19.68586518       0.00000000 </v>
     <v>       0.00000000       0.00000000      19.68586518 </v>
    </varray>
    <i name="volume">   7628.92806221 </i>
    <varray name="rec_basis" >
     <v>       0.05079787       0.00000000       0.00000000 </v>
     <v>       0.00000000       0.05079787       0.00000000 </v>
     <v>       0.00000000       0.00000000       0.05079787 </v>
    </varray>
   </crystal>
   <varray name="positions" >
    <v>       0.59233135       0.46451967       0.39474467 </v>
    <v>       0.60058589       0.41139752       0.52119651 </v>
    <v>       0.58285983       0.59935074       0.36689178 </v>
    <v>       0.64425965       0.54848603       0.50368611 </v>
    <v>       0.49080409       0.34271165       0.57445388 </v>
    <v>       0.47014185       0.41208604       0.45078244 </v>
    <v>       0.46427707       0.51798221       0.35017882 </v>
    <v>       0.53542449       0.69179171       0.45576819 </v>
    <v>       0.50990154       0.54364598       0.48162784 </v>
    <v>       0.37020616       0.51533599       0.46200893 </v>
    <v>       0.60221720       0.38380427       0.65714089 </v>
    <v>       0.40938114       0.45625119       0.57929525 </v>
    <v>       0.46842505       0.41548477       0.69801555 </v>
    <v>       0.41649997       0.63713706       0.41679286 </v>
    <v>       0.54353272       0.50842278       0.61935845 </v>
    <v>       0.56193296       0.63872704       0.57960177 </v>
    <v>       0.42342632       0.60037031       0.57030016 </v>
   </varray>
  </structure>
  <varray name="forces" >
   <v>       0.09923083      -0.09451825      -0.20177282 </v>
   <v>       0.15564440       0.07137573       0.02910322 </v>
   <v>       0.15781548      -0.05876212       0.08404173 </v>
   <v>       0.15702796      -0.07112208      -0.08507322 </v>
   <v>      -0.02834255       0.05906902      -0.11109983 </v>
   <v>      -0.13580065      -0.44871973      -0.09702563 </v>
   <v>      -0.13252981      -0.33664146      -0.13916077 </v>
   <v>       0.13189481       0.23437997       0.22880128 </v>
   <v>      -0.00169457       0.29976424      -0.20313963 </v>
   <v>      -0.20784569      -0.01213498      -0.11639951 </v>
   <v>      -0.07011269       0.16140248       0.00643404 </v>
   <v>      -0.06683204       0.10209820       0.11127822 </v>
   <v>       0.11316268       0.10076622      -0.04857603 </v>
   <v>      -0.10178575      -0.00742593       0.15800296 </v>
   <v>      -0.01525334      -0.16527446       0.09436340 </v>
   <v>       0.12440162       0.17278850       0.27255221 </v>
   <v>      -0.17898068      -0.00704535       0.01767036 </v>
  </varray>
  <varray name="stress" >
   <v>      -0.78910103       0.09460559       0.04341231 </v>
   <v>       0.09460558      -1.06128822       0.52701925 </v>
   <v>       0.04341232       0.52701925      -1.13950274 </v>
  </varray>
  <energy>
   <i name="e_fr_energy">    -32.08201155 </i>
   <i name="e_wo_entrp">    -32.08201155 </i>
   <i name="e_0_energy">      0.00000000 </i>
  </energy>
  <time name="totalsc">    9.24    9.99</time>
 </calculation>
 <calculation>
  <scstep>
   <time name="dav">    1.38    1.39</time>
   <time name="total">    1.70    1.77</time>
   <energy>
    <i name="alphaZ">     32.22170401 </i>
    <i name="ewald">  25396.03110269 </i>
    <i name="hartreedc"> -42273.46314891 </i>
    <i name="XCdc">   -194.40008393 </i>
    <i name="pawpsdc">  18301.38618790 </i>
    <i name="pawaedc"> -17545.58706371 </i>
    <i name="eentropy">      0.00000000 </i>
    <i name="bandstr">  -1380.69245319 </i>
    <i name="atom">  17632.37671147 </i>
    <i name="e_fr_energy">    -32.12704366 </i>
    <i name="e_wo_entrp">    -32.12704366 </i>
    <i name="e_0_energy">    -32.12704366 </i>
   </energy>
  </scstep>
  <scstep>
   <time name="dav">    1.44    1.44</time>
   <time name="total">    1.75    1.75</time>
   <energy>
    <i name="e_fr_energy">    -32.14923326 </i>
    <i name="e_wo_entrp">    -32.14923326 </i>
    <i name="e_0_energy">    -32.14923326 </i>
   </energy>
  </scstep>
  <scstep>
   <time name="dav">    1.45    1.45</time>
   <time name="total">    1.76    2.35</time>
   <energy>
    <i name="e_fr_energy">    -32.14896394 </i>
    <i name="e_wo_entrp">    -32.14896394 </i>
    <i name="e_0_energy">    -32.14896394 </i>
   </energy>
  </scstep>
  <scstep>
   <time name="dav">    1.44    1.44</time>
   <time name="total">    1.76    1.76</time>
   <energy>
    <i name="e_fr_energy">    -32.14863864 </i>
    <i name="e_wo_entrp">    -32.14863864 </i>
    <i name="e_0_energy">    -32.14863864 </i>
   </energy>
  </scstep>
  <scstep>
   <time name="dav">    1.07    1.07</time>
   <time name="total">    1.31    1.31</time>
   <energy>
    <i name="alphaZ">     32.22170401 </i>
    <i name="ewald">  25396.03110269 </i>
    <i name="hartreedc"> -42275.70371565 </i>
    <i name="XCdc">   -194.34635710 </i>
    <i name="pawpsdc">  18265.77503870 </i>
    <i name="pawaedc"> -17509.38745895 </i>
    <i name="eentropy">      0.00000000 </i>
    <i name="bandstr">  -1379.11566622 </i>
    <i name="atom">  17632.37671147 </i>
    <i name="e_fr_energy">    -32.14864105 </i>
    <i name="e_wo_entrp">    -32.14864105 </i>
    <i name="e_0_energy">    -32.14864105 </i>
   </energy>
  </scstep>
  <structure>
   <crystal>
    <varray name="basis" >
     <v>      19.68586518       0.00000000       0.00000000 </v>
     <v>       0.00000000      19.68586518       0.00000000 </v>
     <v>       0.00000000       0.00000000      19.68586518 </v>
    </varray>
    <i name="volume">   7628.92806221 </i>
    <varray name="rec_basis" >
     <v>       0.05079787       0.00000000       0.00000000 </v>
     <v>       0.00000000       0.05079787       0.00000000 </v>
     <v>       0.00000000       0.00000000       0.05079787 </v>
    </varray>
   </crystal>
   <varray name="positions" >
    <v>       0.59281492       0.46425498       0.39392925 </v>
    <v>       0.60114947       0.41155849       0.52146184 </v>
    <v>       0.58344528       0.59909114       0.36704729 </v>
    <v>       0.64492458       0.54823811       0.50340352 </v>
    <v>       0.49069633       0.34288970       0.57409850 </v>
    <v>       0.46960062       0.41020235       0.45043826 </v>
    <v>       0.46379685       0.51693475       0.34957601 </v>
    <v>       0.53592413       0.69269211       0.45661352 </v>
    <v>       0.50991039       0.54485172       0.48097722 </v>
    <v>       0.36936163       0.51545878       0.46153615 </v>
    <v>       0.60191368       0.38439139       0.65710672 </v>
    <v>       0.40920546       0.45649865       0.57986234 </v>
    <v>       0.46884158       0.41585268       0.69774612 </v>
    <v>       0.41600908       0.63706583       0.41725424 </v>
    <v>       0.54347155       0.50750112       0.61992793 </v>
    <v>       0.56240480       0.63963098       0.58045122 </v>
    <v>       0.42273691       0.60039215       0.57041397 </v>
   </varray>
  </structure>
  <varray name="forces" >
   <v>       0.00738239      -0.09854519      -0.09293617 </v>
   <v>       0.10525730       0.09256784      -0.05902030 </v>
   <v>       0.10391451      -0.01583828       0.12355853 </v>
   <v>       0.06024572      -0.05310929      -0.07169058 </v>
   <v>      -0.01615236       0.05584230      -0.09459075 </v>
   <v>      -0.07747171      -0.20686644      -0.08045285 </v>
   <v>      -0.09079214      -0.31024300      -0.04318802 </v>
   <v>       0.07789298       0.13448715       0.15555327 </v>
   <v>      -0.00158692       0.16675552      -0.17150018 </v>
   <v>      -0.09374655      -0.08613720      -0.05553200 </v>
   <v>      -0.01384997       0.09344211       0.03535243 </v>
   <v>      -0.07898872       0.12590133      -0.00624191 </v>
   <v>       0.06762021       0.06032259       0.02140909 </v>
   <v>      -0.01469695       0.02021014       0.15594661 </v>
   <v>      -0.00571569       0.05182042      -0.04595451 </v>
   <v>       0.07323771      -0.00317187       0.24338620 </v>
   <v>      -0.10254982      -0.02743812      -0.01409886 </v>
  </varray>
  <varray name="stress" >
   <v>      -1.03038802       0.06932230       0.03752874 </v>
   <v>       0.06932230      -1.28089794       0.44713241 </v>
   <v>       0.03752874       0.44713241      -1.31577415 </v>
  </varray>
  <energy>
   <i name="e_fr_energy">    -32.14864105 </i>
   <i name="e_wo_entrp">    -32.14864105 </i>
   <i name="e_0_energy">      0.00000000 </i>
  </energy>
  <time name="totalsc">   10.58   11.28</time>
 </calculation>
 <calculation>
  <scstep>
   <time name="dav">    1.39    1.39</time>
   <time name="total">    1.70    1.73</time>
   <energy>
    <i name="alphaZ">     32.22170401 </i>
    <i name="ewald">  25036.13213047 </i>
    <i name="hartreedc"> -41918.27586611 </i>
    <i name="XCdc">   -194.83490474 </i>
    <i name="pawpsdc">  18266.08981029 </i>
    <i name="pawaedc"> -17509.70707929 </i>
    <i name="eentropy">      0.00000000 </i>
    <i name="bandstr">  -1376.07853590 </i>
    <i name="atom">  17632.37671147 </i>
    <i name="e_fr_energy">    -32.07602981 </i>
    <i name="e_wo_entrp">    -32.07602981 </i>
    <i name="e_0_energy">    -32.07602981 </i>
   </energy>
  </scstep>
  <scstep>
   <time name="dav">    1.46    1.46</time>
   <time name="total">    1.77    1.78</time>
   <energy>
    <i name="e_fr_energy">    -32.16635647 </i>
    <i name="e_wo_entrp">    -32.16635647 </i>
    <i name="e_0_energy">    -32.16635647 </i>
   </energy>
  </scstep>
  <scstep>
   <time name="dav">    1.44    1.44</time>
   <time name="total">    1.76    1.76</time>
   <energy>
    <i name="e_fr_energy">    -32.16573712 </i>
    <i name="e_wo_entrp">    -32.16573712 </i>
    <i name="e_0_energy">    -32.16573712 </i>
   </energy>
  </scstep>
  <scstep>
   <time name="dav">    1.42    1.42</time>
   <time name="total">    1.74    1.74</time>
   <energy>
    <i name="e_fr_energy">    -32.16416917 </i>
    <i name="e_wo_entrp">    -32.16416917 </i>
    <i name="e_0_energy">    -32.16416917 </i>
   </energy>
  </scstep>
  <scstep>
   <time name="dav">    1.33    1.33</time>
   <time name="total">    1.56    1.57</time>
   <energy>
    <i name="alphaZ">     32.22170401 </i>
    <i name="ewald">  25036.13213047 </i>
    <i name="hartreedc"> -41922.41719525 </i>
    <i name="XCdc">   -194.73195776 </i>
    <i name="pawpsdc">  18208.75554356 </i>
    <i name="pawaedc"> -17451.36779799 </i>
    <i name="eentropy">      0.00000000 </i>
    <i name="bandstr">  -1373.13338729 </i>
    <i name="atom">  17632.37671147 </i>
    <i name="e_fr_energy">    -32.16424879 </i>
    <i name="e_wo_entrp">    -32.16424879 </i>
    <i name="e_0_energy">    -32.16424879 </i>
   </energy>
  </scstep>
  <structure>
   <crystal>
    <varray name="basis" >
     <v>      19.68586518       0.00000000       0.00000000 </v>
     <v>       0.00000000      19.68586518       0.00000000 </v>
     <v>       0.00000000       0.00000000      19.68586518 </v>
    </varray>
    <i name="volume">   7628.92806221 </i>
    <varray name="rec_basis" >
     <v>       0.05079787       0.00000000       0.00000000 </v>
     <v>       0.00000000       0.05079787       0.00000000 </v>
     <v>       0.00000000       0.00000000       0.05079787 </v>
    </varray>
   </crystal>
   <varray name="positions" >
    <v>       0.59378206       0.46372559       0.39229840 </v>
    <v>       0.60227664       0.41188045       0.52199251 </v>
    <v>       0.58461617       0.59857196       0.36735830 </v>
    <v>       0.64625443       0.54774229       0.50283833 </v>
    <v>       0.49048081       0.34324581       0.57338776 </v>
    <v>       0.46851818       0.40643496       0.44974992 </v>
    <v>       0.46283642       0.51483983       0.34837039 </v>
    <v>       0.53692341       0.69449292       0.45830418 </v>
    <v>       0.50992809       0.54726320       0.47967599 </v>
    <v>       0.36767258       0.51570437       0.46059060 </v>
    <v>       0.60130665       0.38556564       0.65703840 </v>
    <v>       0.40885411       0.45699357       0.58099652 </v>
    <v>       0.46967462       0.41658849       0.69720725 </v>
    <v>       0.41502731       0.63692337       0.41817701 </v>
    <v>       0.54334920       0.50565780       0.62106689 </v>
    <v>       0.56334849       0.64143885       0.58215010 </v>
    <v>       0.42135811       0.60043584       0.57064157 </v>
   </varray>
  </structure>
  <varray name="forces" >
   <v>      -0.14778426      -0.10599579       0.09152640 </v>
   <v>       0.01877162       0.12312918      -0.22094412 </v>
   <v>       0.01887805       0.06230203       0.17952004 </v>
   <v>      -0.11233924      -0.02308071      -0.05580550 </v>
   <v>       0.00795765       0.04838140      -0.05263006 </v>
   <v>       0.00733436       0.16337719      -0.07339214 </v>
   <v>      -0.00994252      -0.26279543       0.13878679 </v>
   <v>      -0.01098103      -0.03939251       0.03457975 </v>
   <v>       0.01408437      -0.01677386      -0.08727182 </v>
   <v>       0.10542352      -0.21330010       0.04838229 </v>
   <v>       0.12482151      -0.07698831       0.10341880 </v>
   <v>      -0.10903534       0.16687993      -0.22124841 </v>
   <v>      -0.05604529      -0.03939879       0.18434644 </v>
   <v>       0.12382232       0.08087870       0.14259124 </v>
   <v>       0.01568863       0.49242944      -0.31309405 </v>
   <v>      -0.01949539      -0.29466230       0.17419577 </v>
   <v>       0.02884102      -0.06499005      -0.07296143 </v>
  </varray>
  <varray name="stress" >
   <v>      -1.42503662       0.02752907       0.02099388 </v>
   <v>       0.02752906      -1.60873261       0.28334412 </v>
   <v>       0.02099388       0.28334412      -1.59723880 </v>
  </varray>
  <energy>
   <i name="e_fr_energy">    -32.16424879 </i>
   <i name="e_wo_entrp">    -32.16424879 </i>
   <i name="e_0_energy">      0.00000000 </i>
  </energy>
  <time name="totalsc">   10.86   10.92</time>
 </calculation>
 <calculation>
  <scstep>
   <time name="dav">    1.39    1.39</time>
   <time name="total">    1.70    1.72</time>
   <energy>
    <i name="alphaZ">     32.22170401 </i>
    <i name="ewald">  25167.49668996 </i>
    <i name="hartreedc"> -42052.98553211 </i>
    <i name="XCdc">   -194.55613300 </i>
    <i name="pawpsdc">  18209.18943808 </i>
    <i name="pawaedc"> -17451.80470783 </i>
    <i name="eentropy">      0.00000000 </i>
    <i name="bandstr">  -1374.10152607 </i>
    <i name="atom">  17632.37671147 </i>
    <i name="e_fr_energy">    -32.16335550 </i>
    <i name="e_wo_entrp">    -32.16335550 </i>
    <i name="e_0_energy">    -32.16335550 </i>
   </energy>
  </scstep>
  <scstep>
   <time name="dav">    1.44    1.45</time>
   <time name="total">    1.76    1.77</time>
   <energy>
    <i name="e_fr_energy">    -32.17573792 </i>
    <i name="e_wo_entrp">    -32.17573792 </i>
    <i name="e_0_energy">    -32.17573792 </i>
   </energy>
  </scstep>
  <scstep>
   <time name="dav">    1.44    1.44</time>
   <time name="total">    1.76    1.76</time>
   <energy>
    <i name="e_fr_energy">    -32.17563835 </i>
    <i name="e_wo_entrp">    -32.17563835 </i>
    <i name="e_0_energy">    -32.17563835 </i>
   </energy>
  </scstep>
  <scstep>
   <time name="dav">    1.43    1.43</time>
   <time name="total">    1.75    1.75</time>
   <energy>
    <i name="e_fr_energy">    -32.17562710 </i>
    <i name="e_wo_entrp">    -32.17562710 </i>
    <i name="e_0_energy">    -32.17562710 </i>
   </energy>
  </scstep>
  <scstep>
   <time name="dav">    1.09    1.09</time>
   <time name="total">    1.33    1.57</time>
   <energy>
    <i name="alphaZ">     32.22170401 </i>
    <i name="ewald">  25167.49668996 </i>
    <i name="hartreedc"> -42051.64100812 </i>
    <i name="XCdc">   -194.59520090 </i>
    <i name="pawpsdc">  18228.48699490 </i>
    <i name="pawaedc"> -17471.44925400 </i>
    <i name="eentropy">      0.00000000 </i>
    <i name="bandstr">  -1375.07231489 </i>
    <i name="atom">  17632.37671147 </i>
    <i name="e_fr_energy">    -32.17567757 </i>
    <i name="e_wo_entrp">    -32.17567757 </i>
    <i name="e_0_energy">    -32.17567757 </i>
   </energy>
  </scstep>
  <structure>
   <crystal>
    <varray name="basis" >
     <v>      19.68586518       0.00000000       0.00000000 </v>
     <v>       0.00000000      19.68586518       0.00000000 </v>
     <v>       0.00000000       0.00000000      19.68586518 </v>
    </varray>
    <i name="volume">   7628.92806221 </i>
    <varray name="rec_basis" >
     <v>       0.05079787       0.00000000       0.00000000 </v>
     <v>       0.00000000       0.05079787       0.00000000 </v>
     <v>       0.00000000       0.00000000       0.05079787 </v>
    </varray>
   </crystal>
   <varray name="positions" >
    <v>       0.59342602       0.46392048       0.39289878 </v>
    <v>       0.60186168       0.41176193       0.52179715 </v>
    <v>       0.58418512       0.59876309       0.36724380 </v>
    <v>       0.64576486       0.54792482       0.50304640 </v>
    <v>       0.49056015       0.34311471       0.57364941 </v>
    <v>       0.46891667       0.40782188       0.45000332 </v>
    <v>       0.46318999       0.51561106       0.34881423 </v>
    <v>       0.53655554       0.69382997       0.45768178 </v>
    <v>       0.50992157       0.54637544       0.48015503 </v>
    <v>       0.36829438       0.51561396       0.46093869 </v>
    <v>       0.60153012       0.38513335       0.65706355 </v>
    <v>       0.40898346       0.45681137       0.58057898 </v>
    <v>       0.46936795       0.41631761       0.69740563 </v>
    <v>       0.41538874       0.63697582       0.41783730 </v>
    <v>       0.54339424       0.50633640       0.62064759 </v>
    <v>       0.56300108       0.64077330       0.58152468 </v>
    <v>       0.42186570       0.60041976       0.57055778 </v>
   </varray>
  </structure>
  <varray name="forces" >
   <v>      -0.09845534      -0.10299059       0.03078639 </v>
   <v>       0.04553079       0.11377507      -0.16552672 </v>
   <v>       0.04387065       0.03574499       0.16205302 </v>
   <v>      -0.05464446      -0.03306167      -0.05964139 </v>
   <v>      -0.00024024       0.05115464      -0.06780853 </v>
   <v>      -0.01402679       0.04761933      -0.06908508 </v>
   <v>      -0.03796460      -0.27657504       0.07671627 </v>
   <v>       0.01809691       0.02083061       0.07139310 </v>
   <v>       0.00723380       0.03881783      -0.11941690 </v>
   <v>       0.03980243      -0.17072909       0.01524136 </v>
   <v>       0.07065547      -0.01191515       0.07638783 </v>
   <v>      -0.09632657       0.15244301      -0.14842287 </v>
   <v>      -0.00797922      -0.00135215       0.12122085 </v>
   <v>       0.08077415       0.05776002       0.14688390 </v>
   <v>       0.00665391       0.33239870      -0.21818500 </v>
   <v>       0.01134148      -0.20141849       0.20058770 </v>
   <v>      -0.01432237      -0.05250203      -0.05318394 </v>
  </varray>
  <varray name="stress" >
   <v>      -1.28613304       0.04390141       0.03048016 </v>
   <v>       0.04390141      -1.49244970       0.34575558 </v>
   <v>       0.03048016       0.34575558      -1.49126549 </v>
  </varray>
  <energy>
   <i name="e_fr_energy">    -32.17567757 </i>
   <i name="e_wo_entrp">    -32.17567757 </i>
   <i name="e_0_energy">      0.00000000 </i>
  </energy>
  <time name="totalsc">   10.61   12.33</time>
 </calculation>
 <calculation>
  <scstep>
   <time name="dav">    1.39    1.39</time>
   <time name="total">    1.71    1.72</time>
   <energy>
    <i name="alphaZ">     32.22170401 </i>
    <i name="ewald">  25144.39156832 </i>
    <i name="hartreedc"> -42028.89272140 </i>
    <i name="XCdc">   -194.64177406 </i>
    <i name="pawpsdc">  18228.27589240 </i>
    <i name="pawaedc"> -17471.23606691 </i>
    <i name="eentropy">      0.00000000 </i>
    <i name="bandstr">  -1374.68911144 </i>
    <i name="atom">  17632.37671147 </i>
    <i name="e_fr_energy">    -32.19379761 </i>
    <i name="e_wo_entrp">    -32.19379761 </i>
    <i name="e_0_energy">    -32.19379761 </i>
   </energy>
  </scstep>
  <scstep>
   <time name="dav">    1.45    1.45</time>
   <time name="total">    1.76    1.80</time>
   <energy>
    <i name="e_fr_energy">    -32.19811607 </i>
    <i name="e_wo_entrp">    -32.19811607 </i>
    <i name="e_0_energy">    -32.19811607 </i>
   </energy>
  </scstep>
  <scstep>
   <time name="dav">    1.43    1.43</time>
   <time name="total">    1.67    2.19</time>
   <energy>
    <i name="alphaZ">     32.22170401 </i>
    <i name="ewald">  25144.39156832 </i>
    <i name="hartreedc"> -42029.22296532 </i>
    <i name="XCdc">   -194.63412847 </i>
    <i name="pawpsdc">  18225.14093609 </i>
    <i name="pawaedc"> -17468.05203536 </i>
    <i name="eentropy">      0.00000000 </i>
    <i name="bandstr">  -1374.41986597 </i>
    <i name="atom">  17632.37671147 </i>
    <i name="e_fr_energy">    -32.19807524 </i>
    <i name="e_wo_entrp">    -32.19807524 </i>
    <i name="e_0_energy">    -32.19807524 </i>
   </energy>
  </scstep>
  <structure>
   <crystal>
    <varray name="basis" >
     <v>      19.68586518       0.00000000       0.00000000 </v>
     <v>       0.00000000      19.68586518       0.00000000 </v>
     <v>       0.00000000       0.00000000      19.68586518 </v>
    </varray>
    <i name="volume">   7628.92806221 </i>
    <varray name="rec_basis" >
     <v>       0.05079787       0.00000000       0.00000000 </v>
     <v>       0.00000000       0.05079787       0.00000000 </v>
     <v>       0.00000000       0.00000000       0.05079787 </v>
    </varray>
   </crystal>
   <varray name="positions" >
    <v>       0.59332742       0.46364255       0.39277894 </v>
    <v>       0.60208585       0.41203914       0.52150715 </v>
    <v>       0.58441073       0.59877983       0.36762192 </v>
    <v>       0.64580008       0.54779864       0.50285612 </v>
    <v>       0.49053520       0.34326332       0.57342534 </v>
    <v>       0.46876423       0.40749534       0.44977910 </v>
    <v>       0.46300075       0.51478833       0.34883979 </v>
    <v>       0.53670716       0.69407828       0.45802457 </v>
    <v>       0.50993888       0.54673107       0.47975480 </v>
    <v>       0.36818702       0.51528062       0.46086369 </v>
    <v>       0.60161075       0.38524133       0.65721741 </v>
    <v>       0.40873982       0.45719001       0.58039361 </v>
    <v>       0.46944555       0.41639820       0.69760097 </v>
    <v>       0.41544827       0.63708186       0.41825271 </v>
    <v>       0.54339444       0.50683056       0.62031518 </v>
    <v>       0.56313211       0.64055222       0.58214172 </v>
    <v>       0.42167902       0.60031364       0.57047108 </v>
   </varray>
  </structure>
  <varray name="forces" >
   <v>      -0.10377026      -0.08480989       0.01384354 </v>
   <v>       0.02506827       0.08126892      -0.10913569 </v>
   <v>       0.03744504       0.02880151       0.15019247 </v>
   <v>      -0.05584973      -0.01663378      -0.05589242 </v>
   <v>       0.00952433       0.07870550      -0.04853884 </v>
   <v>      -0.00742031       0.05509636      -0.05399845 </v>
   <v>      -0.03132823      -0.24200980       0.07205017 </v>
   <v>       0.01990701       0.00341455       0.08794228 </v>
   <v>       0.00066915       0.02390144      -0.09446600 </v>
   <v>       0.04653259      -0.14226822      -0.01039548 </v>
   <v>       0.04414282       0.01713491       0.03549800 </v>
   <v>      -0.05811667       0.10316834      -0.09652681 </v>
   <v>      -0.00086304       0.02041576       0.06227418 </v>
   <v>       0.07433192       0.03681460       0.13745066 </v>
   <v>      -0.00568161       0.24098840      -0.18625247 </v>
   <v>       0.00450669      -0.16304478       0.15336574 </v>
   <v>       0.00090201      -0.04094383      -0.05741089 </v>
  </varray>
  <varray name="stress" >
   <v>      -1.34478690       0.04350288       0.03050127 </v>
   <v>       0.04350288      -1.52400177       0.31785501 </v>
   <v>       0.03050127       0.31785501      -1.53203616 </v>
  </varray>
  <energy>
   <i name="e_fr_energy">    -32.19807524 </i>
   <i name="e_wo_entrp">    -32.19807524 </i>
   <i name="e_0_energy">      0.00000000 </i>
  </energy>
  <time name="totalsc">    7.46    8.06</time>
 </calculation>
 <calculation>
  <scstep>
   <time name="dav">    1.39    1.39</time>
   <time name="total">    1.71    1.72</time>
   <energy>
    <i name="alphaZ">     32.22170401 </i>
    <i name="ewald">  25075.57929109 </i>
    <i name="hartreedc"> -41961.40494869 </i>
    <i name="XCdc">   -194.75458961 </i>
    <i name="pawpsdc">  18223.09451083 </i>
    <i name="pawaedc"> -17465.97583074 </i>
    <i name="eentropy">      0.00000000 </i>
    <i name="bandstr">  -1373.33385059 </i>
    <i name="atom">  17632.37671147 </i>
    <i name="e_fr_energy">    -32.19700224 </i>
    <i name="e_wo_entrp">    -32.19700224 </i>
    <i name="e_0_energy">    -32.19700224 </i>
   </energy>
  </scstep>
  <scstep>
   <time name="dav">    1.43    1.43</time>
   <time name="total">    1.75    1.75</time>
   <energy>
    <i name="e_fr_energy">    -32.23594988 </i>
    <i name="e_wo_entrp">    -32.23594988 </i>
    <i name="e_0_energy">    -32.23594988 </i>
   </energy>
  </scstep>
  <scstep>
   <time name="dav">    1.49    1.49</time>
   <time name="total">    1.80    1.82</time>
   <energy>
    <i name="e_fr_energy">    -32.23560794 </i>
    <i name="e_wo_entrp">    -32.23560794 </i>
    <i name="e_0_energy">    -32.23560794 </i>
   </energy>
  </scstep>
  <scstep>
   <time name="dav">    1.46    1.45</time>
   <time name="total">    1.77    1.79</time>
   <energy>
    <i name="e_fr_energy">    -32.23477856 </i>
    <i name="e_wo_entrp">    -32.23477856 </i>
    <i name="e_0_energy">    -32.23477856 </i>
   </energy>
  </scstep>
  <scstep>
   <time name="dav">    1.44    1.44</time>
   <time name="total">    1.68    1.68</time>
   <energy>
    <i name="alphaZ">     32.22170401 </i>
    <i name="ewald">  25075.57929109 </i>
    <i name="hartreedc"> -41962.81899329 </i>
    <i name="XCdc">   -194.72403633 </i>
    <i name="pawpsdc">  18207.40037456 </i>
    <i name="pawaedc"> -17450.02071727 </i>
    <i name="eentropy">     -0.00000000 </i>
    <i name="bandstr">  -1372.24911715 </i>
    <i name="atom">  17632.37671147 </i>
    <i name="e_fr_energy">    -32.23478290 </i>
    <i name="e_wo_entrp">    -32.23478290 </i>
    <i name="e_0_energy">    -32.23478290 </i>
   </energy>
  </scstep>
  <structure>
   <crystal>
    <varray name="basis" >
     <v>      19.68586518       0.00000000       0.00000000 </v>
     <v>       0.00000000      19.68586518       0.00000000 </v>
     <v>       0.00000000       0.00000000      19.68586518 </v>
    </varray>
    <i name="volume">   7628.92806221 </i>
    <varray name="rec_basis" >
     <v>       0.05079787       0.00000000       0.00000000 </v>
     <v>       0.00000000       0.05079787       0.00000000 </v>
     <v>       0.00000000       0.00000000       0.05079787 </v>
    </varray>
   </crystal>
   <varray name="positions" >
    <v>       0.59303162       0.46280876       0.39241944 </v>
    <v>       0.60275835       0.41287080       0.52063714 </v>
    <v>       0.58508757       0.59883004       0.36875626 </v>
    <v>       0.64590575       0.54742010       0.50228527 </v>
    <v>       0.49046034       0.34370916       0.57275314 </v>
    <v>       0.46830690       0.40651571       0.44910641 </v>
    <v>       0.46243300       0.51232015       0.34891648 </v>
    <v>       0.53716203       0.69482322       0.45905294 </v>
    <v>       0.50999082       0.54779795       0.47855414 </v>
    <v>       0.36786493       0.51428059       0.46063870 </v>
    <v>       0.60185265       0.38556524       0.65767898 </v>
    <v>       0.40800891       0.45832594       0.57983751 </v>
    <v>       0.46967835       0.41663999       0.69818698 </v>
    <v>       0.41562688       0.63739998       0.41949893 </v>
    <v>       0.54339505       0.50831304       0.61931793 </v>
    <v>       0.56352519       0.63988899       0.58399287 </v>
    <v>       0.42111898       0.59999529       0.57021098 </v>
   </varray>
  </structure>
  <varray name="forces" >
   <v>      -0.12323360      -0.03041892      -0.03637927 </v>
   <v>      -0.03454095      -0.01843632       0.04663322 </v>
   <v>       0.03214960       0.01533425       0.11507086 </v>
   <v>      -0.06052020       0.03068674      -0.04610746 </v>
   <v>       0.03646118       0.15474935       0.00163003 </v>
   <v>       0.01050734       0.07915230      -0.01137921 </v>
   <v>      -0.01329831      -0.14203760       0.05705439 </v>
   <v>       0.02088763      -0.05065208       0.12491249 </v>
   <v>      -0.01849749      -0.02233194      -0.02257195 </v>
   <v>       0.06754988      -0.06466370      -0.08881075 </v>
   <v>      -0.02741138       0.09134559      -0.07079038 </v>
   <v>       0.04367284      -0.03662334       0.04504559 </v>
   <v>       0.02018064       0.07355913      -0.09303069 </v>
   <v>       0.05176415      -0.00866385       0.12269153 </v>
   <v>      -0.04241787      -0.02786041      -0.09403004 </v>
   <v>      -0.00865855      -0.03589377       0.02070529 </v>
   <v>       0.04540509      -0.00724542      -0.07064363 </v>
  </varray>
  <varray name="stress" >
   <v>      -1.49578151       0.04568150       0.03355621 </v>
   <v>       0.04568151      -1.56861461       0.22694632 </v>
   <v>       0.03355622       0.22694632      -1.60607775 </v>
  </varray>
  <energy>
   <i name="e_fr_energy">    -32.23478290 </i>
   <i name="e_wo_entrp">    -32.23478290 </i>
   <i name="e_0_energy">     -0.00000000 </i>
  </energy>
  <time name="totalsc">   11.02   11.12</time>
 </calculation>
 <calculation>
  <scstep>
   <time name="dav">    1.39    1.39</time>
   <time name="total">    1.71    1.72</time>
   <energy>
    <i name="alphaZ">     32.22170401 </i>
    <i name="ewald">  25050.66491830 </i>
    <i name="hartreedc"> -41938.14883952 </i>
    <i name="XCdc">   -194.76413861 </i>
    <i name="pawpsdc">  18207.28451912 </i>
    <i name="pawaedc"> -17449.89920777 </i>
    <i name="eentropy">      0.00000000 </i>
    <i name="bandstr">  -1371.96765973 </i>
    <i name="atom">  17632.37671147 </i>
    <i name="e_fr_energy">    -32.23199274 </i>
    <i name="e_wo_entrp">    -32.23199274 </i>
    <i name="e_0_energy">    -32.23199274 </i>
   </energy>
  </scstep>
  <scstep>
   <time name="dav">    1.44    1.44</time>
   <time name="total">    1.76    1.76</time>
   <energy>
    <i name="e_fr_energy">    -32.23721058 </i>
    <i name="e_wo_entrp">    -32.23721058 </i>
    <i name="e_0_energy">    -32.23721058 </i>
   </energy>
  </scstep>
  <scstep>
   <time name="dav">    1.46    1.46</time>
   <time name="total">    1.70    1.73</time>
   <energy>
    <i name="alphaZ">     32.22170401 </i>
    <i name="ewald">  25050.66491830 </i>
    <i name="hartreedc"> -41938.49872025 </i>
    <i name="XCdc">   -194.75530468 </i>
    <i name="pawpsdc">  18205.37769041 </i>
    <i name="pawaedc"> -17447.95512637 </i>
    <i name="eentropy">      0.00000000 </i>
    <i name="bandstr">  -1371.66906457 </i>
    <i name="atom">  17632.37671147 </i>
    <i name="e_fr_energy">    -32.23719168 </i>
    <i name="e_wo_entrp">    -32.23719168 </i>
    <i name="e_0_energy">    -32.23719168 </i>
   </energy>
  </scstep>
  <structure>
   <crystal>
    <varray name="basis" >
     <v>      19.68586518       0.00000000       0.00000000 </v>
     <v>       0.00000000      19.68586518       0.00000000 </v>
     <v>       0.00000000       0.00000000      19.68586518 </v>
    </varray>
    <i name="volume">   7628.92806221 </i>
    <varray name="rec_basis" >
     <v>       0.05079787       0.00000000       0.00000000 </v>
     <v>       0.00000000       0.05079787       0.00000000 </v>
     <v>       0.00000000       0.00000000       0.05079787 </v>
    </varray>
   </crystal>
   <varray name="positions" >
    <v>       0.59292372       0.46250462       0.39228830 </v>
    <v>       0.60300365       0.41317416       0.52031979 </v>
    <v>       0.58533446       0.59884836       0.36917004 </v>
    <v>       0.64594429       0.54728202       0.50207705 </v>
    <v>       0.49043304       0.34387178       0.57250794 </v>
    <v>       0.46814008       0.40615837       0.44886104 </v>
    <v>       0.46222591       0.51141984       0.34894445 </v>
    <v>       0.53732795       0.69509495       0.45942806 </v>
    <v>       0.51000976       0.54818712       0.47811618 </v>
    <v>       0.36774745       0.51391582       0.46055663 </v>
    <v>       0.60194088       0.38568340       0.65784735 </v>
    <v>       0.40774229       0.45874029       0.57963466 </v>
    <v>       0.46976327       0.41672818       0.69840074 </v>
    <v>       0.41569203       0.63751602       0.41995351 </v>
    <v>       0.54339527       0.50885380       0.61895417 </v>
    <v>       0.56366857       0.63964707       0.58466811 </v>
    <v>       0.42091469       0.59987916       0.57011610 </v>
   </varray>
  </structure>
  <varray name="forces" >
   <v>      -0.12968415      -0.00664830      -0.05495551 </v>
   <v>      -0.05734560      -0.05865760       0.10620136 </v>
   <v>       0.03162576       0.01284916       0.09561796 </v>
   <v>      -0.06128421       0.05105646      -0.03942239 </v>
   <v>       0.04678844       0.18127901       0.02274561 </v>
   <v>       0.02013187       0.08725451       0.00669761 </v>
   <v>      -0.00687788      -0.10039007       0.04997310 </v>
   <v>       0.01909766      -0.07251181       0.13313566 </v>
   <v>      -0.02598790      -0.04616677       0.00960354 </v>
   <v>       0.07562479      -0.03181530      -0.11906094 </v>
   <v>      -0.05266145       0.11528716      -0.10982901 </v>
   <v>       0.08029044      -0.09132260       0.09886536 </v>
   <v>       0.02648016       0.09079936      -0.14848649 </v>
   <v>       0.03990479      -0.02232081       0.10934128 </v>
   <v>      -0.05751359      -0.14052880      -0.05551887 </v>
   <v>      -0.01151458       0.02330047      -0.03093353 </v>
   <v>       0.06292544       0.00853593      -0.07397473 </v>
  </varray>
  <varray name="stress" >
   <v>      -1.53624579       0.04872361       0.03520872 </v>
   <v>       0.04872360      -1.55633415       0.19106846 </v>
   <v>       0.03520872       0.19106846      -1.61463810 </v>
  </varray>
  <energy>
   <i name="e_fr_energy">    -32.23719168 </i>
   <i name="e_wo_entrp">    -32.23719168 </i>
   <i name="e_0_energy">      0.00000000 </i>
  </energy>
  <time name="totalsc">    7.46    7.57</time>
 </calculation>
 <calculation>
  <scstep>
   <time name="dav">    1.39    1.39</time>
   <time name="total">    1.70    1.72</time>
   <energy>
    <i name="alphaZ">     32.22170401 </i>
    <i name="ewald">  25127.28686788 </i>
    <i name="hartreedc"> -42014.92572475 </i>
    <i name="XCdc">   -194.63128333 </i>
    <i name="pawpsdc">  18204.06101154 </i>
    <i name="pawaedc"> -17446.61685060 </i>
    <i name="eentropy">      0.00000000 </i>
    <i name="bandstr">  -1372.01882792 </i>
    <i name="atom">  17632.37671147 </i>
    <i name="e_fr_energy">    -32.24639170 </i>
    <i name="e_wo_entrp">    -32.24639170 </i>
    <i name="e_0_energy">    -32.24639170 </i>
   </energy>
  </scstep>
  <scstep>
   <time name="dav">    1.46    1.46</time>
   <time name="total">    1.77    1.78</time>
   <energy>
    <i name="e_fr_energy">    -32.25589219 </i>
    <i name="e_wo_entrp">    -32.25589219 </i>
    <i name="e_0_energy">    -32.25589219 </i>
   </energy>
  </scstep>
  <scstep>
   <time name="dav">    1.47    1.47</time>
   <time name="total">    1.79    1.79</time>
   <energy>
    <i name="e_fr_energy">    -32.25578271 </i>
    <i name="e_wo_entrp">    -32.25578271 </i>
    <i name="e_0_energy">    -32.25578271 </i>
   </energy>
  </scstep>
  <scstep>
   <time name="dav">    1.44    1.44</time>
   <time name="total">    1.76    1.76</time>
   <energy>
    <i name="e_fr_energy">    -32.25563127 </i>
    <i name="e_wo_entrp">    -32.25563127 </i>
    <i name="e_0_energy">    -32.25563127 </i>
   </energy>
  </scstep>
  <scstep>
   <time name="dav">    1.06    1.06</time>
   <time name="total">    1.30    3.69</time>
   <energy>
    <i name="alphaZ">     32.22170401 </i>
    <i name="ewald">  25127.28686788 </i>
    <i name="hartreedc"> -42014.33142969 </i>
    <i name="XCdc">   -194.65303794 </i>
    <i name="pawpsdc">  18218.79367974 </i>
    <i name="pawaedc"> -17461.59565694 </i>
    <i name="eentropy">      0.00000000 </i>
    <i name="bandstr">  -1372.35450843 </i>
    <i name="atom">  17632.37671147 </i>
    <i name="e_fr_energy">    -32.25566991 </i>
    <i name="e_wo_entrp">    -32.25566991 </i>
    <i name="e_0_energy">    -32.25566991 </i>
   </energy>
  </scstep>
  <structure>
   <crystal>
    <varray name="basis" >
     <v>      19.68586518       0.00000000       0.00000000 </v>
     <v>       0.00000000      19.68586518       0.00000000 </v>
     <v>       0.00000000       0.00000000      19.68586518 </v>
    </varray>
    <i name="volume">   7628.92806221 </i>
    <varray name="rec_basis" >
     <v>       0.05079787       0.00000000       0.00000000 </v>
     <v>       0.00000000       0.05079787       0.00000000 </v>
     <v>       0.00000000       0.00000000       0.05079787 </v>
    </varray>
   </crystal>
   <varray name="positions" >
    <v>       0.59232827       0.46220725       0.39195965 </v>
    <v>       0.60300220       0.41321954       0.52044486 </v>
    <v>       0.58567678       0.59891417       0.36990773 </v>
    <v>       0.64574292       0.54735509       0.50173928 </v>
    <v>       0.49058868       0.34471467       0.57237636 </v>
    <v>       0.46806847       0.40617480       0.44866754 </v>
    <v>       0.46201438       0.51022900       0.34916174 </v>
    <v>       0.53754970       0.69505875       0.46027558 </v>
    <v>       0.50992669       0.54835724       0.47776175 </v>
    <v>       0.36793346       0.51346742       0.46002515 </v>
    <v>       0.60181709       0.38623261       0.65757518 </v>
    <v>       0.40781300       0.45875915       0.57983382 </v>
    <v>       0.46994105       0.41715639       0.69802038 </v>
    <v>       0.41590380       0.63753382       0.42078048 </v>
    <v>       0.54317415       0.50879628       0.61841546 </v>
    <v>       0.56375239       0.63952053       0.58515249 </v>
    <v>       0.42097427       0.59980823       0.56974666 </v>
   </varray>
  </structure>
  <varray name="forces" >
   <v>      -0.10743693      -0.00908171      -0.03510893 </v>
   <v>      -0.03553657      -0.03885749       0.04714306 </v>
   <v>       0.04148206       0.01395139       0.07233396 </v>
   <v>      -0.05642948       0.04754670      -0.03431725 </v>
   <v>       0.03719965       0.12933834       0.02628714 </v>
   <v>       0.01697816       0.04958814       0.01957028 </v>
   <v>      -0.00952568      -0.05743773       0.00037117 </v>
   <v>       0.01702650      -0.05977852       0.12001050 </v>
   <v>      -0.01466500      -0.07160216       0.03417393 </v>
   <v>       0.06188627      -0.03465328      -0.08515350 </v>
   <v>      -0.01692190       0.09005770      -0.07266140 </v>
   <v>       0.03530263      -0.05621433       0.05003130 </v>
   <v>       0.01303807       0.08065290      -0.09177793 </v>
   <v>       0.01738354      -0.00649609       0.09029222 </v>
   <v>      -0.05192123      -0.12507794      -0.05619837 </v>
   <v>      -0.00596200       0.03478450      -0.02513154 </v>
   <v>       0.05810190       0.01327959      -0.05986464 </v>
  </varray>
  <varray name="stress" >
   <v>      -1.45637954       0.03495748       0.03107775 </v>
   <v>       0.03495748      -1.47620409       0.14664909 </v>
   <v>       0.03107774       0.14664909      -1.51131657 </v>
  </varray>
  <energy>
   <i name="e_fr_energy">    -32.25566991 </i>
   <i name="e_wo_entrp">    -32.25566991 </i>
   <i name="e_0_energy">      0.00000000 </i>
  </energy>
  <time name="totalsc">   10.63   13.06</time>
 </calculation>
 <calculation>
  <scstep>
   <time name="dav">    1.39    1.39</time>
   <time name="total">    1.71    1.72</time>
   <energy>
    <i name="alphaZ">     32.22170401 </i>
    <i name="ewald">  25337.81692047 </i>
    <i name="hartreedc"> -42223.86397628 </i>
    <i name="XCdc">   -194.29848580 </i>
    <i name="pawpsdc">  18218.63703188 </i>
    <i name="pawaedc"> -17461.43794129 </i>
    <i name="eentropy">      0.00000000 </i>
    <i name="bandstr">  -1373.65288880 </i>
    <i name="atom">  17632.37671147 </i>
    <i name="e_fr_energy">    -32.20092435 </i>
    <i name="e_wo_entrp">    -32.20092435 </i>
    <i name="e_0_energy">    -32.20092435 </i>
   </energy>
  </scstep>
  <scstep>
   <time name="dav">    1.43    1.43</time>
   <time name="total">    1.74    1.75</time>
   <energy>
    <i name="e_fr_energy">    -32.27433667 </i>
    <i name="e_wo_entrp">    -32.27433667 </i>
    <i name="e_0_energy">    -32.27433667 </i>
   </energy>
  </scstep>
  <scstep>
   <time name="dav">    1.45    1.45</time>
   <time name="total">    1.77    1.77</time>
   <energy>
    <i name="e_fr_energy">    -32.27334955 </i>
    <i name="e_wo_entrp">    -32.27334955 </i>
    <i name="e_0_energy">    -32.27334955 </i>
   </energy>
  </scstep>
  <scstep>
   <time name="dav">    1.45    1.45</time>
   <time name="total">    1.77    1.79</time>
   <energy>
    <i name="e_fr_energy">    -32.27226470 </i>
    <i name="e_wo_entrp">    -32.27226470 </i>
    <i name="e_0_energy">    -32.27226470 </i>
   </energy>
  </scstep>
  <scstep>
   <time name="dav">    1.10    1.10</time>
   <time name="total">    1.34    1.36</time>
   <energy>
    <i name="alphaZ">     32.22170401 </i>
    <i name="ewald">  25337.81692047 </i>
    <i name="hartreedc"> -42221.67273688 </i>
    <i name="XCdc">   -194.36685876 </i>
    <i name="pawpsdc">  18266.21769772 </i>
    <i name="pawaedc"> -17509.79720738 </i>
    <i name="eentropy">      0.00000000 </i>
    <i name="bandstr">  -1375.06855840 </i>
    <i name="atom">  17632.37671147 </i>
    <i name="e_fr_energy">    -32.27232775 </i>
    <i name="e_wo_entrp">    -32.27232775 </i>
    <i name="e_0_energy">    -32.27232775 </i>
   </energy>
  </scstep>
  <structure>
   <crystal>
    <varray name="basis" >
     <v>      19.68586518       0.00000000       0.00000000 </v>
     <v>       0.00000000      19.68586518       0.00000000 </v>
     <v>       0.00000000       0.00000000      19.68586518 </v>
    </varray>
    <i name="volume">   7628.92806221 </i>
    <varray name="rec_basis" >
     <v>       0.05079787       0.00000000       0.00000000 </v>
     <v>       0.00000000       0.05079787       0.00000000 </v>
     <v>       0.00000000       0.00000000       0.05079787 </v>
    </varray>
   </crystal>
   <varray name="positions" >
    <v>       0.59069764       0.46139291       0.39105963 </v>
    <v>       0.60299821       0.41334381       0.52078736 </v>
    <v>       0.58661423       0.59909439       0.37192790 </v>
    <v>       0.64519144       0.54755520       0.50081429 </v>
    <v>       0.49101490       0.34702291       0.57201600 </v>
    <v>       0.46787237       0.40621978       0.44813764 </v>
    <v>       0.46143510       0.50696789       0.34975680 </v>
    <v>       0.53815699       0.69495961       0.46259651 </v>
    <v>       0.50969919       0.54882310       0.47679117 </v>
    <v>       0.36844286       0.51223948       0.45856967 </v>
    <v>       0.60147808       0.38773662       0.65682986 </v>
    <v>       0.40800662       0.45881081       0.58037922 </v>
    <v>       0.47042791       0.41832904       0.69697878 </v>
    <v>       0.41648374       0.63758258       0.42304513 </v>
    <v>       0.54256863       0.50863877       0.61694022 </v>
    <v>       0.56398193       0.63917403       0.58647895 </v>
    <v>       0.42113744       0.59961400       0.56873495 </v>
   </varray>
  </structure>
  <varray name="forces" >
   <v>      -0.03165903      -0.00915680       0.01907181 </v>
   <v>       0.03267910       0.01469350      -0.12072211 </v>
   <v>       0.07243828       0.02774213      -0.01219993 </v>
   <v>      -0.03677074       0.03753660      -0.00192317 </v>
   <v>       0.00969682      -0.02209168       0.04072305 </v>
   <v>       0.01278708      -0.07184068       0.07937170 </v>
   <v>      -0.02870653       0.06459182      -0.17581188 </v>
   <v>       0.01331622      -0.02318524       0.07100767 </v>
   <v>       0.01717502      -0.15988037       0.11178518 </v>
   <v>       0.01218820      -0.01914670       0.01671446 </v>
   <v>       0.08737425       0.01085320       0.03535239 </v>
   <v>      -0.09738139       0.04232436      -0.08564312 </v>
   <v>      -0.02633980       0.04397769       0.07692407 </v>
   <v>      -0.05950043       0.05131372       0.01669439 </v>
   <v>      -0.03491957      -0.08248154      -0.05560422 </v>
   <v>       0.01109190       0.06760954      -0.01019497 </v>
[...]
       <r>    -1.1932     0.0000   104.0000 </r>
       <r>    -1.1546     0.0000   104.0000 </r>
       <r>    -1.1161     0.0000   104.0000 </r>
       <r>    -1.0776     0.0000   104.0000 </r>
       <r>    -1.0390     0.0000   104.0000 </r>
       <r>    -1.0005     0.0000   104.0000 </r>
       <r>    -0.9620     0.0000   104.0000 </r>
       <r>    -0.9235     0.0000   104.0000 </r>
       <r>    -0.8849     0.0000   104.0000 </r>
       <r>    -0.8464     0.0000   105.0000 </r>
       <r>    -0.8079     0.0000   106.0000 </r>
       <r>    -0.7693     0.0000   106.0000 </r>
       <r>    -0.7308     0.0000   107.0000 </r>
       <r>    -0.6923     0.0000   107.0000 </r>
       <r>    -0.6537     0.0000   108.0000 </r>
       <r>    -0.6152     0.0000   108.0000 </r>
       <r>    -0.5767     0.0000   108.0000 </r>
       <r>    -0.5381     0.0000   108.0000 </r>
       <r>    -0.4996     0.0000   108.0000 </r>
       <r>    -0.4611     0.0000   108.0000 </r>
       <r>    -0.4225     0.0000   108.0000 </r>
       <r>    -0.3840     0.0000   108.0000 </r>
       <r>    -0.3455     0.0000   109.0000 </r>
       <r>    -0.3069     0.0000   109.0000 </r>
       <r>    -0.2684     0.0000   109.0000 </r>
       <r>    -0.2299     0.0000   110.0000 </r>
       <r>    -0.1913     0.0000   110.0000 </r>
       <r>    -0.1528     0.0000   110.0000 </r>
       <r>    -0.1143     0.0000   110.0000 </r>
       <r>    -0.0757     0.0000   111.0000 </r>
       <r>    -0.0372     0.0000   111.0000 </r>
       <r>     0.0013     0.0000   111.0000 </r>
       <r>     0.0399     0.0000   111.0000 </r>
       <r>     0.0784     0.0000   112.0000 </r>
       <r>     0.1169     0.0000   113.0000 </r>
       <r>     0.1555     0.0000   113.0000 </r>
       <r>     0.1940     0.0000   113.0000 </r>
       <r>     0.2325     0.0000   113.0000 </r>
       <r>     0.2711     0.0000   113.0000 </r>
       <r>     0.3096     0.0000   113.0000 </r>
       <r>     0.3481    25.9406   113.9996 </r>
       <r>     0.3867     0.0000   114.0000 </r>
       <r>     0.4252     0.0000   115.0000 </r>
       <r>     0.4637     0.0000   115.0000 </r>
       <r>     0.5023     0.0000   115.0000 </r>
       <r>     0.5408     0.0000   115.0000 </r>
       <r>     0.5793     0.0000   116.0000 </r>
       <r>     0.6179     0.0000   116.0000 </r>
       <r>     0.6564     0.0000   117.0000 </r>
       <r>     0.6949     0.0000   118.0000 </r>
       <r>     0.7335     0.0000   120.0000 </r>
       <r>     0.7720     0.0000   120.0000 </r>
       <r>     0.8105     0.0000   122.0000 </r>
       <r>     0.8491     0.0000   122.0000 </r>
       <r>     0.8876    25.9520   124.0000 </r>
       <r>     0.9261     0.0000   124.0000 </r>
       <r>     0.9647     0.0000   124.0000 </r>
       <r>     1.0032     0.0000   124.0000 </r>
       <r>     1.0417     0.0000   124.0000 </r>
       <r>     1.0803     0.0000   124.0000 </r>
       <r>     1.1188     0.0000   124.0000 </r>
       <r>     1.1573     0.0000   124.0000 </r>
       <r>     1.1958     0.0000   124.0000 </r>
       <r>     1.2344     0.0000   124.0000 </r>
       <r>     1.2729     0.0000   124.0000 </r>
       <r>     1.3114     0.0000   124.0000 </r>
       <r>     1.3500     0.0000   124.0000 </r>
       <r>     1.3885     0.0000   124.0000 </r>
       <r>     1.4270     0.0000   124.0000 </r>
       <r>     1.4656     0.0000   124.0000 </r>
      </set>
      <set comment="spin 2">
       <r>   -10.0942     0.0000     0.0000 </r>
       <r>   -10.0557     0.0000     0.0000 </r>
       <r>   -10.0172     0.0000     0.0000 </r>
       <r>    -9.9786     0.0000     0.0000 </r>
       <r>    -9.9401     0.0000     0.0000 </r>
       <r>    -9.9016     0.0000     0.0000 </r>
       <r>    -9.8630     0.0000     0.0000 </r>
       <r>    -9.8245     0.0000     0.0000 </r>
       <r>    -9.7860     0.0000     0.0000 </r>
       <r>    -9.7475     0.0000     0.0000 </r>
       <r>    -9.7089     0.0000     0.0000 </r>
       <r>    -9.6704     0.0000     0.0000 </r>
       <r>    -9.6319     0.0000     0.0000 </r>
       <r>    -9.5933     0.0000     0.0000 </r>
       <r>    -9.5548    25.9520     1.0000 </r>
       <r>    -9.5163     0.0000     1.0000 </r>
       <r>    -9.4777     0.0000     1.0000 </r>
       <r>    -9.4392     0.0000     1.0000 </r>
       <r>    -9.4007     0.0000     1.0000 </r>
       <r>    -9.3621     0.0000     1.0000 </r>
       <r>    -9.3236     0.0000     1.0000 </r>
       <r>    -9.2851     0.0000     1.0000 </r>
       <r>    -9.2465     0.0000     1.0000 </r>
       <r>    -9.2080     0.0000     2.0000 </r>
       <r>    -9.1695     0.0000     4.0000 </r>
       <r>    -9.1309     0.0000     5.0000 </r>
       <r>    -9.0924     0.0000     6.0000 </r>
       <r>    -9.0539     0.0000     6.0000 </r>
       <r>    -9.0153     0.0000     6.0000 </r>
       <r>    -8.9768     0.0000     6.0000 </r>
       <r>    -8.9383     0.0000     6.0000 </r>
       <r>    -8.8997     0.0000     7.0000 </r>
       <r>    -8.8612     0.0000     7.0000 </r>
       <r>    -8.8227     0.0000     7.0000 </r>
       <r>    -8.7841     0.0000     7.0000 </r>
       <r>    -8.7456     0.0000     7.0000 </r>
       <r>    -8.7071     0.0000     7.0000 </r>
       <r>    -8.6685     0.0000     7.0000 </r>
       <r>    -8.6300    25.9520     9.0000 </r>
       <r>    -8.5915     0.0000     9.0000 </r>
       <r>    -8.5529     0.0000     9.0000 </r>
       <r>    -8.5144     0.0000     9.0000 </r>
       <r>    -8.4759     2.4031    10.0926 </r>
       <r>    -8.4373     0.0000    11.0000 </r>
       <r>    -8.3988    25.9513    14.0000 </r>
       <r>    -8.3603     0.0000    15.0000 </r>
       <r>    -8.3217     0.0000    18.0000 </r>
       <r>    -8.2832     0.0000    18.0000 </r>
       <r>    -8.2447     0.0000    21.0000 </r>
       <r>    -8.2061     0.0000    22.0000 </r>
       <r>    -8.1676     0.0000    23.0000 </r>
       <r>    -8.1291     0.0000    24.0000 </r>
       <r>    -8.0905     0.0000    25.0000 </r>
       <r>    -8.0520     0.0000    26.0000 </r>
       <r>    -8.0135     0.0000    27.0000 </r>
       <r>    -7.9749     0.0000    29.0000 </r>
       <r>    -7.9364     0.0000    29.0000 </r>
       <r>    -7.8979     0.0000    30.0000 </r>
       <r>    -7.8593     0.0000    31.0000 </r>
       <r>    -7.8208     0.0000    34.0000 </r>
       <r>    -7.7823     0.0000    34.0000 </r>
       <r>    -7.7437     0.0000    35.0000 </r>
       <r>    -7.7052     0.0000    35.0000 </r>
       <r>    -7.6667     0.0000    37.0000 </r>
       <r>    -7.6281     0.0000    38.0000 </r>
       <r>    -7.5896     0.0000    39.0000 </r>
       <r>    -7.5511    25.8104    40.9945 </r>
       <r>    -7.5126     0.0000    42.0000 </r>
       <r>    -7.4740     0.0000    42.0000 </r>
       <r>    -7.4355     0.0000    45.0000 </r>
       <r>    -7.3970     0.0000    45.0000 </r>
       <r>    -7.3584     0.0000    45.0000 </r>
       <r>    -7.3199     0.0000    46.0000 </r>
       <r>    -7.2814     0.0000    46.0000 </r>
       <r>    -7.2428     0.0000    47.0000 </r>
       <r>    -7.2043     0.0000    49.0000 </r>
       <r>    -7.1658     0.0000    49.0000 </r>
       <r>    -7.1272     0.0000    51.0000 </r>
       <r>    -7.0887     0.0000    52.0000 </r>
       <r>    -7.0502     0.0000    55.0000 </r>
       <r>    -7.0116     0.0000    57.0000 </r>
       <r>    -6.9731     0.0000    58.0000 </r>
       <r>    -6.9346     0.0000    60.0000 </r>
       <r>    -6.8960     0.0000    61.0000 </r>
       <r>    -6.8575     0.0000    65.0000 </r>
       <r>    -6.8190     0.0000    66.0000 </r>
       <r>    -6.7804     0.0000    68.0000 </r>
       <r>    -6.7419     0.0000    69.0000 </r>
       <r>    -6.7034     0.0000    71.0000 </r>
       <r>    -6.6648     0.0000    73.0000 </r>
       <r>    -6.6263     0.0000    74.0000 </r>
       <r>    -6.5878     0.0000    75.0000 </r>
       <r>    -6.5492     0.0000    79.0000 </r>
       <r>    -6.5107     0.0000    79.0000 </r>
       <r>    -6.4722     0.0000    81.0000 </r>
       <r>    -6.4336     0.0000    82.0000 </r>
       <r>    -6.3951     0.0000    84.0000 </r>
       <r>    -6.3566     0.0000    85.0000 </r>
       <r>    -6.3180     0.0000    86.0000 </r>
       <r>    -6.2795     0.0000    87.0000 </r>
       <r>    -6.2410     0.0000    87.0000 </r>
       <r>    -6.2024     0.0000    87.0000 </r>
       <r>    -6.1639     0.0000    87.0000 </r>
       <r>    -6.1254     0.0000    87.0000 </r>
       <r>    -6.0868     0.0000    87.0000 </r>
       <r>    -6.0483     0.0000    88.0000 </r>
       <r>    -6.0098     0.0000    88.0000 </r>
       <r>    -5.9712     0.0000    88.0000 </r>
       <r>    -5.9327     0.0000    88.0000 </r>
       <r>    -5.8942     0.0000    88.0000 </r>
       <r>    -5.8556     0.0000    88.0000 </r>
       <r>    -5.8171     0.0000    88.0000 </r>
       <r>    -5.7786     0.0000    88.0000 </r>
       <r>    -5.7400     0.0000    88.0000 </r>
       <r>    -5.7015     0.0000    88.0000 </r>
       <r>    -5.6630     0.0000    88.0000 </r>
       <r>    -5.6244     0.0000    88.0000 </r>
       <r>    -5.5859     0.0000    89.0000 </r>
       <r>    -5.5474     0.0000    89.0000 </r>
       <r>    -5.5088     0.0000    89.0000 </r>
       <r>    -5.4703     0.0000    89.0000 </r>
       <r>    -5.4318     0.0000    89.0000 </r>
       <r>    -5.3932     0.0000    89.0000 </r>
       <r>    -5.3547     0.0000    89.0000 </r>
       <r>    -5.3162     0.0000    89.0000 </r>
       <r>    -5.2777     0.0000    89.0000 </r>
       <r>    -5.2391     0.0000    89.0000 </r>
       <r>    -5.2006     0.0000    89.0000 </r>
       <r>    -5.1621     0.0000    89.0000 </r>
       <r>    -5.1235     0.0000    89.0000 </r>
       <r>    -5.0850     0.0000    89.0000 </r>
       <r>    -5.0465     0.0000    89.0000 </r>
       <r>    -5.0079     0.0000    89.0000 </r>
       <r>    -4.9694     0.0000    89.0000 </r>
       <r>    -4.9309     0.0000    89.0000 </r>
       <r>    -4.8923     0.0000    89.0000 </r>
       <r>    -4.8538     0.0000    90.0000 </r>
       <r>    -4.8153     0.0000    90.0000 </r>
       <r>    -4.7767     0.0000    90.0000 </r>
       <r>    -4.7382     0.0000    90.0000 </r>
       <r>    -4.6997     0.0000    90.0000 </r>
       <r>    -4.6611     0.0000    90.0000 </r>
       <r>    -4.6226     0.0000    90.0000 </r>
       <r>    -4.5841     0.0000    90.0000 </r>
       <r>    -4.5455     0.0000    90.0000 </r>
       <r>    -4.5070     0.0000    90.0000 </r>
       <r>    -4.4685     0.0000    90.0000 </r>
       <r>    -4.4299     0.0000    90.0000 </r>
       <r>    -4.3914     0.0000    90.0000 </r>
       <r>    -4.3529     0.0000    90.0000 </r>
       <r>    -4.3143     0.0000    90.0000 </r>
       <r>    -4.2758     0.0000    90.0000 </r>
       <r>    -4.2373     0.0000    90.0000 </r>
       <r>    -4.1987     0.0000    91.0000 </r>
       <r>    -4.1602     0.0000    91.0000 </r>
       <r>    -4.1217     0.0000    92.0000 </r>
       <r>    -4.0831     0.0000    92.0000 </r>
       <r>    -4.0446     0.0000    92.0000 </r>
       <r>    -4.0061     0.0000    93.0000 </r>
       <r>    -3.9675     0.0000    93.0000 </r>
       <r>    -3.9290     0.0000    93.0000 </r>
       <r>    -3.8905     0.0000    93.0000 </r>
       <r>    -3.8519     0.0000    93.0000 </r>
       <r>    -3.8134     0.0000    93.0000 </r>
       <r>    -3.7749     0.0000    93.0000 </r>
       <r>    -3.7363     0.0000    93.0000 </r>
       <r>    -3.6978     0.0000    93.0000 </r>
       <r>    -3.6593     0.0000    93.0000 </r>
       <r>    -3.6207     0.0000    93.0000 </r>
       <r>    -3.5822     0.0000    93.0000 </r>
       <r>    -3.5437     0.0000    94.0000 </r>
       <r>    -3.5051     0.0000    94.0000 </r>
       <r>    -3.4666     0.0000    94.0000 </r>
       <r>    -3.4281     0.0000    94.0000 </r>
       <r>    -3.3895     0.0000    94.0000 </r>
       <r>    -3.3510     0.0000    94.0000 </r>
       <r>    -3.3125     0.0000    94.0000 </r>
       <r>    -3.2739     0.0000    94.0000 </r>
       <r>    -3.2354     0.0000    94.0000 </r>
       <r>    -3.1969     0.0000    94.0000 </r>
       <r>    -3.1584     0.0000    94.0000 </r>
       <r>    -3.1198     0.0000    94.0000 </r>
       <r>    -3.0813     0.0000    94.0000 </r>
       <r>    -3.0428     0.0000    94.0000 </r>
       <r>    -3.0042     0.0000    94.0000 </r>
       <r>    -2.9657     0.0000    95.0000 </r>
       <r>    -2.9272     0.0000    95.0000 </r>
       <r>    -2.8886     0.0000    95.0000 </r>
       <r>    -2.8501     0.0000    95.0000 </r>
       <r>    -2.8116     0.0000    95.0000 </r>
       <r>    -2.7730     0.0000    95.0000 </r>
       <r>    -2.7345     0.0000    95.0000 </r>
       <r>    -2.6960     0.0000    95.0000 </r>
       <r>    -2.6574     0.0000    96.0000 </r>
       <r>    -2.6189     0.0000    97.0000 </r>
       <r>    -2.5804     0.0000    97.0000 </r>
       <r>    -2.5418     0.0000    97.0000 </r>
       <r>    -2.5033     0.0000    97.0000 </r>
       <r>    -2.4648     0.0000    97.0000 </r>
       <r>    -2.4262    25.9519    98.0000 </r>
       <r>    -2.3877     0.0000    98.0000 </r>
       <r>    -2.3492     0.0000    98.0000 </r>
       <r>    -2.3106     0.0000    98.0000 </r>
       <r>    -2.2721     0.0000    98.0000 </r>
       <r>    -2.2336     0.0000    98.0000 </r>
       <r>    -2.1950     0.0000    98.0000 </r>
       <r>    -2.1565     0.0000    98.0000 </r>
       <r>    -2.1180     0.0000    98.0000 </r>
       <r>    -2.0794     0.0000    98.0000 </r>
       <r>    -2.0409     0.0000    99.0000 </r>
       <r>    -2.0024     0.0000    99.0000 </r>
       <r>    -1.9638     0.0000    99.0000 </r>
       <r>    -1.9253     0.0000   100.0000 </r>
       <r>    -1.8868     0.0000   100.0000 </r>
       <r>    -1.8482     0.0000   100.0000 </r>
       <r>    -1.8097     0.0000   100.0000 </r>
       <r>    -1.7712     0.0000   100.0000 </r>
       <r>    -1.7326     0.0000   100.0000 </r>
       <r>    -1.6941     0.0000   101.0000 </r>
       <r>    -1.6556     0.0000   101.0000 </r>
       <r>    -1.6170     0.0000   101.0000 </r>
       <r>    -1.5785     0.0000   101.0000 </r>
       <r>    -1.5400     0.0000   101.0000 </r>
       <r>    -1.5014     0.0002   101.0000 </r>
       <r>    -1.4629     0.0000   103.0000 </r>
       <r>    -1.4244     0.0000   103.0000 </r>
       <r>    -1.3858     0.0000   103.0000 </r>
       <r>    -1.3473     0.0000   103.0000 </r>
       <r>    -1.3088     0.0000   103.0000 </r>
       <r>    -1.2702     0.0000   103.0000 </r>
       <r>    -1.2317     0.0000   103.0000 </r>
       <r>    -1.1932     0.0000   103.0000 </r>
       <r>    -1.1546     0.0000   104.0000 </r>
       <r>    -1.1161     0.0000   104.0000 </r>
       <r>    -1.0776     0.0000   104.0000 </r>
       <r>    -1.0390     0.0000   104.0000 </r>
       <r>    -1.0005     0.0000   104.0000 </r>
       <r>    -0.9620     0.0000   104.0000 </r>
       <r>    -0.9235     0.0000   104.0000 </r>
       <r>    -0.8849     0.0000   104.0000 </r>
       <r>    -0.8464     0.0000   104.0000 </r>
       <r>    -0.8079     0.0000   104.0000 </r>
       <r>    -0.7693     0.0000   106.0000 </r>
       <r>    -0.7308     0.0000   106.0000 </r>
       <r>    -0.6923     0.0000   107.0000 </r>
       <r>    -0.6537     0.0000   107.0000 </r>
       <r>    -0.6152     0.0000   108.0000 </r>
       <r>    -0.5767     0.0000   108.0000 </r>
       <r>    -0.5381     0.0000   108.0000 </r>
       <r>    -0.4996     0.0000   108.0000 </r>
       <r>    -0.4611     0.0000   108.0000 </r>
       <r>    -0.4225     0.0000   108.0000 </r>
       <r>    -0.3840     0.0000   108.0000 </r>
       <r>    -0.3455     0.0000   108.0000 </r>
       <r>    -0.3069     0.0000   109.0000 </r>
       <r>    -0.2684     0.0000   109.0000 </r>
       <r>    -0.2299     0.0000   109.0000 </r>
       <r>    -0.1913     0.0000   110.0000 </r>
       <r>    -0.1528     0.0000   110.0000 </r>
       <r>    -0.1143     0.0000   110.0000 </r>
       <r>    -0.0757     0.0000   110.0000 </r>
       <r>    -0.0372     0.0000   111.0000 </r>
       <r>     0.0013     0.0000   111.0000 </r>
       <r>     0.0399     0.0000   111.0000 </r>
       <r>     0.0784     0.0000   111.0000 </r>
       <r>     0.1169     0.0000   112.0000 </r>
       <r>     0.1555     0.0000   113.0000 </r>
       <r>     0.1940     0.0000   113.0000 </r>
       <r>     0.2325     0.0000   113.0000 </r>
       <r>     0.2711     0.0000   113.0000 </r>
       <r>     0.3096     0.0000   113.0000 </r>
       <r>     0.3481     0.0000   113.0000 </r>
       <r>     0.3867     0.0001   113.0000 </r>
       <r>     0.4252     0.0000   114.0000 </r>
       <r>     0.4637     0.0000   114.0000 </r>
       <r>     0.5023     0.0000   114.0000 </r>
       <r>     0.5408     0.0000   115.0000 </r>
       <r>     0.5793     0.0000   115.0000 </r>
       <r>     0.6179     0.0000   116.0000 </r>
       <r>     0.6564     0.0000   116.0000 </r>
       <r>     0.6949     0.0000   117.0000 </r>
       <r>     0.7335     0.0000   118.0000 </r>
       <r>     0.7720     0.0000   120.0000 </r>
       <r>     0.8105     0.0000   120.0000 </r>
       <r>     0.8491     0.0000   122.0000 </r>
       <r>     0.8876     0.0000   122.0000 </r>
       <r>     0.9261     0.0000   123.0000 </r>
       <r>     0.9647     0.0000   124.0000 </r>
       <r>     1.0032     0.0000   124.0000 </r>
       <r>     1.0417     0.0000   124.0000 </r>
       <r>     1.0803     0.0000   124.0000 </r>
       <r>     1.1188     0.0000   124.0000 </r>
       <r>     1.1573     0.0000   124.0000 </r>
       <r>     1.1958     0.0000   124.0000 </r>
       <r>     1.2344     0.0000   124.0000 </r>
       <r>     1.2729     0.0000   124.0000 </r>
       <r>     1.3114     0.0000   124.0000 </r>
       <r>     1.3500     0.0000   124.0000 </r>
       <r>     1.3885     0.0000   124.0000 </r>
       <r>     1.4270     0.0000   124.0000 </r>
       <r>     1.4656     0.0000   124.0000 </r>
      </set>
     </set>
    </array>
   </total>
  </dos>
 </calculation>
 <structure name="finalpos" >
  <crystal>
   <varray name="basis" >
    <v>      19.68586518       0.00000000       0.00000000 </v>
    <v>       0.00000000      19.68586518       0.00000000 </v>
    <v>       0.00000000       0.00000000      19.68586518 </v>
   </varray>
   <i name="volume">   7628.92806221 </i>
   <varray name="rec_basis" >
    <v>       0.05079787       0.00000000       0.00000000 </v>
    <v>       0.00000000       0.05079787       0.00000000 </v>
    <v>       0.00000000       0.00000000       0.05079787 </v>
   </varray>
  </crystal>
  <varray name="positions" >
   <v>       0.58042495       0.45270945       0.37842810 </v>
   <v>       0.59820261       0.42420023       0.51643514 </v>
   <v>       0.56976754       0.59662299       0.37558603 </v>
   <v>       0.62832369       0.56745401       0.51247353 </v>
   <v>       0.49114611       0.34911537       0.57345054 </v>
   <v>       0.46241223       0.39043505       0.44259037 </v>
   <v>       0.45627848       0.50327309       0.33667896 </v>
   <v>       0.54367933       0.68125528       0.48651438 </v>
   <v>       0.50163643       0.52257583       0.47311335 </v>
   <v>       0.36490613       0.50196495       0.44300354 </v>
   <v>       0.60316268       0.39256935       0.65161382 </v>
   <v>       0.41343043       0.46854225       0.57259644 </v>
   <v>       0.46849147       0.42522227       0.69259764 </v>
   <v>       0.42927662       0.62916021       0.41955037 </v>
   <v>       0.54631333       0.51696793       0.61965136 </v>
   <v>       0.57923270       0.65493230       0.61846344 </v>
   <v>       0.44952257       0.61050438       0.56909709 </v>
  </varray>
 </structure>
</modeling>
