18
Energy = -65.69970996 eV
Bi 18.34967265244676 12.056950848580323 15.494345125419985
Bi 16.350482692540528 11.480278263025411 17.679641997146486
Bi 17.626023767178943 9.195611090713927 16.080195368717384
Bi 16.708678955737298 12.819022403333932 13.058768664549898
Bi 14.040258061262236 13.442963368041513 14.325795896487564
Bi 15.003057412213005 8.814992311521147 14.559842682117484
Bi 13.733045572021474 11.076362808843427 16.159115048972165
Bi 15.765791331831545 10.166114324165841 11.990093488049862
Bi 13.334631382217921 13.880138210207772 10.046543735345567
Bi 9.40505620698094 11.514091302463825 10.554849556219613
Bi 13.025680823009074 11.641161593812537 12.050911610113769
Bi 10.862986693854054 13.0114849016233 8.397839569558206
Bi 9.867659038268169 13.256206069462314 12.984938524875767
Bi 11.505877616722906 15.534875433845869 11.8785143788344
Bi 10.233334785896723 15.859181383936262 9.148651795608375
Bi 6.650423348152054 12.803150635719707 10.093224868976513
Bi 7.110050530481155 14.560893124114541 12.549829346166414
Bi 7.267949327422669 15.727182124826644 9.787558541077303
