18
Energy = -63.53949206 eV
Bi 12.105946320292952 12.140999475770508 12.690018747385004
Bi 14.84131855037113 9.614189940665614 11.569601253126015
Bi 11.625975956312777 9.096968043550312 10.968774198437382
Bi 8.803195736225312 12.732476555791822 9.945978448344794
Bi 16.427101380563332 12.593196222447036 12.500195361094626
Bi 9.888153434837546 14.426392205633062 12.27381417753622
Bi 13.700703782008532 9.711045898516426 14.21143831740922
Bi 9.236157312170699 8.850742281786092 8.934399742068951
Bi 7.6874533996507415 10.203258762339782 11.270801678278655
Bi 16.542284570872084 15.684334026574112 12.096097574461572
Bi 14.718163902646548 12.777315217781531 15.034632809341492
Bi 15.841728822652522 15.756851553308126 14.98956467735758
Bi 8.358244260270151 12.587215319388212 14.03241338902533
Bi 14.173514423338014 12.730437608716457 10.446223685746405
Bi 12.856443291595644 15.147521409398896 14.332225368192185
Bi 13.53792628365972 15.660695839423965 11.413272508733543
Bi 11.147995346797787 11.21163111787168 8.78952779487042
Bi 9.814165776513985 9.880180219484343 13.460810693532132
