15
Energy = -54.17459113 eV
Bi 11.741497485725326 13.703648000279898 14.833999364116622
Bi 13.929112876237301 12.222892736815702 13.29008800720909
Bi 12.83085507403141 9.439258319820954 12.964700187521002
Bi 13.175149387310258 13.500659407074526 10.669680225491154
Bi 13.90077400160619 8.898208527385709 10.162756396152428
Bi 9.730420926885682 14.542721612316663 12.745520134707867
Bi 9.807537987858836 11.727160177983592 16.147846285269072
Bi 10.337798846997783 12.516931172103252 10.427239319484329
Bi 7.646079166921606 13.073475264877352 14.421188733899267
Bi 8.350535299315496 10.181539235762779 14.023162101774256
Bi 10.18127214442082 9.74594188106575 11.619747021108035
Bi 14.935805953690258 11.549510040447247 9.186922147649097
Bi 10.526301948221565 11.503522781019866 7.401311221230942
Bi 13.35289767668772 10.97077183732792 6.610584966546104
Bi 11.668747611821338 8.79593281942432 7.994968712093381
