16
Energy = -57.49626667 eV
Bi 9.604775086179153 9.596530251381765 8.102252993902985
Bi 8.155320202778947 8.562347495430718 13.27363828005128
Bi 11.171749031259502 8.86549613272191 13.276888344262476
Bi 9.402315408644112 11.325034329879466 13.280953968006703
Bi 9.230985884240644 13.094967264326582 10.864378989609964
Bi 7.082324552177077 12.399497901332845 8.815538666478224
Bi 6.746877380136883 7.512979274639327 10.842124306637164
Bi 8.428550294425222 6.00836446833567 8.790768469410978
Bi 12.799660865838055 8.164920652379301 10.85600100607543
Bi 13.289800107265041 10.384020643427203 8.822368043478516
Bi 9.3255482531207 12.282838344867717 6.729093517364701
Bi 7.418519497605587 8.023842623579801 6.715034504306695
Bi 12.075208649912282 8.509171929588954 6.723904776197722
Bi 11.48277383566208 12.8794096881833 8.821986598399386
Bi 11.493037572846154 6.331171043710249 8.801835333896387
Bi 5.821200977908152 9.588055558183832 8.811879803890168
