13
Energy = -46.72964292 eV
Bi 7.31959644570321 9.187378053545087 8.237852783166385
Bi 11.181933001853487 7.654927868047072 10.578332196296643
Bi 13.160407739161128 9.658833359369076 11.78300527264207
Bi 10.352786688583482 9.290872652766081 8.19635312842249
Bi 13.803660387846689 11.365100519208225 9.365855790471564
Bi 6.7169534024248865 7.4795815827797085 10.604302221863813
Bi 14.54882383673987 13.948565074191727 10.771063350722027
Bi 8.924433883892526 8.09832557522397 12.530434611733469
Bi 11.402537422994069 11.441389043029691 13.440401345781979
Bi 8.841956283265054 11.602356147791186 9.360700911067774
Bi 11.912223324073205 13.713355977396276 9.251740994686195
Bi 8.609097932949236 11.076600999688006 12.32334898797822
Bi 11.910982802580733 14.168106299031464 12.242001557234657
