25
Energy = -89.74984217 eV
Bi 13.798252781935636 9.328687491544624 12.212223189559158
Bi 7.981581072864889 13.976520623496336 13.978955797930169
Bi 13.702405661842954 11.838340251640057 14.671152012045344
Bi 10.435720894348744 11.699457493360443 16.34817040332996
Bi 15.912646452369197 13.909724980333456 14.537070050612863
Bi 13.717264996396887 14.313973243520467 11.646164261834187
Bi 14.085251605359817 12.711671926277262 17.595062885157486
Bi 16.64502319680104 13.560601257453586 11.534726631230592
Bi 15.149470195115661 10.96211690864767 8.018938456841404
Bi 12.720894867428575 12.132090254246314 9.384884417962137
Bi 12.626148931512217 16.266545336682736 9.537649119329537
Bi 10.309839235359032 16.804606568520132 11.487026377584938
Bi 11.848280085441031 7.413755719628079 8.854344245789196
Bi 14.376764160159404 6.822130295846647 10.460114851709562
Bi 11.166546147100295 15.666171069669835 14.300119334189242
Bi 11.235706732952384 9.855289321509058 10.616499292864562
Bi 14.551576437048915 8.002975915016453 7.688039213214585
Bi 9.100239839147507 14.127917975621425 10.59642573787322
Bi 10.802393716601308 12.922134732156465 12.986386536770643
Bi 11.70860717340759 11.584307753471464 19.123269550879826
Bi 14.138808942327472 16.375695325898366 13.847885232607485
Bi 11.455557618927205 14.23588729378048 17.66707307173858
Bi 16.206839999568388 10.582841390033282 10.817974358076464
Bi 10.875784999280963 14.18396096553179 8.089099668106087
Bi 7.594097155724171 12.749064289893392 16.5101778803405
