28
Energy = -102.13841206 eV
Bi 16.153549408996472 11.031856952525752 13.20103410821953
Bi 15.634029655139825 13.22705986407908 15.26165144942577
Bi 16.234115948608476 13.950865081165714 12.372151717094905
Bi 15.70095116813354 10.879172162700211 9.208128208957342
Bi 15.052767510092258 8.315125348309827 10.779714860047118
Bi 13.258270214425618 10.270722042745376 12.358914345697166
Bi 13.932994689465799 14.986620861756379 10.592243445142065
Bi 12.682709616143825 13.117817514765328 14.622182215809248
Bi 12.963271652512562 12.262173066514135 9.563230989306996
Bi 13.0910043266433 7.502268576130349 8.540223785109431
Bi 12.487421592748321 11.969183143707536 6.524958032825316
Bi 11.83125907331465 15.576674735425435 16.19470370773061
Bi 14.409661586593185 9.579326789407427 6.7251757536283
Bi 12.129852871876553 8.66259725715441 14.720611055150801
Bi 10.418726311193467 16.793235619899075 13.762982652452505
Bi 11.167543609353734 14.522482470931257 11.851749698779418
Bi 11.045061294953117 9.330270735861452 9.827197093621484
Bi 9.54709148396249 7.3714537192751015 13.706567113813287
Bi 11.231102229650256 11.114404508008796 16.383429234926673
Bi 9.957139287684019 10.466660241832816 7.187383129022263
Bi 8.891529028137398 15.046424120572514 15.735009819955001
Bi 8.985908853021499 7.245233418817758 10.705914553824648
Bi 9.558991225915577 11.518623083323988 12.135602222057337
Bi 9.252008265738908 15.382064465347044 9.616850188306504
Bi 8.677363344926881 12.06424564588962 15.028905059192422
Bi 7.5136509116153745 9.23860066023829 12.445757537361684
Bi 8.43243652920889 13.027183729768137 7.879173336274465
Bi 7.40678243798811 13.1948483118916 10.715748814310711
