37
Energy = -134.1670125 eV
Bi 8.410236032497238 14.503510846647195 8.887363057397
Bi 6.646855131348296 13.73854019598755 14.272390649827013
Bi 7.189055876541407 12.788634199813092 11.072160505231492
Bi 8.92157218899358 17.513133410435774 9.386483854008738
Bi 8.819799463187548 15.74248440144775 14.975275815872559
Bi 11.882169885455431 12.803959857279645 6.460753373850363
Bi 7.830633475886351 10.961338146710538 14.57781129389326
Bi 9.727582107689386 14.27612479140968 17.462858011548608
Bi 13.335907150874903 10.381302965864519 7.5417711866529755
Bi 11.292421866307766 17.89538188363718 11.231121569081257
Bi 11.74244999410186 16.85832697313627 8.413671393790075
Bi 9.740223746724844 11.765227272318318 12.34163453192435
Bi 10.9763940486439 15.120967802540878 12.42779747691566
Bi 10.25880276706633 9.2195095765737 10.722616147250925
Bi 9.775248233538663 11.29817052722586 16.879690712898014
Bi 11.366636454154271 13.940000270931366 9.323267857190865
Bi 13.031252493985178 10.528539321756746 10.624922681923703
Bi 14.84689752413116 12.938421848553485 6.825648694478237
Bi 13.771211429475727 14.20333062031768 13.045935193468349
Bi 12.266716030038966 11.677507202456663 15.130521558709045
Bi 14.938322174847384 13.26401545074033 9.8903162613162
Bi 15.339612996336802 16.04799751474491 11.145180235767448
Bi 11.730783770720068 7.296975491108108 12.620810054471304
Bi 12.629501619016484 8.628594539349825 15.213100859894682
Bi 15.758013950267522 11.411403678777873 14.168028867181347
Bi 13.99177908017762 7.637160216172353 10.597917711655828
Bi 15.289312802197658 15.593512952291759 15.422502511646536
Bi 13.563428401507062 11.620594311753587 17.915207164485135
Bi 15.35642930399279 14.059298679158614 18.06401348638986
Bi 15.67409246933331 8.383793598138425 15.013922311898583
Bi 16.50361500047893 11.336932338408474 17.214311386799697
Bi 17.65627168147591 13.915925274051625 14.80535110218661
Bi 17.869008580969986 12.39223039193409 10.178813952484854
Bi 18.069154723373043 14.916569786370703 11.914832740461796
Bi 18.055454293947296 10.380321466288725 12.437124481041485
Bi 16.55335234603109 7.667132539175097 12.203841260950023
Bi 6.798403123839602 14.90173187564509 17.199632264610624
