34
Energy = -122.61830412 eV
Bi 12.889062092403783 12.866870417542708 9.271646380643757
Bi 10.914028753709331 15.208451707580538 8.816775733310088
Bi 15.368580592151256 9.58282667817894 9.861011923489109
Bi 10.819503377828385 9.094818612423511 12.254404137157044
Bi 15.991476060537195 12.094750483530444 8.408476278365555
Bi 9.399008234174998 13.706414139647892 10.97652724422846
Bi 14.499542186244732 15.155252186099107 11.489264593266594
Bi 17.146679413519426 14.7828533059779 13.998475619624886
Bi 15.75729375729276 16.040593205246548 16.37194121454032
Bi 8.861980182106546 16.19386759076665 16.285152188922186
Bi 11.610139581279709 16.78456243098645 13.37710593779531
Bi 17.563324868343415 12.45088321317404 11.157899144628137
Bi 9.978388638365448 9.430282525142452 17.0779803171076
Bi 18.271005126416334 17.078303577807823 12.582340000719865
Bi 12.39983275016445 13.553369680717381 18.379984105654078
Bi 13.311489929063912 8.088533038689366 13.837383782728839
Bi 13.98258974627042 13.61049970358202 15.78488770798814
Bi 12.392659075451244 10.415475616843423 15.52474976012029
Bi 13.447179134680098 8.797512957985669 7.506770059399802
Bi 15.945846236311446 9.656280428962523 14.10627615274631
Bi 14.877540176610408 17.261470836572055 13.676056826853191
Bi 8.438786208952912 15.172139136086377 19.01517522040235
Bi 14.716565234695986 11.589325698963135 12.13158315477559
Bi 10.509828087090934 11.045852700284197 9.89156790659131
Bi 8.853998314468942 10.146960089430781 14.395124222974886
Bi 9.632894552845162 12.551566140246791 17.52674541915573
Bi 8.927072445935675 13.411883826936425 14.653649276129128
Bi 15.171448359913029 10.972512312731823 16.791556257120657
Bi 11.143097810068559 16.34565947332484 18.27768303284686
Bi 17.3500614353081 15.392794005580285 10.222448919246503
Bi 11.592776944262503 13.712166511481975 13.140392035541211
Bi 12.743029249134969 11.513486359072683 6.408957764782213
Bi 15.44506429778656 10.298593294587468 5.83088923791713
Bi 12.488925302826361 17.25016893150741 10.510556212071764
