37
Energy = -134.22026214 eV
Bi 7.405559756030255 12.192740234551371 10.458138469841822
Bi 8.049548607771353 11.76578692292609 15.873463041741013
Bi 8.135127912624633 10.471253622534075 12.859780025899267
Bi 6.182010478346436 14.677222965718551 11.747130161139609
Bi 9.43909462714019 14.462014739596079 16.09181335743647
Bi 10.485351629501073 14.029432797791749 7.033467471074127
Bi 10.237907263073692 9.760644506423978 16.554870199874923
Bi 11.6568672067017 13.94615789713305 18.116152137563827
Bi 13.384499411692296 13.14151518584106 7.005661712197095
Bi 8.489922927186097 16.11591090859926 13.09176482606117
Bi 8.09253041198346 16.368728994633468 10.103626480550805
Bi 11.062659569099432 11.083025728732766 13.03986482388173
Bi 10.977097415895772 14.242555011424018 13.416660375580518
Bi 11.113853292888713 10.495834217240859 10.047701890307529
Bi 11.03074742076465 11.150022976522097 19.15205990210482
Bi 9.92812378040311 13.89453128984258 10.030627865638284
Bi 13.853657439230872 11.845075257410468 9.804508200246346
Bi 12.692317772161237 16.024308861425162 7.677422841708377
Bi 14.592054166291925 14.575809279998454 14.178657699701898
Bi 13.03339020416032 12.376146716298043 15.979862012619781
Bi 13.396108078920511 15.095892031276863 10.542128811431317
Bi 14.222500925789163 17.260806549675358 12.579863533173105
Bi 13.132625413734823 8.089119814236879 10.255757949276305
Bi 14.330547683003351 8.699689951145428 12.940578356742849
Bi 15.745488577250851 11.508566958375972 13.141442458282393
Bi 15.02398266524828 9.466694785187308 8.307105029848755
Bi 16.26417223723676 16.17821435904152 16.130461120392447
Bi 15.42516069354694 11.56656696872576 17.741227797939114
Bi 17.302226975801847 13.913719611928059 17.8679014871288
Bi 17.29564845492248 8.872649934986885 12.47127059395739
Bi 17.672111034761926 11.730241261761735 15.704466080436301
Bi 17.889053038488477 14.751152639713647 13.986712145587187
Bi 16.26993390370781 14.907081125911729 9.4197609062738
Bi 17.075553308879453 16.79062734232097 11.729373657406578
Bi 17.63974883816421 12.681103843746692 10.978079278507925
Bi 17.724534739248355 9.857346318749606 9.640957842608975
Bi 8.163839696753945 10.427365946977766 18.715237014243378
