36
Energy = -128.92956923 eV
Bi 12.808086372418227 8.63793119304281 9.879929707504617
Bi 11.832933961075142 10.865500146431486 16.311836352586955
Bi 17.43220889160871 17.846537271583067 11.71412962386184
Bi 18.01994252413318 17.040840948983686 16.947563701820368
Bi 8.551831688263475 16.691060375650764 15.612658080349439
Bi 12.800428450153436 11.663113762234193 9.694220645559076
Bi 13.673751919865815 17.155050373935946 14.636299354203773
Bi 8.595080169827972 10.022467311944318 15.01678633430504
Bi 13.072164249775692 11.643414431777028 18.97343447849677
Bi 15.624768273228762 11.63195430457021 10.989562558355797
Bi 17.365593893993292 14.008268468576192 17.545575265891824
Bi 18.007344401152444 12.498335247761242 14.969761211325638
Bi 9.48850523074907 8.724542981344177 12.469635375586778
Bi 10.09681082319734 14.249619599900731 9.352911767268125
Bi 9.542747026893709 17.241809615925348 9.658081181330433
Bi 15.060590351779744 16.966318670179593 17.400035569269576
Bi 14.896172521258947 11.821557546816374 14.372001574764578
Bi 10.69518435879323 17.345991035174638 12.547087135916428
Bi 15.827142708405049 8.613488507544997 10.348385476135382
Bi 9.735679322940278 12.929506321989011 12.201398507963148
Bi 15.413422978418346 10.616168921086704 17.29232858611385
Bi 14.222000714662213 13.738372493877867 17.044892742182782
Bi 13.954687824511296 14.53781495133035 12.912065923431987
Bi 18.426418713400444 11.093239213941834 17.62336122181766
Bi 16.114012468930508 15.314949081013792 10.697142476900554
Bi 12.151394520399696 10.309408903550953 12.38644708984957
Bi 12.336857982000105 16.005448263893058 10.320888040324636
Bi 8.183786166690712 15.6837913169569 12.650168661815025
Bi 7.392523298323016 10.887796469011901 12.399379791206625
Bi 17.236739495363427 12.152805882675146 8.471668705921866
Bi 11.162153338760818 13.636350489344558 15.166784610177093
Bi 8.10501794173085 13.687166389718573 15.176663602027865
Bi 11.453889920911053 16.364611543892146 16.646439088549222
Bi 17.029454883340616 16.070152160413535 14.180880147352545
Bi 18.89658526085344 15.211388549469232 11.869718426672348
Bi 16.948954376429022 9.42566046487254 7.6671981099454065
