37
Energy = -133.3472945 eV
Bi 16.59023749386078 15.95845197716722 7.23563476263591
Bi 17.457791089943676 15.500228979171942 10.085427554247167
Bi 17.209707124219616 12.27103035607311 10.19664200874344
Bi 15.461456303156236 13.062831097886564 7.793552641966844
Bi 15.449095765189055 9.607780077558063 9.515079280293643
Bi 17.23663210841222 10.156164640569294 13.625155069305789
Bi 15.999618534273008 15.081796984505994 13.740058298173789
Bi 15.345766246276476 7.955115560778018 12.639306946540527
Bi 17.854312660639355 13.881780692966487 15.835657612376652
Bi 15.942308991434016 8.21240515035112 15.60193125460523
Bi 14.41410041641095 17.816114333088468 8.251313189171592
Bi 14.139152702228001 10.368883915025094 6.901500781583046
Bi 15.22380851808726 17.316502903043098 11.199671359959856
Bi 12.908685249208006 15.76413372207758 9.989837733535216
Bi 16.15000165656922 11.692762833110432 17.094546534881523
Bi 13.06667553935924 10.753330313879864 11.009545067857504
Bi 15.312160735620044 12.327755600423183 12.621189505311618
Bi 13.970830144757343 15.453404608945938 16.345715368438068
Bi 16.09633248145709 14.465575477461227 18.31990200138189
Bi 12.587388938896838 11.729158916841405 20.69330799290307
Bi 13.140768906646318 8.909284765095515 14.626546268203725
Bi 12.877093897883856 9.967570317504459 18.233425486617488
Bi 13.2122998773765 11.841851594777719 15.719709546305687
Bi 12.162046431133898 17.097774114995932 18.333556680684488
Bi 11.83715898350493 16.869878507777 13.857205395398154
Bi 10.753198569281217 17.90262938443075 9.67125369665715
Bi 12.54225202492055 12.481647409065141 8.535180449713954
Bi 11.79180501814027 13.9562588822377 12.990054111794684
Bi 9.759469331391688 13.278816820425279 10.775833213030417
Bi 9.990696460689916 11.294737508387986 15.399618450355751
Bi 10.161607113960294 10.745384894423227 19.30314266259307
Bi 12.20809905457153 14.059801160941788 18.605369687927574
Bi 10.048580557660282 16.396380339903565 16.32714105384422
Bi 8.46824136568866 15.988747055962778 10.30286116313989
Bi 9.387317571020915 17.9501974840648 12.405663285656662
Bi 8.873299104485593 13.534653764720229 13.70779703865594
Bi 9.39891459629175 13.378089419008646 17.53957841015572
