36
Energy = -130.39627698 eV
Bi 9.647676064557276 15.047667324768051 9.76976032505246
Bi 16.16961762114024 13.378790357891862 9.681134441222321
Bi 13.921907579469025 15.804306608443127 18.405222095913025
Bi 12.067912280532141 17.786974873336973 17.08168899587418
Bi 11.448972677786506 13.63872591394775 15.62023843956293
Bi 18.137129468776095 17.447366157611217 14.222316083457473
Bi 12.085269694967453 8.795393357230832 16.234963911626963
Bi 18.224290946830344 15.474301667043179 11.892853668113407
Bi 8.369111377020047 13.651591238726773 12.944318369228169
Bi 11.552084298635956 11.691474750573201 9.371132180713865
Bi 13.945328666540355 7.990500436923941 13.936319163879531
Bi 14.614310296075677 11.478780934283066 11.451152397195468
Bi 15.311063635742757 12.316177158609518 16.31608963099097
Bi 15.431458612591467 16.507324745673632 15.674923894310723
Bi 16.089217714871754 17.62483455215223 12.079329321861032
Bi 9.930224850592019 6.984459188390621 15.081820290028718
Bi 14.84974213093609 8.748962262918761 10.099528592268886
Bi 13.473872426300604 18.400841332698164 14.274430565260118
Bi 12.130350836938135 10.793054737243166 13.882413630404608
Bi 12.818536039042156 13.001060811671124 18.211581402952888
Bi 7.591518587850742 11.268212779808678 11.354618280728095
Bi 12.285921809908332 14.246147144152232 7.854273817575575
Bi 11.085890865526286 16.969086338285408 12.946724998391158
Bi 8.751168998660594 12.135278551722429 15.638180203542905
Bi 14.78580582762375 14.127095580140027 13.944385042933009
Bi 11.834808813776869 5.9907149509822295 12.955652416217625
Bi 11.542700032417402 14.026794023927458 11.944226979485883
Bi 9.859991185464333 16.22156668803932 15.67028097870118
Bi 12.055136971862686 8.646855715858482 11.382337539462414
Bi 14.88808101010815 12.422116603171657 7.087382736145488
Bi 13.415672094836715 9.859205045026382 7.629450903294942
Bi 13.9083923425337 15.38381318833398 10.185668809518098
Bi 17.72353047304065 13.409746169335817 14.189578762472411
Bi 8.625682112189937 12.380887661572602 8.732210357510267
Bi 16.418196896192118 10.616309006237161 13.816365390570786
Bi 9.247543205558056 9.775579277789555 13.719644813213373
