38
Energy = -138.46328043 eV
Bi 14.749996955277348 13.695454700434981 7.0686691521673675
Bi 16.990967718427516 16.02195803780601 10.63645275158455
Bi 12.162471370132973 12.293409110321623 7.89970128154186
Bi 14.338162124206915 16.662698286441113 7.375889243965925
Bi 16.939848179019926 13.402308438786573 9.101322689695966
Bi 11.373516090645897 16.943578608962003 6.75866346278263
Bi 10.690664049243589 9.4376533428314 9.860807870816663
Bi 14.501109986750224 9.98157847052237 9.758346418494881
Bi 7.990533505653482 10.439382891045804 8.850723562710785
Bi 12.090369909307526 15.394641860217433 11.38754089246727
Bi 16.92544219839513 10.886333411983133 11.36161461014824
Bi 15.23614119861007 14.699047671379413 12.695405329612893
Bi 10.017403965287548 16.52268759074409 9.435610062039672
Bi 16.79121889371685 7.875125880705023 12.612775873454463
Bi 14.266497112977145 17.367334729647222 10.296297410035088
Bi 12.347405367136789 11.828060693890773 10.901773626564555
Bi 13.891165388027568 7.564310342373068 11.656045535013105
Bi 8.112206619984814 8.74054934831768 11.386508289004881
Bi 9.946092752087969 14.315459414842767 7.342943537165303
Bi 9.412286099741511 12.912193435650035 12.627365465920464
Bi 16.70888495717867 9.061585676182352 15.366649419330848
Bi 10.03480539050409 7.850195121228966 14.437938799245114
Bi 12.516908909888842 9.43532550244156 13.62534191351153
Bi 6.960568084506227 11.553912824663277 11.49333318609715
Bi 16.889080298770544 13.772924759889438 15.486993356443897
Bi 12.329396456956097 13.223597722343028 14.8930382002895
Bi 10.57647951588309 17.22926789241587 13.325831239915116
Bi 8.769137947025053 10.08435519085787 16.041810872275086
Bi 8.094549953623114 15.649823268572218 12.437307161949926
Bi 13.909445093350058 7.908979325950907 15.828625574497284
Bi 15.371335845530492 11.455979491061989 13.942331713564807
Bi 15.513153158587919 16.475075199159424 15.158655050652714
Bi 7.99125603453205 14.021500405627675 15.067378916865028
Bi 12.64329019136263 9.412181627920276 18.151310871522867
Bi 10.15371379873885 7.741749842489241 17.500174171145776
Bi 10.977192209547765 11.80723987704952 17.241010647920366
Bi 10.571564175358054 15.505926978401861 15.886648674431237
Bi 14.264801905522232 14.382449188481973 16.954539658605537
