37
Energy = -134.33369869 eV
Bi 7.4548281808026395 15.500738358608233 16.703880812314512
Bi 7.498731192244767 12.640777001878412 17.69344040354153
Bi 7.701833544509172 13.204807271354294 14.70625344744098
Bi 11.802441493009315 18.020370249928767 16.257185463162244
Bi 11.960197969409663 17.17167675379209 12.641881971114188
Bi 10.29956725666118 11.701078244911072 18.577246631386384
Bi 9.397564367073358 11.842907105968083 11.492865760225682
Bi 10.474436251291259 15.44359378276935 17.245809543452765
Bi 14.168944470316244 18.73843264057691 14.063552694446592
Bi 10.31969368347133 14.46476261045436 10.240215563938541
Bi 10.710637196294003 13.862635066919715 14.609905662656303
Bi 13.898914289271374 18.938669797646828 10.958772150134035
Bi 10.82820753216244 10.982970207391629 15.707538802167864
Bi 13.82900811170022 15.795930355708123 9.055417814904999
Bi 10.278977017424157 9.621500323014068 9.59398069724236
Bi 14.47450041146494 17.764255842063996 17.50038807031683
Bi 13.01429149336459 14.467137301414516 11.652643127326504
Bi 12.957679788803556 13.384937829212332 17.939724325430575
Bi 14.379738878460705 14.323604645519925 14.99875718250141
Bi 16.621573892483262 17.660411258948045 11.297593508010548
Bi 11.999027152135925 13.510488490476584 7.908975943181163
Bi 12.061835762915369 10.422201336577295 11.923459217385155
Bi 13.714569004521445 9.831131468388675 15.88214012510608
Bi 16.84636437663626 15.401033135241784 9.230710202657006
Bi 16.367754987323465 16.626774323551164 14.294511455254698
Bi 15.041021225735827 11.164974648803334 18.264940726116073
Bi 16.823526017924273 13.30056224964817 11.421322560300776
Bi 14.800702647839891 15.420930431119377 19.343829360619466
Bi 12.9903635772364 10.888237721184383 9.05728186645968
Bi 16.450907137313028 13.72688169271301 17.22304162653187
Bi 17.606011350481293 10.574057905323961 14.931027856162196
Bi 14.971559078983429 11.580203762085036 13.698823092996232
Bi 19.084170182897285 14.605150018295728 12.984291421128749
Bi 18.787409282020125 11.353985303568608 10.085493558517044
Bi 19.1493126444286 13.051204815112726 15.56564251584047
Bi 19.500421417197188 9.867384331043493 12.608130318550053
Bi 20.99539133227799 12.405715916872712 11.901438719564403
