40
Energy = -145.71400622 eV
Bi 13.150243770997568 8.633265062123149 7.7946019984000605
Bi 6.648431123914528 12.875787865496637 10.67999097185842
Bi 11.627451620469115 11.275881129345006 12.94291117453938
Bi 10.647451430720967 10.07714994216476 8.870039886351822
Bi 6.633421296363648 14.048527160649849 13.530267292766686
Bi 7.027123385257332 16.849278840022667 12.361047639331915
Bi 9.98770436578001 14.228677547921949 7.283324572895791
Bi 11.935081546028083 9.747514489470422 17.388314791913384
Bi 9.838177183674329 10.446617407990239 15.286002102050016
Bi 10.910232188644335 8.62958434153967 11.562468645925975
Bi 13.37476283310235 11.374826496551808 9.080118670999735
Bi 9.644134424191348 13.337264964008863 10.234131067987306
Bi 10.049830568976947 16.325558360772657 11.962961706314811
Bi 9.628211278583446 17.063225802688873 15.285465818019812
Bi 13.69679228150313 9.298238483149987 14.040286786600177
Bi 9.677484347367711 14.184852940468572 14.181592392240429
Bi 15.51916802569543 9.806573746998215 11.645955988519283
Bi 16.41056807436038 8.04785522249864 16.15780399973481
Bi 10.747064011998887 12.500153006481554 17.372432579420575
Bi 13.690338284840449 7.551259237034817 10.62794609506002
Bi 17.66032235086411 8.446618477482339 13.368483895177485
Bi 14.887298318554762 10.720434450462973 16.503534332525803
Bi 12.192230531179783 18.196738097396466 13.891538103125258
Bi 12.764805735666219 13.134539827867133 6.636210518184927
Bi 12.99002672029243 13.82747221898993 15.63452010936326
Bi 12.963276617265793 14.333098366356058 10.848392273631356
Bi 15.861964897932712 12.906937396226569 13.767269256320908
Bi 14.340668908332198 13.96850851694066 18.419993103131116
Bi 12.449307096112449 15.794829790548922 8.154902493101453
Bi 15.702821361441414 14.52837656368735 9.371523905786772
Bi 12.412390021542514 16.706256136291955 16.559460329709115
Bi 18.57479065136247 11.310487449890907 13.978009320667686
Bi 18.226007805788118 10.420534551727382 16.812501978899874
Bi 17.3407674990936 13.597326706800606 18.185719698391598
Bi 14.334126880149652 16.11557789255186 12.960454092551334
Bi 16.42030291940533 17.061202926958934 10.87732158806806
Bi 17.706108220090012 14.447001190948795 11.682365749678624
Bi 16.05711448671295 16.381370897603066 17.706662127505357
Bi 17.509624173627238 14.888446431883303 15.422127410644846
Bi 7.443146960696286 15.592924260587429 9.612119731185437
