45
Energy = -164.01521193 eV
Bi 13.824707206713684 8.466226682233412 15.188475618608662
Bi 17.72998532272349 9.332629421591548 9.628068831757142
Bi 14.950018746364162 8.694566358519214 10.775863646245094
Bi 16.266343162019304 9.16896642687148 13.474732654221771
Bi 9.833919522325928 9.589864214994247 16.05518098663742
Bi 17.49090949425912 12.04179048690841 8.267047840708287
Bi 11.689220371322463 10.025236621644032 13.673315241998495
Bi 14.469304675264173 11.926608126120067 8.175633150457633
Bi 14.257054177382006 10.915467009384104 16.966918989051898
Bi 11.032283162967758 13.72371527263899 9.402326216683566
Bi 18.456046118373447 11.884842272133323 11.116602950098324
Bi 13.72615915752639 11.476245014285169 11.0554538716474
Bi 8.47032392839439 12.346597300884342 15.831658266082414
Bi 16.001076645093637 12.221530876620019 13.00656743477447
Bi 11.553460083827014 10.576317040063774 18.381839246832964
Bi 16.578162913095053 15.559234988726207 11.478794097829
Bi 9.668080652919016 13.369350592596195 13.196778013020175
Bi 19.3362185032179 16.135225507297548 10.285572986954133
Bi 13.355083149694806 14.74222489748341 7.7099376629576835
Bi 13.0516247378477 12.624129340837197 14.692384671880996
Bi 10.262365756127856 16.544214685569052 9.423512168849975
Bi 18.11063036769485 14.805400637646937 14.656787440805791
Bi 20.542927695576545 14.621703428089408 12.588035638462006
Bi 19.703180921383233 14.451026346780818 17.241888620362776
Bi 17.085832902377117 13.210381348784745 18.171541413989065
Bi 11.00410855528549 13.367024652138415 17.209494435626837
Bi 7.183936518371525 15.11325730310573 13.216775621498844
Bi 20.683438123373595 17.666126778660296 12.540975612442859
Bi 13.048974188447428 15.47421569701563 19.290399066285584
Bi 14.39343861724099 16.813980434282687 9.740622593788618
Bi 16.34075183581058 18.31822454611313 12.714300709894733
Bi 8.00974044785031 17.278046327728596 11.24371848944822
Bi 9.641870222676014 15.96574062893728 14.816521625167518
Bi 15.111950304480118 15.013891406460294 16.505618071152842
Bi 18.562568251144754 17.818413411478197 14.759757932422787
Bi 12.728959304127454 15.498653578845389 11.940220948296272
Bi 17.460546262944604 15.10508973466061 20.559298795694687
Bi 14.083423666206551 17.15275870209895 14.33538136611877
Bi 9.075141043572879 15.234886510194208 18.849672381928805
Bi 15.255238473167113 17.208528052924684 20.459082522946947
Bi 10.953663054011251 17.625506984088922 18.867931574470703
Bi 10.803178683088337 17.808014558671857 12.547958896707854
Bi 18.900829712039 17.03568293154916 18.650276024073552
Bi 16.109280625105082 17.703201508477513 17.53297150768627
Bi 10.721858116431118 15.86307673372918 21.291919543297425
