46
Energy = -167.56831233 eV
Bi 6.768185224267559 13.656503276696768 11.235699026528902
Bi 8.49388570064431 12.710419781952275 8.91558193807435
Bi 7.655307825787097 10.133481043694637 13.982955249988734
Bi 9.063865612041804 10.230505179598165 10.808926830496143
Bi 9.137418734429529 10.846127112113512 16.662567297734004
Bi 7.863399199981509 16.431404801429355 11.838435915500943
Bi 8.62266757230949 12.942108041431045 13.5432145791204
Bi 10.643593245245857 7.542765266943211 10.696698458775757
Bi 10.3824706107583 8.659467821847791 13.67584123507422
Bi 9.602424554112181 17.020237459869534 9.431175941295152
Bi 10.926720319082449 15.316158684907144 17.35900884164202
Bi 12.301125165279363 12.356246530926688 5.4967286054633195
Bi 10.925689103305782 14.302811901361798 9.719849828949158
Bi 11.36339058140614 8.850330049446166 16.74533090591054
Bi 10.349449457743045 16.39930032336612 13.70977738905315
Bi 12.5091884449061 11.401980973787248 8.38734292777832
Bi 11.552929013246235 11.170541530526252 12.307216460292848
Bi 11.45579392676594 12.740122148123517 15.565594027113082
Bi 11.153601201149787 18.56188827887656 11.625235853173999
Bi 13.380602479072133 8.58687150337244 11.38137326088092
Bi 14.348881045966312 8.97188371309238 8.528320331845
Bi 11.582757414415399 12.64353700903158 18.937521543448696
Bi 12.725651240686744 14.789020188907628 12.576128018732962
Bi 15.03952320893403 11.0985395481311 13.785610762663886
Bi 13.537756088504524 11.014496742956856 17.152763008859814
Bi 15.52238657769938 12.687487610930543 10.92376164225498
Bi 12.717050160169578 17.745044851573756 16.282556172262385
Bi 12.07816246055198 15.010064293643316 6.940527099098405
Bi 16.84618741170937 10.626468827127773 9.197014718149749
Bi 13.672214092271268 19.491268690465922 13.968032796484597
Bi 14.595317627500583 15.279111970471947 15.120215053752927
Bi 13.130841495982418 15.272015569598883 19.485802815057898
Bi 14.583053203967365 13.299979575163288 7.240868981798223
Bi 17.092993926176895 13.163843104723158 14.744653223674064
Bi 15.358470569133823 14.01921625516203 17.85449935099875
Bi 14.024424724986838 17.443552259823694 11.674165688329046
Bi 17.064272910383846 9.381314940239015 12.059176121311948
Bi 16.599677144277617 9.288847612474544 15.955713402815348
Bi 18.15706334368153 13.81233720850593 11.971566380804568
Bi 14.962466942370556 18.54069152694032 18.16130195051828
Bi 16.229809481709268 19.74842313429803 15.603189687811424
Bi 17.176900542403597 16.497566686896548 17.611905125143654
Bi 17.068780574224895 16.960306602359008 14.576141375104363
Bi 19.420552998921085 10.306702021773049 15.449599091078591
Bi 18.48270869008692 7.633613801211088 14.387257540482043
Bi 19.50165325445972 11.063728706282935 12.423161639494596
