43
Energy = -155.98504338 eV
Bi 15.949106834902935 16.58392857592176 17.295619993453343
Bi 15.913437431165935 14.171808885392322 15.47537666692183
Bi 15.7902347739888 17.739514431929575 13.806046388046186
Bi 17.38802743673799 10.995827344895858 15.899578523439256
Bi 16.10450198030201 14.944388475200233 11.358021787027633
Bi 15.03993898045101 13.900930790114536 18.444224973268614
Bi 17.93510360520697 7.884791246764313 15.470574967996255
Bi 17.175268174419042 12.068140527146074 11.374862105238652
Bi 15.684764598292622 9.32831614898897 17.746103023653955
Bi 13.95387304852094 20.17054027479709 13.961740888074173
Bi 13.014619667367096 17.48939341042826 17.077435785210756
Bi 16.075806871579797 8.013522484028709 13.073303318416889
Bi 17.04292329681438 15.492180057086289 8.5343825887836
Bi 12.071168790051614 14.779308745764716 18.105712943847383
Bi 15.364697878305636 10.976458872677693 13.581203577326265
Bi 15.281979679321605 17.81702276214473 7.720303529354341
Bi 13.105977145362973 15.118092478212624 10.941086524725913
Bi 15.822862794843672 9.854573855547178 9.738428133882742
Bi 14.932308759594203 7.105223634985835 15.767087806327156
Bi 15.257676657409537 19.445853219530306 11.305866965982267
Bi 13.027851097444438 10.959263537209885 18.20730426988687
Bi 14.823988676549119 15.051825053102773 6.5376403253620285
Bi 14.66083907518626 10.336548330978118 6.9758097748599335
Bi 10.930258034085474 8.890861604301902 17.411261684336313
Bi 13.175435903678189 8.986594012329517 10.939693595787379
Bi 12.796764446181736 17.348671909182627 14.023411348343307
Bi 12.859116240443326 12.939289946274519 15.777970683713708
Bi 11.606061169967731 12.12849913099364 12.229791515664578
Bi 13.052792044659027 17.969920468425787 9.827780610616777
Bi 12.558559587517358 9.377172266605307 14.931972760016471
Bi 6.147303466209992 15.7399213601274 15.415316578320732
Bi 7.171796429749491 13.241110509000507 16.807959239194957
Bi 12.239153042068102 14.678235889674296 8.061194269606009
Bi 12.941171207789498 8.00142954434215 7.9839484318653025
Bi 9.897395447724762 11.262227285419621 15.739047535374034
Bi 12.015805203453832 11.798660340669276 7.085834832004806
Bi 9.017618802614159 15.535350214466792 16.31449078825903
Bi 10.214960118226475 14.742666685338751 13.325858509921163
Bi 10.866770254736478 9.978484586116101 9.196913807215234
Bi 7.4071531583232595 13.472331994409478 13.69759469944915
Bi 9.468332727183228 13.398352813648911 10.42860111192143
Bi 9.667263241223425 9.899948973209378 12.995204275483225
Bi 7.445736764273808 11.404579908746747 11.332810555013756
