54
Energy = -196.84048844 eV
Bi 16.46976008237318 7.6241355647475535 15.110643190998518
Bi 17.773799543068417 10.175608746446342 16.174372466140458
Bi 12.416830412276811 12.202239298908246 18.90510627381065
Bi 17.43829729140766 6.903427151803468 12.268648842948377
Bi 10.284564311830856 8.463210719505966 16.283634313420677
Bi 15.23392786917032 11.957256059611467 16.2921063421652
Bi 12.759881215041185 6.4913407798756095 13.457640920604844
Bi 9.878678382564733 10.548568077174155 18.513817348655206
Bi 13.70164765155243 8.873193191128324 15.05440943025908
Bi 14.711362908767123 6.387109681326051 11.00452045111846
Bi 20.067888885433952 10.796810485126178 11.80200684488804
Bi 12.658265023687882 14.786991143651434 17.25602815395872
Bi 15.709347379213149 12.46293653855115 13.215601162582798
Bi 11.042168789033239 14.765453486606013 19.85727578179529
Bi 18.66026845835817 12.230703515036215 14.085915163299926
Bi 17.273037829364945 13.771425896762022 17.68786914156488
Bi 8.254065409723989 11.846788036632576 16.317639742900514
Bi 7.460756877840055 9.040594504600415 15.303352031868119
Bi 15.177114638265081 15.676895255196072 18.815965280160363
Bi 9.928241577861382 10.16877731291587 13.745639450934046
Bi 18.37160094155316 8.886716840807367 10.145738759666274
Bi 10.539518763423995 7.812490866889831 11.834886535313162
Bi 12.251161904551019 12.921204359255368 12.958104052377049
Bi 14.615326496238453 9.462458824160866 12.080458573094443
Bi 6.441992726754411 13.92728794624568 17.63783018947006
Bi 14.171674120492256 8.438218283057209 8.667540042294423
Bi 9.019246748398592 15.519828873361059 17.686823512483663
Bi 14.770916916962344 15.275419750552514 14.383234147248016
Bi 10.709621875861542 17.273574389889323 14.963438269761912
Bi 7.30703790956835 13.355341420372529 13.008070005219835
Bi 12.114616192890157 10.026422882344601 10.396973426427738
Bi 9.893486312906427 13.595584842566796 11.184508099811634
Bi 19.491909361150782 12.863725358485357 9.664668136019694
Bi 16.028778923616226 10.688629063598263 9.482524593051478
Bi 16.829858448592237 16.476898856339258 16.39020235061013
Bi 18.060447276755543 15.683730512891652 12.845237631130082
Bi 20.6157602880258 15.366731140281004 10.981300487518528
Bi 13.316570433031853 13.323914795325074 9.157579109906536
Bi 16.83444899542964 14.296400866921143 10.387206649308714
Bi 7.715980826541858 17.91123013695186 14.902893503968286
Bi 10.00041241754401 14.32248606152329 14.749489136934393
Bi 6.023858018153039 15.384039376369472 14.95451260736488
Bi 13.76555395481361 16.102610641821077 11.405670819468641
Bi 18.60202353453763 16.567911203623012 9.055990851174132
Bi 6.3955594199589 15.373367478545896 10.830583650710425
Bi 13.421405394538025 13.847832528996662 6.144507205609463
Bi 10.7387813149872 13.877230596438885 7.616334198736081
Bi 11.616704769903656 18.207223911788567 12.222207143367301
Bi 14.29811132940042 18.582933042385484 13.64186553139744
Bi 18.092120965163964 18.42408695084407 11.40046988690895
Bi 7.294770547354031 18.043100686263593 11.894448294393143
Bi 9.208908623810718 16.42213264240514 10.122062524378839
Bi 12.703434350973449 16.144747799295278 7.949662641174714
Bi 15.151666764314175 18.836918013778657 10.788640869778984
