50
Energy = -182.32357953 eV
Bi 6.867481986544324 14.80033330015964 14.145584696951651
Bi 10.257062688254393 18.02068697659958 15.350427680039598
Bi 8.76361453698418 18.092079834963503 12.669427294637842
Bi 8.512665160833867 15.73307518888199 16.580739958218942
Bi 12.77190097627021 16.650950295323646 17.832333155860656
Bi 11.100562233626272 13.510857344263638 19.307486970292082
Bi 8.36932739458224 11.510575195507114 17.325389686779218
Bi 8.041829048048944 14.799677980707665 9.73201160490949
Bi 14.886087108818714 17.68472534627219 15.905565574918063
Bi 10.823472202779147 18.55499389371702 10.446196211889562
Bi 9.318123193114904 15.157392877095603 12.441052880539988
Bi 6.448520998644161 11.766671666131174 13.654202832874402
Bi 12.532252148978143 16.025390027548394 14.814525101867128
Bi 14.72475765657307 18.32948192338334 10.943677579080472
Bi 14.083634191101988 14.189747037264745 19.086495752123017
Bi 16.803038615331722 15.295119045496838 16.076601484233482
Bi 9.677356861479266 16.717248182548335 8.309588885250545
Bi 10.645327593525769 10.470421014031949 19.130230720653394
Bi 10.499558868544948 13.453885047026239 16.340718061642313
Bi 8.619580329134287 9.892802325401396 14.75902056099943
Bi 8.30548074206881 11.689206504468006 11.180139692390803
Bi 15.933632388642197 15.276435232586481 13.167594129491443
Bi 17.528308688313995 17.34612621623875 11.645418348289395
Bi 13.656868036669827 17.760774080783964 8.141149366469936
Bi 12.659363139244943 16.115842633765993 10.512346875582246
Bi 10.7496233470503 11.2701675044978 13.000828319404118
Bi 16.69162615838926 11.081838464043779 16.630427349303687
Bi 12.483609850779331 10.050597748617552 16.756048079607215
Bi 14.922213276811151 9.232999393127166 18.337502595829513
Bi 15.597926710568547 13.859485880179852 9.384023273246951
Bi 14.554227510618794 13.220013647902572 16.26349454615202
Bi 9.723826823041797 8.902663256464775 11.397703394041528
Bi 16.114210516270134 16.108362270959315 7.440955205414397
Bi 11.268068270648337 7.4189756587820295 15.727478883651866
Bi 15.096135257049335 13.981894789315458 5.483496906852515
Bi 12.604300897224787 12.519867687125878 6.5468970950083225
Bi 18.085687830018006 14.38096327501537 11.039999406049757
Bi 15.956681819031607 7.777794265361647 15.869205712236239
Bi 12.182798598251836 12.3295201812318 9.614106525918885
Bi 12.570569777990706 7.590940341637449 12.980480755251476
Bi 14.698138685928685 9.852744195997628 14.004261980930671
Bi 10.823913437861851 9.774551867131818 8.670580997432996
Bi 17.25883112851883 11.545339905241917 12.738762796974026
Bi 13.708915521229372 5.73907921581458 15.120337408031945
Bi 16.915186360461202 12.181129172740285 7.197309979774478
Bi 19.309013696838875 9.335106571809831 12.388349019805364
Bi 14.605113908695381 10.187159428792752 6.79038125039316
Bi 17.47281969096757 10.037007855321985 10.071791164158682
Bi 13.706251901463618 9.656427509812278 9.680770273521764
Bi 16.546070386643553 8.060935240001506 12.222935486319818
