9
Energy = -31.68555752 eV
Bi 11.739947493818715 8.682061024730224 9.134639193973863
Bi 11.311809377768224 9.19624177438672 12.132265928090801
Bi 9.252989327227002 6.984211532740483 9.16743901306339
Bi 13.014392331332566 11.656786210283098 12.140280116804679
Bi 10.098429855636915 11.9152161344107 11.517168854629757
Bi 10.676546480138759 11.460616556134607 8.542076682986206
Bi 7.410030597309014 8.156905318503425 7.0754895813256615
Bi 6.974333928226409 8.786086248824615 10.000182608858081
Bi 7.735952296635219 10.99133636305132 8.076525678777598
