27
Energy = -55.26084764 eV
Ag 6.738598170817638 10.732392951927151 12.571963418765003
Ag 9.309907454021337 9.931040020424446 13.546855515663045
Ag 8.736339030740014 12.759433751749537 13.005829974006417
Ag 7.961982081887641 8.292500310108428 11.583548466194273
Ag 10.103990940663234 7.145471881968768 13.070307557821492
Ag 11.321394034476123 11.680960170279352 12.438603868226483
Ag 7.09462193545852 12.900744160061098 10.454576311700412
Ag 6.6550947391944195 9.961277475833304 9.670022345227132
Ag 8.92025121552852 10.992817651590974 10.87034657653954
Ag 10.785310051948588 9.06686773719017 11.193370421460424
Ag 10.085076248925715 13.53726128758102 10.642767353733246
Ag 12.074523623521403 9.158838641777539 13.651665105695832
Ag 7.351117299338521 7.150269623338001 9.121313260718757
Ag 12.888212454093567 13.023413613417159 10.57907391747637
Ag 9.868745040250413 6.575497860733147 10.301820934494678
Ag 8.84117634525221 12.122801458971663 8.276770324513683
Ag 12.645760466063214 7.158053452284765 11.421588972668797
Ag 11.376184113597514 13.669309061405976 8.18669758286396
Ag 9.20325861442717 9.182230381023679 8.63325200731265
Ag 8.509639584197647 10.231085655521769 6.087391476152746
Ag 13.339499238314824 10.140133796049804 11.123406705108046
Ag 9.717069494204347 6.652478757085632 7.526339736228729
Ag 11.420721078565416 11.069743495809615 9.23138885592768
Ag 11.943855620887259 8.138211953762783 8.793665423889845
Ag 10.878972607651445 11.610233533401926 6.430152941092851
Ag 13.15869091488797 10.163265033410337 7.168176368489018
Ag 10.912724822207716 8.794350640176065 6.280378888661057
