<?xml version="1.0" encoding="ISO-8859-1"?>
<modeling>
 <generator>
  <i name="program" type="string">vasp </i>
  <i name="version" type="string">5.3.5  </i>
  <i name="subversion" type="string">31Mar14 (build Feb 01 2018 12:10:03) gamma-only                       parallel </i>
  <i name="platform" type="string">LinuxIFC </i>
  <i name="date" type="string">2019 03 22 </i>
  <i name="time" type="string">08:04:30 </i>
 </generator>
 <incar>
  <i type="string" name="PREC">normal</i>
  <i type="int" name="ISPIN">     2</i>
  <i type="int" name="IBRION">     2</i>
  <i type="int" name="NSW">  1000</i>
  <i type="int" name="ISIF">     2</i>
  <i name="POTIM">      0.10000000</i>
  <i type="logical" name="LPLANE"> T  </i>
  <i type="int" name="ISMEAR">     0</i>
  <i name="SIGMA">      0.00010000</i>
  <i type="logical" name="LWAVE"> F  </i>
  <i type="logical" name="LCHARG"> F  </i>
  <i type="logical" name="LVTOT"> F  </i>
  <i type="string" name="GGA"> PE</i>
 </incar>
 <kpoints>
  <varray name="kpointlist" >
   <v>       0.00000000       0.00000000       0.00000000 </v>
  </varray>
  <varray name="weights" >
   <v>       1.00000000 </v>
  </varray>
 </kpoints>
 <parameters>
  <separator name="general" >
   <i type="string" name="SYSTEM">unknown system</i>
   <i type="logical" name="LCOMPAT"> F  </i>
  </separator>
  <separator name="electronic" >
   <i type="string" name="PREC">normal</i>
   <i name="ENMAX">    249.84400000</i>
   <i name="ENAUG">    412.49600000</i>
   <i name="EDIFF">      0.00010000</i>
   <i type="int" name="IALGO">    38</i>
   <i type="int" name="IWAVPR">    11</i>
   <i type="int" name="NBANDS">   192</i>
   <i name="NELECT">    297.00000000</i>
   <i type="int" name="TURBO">     0</i>
   <i type="int" name="IRESTART">     0</i>
   <i type="int" name="NREBOOT">     0</i>
   <i type="int" name="NMIN">     0</i>
   <i name="EREF">      0.00000000</i>
   <separator name="electronic smearing" >
    <i type="int" name="ISMEAR">     0</i>
    <i name="SIGMA">      0.00010000</i>
    <i name="KSPACING">      0.50000000</i>
    <i type="logical" name="KGAMMA"> T  </i>
   </separator>
   <separator name="electronic projectors" >
    <i type="logical" name="LREAL"> F  </i>
    <v name="ROPT">      0.00000000</v>
    <i type="int" name="LMAXPAW">  -100</i>
    <i type="int" name="LMAXMIX">     2</i>
    <i type="logical" name="NLSPLINE"> F  </i>
   </separator>
   <separator name="electronic startup" >
    <i type="int" name="ISTART">     0</i>
    <i type="int" name="ICHARG">     2</i>
    <i type="int" name="INIWAV">     1</i>
   </separator>
   <separator name="electronic spin" >
    <i type="int" name="ISPIN">     2</i>
    <i type="logical" name="LNONCOLLINEAR"> F  </i>
    <v name="MAGMOM">      1.00000000      1.00000000      1.00000000      1.00000000      1.00000000      1.00000000      1.00000000      1.00000000      1.00000000      1.00000000      1.00000000      1.00000000      1.00000000      1.00000000      1.00000000      1.00000000      1.00000000      1.00000000      1.00000000      1.00000000
      1.00000000      1.00000000      1.00000000      1.00000000      1.00000000      1.00000000      1.00000000</v>
    <i name="NUPDOWN">     -1.00000000</i>
    <i type="logical" name="LSORBIT"> F  </i>
    <v name="SAXIS">      0.00000000      0.00000000      1.00000000</v>
    <i type="logical" name="LSPIRAL"> F  </i>
    <v name="QSPIRAL">      0.00000000      0.00000000      0.00000000</v>
    <i type="logical" name="LZEROZ"> F  </i>
   </separator>
   <separator name="electronic exchange-correlation" >
    <i type="logical" name="LASPH"> F  </i>
    <i type="logical" name="LMETAGGA"> F  </i>
   </separator>
   <separator name="electronic convergence" >
    <i type="int" name="NELM">    60</i>
    <i type="int" name="NELMDL">    -5</i>
    <i type="int" name="NELMIN">     2</i>
    <i name="ENINI">    249.84400000</i>
    <separator name="electronic convergence detail" >
     <i type="logical" name="LDIAG"> T  </i>
     <i type="logical" name="LSUBROT"> F  </i>
     <i name="WEIMIN">      0.00100000</i>
     <i name="EBREAK">      0.00000013</i>
     <i name="DEPER">      0.30000000</i>
     <i type="int" name="NRMM">     4</i>
     <i name="TIME">      0.40000000</i>
    </separator>
   </separator>
   <separator name="electronic mixer" >
    <i name="AMIX">      0.40000000</i>
    <i name="BMIX">      1.00000000</i>
    <i name="AMIN">      0.10000000</i>
    <i name="AMIX_MAG">      1.60000000</i>
    <i name="BMIX_MAG">      1.00000000</i>
    <separator name="electronic mixer details" >
     <i type="int" name="IMIX">     4</i>
     <i type="int" name="MAXMIX">   -45</i>
     <i name="WC">    100.00000000</i>
     <i type="int" name="INIMIX">     1</i>
     <i type="int" name="MIXPRE">     1</i>
     <i type="int" name="MREMOVE">     5</i>
    </separator>
   </separator>
   <separator name="electronic dipolcorrection" >
    <i type="logical" name="LDIPOL"> F  </i>
    <i type="logical" name="LMONO"> F  </i>
    <i type="int" name="IDIPOL">     0</i>
    <i name="EPSILON">      1.00000000</i>
    <v name="DIPOL">   -100.00000000   -100.00000000   -100.00000000</v>
    <i name="EFIELD">      0.00000000</i>
   </separator>
  </separator>
  <separator name="grids" >
   <i type="int" name="NGX">    80</i>
   <i type="int" name="NGY">    80</i>
   <i type="int" name="NGZ">    80</i>
   <i type="int" name="NGXF">   160</i>
   <i type="int" name="NGYF">   160</i>
   <i type="int" name="NGZF">   160</i>
   <i type="logical" name="ADDGRID"> F  </i>
  </separator>
  <separator name="ionic" >
   <i type="int" name="NSW">  1000</i>
   <i type="int" name="IBRION">     2</i>
   <i type="int" name="ISIF">     2</i>
   <i name="PSTRESS">      0.00000000</i>
   <i name="EDIFFG">      0.00100000</i>
   <i type="int" name="NFREE">     1</i>
   <i name="POTIM">      0.10000000</i>
   <i name="SMASS">     -3.00000000</i>
   <i name="SCALEE">      1.00000000</i>
  </separator>
  <separator name="ionic md" >
   <i name="TEBEG">      0.00010000</i>
   <i name="TEEND">      0.00010000</i>
   <i type="int" name="NBLOCK">     1</i>
   <i type="int" name="KBLOCK">  1000</i>
   <i type="int" name="NPACO">   256</i>
   <i name="APACO">     16.00000000</i>
  </separator>
  <separator name="symmetry" >
   <i type="int" name="ISYM">     2</i>
   <i name="SYMPREC">      0.00001000</i>
  </separator>
  <separator name="dos" >
   <i type="logical" name="LORBIT"> F  </i>
   <v name="RWIGS">     -1.00000000</v>
   <i type="int" name="NEDOS">   301</i>
   <i name="EMIN">     10.00000000</i>
   <i name="EMAX">    -10.00000000</i>
   <i name="EFERMI">      0.00000000</i>
  </separator>
  <separator name="writing" >
   <i type="int" name="NWRITE">     2</i>
   <i type="logical" name="LWAVE"> F  </i>
   <i type="logical" name="LCHARG"> F  </i>
   <i type="logical" name="LPARD"> F  </i>
   <i type="logical" name="LVTOT"> F  </i>
   <i type="logical" name="LVHAR"> F  </i>
   <i type="logical" name="LELF"> F  </i>
   <i type="logical" name="LOPTICS"> F  </i>
   <v name="STM">      0.00000000      0.00000000      0.00000000      0.00000000      0.00000000      0.00000000      0.00000000</v>
  </separator>
  <separator name="performance" >
   <i type="int" name="NPAR">     4</i>
   <i type="int" name="NSIM">     4</i>
   <i type="int" name="NBLK">    -1</i>
   <i type="logical" name="LPLANE"> T  </i>
   <i type="logical" name="LSCALAPACK"> T  </i>
   <i type="logical" name="LSCAAWARE"> F  </i>
   <i type="logical" name="LSCALU"> F  </i>
   <i type="logical" name="LASYNC"> F  </i>
   <i type="logical" name="LORBITALREAL"> F  </i>
  </separator>
  <separator name="miscellaneous" >
   <i type="int" name="IDIOT">     3</i>
   <i type="logical" name="LMUSIC"> F  </i>
   <v name="POMASS">    107.86800000</v>
   <v name="DARWINR">      0.00000000</v>
   <v name="DARWINV">      1.00000000</v>
   <i type="logical" name="LCORR"> T  </i>
  </separator>
  <i type="logical" name="GGA_COMPAT"> T  </i>
  <i type="logical" name="LBERRY"> F  </i>
  <i type="int" name="ICORELEVEL">     0</i>
  <i type="logical" name="LDAU"> F  </i>
  <i type="int" name="I_CONSTRAINED_M">     0</i>
  <separator name="electronic exchange-correlation" >
   <i type="string" name="GGA">PE</i>
   <i type="int" name="VOSKOWN">     0</i>
   <i type="logical" name="LHFCALC"> F  </i>
   <i type="string" name="PRECFOCK"></i>
   <i type="logical" name="LSYMGRAD"> F  </i>
   <i type="logical" name="LHFONE"> F  </i>
   <i type="logical" name="LRHFCALC"> F  </i>
   <i type="logical" name="LTHOMAS"> F  </i>
   <i type="logical" name="LMODELHF"> F  </i>
   <i name="ENCUT4O">     -1.00000000</i>
   <i type="int" name="EXXOEP">     0</i>
   <i type="int" name="FOURORBIT">     0</i>
   <i name="AEXX">      0.00000000</i>
   <i name="HFALPHA">      0.00000000</i>
   <i name="MCALPHA">      0.00000000</i>
   <i name="ALDAX">      1.00000000</i>
   <i name="AGGAX">      1.00000000</i>
   <i name="ALDAC">      1.00000000</i>
   <i name="AGGAC">      1.00000000</i>
   <i type="int" name="NKREDX">     1</i>
   <i type="int" name="NKREDY">     1</i>
   <i type="int" name="NKREDZ">     1</i>
   <i type="logical" name="SHIFTRED"> F  </i>
   <i type="logical" name="ODDONLY"> F  </i>
   <i type="logical" name="EVENONLY"> F  </i>
   <i type="int" name="LMAXFOCK">     0</i>
   <i type="int" name="NMAXFOCKAE">     0</i>
   <i type="logical" name="LFOCKAEDFT"> F  </i>
   <i name="HFSCREEN">      0.00000000</i>
   <i name="HFSCREENC">      0.00000000</i>
   <i type="int" name="NBANDSGWLOW">     0</i>
  </separator>
  <separator name="vdW DFT" >
   <i type="logical" name="LUSE_VDW"> F  </i>
   <i name="Zab_VDW">     -0.84910000</i>
   <i name="PARAM1">      0.12340000</i>
   <i name="PARAM2">      1.00000000</i>
   <i name="PARAM3">      0.00000000</i>
  </separator>
  <separator name="model GW" >
   <i type="int" name="MODEL_GW">     0</i>
   <i name="MODEL_EPS0">    173.69803783</i>
   <i name="MODEL_ALPHA">      1.00000000</i>
  </separator>
  <separator name="linear response parameters" >
   <i type="logical" name="LEPSILON"> F  </i>
   <i type="logical" name="LRPA"> F  </i>
   <i type="logical" name="LNABLA"> F  </i>
   <i type="logical" name="LVEL"> F  </i>
   <i type="int" name="KINTER">     0</i>
   <i name="CSHIFT">      0.10000000</i>
   <i name="OMEGAMAX">     -1.00000000</i>
   <i name="DEG_THRESHOLD">      0.00200000</i>
  </separator>
  <separator name="orbital magnetization" >
   <i type="logical" name="NUCIND"> F  </i>
   <v name="MAGPOS">      0.00000000      0.00000000      0.00000000</v>
   <i type="logical" name="LNICSALL"> T  </i>
   <i type="logical" name="ORBITALMAG"> F  </i>
   <i type="logical" name="LMAGBLOCH"> F  </i>
   <i type="logical" name="LCHIMAG"> F  </i>
   <i type="logical" name="LGAUGE"> T  </i>
   <i type="int" name="MAGATOM">     0</i>
   <v name="MAGDIPOL">      0.00000000      0.00000000      0.00000000</v>
   <v name="AVECCONST">      0.00000000      0.00000000      0.00000000</v>
  </separator>
  <separator name="response functions" >
   <i type="logical" name="LADDER"> F  </i>
   <i type="logical" name="LFXC"> F  </i>
   <i type="logical" name="LHARTREE"> T  </i>
   <i type="int" name="IBSE">     0</i>
   <i type="logical" name="LTCTE"> F  </i>
   <i type="logical" name="LTETE"> F  </i>
   <i type="logical" name="LTRIPLET"> F  </i>
   <i type="logical" name="LFXCEPS"> F  </i>
   <i type="logical" name="LFXHEG"> F  </i>
   <i type="logical" name="L2ORDER"> F  </i>
   <i type="logical" name="LUSEW"> F  </i>
   <i name="ENCUTGW">     -2.00000000</i>
   <i name="ENCUTGWSOFT">     -2.00000000</i>
   <i name="ENCUTLF">     -1.00000000</i>
   <i type="int" name="LMAXMP2">    -1</i>
   <i name="SCISSOR">      0.00000000</i>
   <i type="int" name="NOMEGA">     0</i>
   <i type="int" name="NOMEGAR">     0</i>
   <i type="int" name="NBANDSGW">    -1</i>
   <i type="int" name="NBANDSO">    -1</i>
   <i type="int" name="NBANDSV">    -1</i>
   <i type="int" name="NELM">     1</i>
   <i type="int" name="DIM">     3</i>
   <i type="int" name="ANTIRES">     0</i>
   <i name="OMEGAMAX">    -30.00000000</i>
   <i name="OMEGAMIN">    -30.00000000</i>
   <i name="OMEGATL">   -200.00000000</i>
   <i type="int" name="OMEGAGRID">     0</i>
   <i name="CSHIFT">     -0.10000000</i>
   <i type="logical" name="SELFENERGY"> F  </i>
   <i type="logical" name="LSPECTRAL"> F  </i>
   <i type="logical" name="ODDONLYGW"> F  </i>
   <i type="logical" name="EVENONLYGW"> F  </i>
   <i type="int" name="NKREDLFX">     1</i>
   <i type="int" name="NKREDLFY">     1</i>
   <i type="int" name="NKREDLFZ">     1</i>
   <i type="int" name="MAXMEM">  1800</i>
   <i type="int" name="TELESCOPE">     0</i>
   <i type="int" name="TAUPAR">     1</i>
  </separator>
  <separator name="External order field" >
   <i name="OFIELD_KAPPA">      0.00000000</i>
   <v name="OFIELD_K">      0.00000000      0.00000000      0.00000000</v>
   <i name="OFIELD_Q6_NEAR">      0.00000000</i>
   <i name="OFIELD_Q6_FAR">      0.00000000</i>
   <i name="OFIELD_A">      0.00000000</i>
  </separator>
 </parameters>
 <atominfo>
  <atoms>      27 </atoms>
  <types>       1 </types>
  <array name="atoms" >
   <dimension dim="1">ion</dimension>
   <field type="string">element</field>
   <field type="int">atomtype</field>
   <set>
    <rc><c>Ag</c><c>   1</c></rc>
    <rc><c>Ag</c><c>   1</c></rc>
    <rc><c>Ag</c><c>   1</c></rc>
    <rc><c>Ag</c><c>   1</c></rc>
    <rc><c>Ag</c><c>   1</c></rc>
    <rc><c>Ag</c><c>   1</c></rc>
    <rc><c>Ag</c><c>   1</c></rc>
    <rc><c>Ag</c><c>   1</c></rc>
    <rc><c>Ag</c><c>   1</c></rc>
    <rc><c>Ag</c><c>   1</c></rc>
    <rc><c>Ag</c><c>   1</c></rc>
    <rc><c>Ag</c><c>   1</c></rc>
    <rc><c>Ag</c><c>   1</c></rc>
    <rc><c>Ag</c><c>   1</c></rc>
    <rc><c>Ag</c><c>   1</c></rc>
    <rc><c>Ag</c><c>   1</c></rc>
    <rc><c>Ag</c><c>   1</c></rc>
    <rc><c>Ag</c><c>   1</c></rc>
    <rc><c>Ag</c><c>   1</c></rc>
    <rc><c>Ag</c><c>   1</c></rc>
    <rc><c>Ag</c><c>   1</c></rc>
    <rc><c>Ag</c><c>   1</c></rc>
    <rc><c>Ag</c><c>   1</c></rc>
    <rc><c>Ag</c><c>   1</c></rc>
    <rc><c>Ag</c><c>   1</c></rc>
    <rc><c>Ag</c><c>   1</c></rc>
    <rc><c>Ag</c><c>   1</c></rc>
   </set>
  </array>
  <array name="atomtypes" >
   <dimension dim="1">type</dimension>
   <field type="int">atomspertype</field>
   <field type="string">element</field>
   <field>mass</field>
   <field>valence</field>
   <field type="string">pseudopotential</field>
   <set>
    <rc><c>  27</c><c>Ag</c><c>    107.86800000</c><c>     11.00000000</c><c>  PAW_PBE Ag 02Apr2005                  </c></rc>
   </set>
  </array>
 </atominfo>
 <structure name="initialpos" >
  <crystal>
   <varray name="basis" >
    <v>      19.84582430       0.00000000       0.00000000 </v>
    <v>       0.00000000      19.84582430       0.00000000 </v>
    <v>       0.00000000       0.00000000      19.84582430 </v>
   </varray>
   <i name="volume">   7816.41170220 </i>
   <varray name="rec_basis" >
    <v>       0.05038843       0.00000000       0.00000000 </v>
    <v>       0.00000000       0.05038843       0.00000000 </v>
    <v>       0.00000000       0.00000000       0.05038843 </v>
   </varray>
  </crystal>
  <varray name="positions" >
   <v>       0.34672907       0.54525245       0.61913623 </v>
   <v>       0.47056329       0.50113497       0.67781609 </v>
   <v>       0.44480371       0.63545812       0.64980608 </v>
   <v>       0.39678712       0.42252066       0.57950308 </v>
   <v>       0.50537822       0.36878947       0.65055427 </v>
   <v>       0.57575674       0.58480883       0.62826222 </v>
   <v>       0.36724908       0.64986885       0.53452958 </v>
   <v>       0.34320139       0.51854926       0.47870859 </v>
   <v>       0.45494390       0.55897615       0.54516074 </v>
   <v>       0.54404021       0.45733885       0.56288412 </v>
   <v>       0.50595067       0.68420456       0.53694073 </v>
   <v>       0.60834334       0.45646621       0.67528008 </v>
   <v>       0.38484508       0.38396494       0.45261410 </v>
   <v>       0.63628940       0.63074846       0.52114999 </v>
   <v>       0.49768495       0.33338533       0.51801558 </v>
   <v>       0.43071560       0.61187393       0.41375136 </v>
   <v>       0.62408583       0.36036780       0.57890639 </v>
   <v>       0.56424359       0.66435995       0.41177245 </v>
   <v>       0.47580598       0.47366701       0.43821548 </v>
   <v>       0.41910052       0.47332827       0.33561993 </v>
   <v>       0.67161134       0.49511756       0.55018555 </v>
   <v>       0.49742592       0.35755235       0.38065230 </v>
   <v>       0.56441631       0.54201772       0.46019072 </v>
   <v>       0.61632228       0.40723666       0.44732589 </v>
   <v>       0.52608345       0.57171115       0.32729675 </v>
   <v>       0.65837196       0.55241635       0.39343291 </v>
   <v>       0.56697976       0.45651041       0.33095257 </v>
  </varray>
 </structure>
 <calculation>
  <scstep>
   <time name="dav">    2.63    2.64</time>
   <time name="total">    2.88    2.92</time>
   <energy>
    <i name="alphaZ">     79.32942070 </i>
    <i name="ewald">  58385.64137887 </i>
    <i name="hartreedc"> -85232.42459377 </i>
    <i name="XCdc">   -289.58835686 </i>
    <i name="pawpsdc">  27091.04880788 </i>
    <i name="pawaedc"> -25846.14443973 </i>
    <i name="eentropy">     -0.00000000 </i>
    <i name="bandstr">    326.51072997 </i>
    <i name="atom">  28004.36301233 </i>
    <i name="e_fr_energy">   2518.73595939 </i>
    <i name="e_wo_entrp">   2518.73595939 </i>
    <i name="e_0_energy">   2518.73595939 </i>
   </energy>
  </scstep>
  <scstep>
   <time name="dav">    3.86    3.86</time>
   <time name="total">    3.86    3.87</time>
   <energy>
    <i name="e_fr_energy">    444.40208950 </i>
    <i name="e_wo_entrp">    444.40208950 </i>
    <i name="e_0_energy">    444.40208950 </i>
   </energy>
  </scstep>
  <scstep>
   <time name="dav">    3.19    3.19</time>
   <time name="total">    3.19    3.20</time>
   <energy>
    <i name="e_fr_energy">    -33.08493190 </i>
    <i name="e_wo_entrp">    -33.08493190 </i>
    <i name="e_0_energy">    -33.08493190 </i>
   </energy>
  </scstep>
  <scstep>
   <time name="dav">    2.83    2.83</time>
   <time name="total">    2.83    2.84</time>
   <energy>
    <i name="e_fr_energy">    -51.71942410 </i>
    <i name="e_wo_entrp">    -51.71942410 </i>
    <i name="e_0_energy">    -51.71942410 </i>
   </energy>
  </scstep>
  <scstep>
   <time name="dav">    2.83    2.83</time>
   <time name="total">    2.94    2.95</time>
   <energy>
    <i name="e_fr_energy">    -51.99709765 </i>
    <i name="e_wo_entrp">    -51.99709765 </i>
    <i name="e_0_energy">    -51.99709765 </i>
   </energy>
  </scstep>
  <scstep>
   <time name="dav">    2.64    2.64</time>
   <time name="total">    2.98    2.98</time>
   <energy>
    <i name="e_fr_energy">    -23.33455857 </i>
    <i name="e_wo_entrp">    -23.33455857 </i>
    <i name="e_0_energy">    -23.33455857 </i>
   </energy>
  </scstep>
  <scstep>
   <time name="dav">    2.72    2.72</time>
   <time name="total">    3.06    3.06</time>
   <energy>
    <i name="e_fr_energy">    -15.65686990 </i>
    <i name="e_wo_entrp">    -15.65686990 </i>
    <i name="e_0_energy">    -15.65686990 </i>
   </energy>
  </scstep>
  <scstep>
   <time name="dav">    2.70    2.70</time>
   <time name="total">    3.04    3.04</time>
   <energy>
    <i name="e_fr_energy">    -15.47981249 </i>
    <i name="e_wo_entrp">    -15.47981249 </i>
    <i name="e_0_energy">    -15.47981249 </i>
   </energy>
  </scstep>
  <scstep>
   <time name="dav">    2.74    2.75</time>
   <time name="total">    3.08    3.09</time>
   <energy>
    <i name="e_fr_energy">    -19.23506699 </i>
    <i name="e_wo_entrp">    -19.23506699 </i>
    <i name="e_0_energy">    -19.23506699 </i>
   </energy>
  </scstep>
  <scstep>
   <time name="dav">    2.70    2.70</time>
   <time name="total">    3.04    3.08</time>
   <energy>
    <i name="e_fr_energy">    -27.76083844 </i>
    <i name="e_wo_entrp">    -27.76083844 </i>
    <i name="e_0_energy">    -27.76083844 </i>
   </energy>
  </scstep>
  <scstep>
   <time name="dav">    2.68    2.68</time>
   <time name="total">    3.02    3.03</time>
   <energy>
    <i name="e_fr_energy">    -40.09757699 </i>
    <i name="e_wo_entrp">    -40.09757699 </i>
    <i name="e_0_energy">    -40.09757699 </i>
   </energy>
  </scstep>
  <scstep>
   <time name="dav">    3.00    3.01</time>
   <time name="total">    3.34    3.35</time>
   <energy>
    <i name="e_fr_energy">    -40.72343111 </i>
    <i name="e_wo_entrp">    -40.72343111 </i>
    <i name="e_0_energy">    -40.72343111 </i>
   </energy>
  </scstep>
  <scstep>
   <time name="dav">    2.66    2.66</time>
   <time name="total">    3.00    3.05</time>
   <energy>
    <i name="e_fr_energy">    -42.14066102 </i>
    <i name="e_wo_entrp">    -42.14066102 </i>
    <i name="e_0_energy">    -42.14066102 </i>
   </energy>
  </scstep>
  <scstep>
   <time name="dav">    2.64    2.64</time>
   <time name="total">    2.98    2.98</time>
   <energy>
    <i name="e_fr_energy">    -45.98463510 </i>
    <i name="e_wo_entrp">    -45.98463510 </i>
    <i name="e_0_energy">    -45.98463510 </i>
   </energy>
  </scstep>
  <scstep>
   <time name="dav">    2.78    2.78</time>
   <time name="total">    3.13    3.13</time>
   <energy>
    <i name="e_fr_energy">    -46.31963556 </i>
    <i name="e_wo_entrp">    -46.31963556 </i>
    <i name="e_0_energy">    -46.31963556 </i>
   </energy>
  </scstep>
  <scstep>
   <time name="dav">    2.68    2.69</time>
   <time name="total">    3.02    3.13</time>
   <energy>
    <i name="e_fr_energy">    -47.24922028 </i>
    <i name="e_wo_entrp">    -47.24922028 </i>
    <i name="e_0_energy">    -47.24922028 </i>
   </energy>
  </scstep>
  <scstep>
   <time name="dav">    2.67    2.67</time>
   <time name="total">    3.01    3.02</time>
   <energy>
    <i name="e_fr_energy">    -48.70010428 </i>
    <i name="e_wo_entrp">    -48.70010428 </i>
    <i name="e_0_energy">    -48.70010428 </i>
   </energy>
  </scstep>
  <scstep>
   <time name="dav">    2.81    2.81</time>
   <time name="total">    3.15    3.16</time>
   <energy>
    <i name="e_fr_energy">    -48.74149073 </i>
    <i name="e_wo_entrp">    -48.74149073 </i>
    <i name="e_0_energy">    -48.74149073 </i>
   </energy>
  </scstep>
  <scstep>
   <time name="dav">    2.66    2.66</time>
   <time name="total">    3.00    3.01</time>
   <energy>
    <i name="e_fr_energy">    -48.82110343 </i>
    <i name="e_wo_entrp">    -48.82110343 </i>
    <i name="e_0_energy">    -48.82110343 </i>
   </energy>
  </scstep>
  <scstep>
   <time name="dav">    2.62    2.62</time>
   <time name="total">    2.97    3.27</time>
   <energy>
    <i name="e_fr_energy">    -49.28384711 </i>
    <i name="e_wo_entrp">    -49.28384711 </i>
    <i name="e_0_energy">    -49.28384711 </i>
   </energy>
  </scstep>
  <scstep>
   <time name="dav">    2.64    2.65</time>
   <time name="total">    2.99    2.99</time>
   <energy>
    <i name="e_fr_energy">    -49.80348066 </i>
    <i name="e_wo_entrp">    -49.80348066 </i>
    <i name="e_0_energy">    -49.80348066 </i>
   </energy>
  </scstep>
  <scstep>
   <time name="dav">    2.68    2.68</time>
   <time name="total">    3.03    4.15</time>
   <energy>
    <i name="e_fr_energy">    -50.16366320 </i>
    <i name="e_wo_entrp">    -50.16366320 </i>
    <i name="e_0_energy">    -50.16366320 </i>
   </energy>
  </scstep>
  <scstep>
   <time name="dav">    2.71    2.71</time>
   <time name="total">    3.06    3.06</time>
   <energy>
    <i name="e_fr_energy">    -50.32609406 </i>
    <i name="e_wo_entrp">    -50.32609406 </i>
    <i name="e_0_energy">    -50.32609406 </i>
   </energy>
  </scstep>
  <scstep>
   <time name="dav">    2.70    2.71</time>
   <time name="total">    3.05    3.08</time>
   <energy>
    <i name="e_fr_energy">    -50.41947254 </i>
    <i name="e_wo_entrp">    -50.41947254 </i>
    <i name="e_0_energy">    -50.41947254 </i>
   </energy>
  </scstep>
  <scstep>
   <time name="dav">    2.59    2.59</time>
   <time name="total">    2.94    2.94</time>
   <energy>
    <i name="e_fr_energy">    -50.45055979 </i>
    <i name="e_wo_entrp">    -50.45055979 </i>
    <i name="e_0_energy">    -50.45055979 </i>
   </energy>
  </scstep>
  <scstep>
   <time name="dav">    2.12    2.13</time>
   <time name="total">    2.48    2.50</time>
   <energy>
    <i name="e_fr_energy">    -50.46726867 </i>
    <i name="e_wo_entrp">    -50.46726867 </i>
    <i name="e_0_energy">    -50.46726867 </i>
   </energy>
  </scstep>
  <scstep>
   <time name="dav">    2.09    2.09</time>
   <time name="total">    2.44    2.49</time>
   <energy>
    <i name="e_fr_energy">    -50.47577927 </i>
    <i name="e_wo_entrp">    -50.47577927 </i>
    <i name="e_0_energy">    -50.47577927 </i>
   </energy>
  </scstep>
  <scstep>
   <time name="dav">    2.03    2.03</time>
   <time name="total">    2.38    2.40</time>
   <energy>
    <i name="e_fr_energy">    -50.47916944 </i>
    <i name="e_wo_entrp">    -50.47916944 </i>
    <i name="e_0_energy">    -50.47916944 </i>
   </energy>
  </scstep>
  <scstep>
   <time name="dav">    2.03    2.03</time>
   <time name="total">    2.38    2.38</time>
   <energy>
    <i name="e_fr_energy">    -50.47999213 </i>
    <i name="e_wo_entrp">    -50.47999213 </i>
    <i name="e_0_energy">    -50.47999213 </i>
   </energy>
  </scstep>
  <scstep>
   <time name="dav">    2.05    2.05</time>
   <time name="total">    2.40    2.40</time>
   <energy>
    <i name="e_fr_energy">    -50.48033866 </i>
    <i name="e_wo_entrp">    -50.48033866 </i>
    <i name="e_0_energy">    -50.48033866 </i>
   </energy>
  </scstep>
  <scstep>
   <time name="dav">    1.93    1.93</time>
   <time name="total">    2.28    2.30</time>
   <energy>
    <i name="e_fr_energy">    -50.48066672 </i>
    <i name="e_wo_entrp">    -50.48066672 </i>
    <i name="e_0_energy">    -50.48066672 </i>
   </energy>
  </scstep>
  <scstep>
   <time name="dav">    1.97    1.97</time>
   <time name="total">    2.32    2.34</time>
   <energy>
    <i name="e_fr_energy">    -50.48077808 </i>
    <i name="e_wo_entrp">    -50.48077808 </i>
    <i name="e_0_energy">    -50.48077808 </i>
   </energy>
  </scstep>
  <scstep>
   <time name="dav">    1.97    1.97</time>
   <time name="total">    2.20    2.23</time>
   <energy>
    <i name="alphaZ">     79.32942070 </i>
    <i name="ewald">  58385.64137887 </i>
    <i name="hartreedc"> -85178.92328083 </i>
    <i name="XCdc">   -300.33991813 </i>
    <i name="pawpsdc">  30292.09584013 </i>
    <i name="pawaedc"> -29111.44657449 </i>
    <i name="eentropy">      0.00000000 </i>
    <i name="bandstr">  -2221.20069912 </i>
    <i name="atom">  28004.36301233 </i>
    <i name="e_fr_energy">    -50.48082054 </i>
    <i name="e_wo_entrp">    -50.48082054 </i>
    <i name="e_0_energy">    -50.48082054 </i>
   </energy>
  </scstep>
  <structure>
   <crystal>
    <varray name="basis" >
     <v>      19.84582430       0.00000000       0.00000000 </v>
     <v>       0.00000000      19.84582430       0.00000000 </v>
     <v>       0.00000000       0.00000000      19.84582430 </v>
    </varray>
    <i name="volume">   7816.41170220 </i>
    <varray name="rec_basis" >
     <v>       0.05038843       0.00000000       0.00000000 </v>
     <v>       0.00000000       0.05038843       0.00000000 </v>
     <v>       0.00000000       0.00000000       0.05038843 </v>
    </varray>
   </crystal>
   <varray name="positions" >
    <v>       0.34672907       0.54525245       0.61913623 </v>
    <v>       0.47056329       0.50113497       0.67781609 </v>
    <v>       0.44480371       0.63545812       0.64980608 </v>
    <v>       0.39678712       0.42252066       0.57950308 </v>
    <v>       0.50537822       0.36878947       0.65055427 </v>
    <v>       0.57575674       0.58480883       0.62826222 </v>
    <v>       0.36724908       0.64986885       0.53452958 </v>
    <v>       0.34320139       0.51854926       0.47870859 </v>
    <v>       0.45494390       0.55897615       0.54516074 </v>
    <v>       0.54404021       0.45733885       0.56288412 </v>
    <v>       0.50595067       0.68420456       0.53694073 </v>
    <v>       0.60834334       0.45646621       0.67528008 </v>
    <v>       0.38484508       0.38396494       0.45261410 </v>
    <v>       0.63628940       0.63074846       0.52114999 </v>
    <v>       0.49768495       0.33338533       0.51801558 </v>
    <v>       0.43071560       0.61187393       0.41375136 </v>
    <v>       0.62408583       0.36036780       0.57890639 </v>
    <v>       0.56424359       0.66435995       0.41177245 </v>
    <v>       0.47580598       0.47366701       0.43821548 </v>
    <v>       0.41910052       0.47332827       0.33561993 </v>
    <v>       0.67161134       0.49511756       0.55018555 </v>
    <v>       0.49742592       0.35755235       0.38065230 </v>
    <v>       0.56441631       0.54201772       0.46019072 </v>
    <v>       0.61632228       0.40723666       0.44732589 </v>
    <v>       0.52608345       0.57171115       0.32729675 </v>
    <v>       0.65837196       0.55241635       0.39343291 </v>
    <v>       0.56697976       0.45651041       0.33095257 </v>
   </varray>
  </structure>
  <varray name="forces" >
   <v>      -1.06414329      -0.65154913       0.96180855 </v>
   <v>      -0.16686905      -0.04367747       0.48957622 </v>
   <v>       0.04496032       1.04904910       1.46764172 </v>
   <v>       0.00700784       0.01626183       0.31546959 </v>
   <v>      -0.63728312      -1.14788116       1.19020487 </v>
   <v>      -0.14247766       0.01010372       0.45970336 </v>
   <v>      -1.18777168       1.54057426      -0.59817933 </v>
   <v>      -0.42977121      -0.21531937      -0.28500188 </v>
   <v>       1.11257112      -1.07842105      -0.32809818 </v>
   <v>      -1.24602301       0.76512965      -0.77257196 </v>
   <v>       0.45643000       0.45517107      -0.12741744 </v>
   <v>       0.66208236       0.54020052       1.45147163 </v>
   <v>      -1.28419339      -1.11147920      -0.38259610 </v>
   <v>       1.25315058       1.12971993       0.18236509 </v>
   <v>      -0.16643034      -0.26288289      -0.26902183 </v>
   <v>      -0.13661299       0.26656913       0.10023466 </v>
   <v>       1.33649503      -1.52634902      -0.17667379 </v>
   <v>       0.05936790       1.60800676      -0.42289688 </v>
   <v>      -1.96654885      -2.11641241       2.11144159 </v>
   <v>      -1.81242651       0.06965939      -3.18258045 </v>
   <v>       0.55610034       0.20218250      -0.10473502 </v>
   <v>       0.13057732      -1.57022213      -0.53754263 </v>
   <v>       0.62862620       1.96800876       2.86370174 </v>
   <v>       0.05525120      -0.29591620       0.07760904 </v>
   <v>      -0.64133161       1.57740056      -1.17466770 </v>
   <v>       3.43329037       0.30376128      -2.41303062 </v>
   <v>       1.14597214      -1.48168843      -0.89621424 </v>
  </varray>
  <varray name="stress" >
   <v>       5.34223046       1.45331944      -0.19316661 </v>
   <v>       1.45331943       5.67315599       0.21390632 </v>
   <v>      -0.19316662       0.21390632       5.53517100 </v>
  </varray>
  <energy>
   <i name="e_fr_energy">    -50.48082054 </i>
   <i name="e_wo_entrp">    -50.48082054 </i>
   <i name="e_0_energy">      0.00000000 </i>
  </energy>
  <time name="totalsc">  100.27  102.26</time>
 </calculation>
 <calculation>
  <scstep>
   <time name="dav">    2.62    2.62</time>
   <time name="total">    2.96    2.98</time>
   <energy>
    <i name="alphaZ">     79.32942070 </i>
    <i name="ewald">  57921.43079499 </i>
    <i name="hartreedc"> -84720.47847424 </i>
    <i name="XCdc">   -301.11010645 </i>
    <i name="pawpsdc">  30292.21757706 </i>
    <i name="pawaedc"> -29111.56975005 </i>
    <i name="eentropy">      0.00000000 </i>
    <i name="bandstr">  -2215.52687223 </i>
    <i name="atom">  28004.36301233 </i>
    <i name="e_fr_energy">    -51.34439789 </i>
    <i name="e_wo_entrp">    -51.34439789 </i>
    <i name="e_0_energy">    -51.34439789 </i>
   </energy>
  </scstep>
  <scstep>
   <time name="dav">    2.71    2.71</time>
   <time name="total">    3.05    3.07</time>
   <energy>
    <i name="e_fr_energy">    -51.37357919 </i>
    <i name="e_wo_entrp">    -51.37357919 </i>
    <i name="e_0_energy">    -51.37357919 </i>
   </energy>
  </scstep>
  <scstep>
   <time name="dav">    2.73    2.73</time>
   <time name="total">    3.07    3.23</time>
   <energy>
    <i name="e_fr_energy">    -51.37176993 </i>
    <i name="e_wo_entrp">    -51.37176993 </i>
    <i name="e_0_energy">    -51.37176993 </i>
   </energy>
  </scstep>
  <scstep>
   <time name="dav">    2.73    2.73</time>
   <time name="total">    3.07    3.07</time>
   <energy>
    <i name="e_fr_energy">    -51.37159976 </i>
    <i name="e_wo_entrp">    -51.37159976 </i>
    <i name="e_0_energy">    -51.37159976 </i>
   </energy>
  </scstep>
  <scstep>
   <time name="dav">    2.39    2.39</time>
   <time name="total">    2.73    2.75</time>
   <energy>
    <i name="e_fr_energy">    -51.37149973 </i>
    <i name="e_wo_entrp">    -51.37149973 </i>
    <i name="e_0_energy">    -51.37149973 </i>
   </energy>
  </scstep>
  <scstep>
   <time name="dav">    2.01    2.01</time>
   <time name="total">    2.24    2.26</time>
   <energy>
    <i name="alphaZ">     79.32942070 </i>
    <i name="ewald">  57921.43079499 </i>
    <i name="hartreedc"> -84725.64008523 </i>
    <i name="XCdc">   -301.00228795 </i>
    <i name="pawpsdc">  30149.05924429 </i>
    <i name="pawaedc"> -28966.47311084 </i>
    <i name="eentropy">      0.00000000 </i>
    <i name="bandstr">  -2212.43852009 </i>
    <i name="atom">  28004.36301233 </i>
    <i name="e_fr_energy">    -51.37153181 </i>
    <i name="e_wo_entrp">    -51.37153181 </i>
    <i name="e_0_energy">    -51.37153181 </i>
   </energy>
  </scstep>
  <structure>
   <crystal>
    <varray name="basis" >
     <v>      19.84582430       0.00000000       0.00000000 </v>
     <v>       0.00000000      19.84582430       0.00000000 </v>
     <v>       0.00000000       0.00000000      19.84582430 </v>
    </varray>
    <i name="volume">   7816.41170220 </i>
    <varray name="rec_basis" >
     <v>       0.05038843       0.00000000       0.00000000 </v>
     <v>       0.00000000       0.05038843       0.00000000 </v>
     <v>       0.00000000       0.00000000       0.05038843 </v>
    </varray>
   </crystal>
   <varray name="positions" >
    <v>       0.34621171       0.54493568       0.61960383 </v>
    <v>       0.47048216       0.50111374       0.67805411 </v>
    <v>       0.44482557       0.63596814       0.65051961 </v>
    <v>       0.39679053       0.42252856       0.57965645 </v>
    <v>       0.50506839       0.36823140       0.65113292 </v>
    <v>       0.57568747       0.58481374       0.62848572 </v>
    <v>       0.36667162       0.65061783       0.53423876 </v>
    <v>       0.34299245       0.51844458       0.47857003 </v>
    <v>       0.45548480       0.55845185       0.54500123 </v>
    <v>       0.54343443       0.45771084       0.56250852 </v>
    <v>       0.50617257       0.68442585       0.53687878 </v>
    <v>       0.60866522       0.45672885       0.67598575 </v>
    <v>       0.38422074       0.38342457       0.45242809 </v>
    <v>       0.63689865       0.63129770       0.52123865 </v>
    <v>       0.49760403       0.33325752       0.51788479 </v>
    <v>       0.43064919       0.61200353       0.41380009 </v>
    <v>       0.62473560       0.35962573       0.57882049 </v>
    <v>       0.56427246       0.66514173       0.41156684 </v>
    <v>       0.47484989       0.47263807       0.43924201 </v>
    <v>       0.41821936       0.47336214       0.33407264 </v>
    <v>       0.67188170       0.49521586       0.55013463 </v>
    <v>       0.49748941       0.35678894       0.38039096 </v>
    <v>       0.56472193       0.54297451       0.46158298 </v>
    <v>       0.61634914       0.40709280       0.44736362 </v>
    <v>       0.52577165       0.57247804       0.32672566 </v>
    <v>       0.66004114       0.55256403       0.39225976 </v>
    <v>       0.56753691       0.45579005       0.33051685 </v>
   </varray>
  </structure>
  <varray name="forces" >
   <v>      -0.88884520      -0.53907563       0.82597723 </v>
   <v>      -0.15803791      -0.04254849       0.46446995 </v>
   <v>       0.00869823       0.90592405       1.23165642 </v>
   <v>       0.00725661       0.00615904       0.27625851 </v>
   <v>      -0.50706465      -1.00472423       1.03244798 </v>
   <v>      -0.12654205       0.02386853       0.40918415 </v>
   <v>      -0.95291686       1.24979802      -0.48805101 </v>
   <v>      -0.39993408      -0.17708008      -0.23417087 </v>
   <v>       0.67627246      -0.64906928      -0.11425016 </v>
   <v>      -0.90482060       0.33997994      -0.40888720 </v>
   <v>       0.40095902       0.37549579      -0.09034450 </v>
   <v>       0.53561054       0.46157381       1.20413808 </v>
   <v>      -1.29663734      -1.14444081      -0.37167033 </v>
   <v>       1.24851106       1.15283926       0.20755765 </v>
   <v>      -0.14474529      -0.22445917      -0.22142161 </v>
   <v>      -0.10792671       0.22017560       0.11415559 </v>
   <v>       1.08719116      -1.23612106      -0.14324012 </v>
   <v>       0.07331978       1.45902499      -0.40890915 </v>
   <v>      -1.44061401      -1.58471287       1.47641489 </v>
   <v>      -1.33913188       0.09432848      -2.50282108 </v>
   <v>       0.47464535       0.15924466      -0.08240330 </v>
   <v>       0.10640787      -1.41312982      -0.51429629 </v>
   <v>       0.62986602       1.53886126       1.91621164 </v>
   <v>       0.02179729      -0.24131180       0.08178921 </v>
   <v>      -0.48565622       1.17594608      -1.00008801 </v>
   <v>       2.55380251       0.19371382      -1.89134733 </v>
   <v>       0.92853492      -1.10026009      -0.76836032 </v>
  </varray>
  <varray name="stress" >
   <v>       4.23666429       1.33646418      -0.21273558 </v>
   <v>       1.33646418       4.81919918       0.19558909 </v>
   <v>      -0.21273559       0.19558909       4.63606918 </v>
  </varray>
  <energy>
   <i name="e_fr_energy">    -51.37153181 </i>
   <i name="e_wo_entrp">    -51.37153181 </i>
   <i name="e_0_energy">      0.00000000 </i>
  </energy>
  <time name="totalsc">   21.89   22.20</time>
 </calculation>
 <calculation>
  <scstep>
   <time name="dav">    2.61    2.61</time>
   <time name="total">    2.95    2.96</time>
   <energy>
    <i name="alphaZ">     79.32942070 </i>
    <i name="ewald">  56565.63538174 </i>
    <i name="hartreedc"> -83384.07121300 </i>
    <i name="XCdc">   -303.06414134 </i>
    <i name="pawpsdc">  30148.78534960 </i>
    <i name="pawaedc"> -28966.20024850 </i>
    <i name="eentropy">      0.00000000 </i>
    <i name="bandstr">  -2197.45372870 </i>
    <i name="atom">  28004.36301233 </i>
    <i name="e_fr_energy">    -52.67616716 </i>
    <i name="e_wo_entrp">    -52.67616716 </i>
    <i name="e_0_energy">    -52.67616716 </i>
   </energy>
  </scstep>
  <scstep>
   <time name="dav">    2.70    2.71</time>
   <time name="total">    3.04    3.05</time>
   <energy>
    <i name="e_fr_energy">    -52.95260128 </i>
    <i name="e_wo_entrp">    -52.95260128 </i>
    <i name="e_0_energy">    -52.95260128 </i>
   </energy>
  </scstep>
  <scstep>
   <time name="dav">    2.73    2.73</time>
   <time name="total">    3.07    3.07</time>
   <energy>
    <i name="e_fr_energy">    -52.94099697 </i>
    <i name="e_wo_entrp">    -52.94099697 </i>
    <i name="e_0_energy">    -52.94099697 </i>
   </energy>
  </scstep>
  <scstep>
   <time name="dav">    2.73    2.73</time>
   <time name="total">    3.07    3.07</time>
   <energy>
    <i name="e_fr_energy">    -52.92445031 </i>
    <i name="e_wo_entrp">    -52.92445031 </i>
    <i name="e_0_energy">    -52.92445031 </i>
   </energy>
  </scstep>
  <scstep>
   <time name="dav">    2.75    2.75</time>
   <time name="total">    3.09    3.15</time>
   <energy>
    <i name="e_fr_energy">    -52.92230735 </i>
    <i name="e_wo_entrp">    -52.92230735 </i>
    <i name="e_0_energy">    -52.92230735 </i>
   </energy>
  </scstep>
  <scstep>
   <time name="dav">    2.77    2.77</time>
   <time name="total">    3.11    3.13</time>
   <energy>
    <i name="e_fr_energy">    -52.92302964 </i>
    <i name="e_wo_entrp">    -52.92302964 </i>
    <i name="e_0_energy">    -52.92302964 </i>
   </energy>
  </scstep>
  <scstep>
   <time name="dav">    2.71    2.71</time>
   <time name="total">    3.05    3.07</time>
   <energy>
    <i name="e_fr_energy">    -52.92730720 </i>
    <i name="e_wo_entrp">    -52.92730720 </i>
    <i name="e_0_energy">    -52.92730720 </i>
   </energy>
  </scstep>
  <scstep>
   <time name="dav">    2.77    2.77</time>
   <time name="total">    3.11    5.78</time>
   <energy>
    <i name="e_fr_energy">    -52.93166307 </i>
    <i name="e_wo_entrp">    -52.93166307 </i>
    <i name="e_0_energy">    -52.93166307 </i>
   </energy>
  </scstep>
  <scstep>
   <time name="dav">    2.75    2.75</time>
   <time name="total">    3.09    3.28</time>
   <energy>
    <i name="e_fr_energy">    -52.93582383 </i>
    <i name="e_wo_entrp">    -52.93582383 </i>
    <i name="e_0_energy">    -52.93582383 </i>
   </energy>
  </scstep>
  <scstep>
   <time name="dav">    2.55    2.55</time>
   <time name="total">    2.89    2.89</time>
   <energy>
    <i name="e_fr_energy">    -52.93768980 </i>
    <i name="e_wo_entrp">    -52.93768980 </i>
    <i name="e_0_energy">    -52.93768980 </i>
   </energy>
  </scstep>
  <scstep>
   <time name="dav">    2.03    2.03</time>
   <time name="total">    2.37    2.39</time>
   <energy>
    <i name="e_fr_energy">    -52.93816371 </i>
    <i name="e_wo_entrp">    -52.93816371 </i>
    <i name="e_0_energy">    -52.93816371 </i>
   </energy>
  </scstep>
  <scstep>
   <time name="dav">    2.03    2.03</time>
   <time name="total">    2.37    2.37</time>
   <energy>
    <i name="e_fr_energy">    -52.93864472 </i>
    <i name="e_wo_entrp">    -52.93864472 </i>
    <i name="e_0_energy">    -52.93864472 </i>
   </energy>
  </scstep>
  <scstep>
   <time name="dav">    2.01    2.01</time>
   <time name="total">    2.35    2.36</time>
   <energy>
    <i name="e_fr_energy">    -52.93922138 </i>
    <i name="e_wo_entrp">    -52.93922138 </i>
    <i name="e_0_energy">    -52.93922138 </i>
   </energy>
  </scstep>
  <scstep>
   <time name="dav">    1.99    1.99</time>
   <time name="total">    2.23    3.45</time>
   <energy>
    <i name="alphaZ">     79.32942070 </i>
    <i name="ewald">  56565.63538174 </i>
    <i name="hartreedc"> -83398.87647767 </i>
    <i name="XCdc">   -302.74265076 </i>
    <i name="pawpsdc">  29803.81722900 </i>
    <i name="pawaedc"> -28616.26413527 </i>
    <i name="eentropy">     -0.00000000 </i>
    <i name="bandstr">  -2188.20109895 </i>
    <i name="atom">  28004.36301233 </i>
    <i name="e_fr_energy">    -52.93931887 </i>
    <i name="e_wo_entrp">    -52.93931887 </i>
    <i name="e_0_energy">    -52.93931887 </i>
   </energy>
  </scstep>
  <structure>
   <crystal>
    <varray name="basis" >
     <v>      19.84582430       0.00000000       0.00000000 </v>
     <v>       0.00000000      19.84582430       0.00000000 </v>
     <v>       0.00000000       0.00000000      19.84582430 </v>
    </varray>
    <i name="volume">   7816.41170220 </i>
    <varray name="rec_basis" >
     <v>       0.05038843       0.00000000       0.00000000 </v>
     <v>       0.00000000       0.05038843       0.00000000 </v>
     <v>       0.00000000       0.00000000       0.05038843 </v>
    </varray>
   </crystal>
   <varray name="positions" >
    <v>       0.34465963       0.54398538       0.62100665 </v>
    <v>       0.47023878       0.50105003       0.67876817 </v>
    <v>       0.44489115       0.63749820       0.65266020 </v>
    <v>       0.39680075       0.42255228       0.58011657 </v>
    <v>       0.50413890       0.36655719       0.65286886 </v>
    <v>       0.57547966       0.58482848       0.62915621 </v>
    <v>       0.36493922       0.65286480       0.53336630 </v>
    <v>       0.34236561       0.51813053       0.47815435 </v>
    <v>       0.45710751       0.55687895       0.54452269 </v>
    <v>       0.54161708       0.45882680       0.56138170 </v>
    <v>       0.50683828       0.68508973       0.53669294 </v>
    <v>       0.60963089       0.45751674       0.67810275 </v>
    <v>       0.38234771       0.38180345       0.45187006 </v>
    <v>       0.63872640       0.63294542       0.52150463 </v>
    <v>       0.49736129       0.33287410       0.51749241 </v>
    <v>       0.43044993       0.61239233       0.41394628 </v>
    <v>       0.62668491       0.35739951       0.57856281 </v>
    <v>       0.56435905       0.66748704       0.41095004 </v>
    <v>       0.47198164       0.46955123       0.44232160 </v>
    <v>       0.41557590       0.47346374       0.32943078 </v>
    <v>       0.67269279       0.49551075       0.54998187 </v>
    <v>       0.49767986       0.35449874       0.37960694 </v>
    <v>       0.56563880       0.54584490       0.46575975 </v>
    <v>       0.61642972       0.40666120       0.44747682 </v>
    <v>       0.52483625       0.57477872       0.32501238 </v>
    <v>       0.66504867       0.55300707       0.38874030 </v>
    <v>       0.56920833       0.45362897       0.32920970 </v>
   </varray>
  </structure>
  <varray name="forces" >
   <v>      -0.45177081      -0.25253703       0.51878851 </v>
   <v>      -0.13360984      -0.05022288       0.36324686 </v>
   <v>      -0.07000454       0.54231828       0.62860839 </v>
   <v>      -0.01927815       0.03753024       0.12073510 </v>
   <v>      -0.22389559      -0.64299747       0.61045187 </v>
   <v>      -0.20011364       0.09533094       0.26766282 </v>
   <v>      -0.42572123       0.60066408      -0.23781958 </v>
   <v>      -0.35754991      -0.13126939      -0.03250002 </v>
   <v>      -0.53229907       0.50357863       0.42490874 </v>
   <v>       0.04266594      -0.84278893       0.56143699 </v>
   <v>       0.29511275       0.19338079       0.02680789 </v>
   <v>       0.25474469       0.21954192       0.67159354 </v>
   <v>      -1.41087792      -1.27347637      -0.25360563 </v>
   <v>       1.29443812       1.22577262       0.25575128 </v>
   <v>      -0.04447365      -0.13067823      -0.10692409 </v>
   <v>      -0.07321228       0.09536324       0.15549854 </v>
   <v>       0.52488755      -0.55148246      -0.05872558 </v>
   <v>       0.07505839       1.12862001      -0.36086673 </v>
   <v>      -0.21340183      -0.40953489       0.01999414 </v>
   <v>      -0.32008978       0.16983841      -1.13610961 </v>
   <v>       0.30295684       0.05610284      -0.11409231 </v>
   <v>       0.05093634      -0.99206506      -0.42837574 </v>
   <v>       0.59403497       0.60215277      -0.19627168 </v>
   <v>      -0.05713149      -0.12500786       0.06529385 </v>
   <v>      -0.12027613       0.27242826      -0.52721514 </v>
   <v>       0.70760649      -0.05761814      -0.78748616 </v>
   <v>       0.51126380      -0.28294431      -0.45078623 </v>
  </varray>
  <varray name="stress" >
   <v>       1.87582538       1.02438343      -0.30936716 </v>
   <v>       1.02438343       2.84721713       0.15541997 </v>
   <v>      -0.30936717       0.15541997       2.40818682 </v>
  </varray>
  <energy>
   <i name="e_fr_energy">    -52.93931887 </i>
   <i name="e_wo_entrp">    -52.93931887 </i>
   <i name="e_0_energy">     -0.00000000 </i>
  </energy>
  <time name="totalsc">   44.55   48.82</time>
 </calculation>
 <calculation>
  <scstep>
   <time name="dav">    2.60    2.61</time>
   <time name="total">    2.94    2.98</time>
   <energy>
    <i name="alphaZ">     79.32942070 </i>
    <i name="ewald">  54005.38665328 </i>
    <i name="hartreedc"> -80855.84205685 </i>
    <i name="XCdc">   -305.90443647 </i>
    <i name="pawpsdc">  29803.91326673 </i>
    <i name="pawaedc"> -28616.36034382 </i>
    <i name="eentropy">      0.00000000 </i>
    <i name="bandstr">  -2166.42680560 </i>
    <i name="atom">  28004.36301233 </i>
    <i name="e_fr_energy">    -51.54128969 </i>
    <i name="e_wo_entrp">    -51.54128969 </i>
    <i name="e_0_energy">    -51.54128969 </i>
   </energy>
  </scstep>
  <scstep>
   <time name="dav">    2.73    2.73</time>
   <time name="total">    3.07    3.29</time>
   <energy>
    <i name="e_fr_energy">    -52.94440504 </i>
    <i name="e_wo_entrp">    -52.94440504 </i>
    <i name="e_0_energy">    -52.94440504 </i>
   </energy>
  </scstep>
  <scstep>
   <time name="dav">    2.77    2.77</time>
   <time name="total">    3.11    3.13</time>
   <energy>
    <i name="e_fr_energy">    -52.93493383 </i>
    <i name="e_wo_entrp">    -52.93493383 </i>
    <i name="e_0_energy">    -52.93493383 </i>
   </energy>
  </scstep>
  <scstep>
   <time name="dav">    2.73    2.73</time>
   <time name="total">    3.07    3.07</time>
   <energy>
    <i name="e_fr_energy">    -52.90944036 </i>
    <i name="e_wo_entrp">    -52.90944036 </i>
    <i name="e_0_energy">    -52.90944036 </i>
   </energy>
  </scstep>
  <scstep>
   <time name="dav">    2.75    2.75</time>
   <time name="total">    3.09    3.11</time>
   <energy>
    <i name="e_fr_energy">    -52.90836975 </i>
    <i name="e_wo_entrp">    -52.90836975 </i>
    <i name="e_0_energy">    -52.90836975 </i>
   </energy>
  </scstep>
  <scstep>
   <time name="dav">    2.79    2.79</time>
   <time name="total">    3.13    3.15</time>
   <energy>
    <i name="e_fr_energy">    -52.91310240 </i>
    <i name="e_wo_entrp">    -52.91310240 </i>
    <i name="e_0_energy">    -52.91310240 </i>
   </energy>
  </scstep>
  <scstep>
   <time name="dav">    2.67    2.67</time>
   <time name="total">    3.02    3.02</time>
   <energy>
    <i name="e_fr_energy">    -52.91761710 </i>
    <i name="e_wo_entrp">    -52.91761710 </i>
    <i name="e_0_energy">    -52.91761710 </i>
   </energy>
  </scstep>
  <scstep>
   <time name="dav">    2.11    2.11</time>
   <time name="total">    2.45    2.47</time>
   <energy>
    <i name="e_fr_energy">    -52.92100233 </i>
    <i name="e_wo_entrp">    -52.92100233 </i>
    <i name="e_0_energy">    -52.92100233 </i>
   </energy>
  </scstep>
  <scstep>
   <time name="dav">    2.09    2.09</time>
   <time name="total">    2.43    2.44</time>
   <energy>
    <i name="e_fr_energy">    -52.92352640 </i>
    <i name="e_wo_entrp">    -52.92352640 </i>
    <i name="e_0_energy">    -52.92352640 </i>
   </energy>
  </scstep>
  <scstep>
   <time name="dav">    2.07    2.07</time>
   <time name="total">    2.41    9.12</time>
   <energy>
    <i name="e_fr_energy">    -52.92508270 </i>
    <i name="e_wo_entrp">    -52.92508270 </i>
    <i name="e_0_energy">    -52.92508270 </i>
   </energy>
  </scstep>
  <scstep>
   <time name="dav">    2.07    2.07</time>
   <time name="total">    2.41    2.43</time>
   <energy>
    <i name="e_fr_energy">    -52.92679501 </i>
    <i name="e_wo_entrp">    -52.92679501 </i>
    <i name="e_0_energy">    -52.92679501 </i>
   </energy>
  </scstep>
  <scstep>
   <time name="dav">    2.08    2.08</time>
   <time name="total">    2.42    2.42</time>
   <energy>
    <i name="e_fr_energy">    -52.92795183 </i>
    <i name="e_wo_entrp">    -52.92795183 </i>
    <i name="e_0_energy">    -52.92795183 </i>
   </energy>
  </scstep>
  <scstep>
   <time name="dav">    2.13    2.13</time>
   <time name="total">    2.47    4.77</time>
   <energy>
    <i name="e_fr_energy">    -52.92828810 </i>
    <i name="e_wo_entrp">    -52.92828810 </i>
    <i name="e_0_energy">    -52.92828810 </i>
   </energy>
  </scstep>
  <scstep>
   <time name="dav">    2.03    2.03</time>
   <time name="total">    2.37    2.40</time>
   <energy>
    <i name="e_fr_energy">    -52.92850704 </i>
    <i name="e_wo_entrp">    -52.92850704 </i>
    <i name="e_0_energy">    -52.92850704 </i>
   </energy>
  </scstep>
  <scstep>
   <time name="dav">    2.05    2.05</time>
   <time name="total">    2.28    2.31</time>
   <energy>
    <i name="alphaZ">     79.32942070 </i>
    <i name="ewald">  54005.38665328 </i>
    <i name="hartreedc"> -80877.92112699 </i>
    <i name="XCdc">   -305.30541203 </i>
    <i name="pawpsdc">  29410.05648213 </i>
    <i name="pawaedc"> -28215.69678894 </i>
    <i name="eentropy">      0.00000000 </i>
    <i name="bandstr">  -2153.14083281 </i>
    <i name="atom">  28004.36301233 </i>
    <i name="e_fr_energy">    -52.92859233 </i>
    <i name="e_wo_entrp">    -52.92859233 </i>
    <i name="e_0_energy">    -52.92859233 </i>
   </energy>
  </scstep>
  <structure>
   <crystal>
    <varray name="basis" >
     <v>      19.84582430       0.00000000       0.00000000 </v>
     <v>       0.00000000      19.84582430       0.00000000 </v>
     <v>       0.00000000       0.00000000      19.84582430 </v>
    </varray>
    <i name="volume">   7816.41170220 </i>
    <varray name="rec_basis" >
     <v>       0.05038843       0.00000000       0.00000000 </v>
     <v>       0.00000000       0.05038843       0.00000000 </v>
     <v>       0.00000000       0.00000000       0.05038843 </v>
    </varray>
   </crystal>
   <varray name="positions" >
    <v>       0.34155548       0.54208478       0.62381229 </v>
    <v>       0.46975201       0.50092262       0.68019629 </v>
    <v>       0.44502230       0.64055833       0.65694138 </v>
    <v>       0.39682119       0.42259972       0.58103681 </v>
    <v>       0.50227991       0.36320876       0.65634074 </v>
    <v>       0.57506405       0.58485795       0.63049718 </v>
    <v>       0.36147444       0.65735872       0.53162139 </v>
    <v>       0.34111195       0.51750243       0.47732298 </v>
    <v>       0.46035293       0.55373315       0.54356561 </v>
    <v>       0.53798237       0.46105872       0.55912808 </v>
    <v>       0.50816971       0.68641748       0.53632126 </v>
    <v>       0.61156221       0.45909253       0.68233676 </v>
    <v>       0.37860166       0.37856122       0.45075401 </v>
    <v>       0.64238189       0.63624087       0.52203660 </v>
    <v>       0.49687581       0.33210726       0.51670766 </v>
    <v>       0.43005143       0.61316993       0.41423867 </v>
    <v>       0.63058353       0.35294708       0.57804744 </v>
    <v>       0.56453223       0.67217767       0.40971643 </v>
    <v>       0.46624512       0.46337756       0.44848077 </v>
    <v>       0.41028897       0.47366693       0.32014704 </v>
    <v>       0.67431496       0.49610052       0.54967635 </v>
    <v>       0.49806076       0.34991833       0.37803891 </v>
    <v>       0.56747253       0.55158567       0.47411330 </v>
    <v>       0.61659089       0.40579800       0.44770321 </v>
    <v>       0.52296546       0.57938007       0.32158582 </v>
    <v>       0.67506374       0.55389316       0.38170138 </v>
    <v>       0.57255119       0.44930682       0.32659540 </v>
   </varray>
  </structure>
  <varray name="forces" >
   <v>       0.03549282       0.11809802       0.15711112 </v>
   <v>      -0.06887105      -0.02313451       0.18533601 </v>
   <v>      -0.07844345       0.09106733      -0.10361243 </v>
   <v>       0.06564632      -0.08747473       0.06051175 </v>
   <v>       0.15249991      -0.12237599       0.00248775 </v>
   <v>      -0.08416354       0.07709027       0.03772000 </v>
   <v>       0.16908911      -0.16148212       0.03181135 </v>
   <v>      -0.28090449       0.05277102       0.05965350 </v>
   <v>      -3.00376827       2.77263221       1.21408925 </v>
   <v>       1.93776922      -3.13120870       2.10144902 </v>
   <v>       0.03455464      -0.09268040       0.14658405 </v>
   <v>      -0.17143733      -0.03417029       0.00492685 </v>
   <v>      -1.72346672      -1.61461768      -0.26247458 </v>
   <v>       1.50666575       1.50596566       0.57778841 </v>
   <v>       0.00568899      -0.07354812       0.10000362 </v>
   <v>       0.04746185      -0.01266609       0.16357615 </v>
   <v>      -0.09926808       0.18534685       0.01792642 </v>
   <v>       0.04117826       0.50279268      -0.24636397 </v>
   <v>       1.03959926       0.72747343      -1.70124215 </v>
   <v>       0.58428100       0.27159856       0.21059238 </v>
   <v>       0.02221888      -0.02800005       0.08641007 </v>
   <v>       0.05204956      -0.40365132      -0.22821560 </v>
   <v>       0.58442654      -0.27713391      -2.60311304 </v>
   <v>      -0.14303735       0.03602990       0.10967715 </v>
   <v>       0.06415489      -0.46630693      -0.07457956 </v>
   <v>      -0.70546698      -0.28035353      -0.00108939 </v>
   <v>       0.01605026       0.46793845      -0.04696413 </v>
  </varray>
  <varray name="stress" >
   <v>      -0.17921683       0.60663282      -0.14146189 </v>
   <v>       0.60663282       0.92414736       0.03875702 </v>
   <v>      -0.14146189       0.03875703      -0.13459739 </v>
  </varray>
  <energy>
   <i name="e_fr_energy">    -52.92859233 </i>
   <i name="e_wo_entrp">    -52.92859233 </i>
   <i name="e_0_energy">      0.00000000 </i>
  </energy>
  <time name="totalsc">   45.43   55.97</time>
 </calculation>
 <calculation>
  <scstep>
   <time name="dav">    2.60    2.60</time>
   <time name="total">    2.94    2.95</time>
   <energy>
    <i name="alphaZ">     79.32942070 </i>
    <i name="ewald">  55122.62011760 </i>
    <i name="hartreedc"> -81991.01248422 </i>
    <i name="XCdc">   -303.97355894 </i>
    <i name="pawpsdc">  29410.06835506 </i>
    <i name="pawaedc"> -28215.70876773 </i>
    <i name="eentropy">      0.00000000 </i>
    <i name="bandstr">  -2158.78444781 </i>
    <i name="atom">  28004.36301233 </i>
    <i name="e_fr_energy">    -53.09835301 </i>
    <i name="e_wo_entrp">    -53.09835301 </i>
    <i name="e_0_energy">    -53.09835301 </i>
   </energy>
  </scstep>
  <scstep>
   <time name="dav">    2.71    2.71</time>
   <time name="total">    3.05    3.05</time>
   <energy>
    <i name="e_fr_energy">    -53.33124837 </i>
    <i name="e_wo_entrp">    -53.33124837 </i>
    <i name="e_0_energy">    -53.33124837 </i>
   </energy>
  </scstep>
  <scstep>
   <time name="dav">    2.77    2.77</time>
   <time name="total">    3.11    4.48</time>
   <energy>
    <i name="e_fr_energy">    -53.32590342 </i>
    <i name="e_wo_entrp">    -53.32590342 </i>
    <i name="e_0_energy">    -53.32590342 </i>
   </energy>
  </scstep>
  <scstep>
   <time name="dav">    2.75    2.75</time>
   <time name="total">    3.09    3.09</time>
   <energy>
    <i name="e_fr_energy">    -53.32281618 </i>
    <i name="e_wo_entrp">    -53.32281618 </i>
    <i name="e_0_energy">    -53.32281618 </i>
   </energy>
  </scstep>
  <scstep>
   <time name="dav">    2.77    2.77</time>
   <time name="total">    3.11    3.11</time>
   <energy>
    <i name="e_fr_energy">    -53.32299001 </i>
    <i name="e_wo_entrp">    -53.32299001 </i>
    <i name="e_0_energy">    -53.32299001 </i>
   </energy>
  </scstep>
  <scstep>
   <time name="dav">    2.45    2.45</time>
   <time name="total">    2.79    2.80</time>
   <energy>
    <i name="e_fr_energy">    -53.32309469 </i>
    <i name="e_wo_entrp">    -53.32309469 </i>
    <i name="e_0_energy">    -53.32309469 </i>
   </energy>
  </scstep>
  <scstep>
   <time name="dav">    1.99    1.99</time>
   <time name="total">    2.33    2.38</time>
   <energy>
    <i name="e_fr_energy">    -53.32323810 </i>
    <i name="e_wo_entrp">    -53.32323810 </i>
    <i name="e_0_energy">    -53.32323810 </i>
   </energy>
  </scstep>
  <scstep>
   <time name="dav">    2.03    2.03</time>
   <time name="total">    2.37    2.77</time>
   <energy>
    <i name="e_fr_energy">    -53.32338586 </i>
    <i name="e_wo_entrp">    -53.32338586 </i>
    <i name="e_0_energy">    -53.32338586 </i>
   </energy>
  </scstep>
  <scstep>
   <time name="dav">    2.01    2.01</time>
   <time name="total">    2.24    2.27</time>
   <energy>
    <i name="alphaZ">     79.32942070 </i>
    <i name="ewald">  55122.62011760 </i>
    <i name="hartreedc"> -81980.67031580 </i>
    <i name="XCdc">   -304.29655233 </i>
    <i name="pawpsdc">  29546.28562454 </i>
    <i name="pawaedc"> -28354.52086376 </i>
    <i name="eentropy">      0.00000000 </i>
    <i name="bandstr">  -2166.43391005 </i>
    <i name="atom">  28004.36301233 </i>
    <i name="e_fr_energy">    -53.32346677 </i>
    <i name="e_wo_entrp">    -53.32346677 </i>
    <i name="e_0_energy">    -53.32346677 </i>
   </energy>
  </scstep>
  <structure>
   <crystal>
    <varray name="basis" >
     <v>      19.84582430       0.00000000       0.00000000 </v>
     <v>       0.00000000      19.84582430       0.00000000 </v>
     <v>       0.00000000       0.00000000      19.84582430 </v>
    </varray>
    <i name="volume">   7816.41170220 </i>
    <varray name="rec_basis" >
     <v>       0.05038843       0.00000000       0.00000000 </v>
     <v>       0.00000000       0.05038843       0.00000000 </v>
     <v>       0.00000000       0.00000000       0.05038843 </v>
    </varray>
   </crystal>
   <varray name="positions" >
    <v>       0.34293853       0.54293159       0.62256224 </v>
    <v>       0.46996889       0.50097939       0.67955999 </v>
    <v>       0.44496387       0.63919489       0.65503390 </v>
    <v>       0.39681209       0.42257858       0.58062680 </v>
    <v>       0.50310818       0.36470065       0.65479385 </v>
    <v>       0.57524922       0.58484482       0.62989971 </v>
    <v>       0.36301817       0.65535646       0.53239883 </v>
    <v>       0.34167052       0.51778228       0.47769340 </v>
    <v>       0.45890694       0.55513476       0.54399203 </v>
    <v>       0.53960181       0.46006429       0.56013218 </v>
    <v>       0.50757650       0.68582590       0.53648686 </v>
    <v>       0.61070171       0.45839044       0.68045030 </v>
    <v>       0.38027071       0.38000579       0.45125127 </v>
    <v>       0.64075319       0.63477259       0.52179958 </v>
    <v>       0.49709211       0.33244892       0.51705731 </v>
    <v>       0.43022898       0.61282347       0.41410840 </v>
    <v>       0.62884650       0.35493086       0.57827706 </v>
    <v>       0.56445507       0.67008776       0.41026606 </v>
    <v>       0.46880102       0.46612823       0.44573656 </v>
    <v>       0.41264455       0.47357640       0.32428340 </v>
    <v>       0.67359220       0.49583775       0.54981248 </v>
    <v>       0.49789105       0.35195913       0.37873754 </v>
    <v>       0.56665551       0.54902787       0.47039139 </v>
    <v>       0.61651908       0.40618259       0.44760234 </v>
    <v>       0.52379899       0.57732994       0.32311252 </v>
    <v>       0.67060153       0.55349836       0.38483756 </v>
    <v>       0.57106178       0.45123255       0.32776020 </v>
   </varray>
  </structure>
  <varray name="forces" >
   <v>      -0.16051624       0.01583975       0.30951497 </v>
   <v>      -0.08882087      -0.02621070       0.23300529 </v>
   <v>      -0.06698092       0.26914883       0.15320628 </v>
   <v>       0.09278473      -0.04146606       0.08358641 </v>
   <v>       0.02171663      -0.32392113       0.21398573 </v>
   <v>      -0.12737399       0.06277362       0.09512511 </v>
   <v>      -0.05604023       0.09825702      -0.05255017 </v>
   <v>      -0.30722808      -0.03687143      -0.01754615 </v>
   <v>      -1.86095567       1.74053537       0.90582776 </v>
   <v>       1.06224135      -2.06746899       1.44157294 </v>
   <v>       0.13600044       0.03048608       0.08438966 </v>
   <v>      -0.02693258       0.02671766       0.25634225 </v>
   <v>      -1.56857560      -1.42711503      -0.26090692 </v>
   <v>       1.38568021       1.34887197       0.47282187 </v>
   <v>      -0.03483873      -0.10966043       0.00468907 </v>
   <v>      -0.00422474       0.04370807       0.13985254 </v>
   <v>       0.12831501      -0.08090995       0.01328535 </v>
   <v>       0.05971890       0.76820242      -0.28663652 </v>
   <v>       0.59756156       0.34115495      -1.03581236 </v>
   <v>       0.33999111       0.26026079      -0.21666882 </v>
   <v>       0.13685161       0.04531086       0.03152858 </v>
   <v>       0.05836539      -0.67476674      -0.30458048 </v>
   <v>       0.52568037      -0.01170442      -1.72771617 </v>
   <v>      -0.09633807      -0.02204832       0.09313744 </v>
   <v>      -0.02077760      -0.24214044      -0.21001638 </v>
   <v>      -0.28895523      -0.22276390      -0.26631308 </v>
   <v>       0.16365126       0.23578012      -0.15312418 </v>
  </varray>
  <varray name="stress" >
   <v>       0.36350244       0.71335509      -0.18343966 </v>
   <v>       0.71335509       1.55328982       0.06924497 </v>
   <v>      -0.18343963       0.06924498       0.72387033 </v>
  </varray>
  <energy>
   <i name="e_fr_energy">    -53.32346677 </i>
   <i name="e_wo_entrp">    -53.32346677 </i>
   <i name="e_0_energy">      0.00000000 </i>
  </energy>
  <time name="totalsc">   29.77   31.66</time>
 </calculation>
 <calculation>
  <scstep>
   <time name="dav">    2.61    2.61</time>
   <time name="total">    2.94    2.96</time>
   <energy>
    <i name="alphaZ">     79.32942070 </i>
    <i name="ewald">  54424.18120017 </i>
    <i name="hartreedc"> -81287.21166025 </i>
    <i name="XCdc">   -305.16566924 </i>
    <i name="pawpsdc">  29546.17763438 </i>
    <i name="pawaedc"> -28354.41275912 </i>
    <i name="eentropy">      0.00000000 </i>
    <i name="bandstr">  -2161.05918776 </i>
    <i name="atom">  28004.36301233 </i>
    <i name="e_fr_energy">    -53.79800878 </i>
    <i name="e_wo_entrp">    -53.79800878 </i>
    <i name="e_0_energy">    -53.79800878 </i>
   </energy>
  </scstep>
  <scstep>
   <time name="dav">    2.71    2.71</time>
   <time name="total">    3.05    3.05</time>
   <energy>
    <i name="e_fr_energy">    -53.85451064 </i>
    <i name="e_wo_entrp">    -53.85451064 </i>
    <i name="e_0_energy">    -53.85451064 </i>
   </energy>
  </scstep>
  <scstep>
   <time name="dav">    2.70    2.71</time>
   <time name="total">    3.04    3.11</time>
   <energy>
    <i name="e_fr_energy">    -53.85189302 </i>
    <i name="e_wo_entrp">    -53.85189302 </i>
    <i name="e_0_energy">    -53.85189302 </i>
   </energy>
  </scstep>
  <scstep>
   <time name="dav">    2.77    2.77</time>
   <time name="total">    3.11    3.19</time>
   <energy>
    <i name="e_fr_energy">    -53.85164665 </i>
    <i name="e_wo_entrp">    -53.85164665 </i>
    <i name="e_0_energy">    -53.85164665 </i>
   </energy>
  </scstep>
  <scstep>
   <time name="dav">    2.71    2.71</time>
   <time name="total">    3.05    3.17</time>
   <energy>
    <i name="e_fr_energy">    -53.85136067 </i>
    <i name="e_wo_entrp">    -53.85136067 </i>
    <i name="e_0_energy">    -53.85136067 </i>
   </energy>
  </scstep>
  <scstep>
   <time name="dav">    2.07    2.07</time>
   <time name="total">    2.30    2.31</time>
   <energy>
    <i name="alphaZ">     79.32942070 </i>
    <i name="ewald">  54424.18120017 </i>
    <i name="hartreedc"> -81294.09215014 </i>
    <i name="XCdc">   -305.01975785 </i>
    <i name="pawpsdc">  29413.16185333 </i>
    <i name="pawaedc"> -28219.39322148 </i>
    <i name="eentropy">      0.00000000 </i>
    <i name="bandstr">  -2156.38173911 </i>
    <i name="atom">  28004.36301233 </i>
    <i name="e_fr_energy">    -53.85138205 </i>
    <i name="e_wo_entrp">    -53.85138205 </i>
    <i name="e_0_energy">    -53.85138205 </i>
   </energy>
  </scstep>
  <structure>
   <crystal>
    <varray name="basis" >
     <v>      19.84582430       0.00000000       0.00000000 </v>
     <v>       0.00000000      19.84582430       0.00000000 </v>
     <v>       0.00000000       0.00000000      19.84582430 </v>
    </varray>
    <i name="volume">   7816.41170220 </i>
    <varray name="rec_basis" >
     <v>       0.05038843       0.00000000       0.00000000 </v>
     <v>       0.00000000       0.05038843       0.00000000 </v>
     <v>       0.00000000       0.00000000       0.05038843 </v>
    </varray>
   </crystal>
   <varray name="positions" >
    <v>       0.34236024       0.54270321       0.62326602 </v>
    <v>       0.46980811       0.50093404       0.68000133 </v>
    <v>       0.44490706       0.63988712       0.65575638 </v>
    <v>       0.39691692       0.42253905       0.58083788 </v>
    <v>       0.50289165       0.36391080       0.65547858 </v>
    <v>       0.57505518       0.58491777       0.63017792 </v>
    <v>       0.36250830       0.65604593       0.53211526 </v>
    <v>       0.34117000       0.51766043       0.47756654 </v>
    <v>       0.45727715       0.55664481       0.54486588 </v>
    <v>       0.54030158       0.45807596       0.56142836 </v>
    <v>       0.50789849       0.68603121       0.53653173 </v>
    <v>       0.61092185       0.45862368       0.68128027 </v>
    <v>       0.37805863       0.37801468       0.45081956 </v>
    <v>       0.64275213       0.63668441       0.52238913 </v>
    <v>       0.49699095       0.33222896       0.51696097 </v>
    <v>       0.43017278       0.61297218       0.41430025 </v>
    <v>       0.62949208       0.35426585       0.57822504 </v>
    <v>       0.56454324       0.67154053       0.40979082 </v>
    <v>       0.46871717       0.46570544       0.44539241 </v>
    <v>       0.41233517       0.47388932       0.32284398 </v>
    <v>       0.67395274       0.49596394       0.54980768 </v>
    <v>       0.49800459       0.35062352       0.37819928 </v>
    <v>       0.56747165       0.54975752       0.46956904 </v>
    <v>       0.61643383       0.40604666       0.44773420 </v>
    <v>       0.52353413       0.57765841       0.32243801 </v>
    <v>       0.67157868       0.55336763       0.38363382 </v>
    <v>       0.57167440       0.45093318       0.32725342 </v>
   </varray>
  </structure>
  <varray name="forces" >
   <v>      -0.15313900       0.03471422       0.28172984 </v>
   <v>      -0.07063497      -0.02133821       0.16796872 </v>
   <v>      -0.07244014       0.24322240       0.13316086 </v>
   <v>       0.10687352      -0.03056354      -0.02780124 </v>
   <v>       0.02637223      -0.30406865       0.20328045 </v>
   <v>      -0.11061509       0.05147922      -0.04077160 </v>
   <v>      -0.06843711       0.10263404      -0.02931179 </v>
   <v>      -0.23581718      -0.08422331      -0.00215862 </v>
   <v>      -1.09657534       0.99455189       0.64910577 </v>
   <v>       0.63562229      -1.15749238       0.91950356 </v>
   <v>       0.16531041       0.00299993       0.07856892 </v>
   <v>      -0.02919131       0.00863722       0.22963939 </v>
   <v>      -1.08927888      -1.01025029      -0.19958402 </v>
   <v>       1.02648249       1.00668509       0.34183247 </v>
   <v>      -0.07805987      -0.09222397      -0.02626536 </v>
   <v>       0.04830355       0.01134158       0.12923165 </v>
   <v>       0.13282489      -0.08417887       0.03926635 </v>
   <v>       0.05097196       0.61299052      -0.23438867 </v>
   <v>       0.39074652       0.19026688      -0.79722003 </v>
   <v>       0.39773125       0.25330596      -0.09818687 </v>
   <v>       0.05820176       0.08387193       0.02135170 </v>
   <v>       0.03217939      -0.49605901      -0.23355690 </v>
   <v>       0.30590400      -0.07921824      -1.17120234 </v>
   <v>      -0.13193837       0.00678432       0.07427966 </v>
   <v>       0.00251683      -0.24582221      -0.10664306 </v>
   <v>      -0.34063138      -0.22973329      -0.22574998 </v>
   <v>       0.09671754       0.23168678      -0.07607886 </v>
  </varray>
  <varray name="stress" >
   <v>      -0.48049346       0.61339180      -0.17719522 </v>
   <v>       0.61339181       0.62041731       0.07985719 </v>
   <v>      -0.17719522       0.07985719      -0.05480169 </v>
  </varray>
  <energy>
   <i name="e_fr_energy">    -53.85138205 </i>
   <i name="e_wo_entrp">    -53.85138205 </i>
   <i name="e_0_energy">      0.00000000 </i>
  </energy>
  <time name="totalsc">   22.25   23.58</time>
 </calculation>
 <calculation>
  <scstep>
   <time name="dav">    2.61    2.61</time>
   <time name="total">    2.94    2.96</time>
   <energy>
    <i name="alphaZ">     79.32942070 </i>
    <i name="ewald">  52386.77498614 </i>
    <i name="hartreedc"> -79269.27719554 </i>
    <i name="XCdc">   -307.31614146 </i>
    <i name="pawpsdc">  29412.21489178 </i>
    <i name="pawaedc"> -28218.44150079 </i>
    <i name="eentropy">      0.00000000 </i>
    <i name="bandstr">  -2141.54370891 </i>
    <i name="atom">  28004.36301233 </i>
    <i name="e_fr_energy">    -53.89623574 </i>
    <i name="e_wo_entrp">    -53.89623574 </i>
    <i name="e_0_energy">    -53.89623574 </i>
   </energy>
  </scstep>
  <scstep>
   <time name="dav">    2.73    2.73</time>
   <time name="total">    3.07    3.07</time>
   <energy>
    <i name="e_fr_energy">    -54.46426350 </i>
    <i name="e_wo_entrp">    -54.46426350 </i>
    <i name="e_0_energy">    -54.46426350 </i>
   </energy>
  </scstep>
  <scstep>
   <time name="dav">    2.67    2.67</time>
   <time name="total">    3.01    3.02</time>
   <energy>
    <i name="e_fr_energy">    -54.45335497 </i>
    <i name="e_wo_entrp">    -54.45335497 </i>
    <i name="e_0_energy">    -54.45335497 </i>
   </energy>
  </scstep>
  <scstep>
   <time name="dav">    2.77    2.77</time>
   <time name="total">    3.11    3.14</time>
   <energy>
    <i name="e_fr_energy">    -54.44254216 </i>
    <i name="e_wo_entrp">    -54.44254216 </i>
    <i name="e_0_energy">    -54.44254216 </i>
   </energy>
  </scstep>
  <scstep>
   <time name="dav">    2.66    2.67</time>
   <time name="total">    3.00    3.03</time>
   <energy>
    <i name="e_fr_energy">    -54.44245505 </i>
    <i name="e_wo_entrp">    -54.44245505 </i>
    <i name="e_0_energy">    -54.44245505 </i>
   </energy>
  </scstep>
  <scstep>
   <time name="dav">    2.75    2.75</time>
   <time name="total">    2.99    3.00</time>
   <energy>
    <i name="alphaZ">     79.32942070 </i>
    <i name="ewald">  52386.77498614 </i>
    <i name="hartreedc"> -79287.68489861 </i>
    <i name="XCdc">   -306.91328532 </i>
    <i name="pawpsdc">  29108.07284933 </i>
    <i name="pawaedc"> -27909.26409482 </i>
    <i name="eentropy">      0.00000000 </i>
    <i name="bandstr">  -2129.12043657 </i>
    <i name="atom">  28004.36301233 </i>
    <i name="e_fr_energy">    -54.44244681 </i>
    <i name="e_wo_entrp">    -54.44244681 </i>
    <i name="e_0_energy">    -54.44244681 </i>
   </energy>
  </scstep>
  <structure>
   <crystal>
    <varray name="basis" >
     <v>      19.84582430       0.00000000       0.00000000 </v>
     <v>       0.00000000      19.84582430       0.00000000 </v>
     <v>       0.00000000       0.00000000      19.84582430 </v>
    </varray>
    <i name="volume">   7816.41170220 </i>
    <varray name="rec_basis" >
     <v>       0.05038843       0.00000000       0.00000000 </v>
     <v>       0.00000000       0.05038843       0.00000000 </v>
     <v>       0.00000000       0.00000000       0.05038843 </v>
    </varray>
   </crystal>
   <varray name="positions" >
    <v>       0.34062538       0.54201805       0.62537735 </v>
    <v>       0.46932576       0.50079800       0.68132534 </v>
    <v>       0.44473664       0.64196383       0.65792381 </v>
    <v>       0.39723142       0.42242045       0.58147114 </v>
    <v>       0.50224206       0.36154126       0.65753280 </v>
    <v>       0.57447306       0.58513661       0.63101256 </v>
    <v>       0.36097870       0.65811436       0.53126455 </v>
    <v>       0.33966844       0.51729489       0.47718597 </v>
    <v>       0.45238778       0.56117496       0.54748740 </v>
    <v>       0.54240091       0.45211099       0.56531692 </v>
    <v>       0.50886448       0.68664715       0.53666633 </v>
    <v>       0.61158228       0.45932341       0.68377016 </v>
    <v>       0.37142239       0.37204133       0.44952445 </v>
    <v>       0.64874893       0.64241989       0.52415778 </v>
    <v>       0.49668746       0.33156908       0.51667196 </v>
    <v>       0.43000419       0.61341833       0.41487578 </v>
    <v>       0.63142882       0.35227084       0.57806896 </v>
    <v>       0.56480775       0.67589882       0.40836508 </v>
    <v>       0.46846560       0.46443706       0.44435998 </v>
    <v>       0.41140703       0.47482808       0.31852572 </v>
    <v>       0.67503436       0.49634250       0.54979331 </v>
    <v>       0.49834524       0.34661672       0.37658448 </v>
    <v>       0.56992007       0.55194644       0.46710201 </v>
    <v>       0.61617806       0.40563886       0.44812978 </v>
    <v>       0.52273956       0.57864383       0.32041450 </v>
    <v>       0.67451011       0.55297544       0.38002259 </v>
    <v>       0.57351224       0.45003509       0.32573306 </v>
   </varray>
  </structure>
  <varray name="forces" >
   <v>      -0.14292706       0.05973996       0.22549849 </v>
   <v>      -0.01968509      -0.00955032      -0.00973369 </v>
   <v>      -0.06730686       0.18535180       0.09744774 </v>
   <v>       0.14365014      -0.00011098      -0.28339036 </v>
   <v>       0.00932746      -0.27342973       0.20484688 </v>
   <v>      -0.06543794       0.01839772      -0.35244626 </v>
   <v>      -0.16843622       0.17955246      -0.00058479 </v>
   <v>      -0.04000038      -0.20082387       0.04401494 </v>
   <v>       0.24882557      -0.39068901       0.10758448 </v>
   <v>      -0.06469678       0.52600597      -0.05146503 </v>
   <v>       0.25466110      -0.06877257       0.05470982 </v>
   <v>      -0.03437743      -0.02085739       0.17508536 </v>
   <v>      -0.08966495      -0.15944017      -0.00070180 </v>
   <v>       0.20633075       0.27484225       0.09210082 </v>
   <v>      -0.20460139      -0.07566798      -0.12430370 </v>
   <v>       0.19349701      -0.07535675       0.10046319 </v>
   <v>       0.21160003      -0.15506444       0.09474080 </v>
   <v>       0.01328849       0.21851405      -0.11321613 </v>
   <v>       0.03122642      -0.05296136      -0.32783069 </v>
   <v>       0.53194010       0.24524806       0.16383418 </v>
   <v>      -0.16350542       0.17773061       0.00409786 </v>
   <v>      -0.00263477      -0.07380741      -0.05351755 </v>
   <v>      -0.03808249      -0.12695728      -0.20655092 </v>
   <v>      -0.24166546       0.08538249       0.02961085 </v>
   <v>       0.04349851      -0.24991564       0.14125832 </v>
   <v>      -0.47032780      -0.26244228      -0.13860461 </v>
   <v>      -0.07449554       0.22508180       0.12705179 </v>
  </varray>
  <varray name="stress" >
   <v>      -2.31728815       0.28251063      -0.18630222 </v>
   <v>       0.28251063      -1.40328413       0.03399806 </v>
   <v>      -0.18630223       0.03399806      -1.81873064 </v>
  </varray>
  <energy>
   <i name="e_fr_energy">    -54.44244681 </i>
   <i name="e_wo_entrp">    -54.44244681 </i>
   <i name="e_0_energy">      0.00000000 </i>
  </energy>
  <time name="totalsc">   22.89   23.06</time>
 </calculation>
 <calculation>
  <scstep>
   <time name="dav">    2.60    2.61</time>
   <time name="total">    2.94    2.96</time>
   <energy>
    <i name="alphaZ">     79.32942070 </i>
    <i name="ewald">  52318.28028284 </i>
    <i name="hartreedc"> -79220.40255621 </i>
    <i name="XCdc">   -307.02907547 </i>
    <i name="pawpsdc">  29102.54896550 </i>
    <i name="pawaedc"> -27903.70867558 </i>
    <i name="eentropy">      0.00000000 </i>
    <i name="bandstr">  -2127.89982715 </i>
    <i name="atom">  28004.36301233 </i>
    <i name="e_fr_energy">    -54.51845303 </i>
    <i name="e_wo_entrp">    -54.51845303 </i>
    <i name="e_0_energy">    -54.51845303 </i>
   </energy>
  </scstep>
  <scstep>
[...]
       <r>    -0.4090     0.0000   170.0000 </r>
       <r>    -0.3687     0.0000   170.0000 </r>
       <r>    -0.3285     0.0000   170.0000 </r>
       <r>    -0.2882     0.0000   170.0000 </r>
       <r>    -0.2480     0.0000   170.0000 </r>
       <r>    -0.2078     0.0000   170.0000 </r>
       <r>    -0.1675     0.0000   170.0000 </r>
       <r>    -0.1273     0.0000   170.0000 </r>
       <r>    -0.0870     0.0000   170.0000 </r>
       <r>    -0.0468     0.0000   170.0000 </r>
       <r>    -0.0065     0.0000   170.0000 </r>
       <r>     0.0337     0.0000   171.0000 </r>
       <r>     0.0740     0.0000   172.0000 </r>
       <r>     0.1142     0.0000   172.0000 </r>
       <r>     0.1544     0.0000   172.0000 </r>
       <r>     0.1947     0.0000   173.0000 </r>
       <r>     0.2349     0.0000   174.0000 </r>
       <r>     0.2752     0.0000   175.0000 </r>
       <r>     0.3154     0.0000   175.0000 </r>
       <r>     0.3557     0.0000   175.0000 </r>
       <r>     0.3959     0.0000   175.0000 </r>
       <r>     0.4362     0.0000   175.0000 </r>
       <r>     0.4764     0.0000   175.0000 </r>
       <r>     0.5166     0.0000   176.0000 </r>
       <r>     0.5569     0.0000   176.0000 </r>
       <r>     0.5971     0.0000   177.0000 </r>
       <r>     0.6374     0.0000   177.0000 </r>
       <r>     0.6776     0.0000   178.0000 </r>
       <r>     0.7179     0.0000   178.0000 </r>
       <r>     0.7581     0.0000   179.0000 </r>
       <r>     0.7983     0.0000   180.0000 </r>
       <r>     0.8386     0.0000   180.0000 </r>
       <r>     0.8788     0.0000   181.0000 </r>
       <r>     0.9191     0.0000   183.0000 </r>
       <r>     0.9593     0.0000   184.0000 </r>
       <r>     0.9996    24.8485   186.0000 </r>
       <r>     1.0398     0.0000   186.0000 </r>
       <r>     1.0801     0.0000   186.0000 </r>
       <r>     1.1203     0.3361   186.0135 </r>
       <r>     1.1605     0.0000   188.0000 </r>
       <r>     1.2008     0.0000   189.0000 </r>
       <r>     1.2410     0.0000   189.0000 </r>
       <r>     1.2813     0.0000   192.0000 </r>
       <r>     1.3215     0.0000   192.0000 </r>
       <r>     1.3618     0.0000   192.0000 </r>
       <r>     1.4020     0.0000   192.0000 </r>
       <r>     1.4422     0.0000   192.0000 </r>
       <r>     1.4825     0.0000   192.0000 </r>
       <r>     1.5227     0.0000   192.0000 </r>
       <r>     1.5630     0.0000   192.0000 </r>
       <r>     1.6032     0.0000   192.0000 </r>
       <r>     1.6435     0.0000   192.0000 </r>
       <r>     1.6837     0.0000   192.0000 </r>
       <r>     1.7240     0.0000   192.0000 </r>
       <r>     1.7642     0.0000   192.0000 </r>
       <r>     1.8044     0.0000   192.0000 </r>
       <r>     1.8447     0.0000   192.0000 </r>
      </set>
      <set comment="spin 2">
       <r>   -10.2285     0.0000     0.0000 </r>
       <r>   -10.1882     0.0000     0.0000 </r>
       <r>   -10.1480     0.0000     0.0000 </r>
       <r>   -10.1077     0.0000     0.0000 </r>
       <r>   -10.0675     0.0000     0.0000 </r>
       <r>   -10.0272     0.0000     0.0000 </r>
       <r>    -9.9870     0.0000     0.0000 </r>
       <r>    -9.9468     0.0000     0.0000 </r>
       <r>    -9.9065     0.0000     0.0000 </r>
       <r>    -9.8663     0.0000     0.0000 </r>
       <r>    -9.8260     0.0000     0.0000 </r>
       <r>    -9.7858     0.0000     0.0000 </r>
       <r>    -9.7455     0.0000     0.0000 </r>
       <r>    -9.7053     0.0000     0.0000 </r>
       <r>    -9.6650     0.0000     1.0000 </r>
       <r>    -9.6248     0.0000     1.0000 </r>
       <r>    -9.5846     0.0000     1.0000 </r>
       <r>    -9.5443     0.0000     1.0000 </r>
       <r>    -9.5041     0.0000     1.0000 </r>
       <r>    -9.4638     0.0000     1.0000 </r>
       <r>    -9.4236     0.0000     1.0000 </r>
       <r>    -9.3833     0.0000     1.0000 </r>
       <r>    -9.3431     0.0000     1.0000 </r>
       <r>    -9.3029     0.0000     1.0000 </r>
       <r>    -9.2626     0.0000     1.0000 </r>
       <r>    -9.2224     0.0000     1.0000 </r>
       <r>    -9.1821     0.0000     2.0000 </r>
       <r>    -9.1419     0.0000     4.0000 </r>
       <r>    -9.1016     0.0000     5.0000 </r>
       <r>    -9.0614     0.0000     5.0000 </r>
       <r>    -9.0211     0.0000     7.0000 </r>
       <r>    -8.9809     0.0000     7.0000 </r>
       <r>    -8.9407     0.0000     7.0000 </r>
       <r>    -8.9004     0.0000     7.0000 </r>
       <r>    -8.8602     0.0000     9.0000 </r>
       <r>    -8.8199     0.0000     9.0000 </r>
       <r>    -8.7797     0.0000    10.0000 </r>
       <r>    -8.7394     0.0000    10.0000 </r>
       <r>    -8.6992     0.0000    10.0000 </r>
       <r>    -8.6590     0.0000    10.0000 </r>
       <r>    -8.6187     0.0000    12.0000 </r>
       <r>    -8.5785     0.0000    14.0000 </r>
       <r>    -8.5382    24.8485    16.0000 </r>
       <r>    -8.4980     0.0000    16.0000 </r>
       <r>    -8.4577     0.0000    17.0000 </r>
       <r>    -8.4175     0.0000    17.0000 </r>
       <r>    -8.3772     0.0000    18.0000 </r>
       <r>    -8.3370     0.0000    19.0000 </r>
       <r>    -8.2968    24.8485    22.0000 </r>
       <r>    -8.2565     0.0000    24.0000 </r>
       <r>    -8.2163     0.0000    26.0000 </r>
       <r>    -8.1760     0.0000    27.0000 </r>
       <r>    -8.1358     0.0000    29.0000 </r>
       <r>    -8.0955     0.0000    31.0000 </r>
       <r>    -8.0553     0.0000    32.0000 </r>
       <r>    -8.0151    24.8485    34.0000 </r>
       <r>    -7.9748     0.0000    35.0000 </r>
       <r>    -7.9346     0.0000    36.0000 </r>
       <r>    -7.8943     0.0000    38.0000 </r>
       <r>    -7.8541     0.0000    39.0000 </r>
       <r>    -7.8138     0.0000    41.0000 </r>
       <r>    -7.7736     0.0000    42.0000 </r>
       <r>    -7.7333     0.0000    43.0000 </r>
       <r>    -7.6931     0.0000    46.0000 </r>
       <r>    -7.6529     0.0000    47.0000 </r>
       <r>    -7.6126     0.0000    49.0000 </r>
       <r>    -7.5724     0.0000    51.0000 </r>
       <r>    -7.5321     0.0000    52.0000 </r>
       <r>    -7.4919     0.0000    55.0000 </r>
       <r>    -7.4516     0.0000    56.0000 </r>
       <r>    -7.4114     0.0000    59.0000 </r>
       <r>    -7.3711     0.0000    60.0000 </r>
       <r>    -7.3309     0.0000    62.0000 </r>
       <r>    -7.2907     0.0000    64.0000 </r>
       <r>    -7.2504     0.0000    67.0000 </r>
       <r>    -7.2102     0.0000    69.0000 </r>
       <r>    -7.1699     0.0000    72.0000 </r>
       <r>    -7.1297     0.0000    73.0000 </r>
       <r>    -7.0894     0.0000    75.0000 </r>
       <r>    -7.0492     0.0000    76.0000 </r>
       <r>    -7.0090     0.0000    77.0000 </r>
       <r>    -6.9687     0.0000    79.0000 </r>
       <r>    -6.9285     0.0000    82.0000 </r>
       <r>    -6.8882     0.0000    82.0000 </r>
       <r>    -6.8480     0.0000    86.0000 </r>
       <r>    -6.8077     0.0000    88.0000 </r>
       <r>    -6.7675     0.0000    92.0000 </r>
       <r>    -6.7272     0.0000    94.0000 </r>
       <r>    -6.6870     0.0000    99.0000 </r>
       <r>    -6.6468     0.0000   102.0000 </r>
       <r>    -6.6065     0.0000   103.0000 </r>
       <r>    -6.5663     0.0000   105.0000 </r>
       <r>    -6.5260     0.0000   109.0000 </r>
       <r>    -6.4858     0.0000   112.0000 </r>
       <r>    -6.4455     0.0000   115.0000 </r>
       <r>    -6.4053     0.0000   119.0000 </r>
       <r>    -6.3651     0.0000   121.0000 </r>
       <r>    -6.3248     0.0000   124.0000 </r>
       <r>    -6.2846     0.0000   126.0000 </r>
       <r>    -6.2443     0.0000   129.0000 </r>
       <r>    -6.2041     0.0000   131.0000 </r>
       <r>    -6.1638     0.0000   134.0000 </r>
       <r>    -6.1236     0.0000   136.0000 </r>
       <r>    -6.0833     0.0000   136.0000 </r>
       <r>    -6.0431     0.0000   138.0000 </r>
       <r>    -6.0029     0.0000   139.0000 </r>
       <r>    -5.9626     0.0000   139.0000 </r>
       <r>    -5.9224     0.0000   139.0000 </r>
       <r>    -5.8821     0.0000   139.0000 </r>
       <r>    -5.8419     0.0000   139.0000 </r>
       <r>    -5.8016     0.0000   139.0000 </r>
       <r>    -5.7614     0.0000   139.0000 </r>
       <r>    -5.7212     0.0000   139.0000 </r>
       <r>    -5.6809     0.0000   139.0000 </r>
       <r>    -5.6407     0.0000   139.0000 </r>
       <r>    -5.6004     0.0000   139.0000 </r>
       <r>    -5.5602     0.0000   139.0000 </r>
       <r>    -5.5199     0.0000   139.0000 </r>
       <r>    -5.4797     0.0000   139.0000 </r>
       <r>    -5.4394     0.0000   139.0000 </r>
       <r>    -5.3992     0.0000   139.0000 </r>
       <r>    -5.3590     0.0000   139.0000 </r>
       <r>    -5.3187     0.0000   139.0000 </r>
       <r>    -5.2785     0.0000   139.0000 </r>
       <r>    -5.2382     0.0000   140.0000 </r>
       <r>    -5.1980     0.0000   140.0000 </r>
       <r>    -5.1577     0.0000   141.0000 </r>
       <r>    -5.1175     0.0000   141.0000 </r>
       <r>    -5.0773     0.0000   141.0000 </r>
       <r>    -5.0370     0.0000   141.0000 </r>
       <r>    -4.9968     0.0000   141.0000 </r>
       <r>    -4.9565     0.0000   142.0000 </r>
       <r>    -4.9163     0.0000   142.0000 </r>
       <r>    -4.8760     0.0000   142.0000 </r>
       <r>    -4.8358     0.0000   143.0000 </r>
       <r>    -4.7955     0.0000   144.0000 </r>
       <r>    -4.7553     0.0000   144.0000 </r>
       <r>    -4.7151     0.0000   144.0000 </r>
       <r>    -4.6748     0.0000   144.0000 </r>
       <r>    -4.6346     0.0000   144.0000 </r>
       <r>    -4.5943     0.0000   144.0000 </r>
       <r>    -4.5541     0.0000   144.0000 </r>
       <r>    -4.5138     0.0000   144.0000 </r>
       <r>    -4.4736     0.0000   144.0000 </r>
       <r>    -4.4334     0.0000   144.0000 </r>
       <r>    -4.3931     0.0000   144.0000 </r>
       <r>    -4.3529     0.0000   144.0000 </r>
       <r>    -4.3126    24.8485   145.0000 </r>
       <r>    -4.2724     0.0000   145.0000 </r>
       <r>    -4.2321     0.0000   145.0000 </r>
       <r>    -4.1919     0.0000   145.0000 </r>
       <r>    -4.1516     0.0000   145.0000 </r>
       <r>    -4.1114     0.0000   145.0000 </r>
       <r>    -4.0712     0.0000   145.0000 </r>
       <r>    -4.0309     0.0000   145.0000 </r>
       <r>    -3.9907     0.0000   145.0000 </r>
       <r>    -3.9504     0.0000   145.0000 </r>
       <r>    -3.9102     0.0000   145.0000 </r>
       <r>    -3.8699     0.0000   145.0000 </r>
       <r>    -3.8297     0.0000   145.0000 </r>
       <r>    -3.7895     0.0000   145.0000 </r>
       <r>    -3.7492     0.0000   145.0000 </r>
       <r>    -3.7090     0.0000   145.0000 </r>
       <r>    -3.6687     0.0000   145.0000 </r>
       <r>    -3.6285     0.0000   145.0000 </r>
       <r>    -3.5882     0.0000   146.0000 </r>
       <r>    -3.5480     0.0000   146.0000 </r>
       <r>    -3.5077     0.0000   147.0000 </r>
       <r>    -3.4675     0.0000   148.0000 </r>
       <r>    -3.4273     0.0000   148.0000 </r>
       <r>    -3.3870     0.0000   148.0000 </r>
       <r>    -3.3468     0.0000   148.0000 </r>
       <r>    -3.3065     0.0000   148.0000 </r>
       <r>    -3.2663     0.0000   148.0000 </r>
       <r>    -3.2260     0.0000   148.0000 </r>
       <r>    -3.1858     0.0000   148.0000 </r>
       <r>    -3.1455     0.0000   148.0000 </r>
       <r>    -3.1053     0.0000   148.0000 </r>
       <r>    -3.0651     0.0000   148.0000 </r>
       <r>    -3.0248     0.0000   149.0000 </r>
       <r>    -2.9846     0.0000   149.0000 </r>
       <r>    -2.9443     0.0000   149.0000 </r>
       <r>    -2.9041     0.0000   149.0000 </r>
       <r>    -2.8638     0.0000   149.0000 </r>
       <r>    -2.8236     0.0000   150.0000 </r>
       <r>    -2.7834     0.0000   150.0000 </r>
       <r>    -2.7431     0.0000   151.0000 </r>
       <r>    -2.7029     0.0000   152.0000 </r>
       <r>    -2.6626     0.0000   152.0000 </r>
       <r>    -2.6224     0.0000   152.0000 </r>
       <r>    -2.5821     0.0000   152.0000 </r>
       <r>    -2.5419     0.0000   152.0000 </r>
       <r>    -2.5016     0.0000   152.0000 </r>
       <r>    -2.4614     0.0000   152.0000 </r>
       <r>    -2.4212     0.0000   154.0000 </r>
       <r>    -2.3809     0.0000   154.0000 </r>
       <r>    -2.3407     0.0000   154.0000 </r>
       <r>    -2.3004     0.0000   154.0000 </r>
       <r>    -2.2602     0.0000   154.0000 </r>
       <r>    -2.2199     0.0000   154.0000 </r>
       <r>    -2.1797     0.0000   155.0000 </r>
       <r>    -2.1395     0.0000   155.0000 </r>
       <r>    -2.0992     0.0000   155.0000 </r>
       <r>    -2.0590     0.0000   155.0000 </r>
       <r>    -2.0187     0.0000   155.0000 </r>
       <r>    -1.9785     0.0000   155.0000 </r>
       <r>    -1.9382     0.0000   155.0000 </r>
       <r>    -1.8980     0.0000   155.0000 </r>
       <r>    -1.8577     0.0000   155.0000 </r>
       <r>    -1.8175     0.0000   155.0000 </r>
       <r>    -1.7773     0.0000   155.0000 </r>
       <r>    -1.7370     0.0000   155.0000 </r>
       <r>    -1.6968     0.0000   156.0000 </r>
       <r>    -1.6565     0.0000   156.0000 </r>
       <r>    -1.6163     0.0000   156.0000 </r>
       <r>    -1.5760     0.0000   156.0000 </r>
       <r>    -1.5358     0.0000   157.0000 </r>
       <r>    -1.4956     0.0000   157.0000 </r>
       <r>    -1.4553     0.0000   158.0000 </r>
       <r>    -1.4151     0.0000   158.0000 </r>
       <r>    -1.3748     0.0000   159.0000 </r>
       <r>    -1.3346     0.0000   159.0000 </r>
       <r>    -1.2943     0.0000   159.0000 </r>
       <r>    -1.2541     0.0000   160.0000 </r>
       <r>    -1.2138     0.0000   160.0000 </r>
       <r>    -1.1736     0.0000   161.0000 </r>
       <r>    -1.1334     0.0000   161.0000 </r>
       <r>    -1.0931     0.0000   161.0000 </r>
       <r>    -1.0529     0.0000   163.0000 </r>
       <r>    -1.0126     0.0000   163.0000 </r>
       <r>    -0.9724     0.0000   164.0000 </r>
       <r>    -0.9321     0.0000   164.0000 </r>
       <r>    -0.8919     0.0000   164.0000 </r>
       <r>    -0.8517     0.0000   165.0000 </r>
       <r>    -0.8114     0.0000   165.0000 </r>
       <r>    -0.7712     0.0000   165.0000 </r>
       <r>    -0.7309     0.0000   165.0000 </r>
       <r>    -0.6907     0.0000   167.0000 </r>
       <r>    -0.6504     0.0000   168.0000 </r>
       <r>    -0.6102     0.0000   168.0000 </r>
       <r>    -0.5699     0.0000   168.0000 </r>
       <r>    -0.5297     0.0000   168.0000 </r>
       <r>    -0.4895     0.0000   168.0000 </r>
       <r>    -0.4492     0.0000   169.0000 </r>
       <r>    -0.4090     0.0000   170.0000 </r>
       <r>    -0.3687     0.0000   170.0000 </r>
       <r>    -0.3285     0.0000   170.0000 </r>
       <r>    -0.2882     0.0000   170.0000 </r>
       <r>    -0.2480     0.0000   170.0000 </r>
       <r>    -0.2078     0.0000   170.0000 </r>
       <r>    -0.1675     0.0000   170.0000 </r>
       <r>    -0.1273     0.0000   170.0000 </r>
       <r>    -0.0870     0.0000   170.0000 </r>
       <r>    -0.0468     0.0000   170.0000 </r>
       <r>    -0.0065     0.0000   170.0000 </r>
       <r>     0.0337     0.0000   170.0000 </r>
       <r>     0.0740     0.0000   171.0000 </r>
       <r>     0.1142     0.0000   172.0000 </r>
       <r>     0.1544     0.0000   172.0000 </r>
       <r>     0.1947     0.0000   172.0000 </r>
       <r>     0.2349     0.0000   173.0000 </r>
       <r>     0.2752     0.0000   173.0000 </r>
       <r>     0.3154     0.0000   175.0000 </r>
       <r>     0.3557     0.0000   175.0000 </r>
       <r>     0.3959     0.0000   175.0000 </r>
       <r>     0.4362     0.0000   175.0000 </r>
       <r>     0.4764     0.0000   175.0000 </r>
       <r>     0.5166     0.0000   175.0000 </r>
       <r>     0.5569     0.0000   176.0000 </r>
       <r>     0.5971     0.0000   177.0000 </r>
       <r>     0.6374     0.0000   177.0000 </r>
       <r>     0.6776     0.0000   178.0000 </r>
       <r>     0.7179     0.0000   178.0000 </r>
       <r>     0.7581     0.0000   178.0000 </r>
       <r>     0.7983     0.0000   180.0000 </r>
       <r>     0.8386     0.0000   180.0000 </r>
       <r>     0.8788     0.0000   180.0000 </r>
       <r>     0.9191     0.0000   182.0000 </r>
       <r>     0.9593     0.0000   184.0000 </r>
       <r>     0.9996     0.0000   184.0000 </r>
       <r>     1.0398     0.0000   186.0000 </r>
       <r>     1.0801     0.0000   186.0000 </r>
       <r>     1.1203     0.0000   186.0000 </r>
       <r>     1.1605     0.0000   187.0000 </r>
       <r>     1.2008     0.0000   188.0000 </r>
       <r>     1.2410     0.0000   189.0000 </r>
       <r>     1.2813     0.0000   190.0000 </r>
       <r>     1.3215     0.0000   192.0000 </r>
       <r>     1.3618     0.0000   192.0000 </r>
       <r>     1.4020     0.0000   192.0000 </r>
       <r>     1.4422     0.0000   192.0000 </r>
       <r>     1.4825     0.0000   192.0000 </r>
       <r>     1.5227     0.0000   192.0000 </r>
       <r>     1.5630     0.0000   192.0000 </r>
       <r>     1.6032     0.0000   192.0000 </r>
       <r>     1.6435     0.0000   192.0000 </r>
       <r>     1.6837     0.0000   192.0000 </r>
       <r>     1.7240     0.0000   192.0000 </r>
       <r>     1.7642     0.0000   192.0000 </r>
       <r>     1.8044     0.0000   192.0000 </r>
       <r>     1.8447     0.0000   192.0000 </r>
      </set>
     </set>
    </array>
   </total>
  </dos>
 </calculation>
 <structure name="finalpos" >
  <crystal>
   <varray name="basis" >
    <v>      19.84582430       0.00000000       0.00000000 </v>
    <v>       0.00000000      19.84582430       0.00000000 </v>
    <v>       0.00000000       0.00000000      19.84582430 </v>
   </varray>
   <i name="volume">   7816.41170220 </i>
   <varray name="rec_basis" >
    <v>       0.05038843       0.00000000       0.00000000 </v>
    <v>       0.00000000       0.05038843       0.00000000 </v>
    <v>       0.00000000       0.00000000       0.05038843 </v>
   </varray>
  </crystal>
  <varray name="positions" >
   <v>       0.33954741       0.54078847       0.63348154 </v>
   <v>       0.46911165       0.50040955       0.68260483 </v>
   <v>       0.44021044       0.64292788       0.65534340 </v>
   <v>       0.40119181       0.41784610       0.58367686 </v>
   <v>       0.50912428       0.36004914       0.65859232 </v>
   <v>       0.57046731       0.58858529       0.62676177 </v>
   <v>       0.35748689       0.65004829       0.52678972 </v>
   <v>       0.33533980       0.50193317       0.48725728 </v>
   <v>       0.44947749       0.55391086       0.54773974 </v>
   <v>       0.54345488       0.45686526       0.56401640 </v>
   <v>       0.50817119       0.68212139       0.53627238 </v>
   <v>       0.60841633       0.46149953       0.68788602 </v>
   <v>       0.37041129       0.36029089       0.45960869 </v>
   <v>       0.64941684       0.65622941       0.53306296 </v>
   <v>       0.49727060       0.33132904       0.51909262 </v>
   <v>       0.44549303       0.61084898       0.41705349 </v>
   <v>       0.63720006       0.36068310       0.57551598 </v>
   <v>       0.57322810       0.68877507       0.41251487 </v>
   <v>       0.46373779       0.46267821       0.43501605 </v>
   <v>       0.42878741       0.51552838       0.30673412 </v>
   <v>       0.67215647       0.51094546       0.56049104 </v>
   <v>       0.48962791       0.33520798       0.37924047 </v>
   <v>       0.57547225       0.55778704       0.46515522 </v>
   <v>       0.60183218       0.41007175       0.44309903 </v>
   <v>       0.54817439       0.58502148       0.32400533 </v>
   <v>       0.66304582       0.51211101       0.36119318 </v>
   <v>       0.54987511       0.44313355       0.31645845 </v>
  </varray>
 </structure>
</modeling>
