       N       E                     dE             d eps       ncg     rms          rms(c)
DAV:   1     0.937076745472E+03    0.93708E+03   -0.28420E+04   368   0.672E+02
DAV:   2     0.966510721837E+02   -0.84043E+03   -0.77862E+03   384   0.254E+02
DAV:   3    -0.201619542170E+02   -0.11681E+03   -0.10966E+03   440   0.107E+02
DAV:   4    -0.330883529897E+02   -0.12926E+02   -0.12452E+02   416   0.619E+01
DAV:   5    -0.335345273977E+02   -0.44617E+00   -0.44317E+00   424   0.836E+00    0.273E+01
DAV:   6    -0.195850954721E+02    0.13949E+02   -0.14221E+02   388   0.880E+01    0.132E+01
DAV:   7    -0.112842935727E+02    0.83008E+01   -0.30663E+01   432   0.626E+01    0.491E+00
DAV:   8    -0.100906943407E+02    0.11936E+01   -0.74383E+00   428   0.484E+01    0.509E+00
DAV:   9    -0.131889772459E+02   -0.30983E+01   -0.19214E+00   464   0.321E+01    0.341E+00
DAV:  10    -0.140013822986E+02   -0.81241E+00   -0.10736E+00   528   0.173E+01    0.244E+00
DAV:  11    -0.177583269444E+02   -0.37569E+01   -0.17689E+00   432   0.130E+01    0.152E+00
DAV:  12    -0.228384844158E+02   -0.50802E+01   -0.26041E+00   448   0.890E+00    0.262E+00
DAV:  13    -0.227657903011E+02    0.72694E-01   -0.13472E-01   448   0.261E+00    0.252E+00
DAV:  14    -0.227551576308E+02    0.10633E-01   -0.54300E-03   440   0.647E-01    0.249E+00
DAV:  15    -0.238744495701E+02   -0.11193E+01   -0.26947E-01   516   0.420E+00    0.199E+00
DAV:  16    -0.260089829031E+02   -0.21345E+01   -0.88194E-01   456   0.502E+00    0.136E+00
DAV:  17    -0.274656932466E+02   -0.14567E+01   -0.46898E-01   432   0.339E+00    0.849E-01
DAV:  18    -0.281538595915E+02   -0.68817E+00   -0.16358E-01   464   0.431E+00    0.519E-01
DAV:  19    -0.288086977390E+02   -0.65484E+00   -0.11068E-01   460   0.266E+00    0.299E-01
DAV:  20    -0.293808567498E+02   -0.57216E+00   -0.64840E-02   500   0.157E+00    0.202E-01
DAV:  21    -0.295224415775E+02   -0.14158E+00   -0.11413E-02   512   0.132E+00    0.146E-01
DAV:  22    -0.295954164971E+02   -0.72975E-01   -0.50895E-03   520   0.958E-01    0.111E-01
DAV:  23    -0.296353473123E+02   -0.39931E-01   -0.36312E-03   492   0.338E-01    0.104E-01
DAV:  24    -0.296450850361E+02   -0.97377E-02   -0.72726E-04   376   0.226E-01    0.699E-02
DAV:  25    -0.296503135711E+02   -0.52285E-02   -0.91855E-04   432   0.331E-01    0.346E-02
DAV:  26    -0.296525559376E+02   -0.22424E-02   -0.46491E-04   336   0.231E-01    0.301E-02
DAV:  27    -0.296534501671E+02   -0.89423E-03   -0.20109E-04   272   0.135E-01    0.196E-02
DAV:  28    -0.296540506159E+02   -0.60045E-03   -0.10934E-04   280   0.943E-02    0.159E-02
DAV:  29    -0.296544142589E+02   -0.36364E-03   -0.66108E-05   252   0.103E-01    0.130E-02
DAV:  30    -0.296547768735E+02   -0.36261E-03   -0.62347E-05   264   0.672E-02    0.746E-03
DAV:  31    -0.296549378970E+02   -0.16102E-03   -0.36463E-05   240   0.523E-02    0.528E-03
DAV:  32    -0.296549839837E+02   -0.46087E-04   -0.20644E-05   256   0.455E-02
   1 F= -.29654984E+02 E0= -.29654984E+02  d E =-.296550E+02  mag=     0.9981
       N       E                     dE             d eps       ncg     rms          rms(c)
DAV:   1    -0.297476882499E+02   -0.92750E-01   -0.61504E+00   380   0.843E+00    0.158E-01
DAV:   2    -0.297576840621E+02   -0.99958E-02   -0.10270E-01   520   0.179E+00    0.166E-01
DAV:   3    -0.297574818201E+02    0.20224E-03   -0.19494E-03   424   0.550E-01    0.129E-01
DAV:   4    -0.297573692262E+02    0.11259E-03   -0.35614E-04   336   0.468E-01    0.107E-01
DAV:   5    -0.297572196472E+02    0.14958E-03   -0.35809E-04   336   0.376E-01    0.521E-02
DAV:   6    -0.297572488917E+02   -0.29244E-04   -0.79505E-04   464   0.306E-01
   2 F= -.29757249E+02 E0= -.29757249E+02  d E =-.102265E+00  mag=     0.9995
       N       E                     dE             d eps       ncg     rms          rms(c)
DAV:   1    -0.298986163634E+02   -0.14140E+00   -0.55785E+01   396   0.260E+01    0.475E-01
DAV:   2    -0.299953902476E+02   -0.96774E-01   -0.10051E+00   516   0.551E+00    0.617E-01
DAV:   3    -0.299914137519E+02    0.39765E-02   -0.20370E-02   424   0.217E+00    0.425E-01
DAV:   4    -0.299901996185E+02    0.12141E-02   -0.53263E-03   472   0.150E+00    0.369E-01
DAV:   5    -0.299887923488E+02    0.14073E-02   -0.38474E-03   640   0.115E+00    0.194E-01
DAV:   6    -0.299885706471E+02    0.22170E-03   -0.40428E-03   548   0.674E-01    0.700E-02
DAV:   7    -0.299885855037E+02   -0.14857E-04   -0.64677E-04   392   0.552E-01
   3 F= -.29988586E+02 E0= -.29988586E+02  d E =-.333602E+00  mag=     0.9999
       N       E                     dE             d eps       ncg     rms          rms(c)
DAV:   1    -0.298683237153E+02    0.12025E+00   -0.23011E+02   424   0.567E+01    0.868E-01
DAV:   2    -0.302118561415E+02   -0.34353E+00   -0.35423E+00   508   0.126E+01    0.132E+00
DAV:   3    -0.301960258683E+02    0.15830E-01   -0.10170E-01   416   0.618E+00    0.834E-01
DAV:   4    -0.301929066682E+02    0.31192E-02   -0.23081E-02   476   0.192E+00    0.749E-01
DAV:   5    -0.301882462514E+02    0.46604E-02   -0.13358E-02   492   0.225E+00    0.450E-01
DAV:   6    -0.301872466822E+02    0.99957E-03   -0.19054E-02   568   0.245E+00    0.161E-01
DAV:   7    -0.301872891086E+02   -0.42426E-04   -0.40732E-03   524   0.119E+00    0.902E-02
DAV:   8    -0.301873749027E+02   -0.85794E-04   -0.78469E-04   404   0.437E-01
   4 F= -.30187375E+02 E0= -.30187375E+02  d E =-.532391E+00  mag=     1.0000
       N       E                     dE             d eps       ncg     rms          rms(c)
DAV:   1    -0.301843868727E+02    0.29022E-02   -0.49229E+00   396   0.752E+00    0.142E-01
DAV:   2    -0.301920065427E+02   -0.76197E-02   -0.78576E-02   524   0.170E+00    0.158E-01
DAV:   3    -0.301917932089E+02    0.21333E-03   -0.22360E-03   408   0.825E-01    0.105E-01
DAV:   4    -0.301917599501E+02    0.33259E-04   -0.39446E-04   344   0.423E-01
   5 F= -.30191760E+02 E0= -.30191760E+02  d E =-.536776E+00  mag=     1.0000
       N       E                     dE             d eps       ncg     rms          rms(c)
DAV:   1    -0.302101706889E+02   -0.18377E-01   -0.53618E+00   392   0.786E+00    0.148E-01
DAV:   2    -0.302185558561E+02   -0.83852E-02   -0.85221E-02   536   0.175E+00    0.172E-01
DAV:   3    -0.302182773870E+02    0.27847E-03   -0.19088E-03   412   0.821E-01    0.117E-01
DAV:   4    -0.302182278752E+02    0.49512E-04   -0.41267E-04   356   0.374E-01
   6 F= -.30218228E+02 E0= -.30218228E+02  d E =-.264679E-01  mag=     1.0000
       N       E                     dE             d eps       ncg     rms          rms(c)
DAV:   1    -0.301779214671E+02    0.40356E-01   -0.48628E+01   392   0.242E+01    0.457E-01
DAV:   2    -0.302631086928E+02   -0.85187E-01   -0.87652E-01   544   0.500E+00    0.566E-01
DAV:   3    -0.302588847814E+02    0.42239E-02   -0.13632E-02   412   0.236E+00    0.373E-01
DAV:   4    -0.302581928163E+02    0.69197E-03   -0.48328E-03   456   0.118E+00    0.317E-01
DAV:   5    -0.302572785156E+02    0.91430E-03   -0.28031E-03   580   0.941E-01    0.195E-01
DAV:   6    -0.302569785217E+02    0.29999E-03   -0.30641E-03   600   0.686E-01    0.665E-02
DAV:   7    -0.302569841499E+02   -0.56281E-05   -0.59455E-04   400   0.534E-01
   7 F= -.30256984E+02 E0= -.30256984E+02  d E =-.652242E-01  mag=     1.0000
       N       E                     dE             d eps       ncg     rms          rms(c)
DAV:   1    -0.302552131163E+02    0.17654E-02   -0.24305E+00   396   0.527E+00    0.988E-02
DAV:   2    -0.302589409567E+02   -0.37278E-02   -0.37821E-02   536   0.115E+00    0.965E-02
DAV:   3    -0.302588416029E+02    0.99354E-04   -0.63453E-04   376   0.526E-01
   8 F= -.30258842E+02 E0= -.30258842E+02  d E =-.670817E-01  mag=     1.0000
       N       E                     dE             d eps       ncg     rms          rms(c)
DAV:   1    -0.302633296326E+02   -0.43887E-02   -0.55752E+00   392   0.799E+00    0.176E-01
DAV:   2    -0.302714587209E+02   -0.81291E-02   -0.87038E-02   544   0.236E+00    0.201E-01
DAV:   3    -0.302713324681E+02    0.12625E-03   -0.55336E-03   392   0.131E+00    0.124E-01
DAV:   4    -0.302712968707E+02    0.35597E-04   -0.79593E-04   392   0.383E-01
   9 F= -.30271297E+02 E0= -.30271297E+02  d E =-.124553E-01  mag=     1.0000
       N       E                     dE             d eps       ncg     rms          rms(c)
DAV:   1    -0.302392131239E+02    0.32119E-01   -0.25753E+01   392   0.174E+01    0.401E-01
DAV:   2    -0.302812760002E+02   -0.42063E-01   -0.45476E-01   552   0.535E+00    0.466E-01
DAV:   3    -0.302795880987E+02    0.16879E-02   -0.24182E-02   412   0.297E+00    0.274E-01
DAV:   4    -0.302793940071E+02    0.19409E-03   -0.44199E-03   416   0.895E-01    0.232E-01
DAV:   5    -0.302789445440E+02    0.44946E-03   -0.15278E-03   452   0.487E-01    0.138E-01
DAV:   6    -0.302789060542E+02    0.38490E-04   -0.17723E-03   568   0.843E-01    0.702E-02
DAV:   7    -0.302789017166E+02    0.43375E-05   -0.50186E-04   392   0.548E-01
  10 F= -.30278902E+02 E0= -.30278902E+02  d E =-.200601E-01  mag=     1.0000
       N       E                     dE             d eps       ncg     rms          rms(c)
DAV:   1    -0.302793189970E+02   -0.41294E-03   -0.43106E+00   392   0.695E+00    0.136E-01
DAV:   2    -0.302855358883E+02   -0.62169E-02   -0.65014E-02   532   0.170E+00    0.147E-01
DAV:   3    -0.302855253935E+02    0.10495E-04   -0.34388E-03   432   0.912E-01    0.100E-01
DAV:   4    -0.302854986803E+02    0.26713E-04   -0.40487E-04   368   0.349E-01
  11 F= -.30285499E+02 E0= -.30285499E+02  d E =-.659696E-02  mag=     1.0000
       N       E                     dE             d eps       ncg     rms          rms(c)
DAV:   1    -0.302852848014E+02    0.24059E-03   -0.54221E-01   400   0.247E+00    0.729E-02
DAV:   2    -0.302859879937E+02   -0.70319E-03   -0.77470E-03   544   0.595E-01    0.633E-02
DAV:   3    -0.302859969531E+02   -0.89594E-05   -0.51947E-04   376   0.351E-01
  12 F= -.30285997E+02 E0= -.30285997E+02  d E =-.709524E-02  mag=     1.0000
       N       E                     dE             d eps       ncg     rms          rms(c)
DAV:   1    -0.302865107608E+02   -0.52277E-03   -0.27351E+00   396   0.558E+00    0.104E-01
DAV:   2    -0.302903767275E+02   -0.38660E-02   -0.40124E-02   536   0.137E+00    0.132E-01
DAV:   3    -0.302902646314E+02    0.11210E-03   -0.14280E-03   404   0.609E-01    0.891E-02
DAV:   4    -0.302902222765E+02    0.42355E-04   -0.21984E-04   244   0.296E-01
  13 F= -.30290222E+02 E0= -.30290222E+02  d E =-.422532E-02  mag=     1.0000
       N       E                     dE             d eps       ncg     rms          rms(c)
DAV:   1    -0.302633830581E+02    0.26882E-01   -0.24690E+01   392   0.170E+01    0.344E-01
DAV:   2    -0.303036709907E+02   -0.40288E-01   -0.42283E-01   536   0.462E+00    0.460E-01
DAV:   3    -0.303016623500E+02    0.20086E-02   -0.16041E-02   420   0.232E+00    0.283E-01
DAV:   4    -0.303012554265E+02    0.40692E-03   -0.31180E-03   420   0.813E-01    0.245E-01
DAV:   5    -0.303006017810E+02    0.65365E-03   -0.13548E-03   508   0.477E-01    0.147E-01
DAV:   6    -0.303003788910E+02    0.22289E-03   -0.20319E-03   548   0.447E-01    0.475E-02
DAV:   7    -0.303003910486E+02   -0.12158E-04   -0.25059E-04   256   0.360E-01
  14 F= -.30300391E+02 E0= -.30300391E+02  d E =-.143941E-01  mag=     1.0000
       N       E                     dE             d eps       ncg     rms          rms(c)
DAV:   1    -0.301535530853E+02    0.14683E+00   -0.10007E+02   392   0.354E+01    0.731E-01
DAV:   2    -0.303298330933E+02   -0.17628E+00   -0.18497E+00   544   0.106E+01    0.931E-01
DAV:   3    -0.303203247615E+02    0.95083E-02   -0.66140E-02   404   0.556E+00    0.526E-01
DAV:   4    -0.303192499237E+02    0.10748E-02   -0.15192E-02   424   0.143E+00    0.464E-01
DAV:   5    -0.303169198327E+02    0.23301E-02   -0.51094E-03   428   0.105E+00    0.293E-01
DAV:   6    -0.303159091075E+02    0.10107E-02   -0.84941E-03   544   0.117E+00    0.132E-01
DAV:   7    -0.303158140386E+02    0.95069E-04   -0.14096E-03   424   0.894E-01    0.431E-02
DAV:   8    -0.303159476323E+02   -0.13359E-03   -0.60910E-04   404   0.244E-01    0.493E-02
DAV:   9    -0.303159789787E+02   -0.31346E-04   -0.13815E-04   256   0.206E-01
  15 F= -.30315979E+02 E0= -.30315979E+02  d E =-.299820E-01  mag=     1.0000
       N       E                     dE             d eps       ncg     rms          rms(c)
DAV:   1    -0.297879308523E+02    0.52802E+00   -0.42711E+02   464   0.826E+01    0.144E+00
DAV:   2    -0.303808215159E+02   -0.59289E+00   -0.63932E+00   560   0.260E+01    0.207E+00
DAV:   3    -0.303324229518E+02    0.48399E-01   -0.35813E-01   408   0.134E+01    0.985E-01
DAV:   4    -0.303311539520E+02    0.12690E-02   -0.89506E-02   408   0.243E+00    0.781E-01
DAV:   5    -0.303254630964E+02    0.56909E-02   -0.17493E-02   424   0.248E+00    0.572E-01
DAV:   6    -0.303215185064E+02    0.39446E-02   -0.27400E-02   648   0.315E+00    0.286E-01
DAV:   7    -0.303208860082E+02    0.63250E-03   -0.69421E-03   496   0.174E+00    0.124E-01
DAV:   8    -0.303211353745E+02   -0.24937E-03   -0.30208E-03   504   0.682E-01    0.888E-02
DAV:   9    -0.303213356823E+02   -0.20031E-03   -0.98105E-04   416   0.504E-01    0.672E-02
DAV:  10    -0.303214452734E+02   -0.10959E-03   -0.28457E-04   304   0.304E-01    0.318E-02
DAV:  11    -0.303216175365E+02   -0.17226E-03   -0.12890E-04   256   0.167E-01    0.115E-02
DAV:  12    -0.303217060969E+02   -0.88560E-04   -0.64225E-05   264   0.109E-01
  16 F= -.30321706E+02 E0= -.30321706E+02  d E =-.357091E-01  mag=     1.0000
       N       E                     dE             d eps       ncg     rms          rms(c)
DAV:   1    -0.302474367380E+02    0.74181E-01   -0.49206E+01   400   0.242E+01    0.516E-01
DAV:   2    -0.303308265619E+02   -0.83390E-01   -0.87658E-01   552   0.694E+00    0.658E-01
DAV:   3    -0.303268398282E+02    0.39867E-02   -0.39337E-02   424   0.398E+00    0.370E-01
DAV:   4    -0.303262581947E+02    0.58163E-03   -0.73973E-03   464   0.120E+00    0.318E-01
DAV:   5    -0.303252718552E+02    0.98634E-03   -0.23471E-03   512   0.568E-01    0.207E-01
DAV:   6    -0.303247850248E+02    0.48683E-03   -0.34496E-03   620   0.100E+00    0.968E-02
DAV:   7    -0.303247198538E+02    0.65171E-04   -0.84630E-04   416   0.712E-01
  17 F= -.30324720E+02 E0= -.30324720E+02  d E =-.387229E-01  mag=     1.0000
       N       E                     dE             d eps       ncg     rms          rms(c)
DAV:   1    -0.303255200614E+02   -0.73504E-03   -0.11840E-01   384   0.117E+00    0.256E-02
DAV:   2    -0.303257079159E+02   -0.18785E-03   -0.17403E-03   536   0.310E-01    0.316E-02
DAV:   3    -0.303257126400E+02   -0.47241E-05   -0.83437E-05   248   0.145E-01
  18 F= -.30325713E+02 E0= -.30325713E+02  d E =-.992786E-03  mag=     1.0000
       N       E                     dE             d eps       ncg     rms          rms(c)
DAV:   1    -0.303270856901E+02   -0.13778E-02   -0.10630E+00   396   0.348E+00    0.575E-02
DAV:   2    -0.303285233258E+02   -0.14376E-02   -0.14726E-02   536   0.826E-01    0.780E-02
DAV:   3    -0.303285050933E+02    0.18232E-04   -0.50614E-04   368   0.309E-01
  19 F= -.30328505E+02 E0= -.30328505E+02  d E =-.378524E-02  mag=     1.0000
       N       E                     dE             d eps       ncg     rms          rms(c)
DAV:   1    -0.303286028335E+02   -0.79508E-04   -0.42528E+00   400   0.697E+00    0.129E-01
DAV:   2    -0.303344954034E+02   -0.58926E-02   -0.61762E-02   540   0.174E+00    0.181E-01
DAV:   3    -0.303342835488E+02    0.21185E-03   -0.22585E-03   408   0.735E-01    0.128E-01
DAV:   4    -0.303341821286E+02    0.10142E-03   -0.36060E-04   312   0.371E-01    0.116E-01
DAV:   5    -0.303339616620E+02    0.22047E-03   -0.59304E-04   436   0.260E-01    0.452E-02
DAV:   6    -0.303339646213E+02   -0.29593E-05   -0.40773E-04   328   0.387E-01
  20 F= -.30333965E+02 E0= -.30333965E+02  d E =-.924477E-02  mag=     1.0000
       N       E                     dE             d eps       ncg     rms          rms(c)
DAV:   1    -0.303204183865E+02    0.13543E-01   -0.17001E+01   392   0.140E+01    0.301E-01
DAV:   2    -0.303475265395E+02   -0.27108E-01   -0.28653E-01   536   0.412E+00    0.391E-01
DAV:   3    -0.303462278216E+02    0.12987E-02   -0.14658E-02   408   0.226E+00    0.221E-01
DAV:   4    -0.303459909293E+02    0.23689E-03   -0.25998E-03   432   0.738E-01    0.187E-01
DAV:   5    -0.303456414681E+02    0.34946E-03   -0.85284E-04   404   0.355E-01    0.123E-01
DAV:   6    -0.303454709866E+02    0.17048E-03   -0.14336E-03   544   0.658E-01    0.711E-02
DAV:   7    -0.303454246634E+02    0.46323E-04   -0.33599E-04   272   0.485E-01
  21 F= -.30345425E+02 E0= -.30345425E+02  d E =-.207048E-01  mag=     1.0000
       N       E                     dE             d eps       ncg     rms          rms(c)
DAV:   1    -0.302602050292E+02    0.85266E-01   -0.68643E+01   396   0.289E+01    0.632E-01
DAV:   2    -0.303782540911E+02   -0.11805E+00   -0.12494E+00   536   0.917E+00    0.812E-01
DAV:   3    -0.303715393198E+02    0.67148E-02   -0.56049E-02   412   0.502E+00    0.446E-01
DAV:   4    -0.303707270222E+02    0.81230E-03   -0.11338E-02   440   0.132E+00    0.387E-01
DAV:   5    -0.303692249280E+02    0.15021E-02   -0.36075E-03   420   0.806E-01    0.256E-01
DAV:   6    -0.303684332709E+02    0.79166E-03   -0.57896E-03   592   0.131E+00    0.142E-01
DAV:   7    -0.303682852750E+02    0.14800E-03   -0.14284E-03   424   0.885E-01    0.383E-02
DAV:   8    -0.303684089402E+02   -0.12367E-03   -0.67766E-04   420   0.247E-01    0.417E-02
DAV:   9    -0.303684521456E+02   -0.43205E-04   -0.97708E-05   244   0.164E-01
  22 F= -.30368452E+02 E0= -.30368452E+02  d E =-.437323E-01  mag=     1.0000
       N       E                     dE             d eps       ncg     rms          rms(c)
DAV:   1    -0.299466566591E+02    0.42175E+00   -0.28597E+02   416   0.645E+01    0.134E+00
DAV:   2    -0.304555189162E+02   -0.50886E+00   -0.54312E+00   552   0.224E+01    0.180E+00
DAV:   3    -0.304169589925E+02    0.38560E-01   -0.25708E-01   432   0.119E+01    0.901E-01
DAV:   4    -0.304154256373E+02    0.15334E-02   -0.64973E-02   416   0.231E+00    0.767E-01
DAV:   5    -0.304105026904E+02    0.49229E-02   -0.12110E-02   416   0.192E+00    0.596E-01
DAV:   6    -0.304051614648E+02    0.53412E-02   -0.29750E-02   560   0.295E+00    0.310E-01
DAV:   7    -0.304051515351E+02    0.99297E-05   -0.75080E-03   528   0.166E+00    0.153E-01
DAV:   8    -0.304058582565E+02   -0.70672E-03   -0.16452E-03   424   0.316E-01    0.130E-01
DAV:   9    -0.304061708348E+02   -0.31258E-03   -0.20049E-04   288   0.240E-01    0.115E-01
DAV:  10    -0.304081894751E+02   -0.20186E-02   -0.24792E-03   488   0.397E-01    0.134E-01
DAV:  11    -0.304079760823E+02    0.21339E-03   -0.94715E-04   428   0.567E-01    0.520E-02
DAV:  12    -0.304081211454E+02   -0.14506E-03   -0.55514E-04   408   0.256E-01    0.306E-02
DAV:  13    -0.304083042989E+02   -0.18315E-03   -0.11085E-04   248   0.145E-01    0.185E-02
DAV:  14    -0.304085195154E+02   -0.21522E-03   -0.48643E-05   248   0.114E-01    0.848E-03
DAV:  15    -0.304086471983E+02   -0.12768E-03   -0.24313E-05   256   0.557E-02    0.486E-03
DAV:  16    -0.304087763162E+02   -0.12912E-03   -0.20138E-05   244   0.528E-02    0.602E-03
DAV:  17    -0.304088482734E+02   -0.71957E-04   -0.14417E-05   256   0.438E-02
  23 F= -.30408848E+02 E0= -.30408848E+02  d E =-.841284E-01  mag=     1.0000
       N       E                     dE             d eps       ncg     rms          rms(c)
DAV:   1    -0.298367088463E+02    0.57207E+00   -0.13647E+03   552   0.181E+02    0.294E+00
DAV:   2    -0.305645173692E+02   -0.72781E+00   -0.95128E+00   552   0.438E+01    0.323E+00
DAV:   3    -0.304585207635E+02    0.10600E+00   -0.12488E+00   440   0.247E+01    0.117E+00
DAV:   4    -0.304603517642E+02   -0.18310E-02   -0.38061E-01   472   0.883E+00    0.917E-01
DAV:   5    -0.304631306831E+02   -0.27789E-02   -0.15720E-01   416   0.777E+00    0.457E-01
DAV:   6    -0.304723524727E+02   -0.92218E-02   -0.41723E-02   448   0.352E+00    0.161E-01
DAV:   7    -0.304803850047E+02   -0.80325E-02   -0.83672E-03   544   0.141E+00    0.111E-01
DAV:   8    -0.304849658682E+02   -0.45809E-02   -0.29041E-03   432   0.102E+00    0.772E-02
DAV:   9    -0.304914224086E+02   -0.64565E-02   -0.12467E-03   432   0.560E-01    0.453E-02
DAV:  10    -0.304948598099E+02   -0.34374E-02   -0.37475E-04   336   0.322E-01    0.244E-02
DAV:  11    -0.304968149009E+02   -0.19551E-02   -0.19961E-04   288   0.259E-01    0.198E-02
DAV:  12    -0.304989084807E+02   -0.20936E-02   -0.16234E-04   272   0.149E-01    0.147E-02
DAV:  13    -0.305006821166E+02   -0.17736E-02   -0.15223E-04   268   0.136E-01    0.133E-02
DAV:  14    -0.305016258386E+02   -0.94372E-03   -0.12491E-04   272   0.132E-01    0.108E-02
DAV:  15    -0.305020767052E+02   -0.45087E-03   -0.10271E-04   268   0.811E-02    0.744E-03
DAV:  16    -0.305022270835E+02   -0.15038E-03   -0.54546E-05   252   0.787E-02    0.686E-03
DAV:  17    -0.305022733223E+02   -0.46239E-04   -0.31908E-05   264   0.503E-02
  24 F= -.30502273E+02 E0= -.30502273E+02  d E =-.177553E+00  mag=     1.0000
       N       E                     dE             d eps       ncg     rms          rms(c)
DAV:   1    -0.304917384714E+02    0.10489E-01   -0.18387E+01   396   0.146E+01    0.313E-01
DAV:   2    -0.305209101821E+02   -0.29172E-01   -0.30851E-01   560   0.447E+00    0.388E-01
DAV:   3    -0.305198710413E+02    0.10391E-02   -0.17051E-02   432   0.240E+00    0.223E-01
DAV:   4    -0.305196629344E+02    0.20811E-03   -0.27317E-03   440   0.714E-01    0.189E-01
DAV:   5    -0.305192960360E+02    0.36690E-03   -0.90307E-04   412   0.348E-01    0.119E-01
DAV:   6    -0.305191541822E+02    0.14185E-03   -0.13634E-03   548   0.545E-01    0.505E-02
DAV:   7    -0.305191395915E+02    0.14591E-04   -0.18351E-04   256   0.392E-01
  25 F= -.30519140E+02 E0= -.30519140E+02  d E =-.168663E-01  mag=     1.0000
       N       E                     dE             d eps       ncg     rms          rms(c)
DAV:   1    -0.302551943656E+02    0.26396E+00   -0.16987E+02   400   0.475E+01    0.102E+00
DAV:   2    -0.305560337321E+02   -0.30084E+00   -0.31970E+00   548   0.157E+01    0.121E+00
DAV:   3    -0.305397507493E+02    0.16283E-01   -0.13445E-01   400   0.825E+00    0.641E-01
DAV:   4    -0.305391105207E+02    0.64023E-03   -0.33745E-02   424   0.185E+00    0.560E-01
DAV:   5    -0.305359123057E+02    0.31982E-02   -0.74786E-03   416   0.136E+00    0.372E-01
DAV:   6    -0.305339779298E+02    0.19344E-02   -0.12594E-02   588   0.141E+00    0.128E-01
DAV:   7    -0.305338977833E+02    0.80147E-04   -0.16410E-03   424   0.102E+00    0.603E-02
DAV:   8    -0.305341670692E+02   -0.26929E-03   -0.11099E-03   488   0.346E-01    0.629E-02
DAV:   9    -0.305342448123E+02   -0.77743E-04   -0.21385E-04   272   0.270E-01
  26 F= -.30534245E+02 E0= -.30534245E+02  d E =-.319715E-01  mag=     1.0000
       N       E                     dE             d eps       ncg     rms          rms(c)
DAV:   1    -0.305151071501E+02    0.19060E-01   -0.14140E+01   396   0.128E+01    0.253E-01
DAV:   2    -0.305379582056E+02   -0.22851E-01   -0.23611E-01   560   0.321E+00    0.312E-01
DAV:   3    -0.305373087993E+02    0.64941E-03   -0.95474E-03   424   0.161E+00    0.192E-01
DAV:   4    -0.305371628368E+02    0.14596E-03   -0.15766E-03   456   0.634E-01    0.161E-01
DAV:   5    -0.305369768467E+02    0.18599E-03   -0.49770E-04   392   0.289E-01    0.109E-01
DAV:   6    -0.305369444402E+02    0.32407E-04   -0.11270E-03   544   0.343E-01    0.347E-02
DAV:   7    -0.305369450665E+02   -0.62625E-06   -0.13983E-04   272   0.304E-01
  27 F= -.30536945E+02 E0= -.30536945E+02  d E =-.346717E-01  mag=     1.0000
       N       E                     dE             d eps       ncg     rms          rms(c)
DAV:   1    -0.305644086457E+02   -0.27464E-01   -0.10457E+00   400   0.343E+00    0.632E-02
DAV:   2    -0.305657786105E+02   -0.13700E-02   -0.14311E-02   556   0.896E-01    0.699E-02
DAV:   3    -0.305657787571E+02   -0.14659E-06   -0.74842E-04   376   0.474E-01
  28 F= -.30565779E+02 E0= -.30565779E+02  d E =-.288337E-01  mag=     1.0000
       N       E                     dE             d eps       ncg     rms          rms(c)
DAV:   1    -0.306343375442E+02   -0.68559E-01   -0.94165E+00   392   0.104E+01    0.232E-01
DAV:   2    -0.306487233192E+02   -0.14386E-01   -0.15668E-01   552   0.317E+00    0.293E-01
DAV:   3    -0.306479595710E+02    0.76375E-03   -0.83072E-03   416   0.170E+00    0.170E-01
DAV:   4    -0.306478301008E+02    0.12947E-03   -0.14284E-03   408   0.498E-01    0.143E-01
DAV:   5    -0.306476145722E+02    0.21553E-03   -0.56972E-04   412   0.319E-01    0.797E-02
DAV:   6    -0.306475463581E+02    0.68214E-04   -0.53110E-04   396   0.410E-01
  29 F= -.30647546E+02 E0= -.30647546E+02  d E =-.110601E+00  mag=     1.0000
       N       E                     dE             d eps       ncg     rms          rms(c)
DAV:   1    -0.307303646302E+02   -0.82750E-01   -0.37771E+01   392   0.211E+01    0.515E-01
DAV:   2    -0.307955863579E+02   -0.65222E-01   -0.71407E-01   556   0.697E+00    0.602E-01
DAV:   3    -0.307914928327E+02    0.40935E-02   -0.33966E-02   408   0.393E+00    0.314E-01
DAV:   4    -0.307911950226E+02    0.29781E-03   -0.73221E-03   444   0.101E+00    0.256E-01
DAV:   5    -0.307907009911E+02    0.49403E-03   -0.18167E-03   416   0.593E-01    0.172E-01
DAV:   6    -0.307905245136E+02    0.17648E-03   -0.22470E-03   616   0.816E-01    0.807E-02
DAV:   7    -0.307904914414E+02    0.33072E-04   -0.52621E-04   424   0.613E-01
  30 F= -.30790491E+02 E0= -.30790491E+02  d E =-.253546E+00  mag=     1.0000
       N       E                     dE             d eps       ncg     rms          rms(c)
DAV:   1    -0.307293395672E+02    0.61185E-01   -0.15463E+02   392   0.449E+01    0.107E+00
DAV:   2    -0.310216616085E+02   -0.29232E+00   -0.31745E+00   560   0.161E+01    0.126E+00
DAV:   3    -0.310015354401E+02    0.20126E-01   -0.14079E-01   412   0.913E+00    0.607E-01
DAV:   4    -0.310018230723E+02   -0.28763E-03   -0.38609E-02   416   0.184E+00    0.511E-01
DAV:   5    -0.309999919144E+02    0.18312E-02   -0.60584E-03   424   0.119E+00    0.378E-01
DAV:   6    -0.309986638071E+02    0.13281E-02   -0.10036E-02   580   0.171E+00    0.165E-01
DAV:   7    -0.309984606514E+02    0.20316E-03   -0.24851E-03   456   0.125E+00    0.676E-02
DAV:   8    -0.309988444022E+02   -0.38375E-03   -0.15929E-03   552   0.465E-01    0.656E-02
DAV:   9    -0.309989734637E+02   -0.12906E-03   -0.31682E-04   344   0.303E-01    0.419E-02
DAV:  10    -0.309992353901E+02   -0.26193E-03   -0.19540E-04   272   0.246E-01    0.131E-02
DAV:  11    -0.309994236145E+02   -0.18822E-03   -0.87413E-05   272   0.947E-02    0.100E-02
DAV:  12    -0.309994936505E+02   -0.70036E-04   -0.36947E-05   264   0.867E-02
  31 F= -.30999494E+02 E0= -.30999494E+02  d E =-.462549E+00  mag=     1.0000
       N       E                     dE             d eps       ncg     rms          rms(c)
DAV:   1    -0.304256621059E+02    0.57376E+00   -0.68876E+02   512   0.113E+02    0.216E+00
DAV:   2    -0.311865847068E+02   -0.76092E+00   -0.88727E+00   552   0.398E+01    0.301E+00
DAV:   3    -0.310746325507E+02    0.11195E+00   -0.88512E-01   408   0.221E+01    0.113E+00
DAV:   4    -0.310810566024E+02   -0.64241E-02   -0.25824E-01   512   0.575E+00    0.650E-01
DAV:   5    -0.310812203863E+02   -0.16378E-03   -0.63136E-02   432   0.464E+00    0.424E-01
DAV:   6    -0.310811383438E+02    0.82042E-04   -0.22370E-02   520   0.341E+00    0.246E-01
DAV:   7    -0.310810261874E+02    0.11216E-03   -0.65943E-03   448   0.174E+00    0.853E-02
DAV:   8    -0.310817428818E+02   -0.71669E-03   -0.27290E-03   552   0.869E-01    0.650E-02
DAV:   9    -0.310822170671E+02   -0.47419E-03   -0.75815E-04   424   0.355E-01    0.551E-02
DAV:  10    -0.310827145240E+02   -0.49746E-03   -0.20309E-04   276   0.236E-01    0.314E-02
DAV:  11    -0.310831254903E+02   -0.41097E-03   -0.98113E-05   296   0.216E-01    0.145E-02
DAV:  12    -0.310833244156E+02   -0.19893E-03   -0.27782E-05   280   0.899E-02    0.538E-03
DAV:  13    -0.310835099095E+02   -0.18549E-03   -0.50072E-05   260   0.479E-02    0.765E-03
DAV:  14    -0.310836081611E+02   -0.98252E-04   -0.21351E-05   272   0.599E-02
  32 F= -.31083608E+02 E0= -.31083608E+02  d E =-.546663E+00  mag=     1.0000
       N       E                     dE             d eps       ncg     rms          rms(c)
DAV:   1    -0.309862908090E+02    0.97219E-01   -0.74824E+01   392   0.303E+01    0.647E-01
DAV:   2    -0.311206404476E+02   -0.13435E+00   -0.14173E+00   568   0.899E+00    0.790E-01
DAV:   3    -0.311136632325E+02    0.69772E-02   -0.51744E-02   424   0.495E+00    0.434E-01
DAV:   4    -0.311133356410E+02    0.32759E-03   -0.12938E-02   424   0.120E+00    0.368E-01
DAV:   5    -0.311122723869E+02    0.10633E-02   -0.33670E-03   420   0.901E-01    0.250E-01
DAV:   6    -0.311116315714E+02    0.64082E-03   -0.49512E-03   548   0.567E-01    0.719E-02
DAV:   7    -0.311115899303E+02    0.41641E-04   -0.62223E-04   432   0.617E-01
  33 F= -.31111590E+02 E0= -.31111590E+02  d E =-.574645E+00  mag=     1.0000
       N       E                     dE             d eps       ncg     rms          rms(c)
DAV:   1    -0.311644296473E+02   -0.52798E-01   -0.52945E+01   392   0.250E+01    0.705E-01
DAV:   2    -0.312595864024E+02   -0.95157E-01   -0.10705E+00   556   0.102E+01    0.819E-01
DAV:   3    -0.312507592293E+02    0.88272E-02   -0.62548E-02   408   0.589E+00    0.396E-01
DAV:   4    -0.312507066247E+02    0.52605E-04   -0.14150E-02   424   0.107E+00    0.325E-01
DAV:   5    -0.312500328153E+02    0.67381E-03   -0.22890E-03   416   0.601E-01    0.239E-01
DAV:   6    -0.312495581595E+02    0.47466E-03   -0.40129E-03   604   0.120E+00    0.116E-01
DAV:   7    -0.312493592731E+02    0.19889E-03   -0.10462E-03   432   0.847E-01    0.373E-02
DAV:   8    -0.312494293646E+02   -0.70092E-04   -0.67136E-04   440   0.369E-01
  34 F= -.31249429E+02 E0= -.31249429E+02  d E =-.137839E+00  mag=     1.0000
       N       E                     dE             d eps       ncg     rms          rms(c)
DAV:   1    -0.309397806740E+02    0.30958E+00   -0.26537E+02   400   0.617E+01    0.161E+00
DAV:   2    -0.314493888139E+02   -0.50961E+00   -0.56859E+00   552   0.264E+01    0.190E+00
DAV:   3    -0.313974868026E+02    0.51902E-01   -0.34060E-01   416   0.148E+01    0.800E-01
DAV:   4    -0.314005679284E+02   -0.30811E-02   -0.93181E-02   464   0.247E+00    0.635E-01
DAV:   5    -0.313988475891E+02    0.17203E-02   -0.81362E-03   416   0.148E+00    0.545E-01
DAV:   6    -0.313964304972E+02    0.24171E-02   -0.18692E-02   632   0.244E+00    0.301E-01
DAV:   7    -0.313951491020E+02    0.12814E-02   -0.62176E-03   432   0.180E+00    0.139E-01
DAV:   8    -0.313951433124E+02    0.57896E-05   -0.39514E-03   560   0.811E-01    0.733E-02
DAV:   9    -0.313952602802E+02   -0.11697E-03   -0.87644E-04   424   0.457E-01    0.458E-02
DAV:  10    -0.313954124510E+02   -0.15217E-03   -0.23601E-04   296   0.248E-01    0.232E-02
DAV:  11    -0.313955272968E+02   -0.11485E-03   -0.98211E-05   264   0.178E-01    0.795E-03
DAV:  12    -0.313956193837E+02   -0.92087E-04   -0.23113E-05   248   0.782E-02
  35 F= -.31395619E+02 E0= -.31395619E+02  d E =-.284029E+00  mag=     1.0000
       N       E                     dE             d eps       ncg     rms          rms(c)
DAV:   1    -0.313934931875E+02    0.20341E-02   -0.23017E+00   400   0.510E+00    0.120E-01
DAV:   2    -0.313966003384E+02   -0.31072E-02   -0.33461E-02   560   0.182E+00    0.141E-01
DAV:   3    -0.313965221622E+02    0.78176E-04   -0.31648E-03   416   0.111E+00    0.716E-02
DAV:   4    -0.313965384189E+02   -0.16257E-04   -0.48636E-04   384   0.232E-01
  36 F= -.31396538E+02 E0= -.31396538E+02  d E =-.284948E+00  mag=     1.0000
       N       E                     dE             d eps       ncg     rms          rms(c)
DAV:   1    -0.314070579579E+02   -0.10536E-01   -0.11776E+01   392   0.117E+01    0.256E-01
DAV:   2    -0.314260590176E+02   -0.19001E-01   -0.20272E-01   556   0.335E+00    0.316E-01
DAV:   3    -0.314252389747E+02    0.82004E-03   -0.11168E-02   412   0.198E+00    0.175E-01
DAV:   4    -0.314251353818E+02    0.10359E-03   -0.16939E-03   480   0.566E-01    0.144E-01
DAV:   5    -0.314250755389E+02    0.59843E-04   -0.44852E-04   368   0.269E-01
  37 F= -.31425076E+02 E0= -.31425076E+02  d E =-.285371E-01  mag=     1.0000
       N       E                     dE             d eps       ncg     rms          rms(c)
DAV:   1    -0.313784477615E+02    0.46688E-01   -0.39111E+01   392   0.216E+01    0.486E-01
DAV:   2    -0.314457004366E+02   -0.67253E-01   -0.71860E-01   560   0.616E+00    0.572E-01
DAV:   3    -0.314425481507E+02    0.31523E-02   -0.34624E-02   412   0.364E+00    0.313E-01
DAV:   4    -0.314421981780E+02    0.34997E-03   -0.60233E-03   472   0.104E+00    0.257E-01
DAV:   5    -0.314418630616E+02    0.33512E-03   -0.15765E-03   408   0.486E-01    0.175E-01
DAV:   6    -0.314418213284E+02    0.41733E-04   -0.22726E-03   588   0.643E-01    0.664E-02
DAV:   7    -0.314417721920E+02    0.49136E-04   -0.43238E-04   392   0.536E-01
  38 F= -.31441772E+02 E0= -.31441772E+02  d E =-.452338E-01  mag=     1.0000
       N       E                     dE             d eps       ncg     rms          rms(c)
DAV:   1    -0.314383021002E+02    0.35192E-02   -0.11249E+01   396   0.113E+01    0.233E-01
DAV:   2    -0.314562530906E+02   -0.17951E-01   -0.18845E-01   560   0.293E+00    0.273E-01
DAV:   3    -0.314555600663E+02    0.69302E-03   -0.69247E-03   424   0.144E+00    0.161E-01
DAV:   4    -0.314554486624E+02    0.11140E-03   -0.15149E-03   432   0.613E-01    0.134E-01
DAV:   5    -0.314553247696E+02    0.12389E-03   -0.45254E-04   384   0.322E-01    0.875E-02
DAV:   6    -0.314552711265E+02    0.53643E-04   -0.59062E-04   432   0.240E-01
  39 F= -.31455271E+02 E0= -.31455271E+02  d E =-.134989E-01  mag=     1.0000
       N       E                     dE             d eps       ncg     rms          rms(c)
DAV:   1    -0.314415210095E+02    0.13804E-01   -0.12097E+01   400   0.118E+01    0.235E-01
DAV:   2    -0.314610294766E+02   -0.19508E-01   -0.20348E-01   560   0.295E+00    0.275E-01
DAV:   3    -0.314602634561E+02    0.76602E-03   -0.64235E-03   424   0.142E+00    0.164E-01
DAV:   4    -0.314601486455E+02    0.11481E-03   -0.15758E-03   440   0.630E-01    0.136E-01
DAV:   5    -0.314600183076E+02    0.13034E-03   -0.48933E-04   400   0.367E-01    0.890E-02
DAV:   6    -0.314599674176E+02    0.50890E-04   -0.65724E-04   448   0.241E-01
  40 F= -.31459967E+02 E0= -.31459967E+02  d E =-.181952E-01  mag=     1.0000
       N       E                     dE             d eps       ncg     rms          rms(c)
DAV:   1    -0.314601866645E+02   -0.16836E-03   -0.35668E+00   400   0.641E+00    0.121E-01
DAV:   2    -0.314654096067E+02   -0.52229E-02   -0.54339E-02   556   0.163E+00    0.146E-01
DAV:   3    -0.314652528103E+02    0.15680E-03   -0.22753E-03   424   0.874E-01    0.878E-02
DAV:   4    -0.314652372083E+02    0.15602E-04   -0.37935E-04   360   0.311E-01
  41 F= -.31465237E+02 E0= -.31465237E+02  d E =-.526979E-02  mag=     1.0000
       N       E                     dE             d eps       ncg     rms          rms(c)
DAV:   1    -0.314613105348E+02    0.39423E-02   -0.45005E+00   400   0.720E+00    0.136E-01
DAV:   2    -0.314678206553E+02   -0.65101E-02   -0.68298E-02   560   0.172E+00    0.170E-01
DAV:   3    -0.314675690383E+02    0.25162E-03   -0.20411E-03   416   0.668E-01    0.119E-01
DAV:   4    -0.314675093495E+02    0.59689E-04   -0.37160E-04   328   0.394E-01
  42 F= -.31467509E+02 E0= -.31467509E+02  d E =-.754193E-02  mag=     1.0000
       N       E                     dE             d eps       ncg     rms          rms(c)
DAV:   1    -0.314649665340E+02    0.26025E-02   -0.43921E+00   400   0.713E+00    0.136E-01
DAV:   2    -0.314713283249E+02   -0.63618E-02   -0.66253E-02   560   0.164E+00    0.153E-01
DAV:   3    -0.314710905185E+02    0.23781E-03   -0.15838E-03   408   0.673E-01    0.107E-01
DAV:   4    -0.314710299267E+02    0.60592E-04   -0.39817E-04   352   0.387E-01
  43 F= -.31471030E+02 E0= -.31471030E+02  d E =-.352058E-02  mag=     1.0000
       N       E                     dE             d eps       ncg     rms          rms(c)
DAV:   1    -0.314634575055E+02    0.76330E-02   -0.65329E+00   400   0.871E+00    0.169E-01
DAV:   2    -0.314731384735E+02   -0.96810E-02   -0.10138E-01   536   0.200E+00    0.193E-01
DAV:   3    -0.314727377760E+02    0.40070E-03   -0.25066E-03   408   0.707E-01    0.131E-01
DAV:   4    -0.314726388244E+02    0.98952E-04   -0.53489E-04   376   0.450E-01
  44 F= -.31472639E+02 E0= -.31472639E+02  d E =-.512947E-02  mag=     1.0000
       N       E                     dE             d eps       ncg     rms          rms(c)
DAV:   1    -0.314722236581E+02    0.51412E-03   -0.22372E+00   400   0.506E+00    0.981E-02
DAV:   2    -0.314752275448E+02   -0.30039E-02   -0.31285E-02   536   0.120E+00    0.122E-01
DAV:   3    -0.314751154844E+02    0.11206E-03   -0.98105E-04   380   0.559E-01    0.878E-02
DAV:   4    -0.314750707019E+02    0.44783E-04   -0.16228E-04   236   0.258E-01
  45 F= -.31475071E+02 E0= -.31475071E+02  d E =-.243188E-02  mag=     1.0000
       N       E                     dE             d eps       ncg     rms          rms(c)
DAV:   1    -0.314520067890E+02    0.23109E-01   -0.20166E+01   400   0.153E+01    0.330E-01
DAV:   2    -0.314845171804E+02   -0.32510E-01   -0.34333E-01   544   0.412E+00    0.403E-01
DAV:   3    -0.314828280205E+02    0.16892E-02   -0.14166E-02   412   0.222E+00    0.235E-01
DAV:   4    -0.314825313833E+02    0.29664E-03   -0.28533E-03   480   0.768E-01    0.196E-01
DAV:   5    -0.314821375671E+02    0.39382E-03   -0.93898E-04   444   0.392E-01    0.128E-01
DAV:   6    -0.314820038062E+02    0.13376E-03   -0.16129E-03   552   0.596E-01    0.524E-02
DAV:   7    -0.314820009303E+02    0.28759E-05   -0.25335E-04   248   0.431E-01
  46 F= -.31482001E+02 E0= -.31482001E+02  d E =-.936211E-02  mag=     1.0000
       N       E                     dE             d eps       ncg     rms          rms(c)
DAV:   1    -0.313663842272E+02    0.11562E+00   -0.81534E+01   400   0.317E+01    0.696E-01
DAV:   2    -0.315076571902E+02   -0.14127E+00   -0.14957E+00   552   0.927E+00    0.842E-01
DAV:   3    -0.314997098938E+02    0.79473E-02   -0.59535E-02   416   0.530E+00    0.468E-01
DAV:   4    -0.314989188323E+02    0.79106E-03   -0.14487E-02   416   0.141E+00    0.403E-01
DAV:   5    -0.314970876839E+02    0.18311E-02   -0.42852E-03   444   0.878E-01    0.260E-01
DAV:   6    -0.314962536369E+02    0.83405E-03   -0.68780E-03   596   0.110E+00    0.998E-02
DAV:   7    -0.314962054034E+02    0.48234E-04   -0.92278E-04   416   0.761E-01
  47 F= -.31496205E+02 E0= -.31496205E+02  d E =-.235666E-01  mag=     1.0000
       N       E                     dE             d eps       ncg     rms          rms(c)
DAV:   1    -0.310374048943E+02    0.45885E+00   -0.34405E+02   432   0.723E+01    0.140E+00
DAV:   2    -0.315644733062E+02   -0.52707E+00   -0.56717E+00   552   0.226E+01    0.184E+00
DAV:   3    -0.315249026390E+02    0.39571E-01   -0.30609E-01   412   0.130E+01    0.855E-01
DAV:   4    -0.315255364738E+02   -0.63383E-03   -0.90689E-02   424   0.249E+00    0.714E-01
DAV:   5    -0.315198325180E+02    0.57040E-02   -0.14690E-02   464   0.193E+00    0.473E-01
DAV:   6    -0.315171606759E+02    0.26718E-02   -0.20321E-02   588   0.230E+00    0.217E-01
DAV:   7    -0.315166043735E+02    0.55630E-03   -0.33734E-03   424   0.153E+00    0.108E-01
DAV:   8    -0.315169750005E+02   -0.37063E-03   -0.36784E-03   492   0.655E-01    0.896E-02
DAV:   9    -0.315170488717E+02   -0.73871E-04   -0.74616E-04   416   0.453E-01
  48 F= -.31517049E+02 E0= -.31517049E+02  d E =-.444100E-01  mag=     1.0000
       N       E                     dE             d eps       ncg     rms          rms(c)
DAV:   1    -0.302257940839E+02    0.12912E+01   -0.17080E+03   544   0.215E+02    0.314E+00
DAV:   2    -0.316528665815E+02   -0.14271E+01   -0.16929E+01   560   0.517E+01    0.400E+00
DAV:   3    -0.314671815793E+02    0.18569E+00   -0.18100E+00   412   0.316E+01    0.128E+00
DAV:   4    -0.314761551526E+02   -0.89736E-02   -0.50777E-01   524   0.919E+00    0.884E-01
DAV:   5    -0.314790151611E+02   -0.28600E-02   -0.18174E-01   416   0.861E+00    0.468E-01
DAV:   6    -0.314792137415E+02   -0.19858E-03   -0.48029E-02   440   0.464E+00    0.163E-01
DAV:   7    -0.314806956076E+02   -0.14819E-02   -0.11820E-02   464   0.958E-01    0.120E-01
DAV:   8    -0.314811260733E+02   -0.43047E-03   -0.20535E-03   416   0.108E+00    0.716E-02
DAV:   9    -0.314816426354E+02   -0.51656E-03   -0.53696E-04   400   0.523E-01    0.415E-02
DAV:  10    -0.314820477872E+02   -0.40515E-03   -0.17199E-04   280   0.286E-01    0.179E-02
DAV:  11    -0.314822639055E+02   -0.21612E-03   -0.10795E-04   256   0.172E-01    0.134E-02
DAV:  12    -0.314825165560E+02   -0.25265E-03   -0.68320E-05   248   0.120E-01    0.875E-03
DAV:  13    -0.314829289369E+02   -0.41238E-03   -0.90073E-05   256   0.757E-02    0.945E-03
DAV:  14    -0.314831423368E+02   -0.21340E-03   -0.44522E-05   272   0.852E-02    0.666E-03
DAV:  15    -0.314832867229E+02   -0.14439E-03   -0.32124E-05   256   0.646E-02    0.571E-03
DAV:  16    -0.314834235304E+02   -0.13681E-03   -0.36211E-05   248   0.568E-02    0.412E-03
DAV:  17    -0.314834835188E+02   -0.59988E-04   -0.20590E-05   264   0.343E-02
  49 F= -.31483484E+02 E0= -.31483484E+02  d E =-.108447E-01  mag=     1.0000
       N       E                     dE             d eps       ncg     rms          rms(c)
DAV:   1    -0.308878624726E+02    0.59556E+00   -0.10991E+03   544   0.156E+02    0.261E+00
DAV:   2    -0.316578171703E+02   -0.76995E+00   -0.97015E+00   528   0.471E+01    0.346E+00
DAV:   3    -0.315152001319E+02    0.14262E+00   -0.12804E+00   416   0.257E+01    0.129E+00
DAV:   4    -0.315098312235E+02    0.53689E-02   -0.37784E-01   476   0.101E+01    0.686E-01
DAV:   5    -0.315187427403E+02   -0.89115E-02   -0.17344E-01   416   0.726E+00    0.444E-01
DAV:   6    -0.315186186343E+02    0.12411E-03   -0.41988E-02   408   0.435E+00    0.125E-01
DAV:   7    -0.315199397797E+02   -0.13211E-02   -0.10085E-02   408   0.925E-01    0.907E-02
DAV:   8    -0.315202587027E+02   -0.31892E-03   -0.16062E-03   416   0.858E-01    0.634E-02
DAV:   9    -0.315205713783E+02   -0.31268E-03   -0.21433E-04   276   0.405E-01    0.232E-02
DAV:  10    -0.315208175076E+02   -0.24613E-03   -0.13918E-04   248   0.145E-01    0.158E-02
DAV:  11    -0.315209330092E+02   -0.11550E-03   -0.96247E-05   240   0.159E-01    0.120E-02
DAV:  12    -0.315210466085E+02   -0.11360E-03   -0.47819E-05   240   0.980E-02    0.663E-03
DAV:  13    -0.315212487970E+02   -0.20219E-03   -0.61276E-05   244   0.568E-02    0.647E-03
DAV:  14    -0.315213573776E+02   -0.10858E-03   -0.26617E-05   256   0.637E-02    0.633E-03
DAV:  15    -0.315214641471E+02   -0.10677E-03   -0.25702E-05   232   0.546E-02    0.472E-03
DAV:  16    -0.315215387571E+02   -0.74610E-04   -0.23890E-05   248   0.357E-02
  50 F= -.31521539E+02 E0= -.31521539E+02  d E =-.488999E-01  mag=     1.0000
       N       E                     dE             d eps       ncg     rms          rms(c)
DAV:   1    -0.315532458483E+02   -0.31782E-01   -0.93490E+00   400   0.104E+01    0.198E-01
DAV:   2    -0.315687388485E+02   -0.15493E-01   -0.16157E-01   536   0.243E+00    0.245E-01
DAV:   3    -0.315680829684E+02    0.65588E-03   -0.33771E-03   400   0.969E-01    0.155E-01
DAV:   4    -0.315679817712E+02    0.10120E-03   -0.11564E-03   416   0.595E-01    0.129E-01
DAV:   5    -0.315678398927E+02    0.14188E-03   -0.43722E-04   376   0.466E-01    0.809E-02
DAV:   6    -0.315678174258E+02    0.22467E-04   -0.79895E-04   528   0.170E-01
  51 F= -.31567817E+02 E0= -.31567817E+02  d E =-.462787E-01  mag=     1.0000
       N       E                     dE             d eps       ncg     rms          rms(c)
DAV:   1    -0.314807542980E+02    0.87086E-01   -0.85688E+01   392   0.327E+01    0.634E-01
DAV:   2    -0.316409070481E+02   -0.16015E+00   -0.16693E+00   544   0.804E+00    0.740E-01
DAV:   3    -0.316353813411E+02    0.55257E-02   -0.42568E-02   412   0.440E+00    0.439E-01
DAV:   4    -0.316347641120E+02    0.61723E-03   -0.12082E-02   436   0.169E+00    0.380E-01
DAV:   5    -0.316335195401E+02    0.12446E-02   -0.44866E-03   464   0.106E+00    0.233E-01
DAV:   6    -0.316331104283E+02    0.40911E-03   -0.51005E-03   580   0.877E-01    0.803E-02
DAV:   7    -0.316330914678E+02    0.18961E-04   -0.72046E-04   416   0.563E-01
  52 F= -.31633091E+02 E0= -.31633091E+02  d E =-.111553E+00  mag=     1.0000
       N       E                     dE             d eps       ncg     rms          rms(c)
DAV:   1    -0.316316769436E+02    0.14335E-02   -0.18644E+00   384   0.459E+00    0.890E-02
DAV:   2    -0.316344328590E+02   -0.27559E-02   -0.28588E-02   560   0.110E+00    0.839E-02
DAV:   3    -0.316344119458E+02    0.20913E-04   -0.82990E-04   376   0.456E-01
  53 F= -.31634412E+02 E0= -.31634412E+02  d E =-.112873E+00  mag=     1.0000
       N       E                     dE             d eps       ncg     rms          rms(c)
DAV:   1    -0.316460595292E+02   -0.11627E-01   -0.23758E+01   392   0.167E+01    0.392E-01
DAV:   2    -0.316858125423E+02   -0.39753E-01   -0.42783E-01   552   0.592E+00    0.519E-01
DAV:   3    -0.316827951366E+02    0.30174E-02   -0.23443E-02   392   0.329E+00    0.284E-01
DAV:   4    -0.316825827740E+02    0.21236E-03   -0.49338E-03   424   0.723E-01    0.245E-01
DAV:   5    -0.316819941754E+02    0.58860E-03   -0.13327E-03   420   0.474E-01    0.154E-01
DAV:   6    -0.316817879202E+02    0.20626E-03   -0.23936E-03   564   0.620E-01    0.563E-02
DAV:   7    -0.316817784306E+02    0.94896E-05   -0.32790E-04   320   0.474E-01
  54 F= -.31681778E+02 E0= -.31681778E+02  d E =-.473665E-01  mag=     1.0000
       N       E                     dE             d eps       ncg     rms          rms(c)
DAV:   1    -0.313876631530E+02    0.29412E+00   -0.22270E+02   392   0.558E+01    0.135E+00
DAV:   2    -0.318295129331E+02   -0.44185E+00   -0.47523E+00   552   0.232E+01    0.175E+00
DAV:   3    -0.317863798839E+02    0.43133E-01   -0.25237E-01   408   0.130E+01    0.783E-01
DAV:   4    -0.317885033655E+02   -0.21235E-02   -0.76498E-02   416   0.220E+00    0.659E-01
DAV:   5    -0.317859651414E+02    0.25382E-02   -0.64238E-03   432   0.136E+00    0.554E-01
DAV:   6    -0.317824667717E+02    0.34984E-02   -0.15991E-02   624   0.225E+00    0.280E-01
DAV:   7    -0.317813446815E+02    0.11221E-02   -0.57693E-03   448   0.181E+00    0.132E-01
DAV:   8    -0.317814349482E+02   -0.90267E-04   -0.38172E-03   536   0.767E-01    0.912E-02
DAV:   9    -0.317814959609E+02   -0.61013E-04   -0.87061E-04   400   0.384E-01
  55 F= -.31781496E+02 E0= -.31781496E+02  d E =-.147084E+00  mag=     1.0000
       N       E                     dE             d eps       ncg     rms          rms(c)
DAV:   1    -0.312540174986E+02    0.52742E+00   -0.10488E+03   552   0.151E+02    0.285E+00
DAV:   2    -0.319287425519E+02   -0.67473E+00   -0.88273E+00   504   0.490E+01    0.358E+00
DAV:   3    -0.317545614069E+02    0.17418E+00   -0.14272E+00   424   0.277E+01    0.117E+00
DAV:   4    -0.317679137390E+02   -0.13352E-01   -0.45784E-01   508   0.107E+01    0.834E-01
DAV:   5    -0.317740919676E+02   -0.61782E-02   -0.17684E-01   432   0.781E+00    0.436E-01
DAV:   6    -0.317738349720E+02    0.25700E-03   -0.42484E-02   448   0.444E+00    0.161E-01
DAV:   7    -0.317753991753E+02   -0.15642E-02   -0.13465E-02   408   0.132E+00    0.830E-02
DAV:   8    -0.317757956609E+02   -0.39649E-03   -0.16376E-03   424   0.834E-01    0.541E-02
DAV:   9    -0.317762132146E+02   -0.41755E-03   -0.36194E-04   364   0.399E-01    0.280E-02
DAV:  10    -0.317764852112E+02   -0.27200E-03   -0.14844E-04   288   0.244E-01    0.173E-02
DAV:  11    -0.317767122982E+02   -0.22709E-03   -0.85789E-05   264   0.157E-01    0.124E-02
DAV:  12    -0.317768633914E+02   -0.15109E-03   -0.46027E-05   272   0.117E-01    0.685E-03
DAV:  13    -0.317771069779E+02   -0.24359E-03   -0.54039E-05   264   0.675E-02    0.824E-03
DAV:  14    -0.317772753311E+02   -0.16835E-03   -0.31925E-05   268   0.806E-02    0.673E-03
DAV:  15    -0.317773473939E+02   -0.72063E-04   -0.17328E-05   272   0.426E-02
  56 F= -.31777347E+02 E0= -.31777347E+02  d E =-.142935E+00  mag=     1.0000
       N       E                     dE             d eps       ncg     rms          rms(c)
DAV:   1    -0.314319882742E+02    0.34529E+00   -0.25358E+02   416   0.605E+01    0.107E+00
DAV:   2    -0.318419935878E+02   -0.41001E+00   -0.42697E+00   568   0.164E+01    0.144E+00
DAV:   3    -0.318194425193E+02    0.22551E-01   -0.17225E-01   416   0.945E+00    0.771E-01
DAV:   4    -0.318185186758E+02    0.92384E-03   -0.44545E-02   432   0.187E+00    0.668E-01
DAV:   5    -0.318138748630E+02    0.46438E-02   -0.13225E-02   532   0.166E+00    0.430E-01
DAV:   6    -0.318115944027E+02    0.22805E-02   -0.12542E-02   540   0.129E+00    0.148E-01
DAV:   7    -0.318113741748E+02    0.22023E-03   -0.21735E-03   432   0.117E+00    0.991E-02
DAV:   8    -0.318114817126E+02   -0.10754E-03   -0.21319E-03   448   0.544E-01    0.773E-02
DAV:   9    -0.318114921842E+02   -0.10472E-04   -0.53619E-04   408   0.455E-01
  57 F= -.31811492E+02 E0= -.31811492E+02  d E =-.177080E+00  mag=     1.0000
       N       E                     dE             d eps       ncg     rms          rms(c)
DAV:   1    -0.318213560854E+02   -0.98744E-02   -0.23232E+01   392   0.165E+01    0.392E-01
DAV:   2    -0.318607226729E+02   -0.39367E-01   -0.42033E-01   556   0.629E+00    0.522E-01
DAV:   3    -0.318576123521E+02    0.31103E-02   -0.23674E-02   412   0.350E+00    0.268E-01
DAV:   4    -0.318575623297E+02    0.50022E-04   -0.54957E-03   424   0.672E-01    0.238E-01
DAV:   5    -0.318570503760E+02    0.51195E-03   -0.11128E-03   408   0.433E-01    0.155E-01
DAV:   6    -0.318568214371E+02    0.22894E-03   -0.22977E-03   584   0.644E-01    0.548E-02
DAV:   7    -0.318568050547E+02    0.16382E-04   -0.37887E-04   392   0.508E-01
  58 F= -.31856805E+02 E0= -.31856805E+02  d E =-.453129E-01  mag=     1.0000
       N       E                     dE             d eps       ncg     rms          rms(c)
DAV:   1    -0.315806088830E+02    0.27621E+00   -0.21936E+02   392   0.554E+01    0.142E+00
DAV:   2    -0.320280009804E+02   -0.44739E+00   -0.48426E+00   556   0.254E+01    0.188E+00
DAV:   3    -0.319754624566E+02    0.52539E-01   -0.27400E-01   400   0.139E+01    0.804E-01
DAV:   4    -0.319778939661E+02   -0.24315E-02   -0.84369E-02   424   0.222E+00    0.655E-01
DAV:   5    -0.319757013557E+02    0.21926E-02   -0.69736E-03   408   0.149E+00    0.581E-01
DAV:   6    -0.319718760225E+02    0.38253E-02   -0.16642E-02   600   0.202E+00    0.326E-01
DAV:   7    -0.319703176315E+02    0.15584E-02   -0.64400E-03   424   0.198E+00    0.165E-01
DAV:   8    -0.319702214778E+02    0.96154E-04   -0.43116E-03   616   0.881E-01    0.833E-02
DAV:   9    -0.319703153488E+02   -0.93871E-04   -0.96977E-04   408   0.357E-01
  59 F= -.31970315E+02 E0= -.31970315E+02  d E =-.158823E+00  mag=     1.0000
       N       E                     dE             d eps       ncg     rms          rms(c)
DAV:   1    -0.312926243985E+02    0.67760E+00   -0.10568E+03   520   0.153E+02    0.316E+00
DAV:   2    -0.322178894312E+02   -0.92527E+00   -0.11759E+01   480   0.560E+01    0.400E+00
DAV:   3    -0.320005310455E+02    0.21736E+00   -0.18582E+00   424   0.301E+01    0.127E+00
DAV:   4    -0.320133586710E+02   -0.12828E-01   -0.53123E-01   548   0.122E+01    0.872E-01
DAV:   5    -0.320202674493E+02   -0.69088E-02   -0.22927E-01   416   0.958E+00    0.390E-01
DAV:   6    -0.320228682862E+02   -0.26008E-02   -0.49129E-02   456   0.442E+00    0.305E-01
DAV:   7    -0.320234902296E+02   -0.62194E-03   -0.22247E-02   408   0.287E+00    0.751E-02
DAV:   8    -0.320242451559E+02   -0.75493E-03   -0.37809E-03   492   0.874E-01    0.902E-02
DAV:   9    -0.320244932780E+02   -0.24812E-03   -0.10735E-03   424   0.700E-01    0.300E-02
DAV:  10    -0.320249102717E+02   -0.41699E-03   -0.16078E-04   260   0.238E-01    0.153E-02
DAV:  11    -0.320250925056E+02   -0.18223E-03   -0.13537E-04   264   0.189E-01    0.130E-02
DAV:  12    -0.320252718321E+02   -0.17933E-03   -0.59068E-05   260   0.113E-01    0.781E-03
DAV:  13    -0.320254442502E+02   -0.17242E-03   -0.38101E-05   256   0.636E-02    0.594E-03
DAV:  14    -0.320257345733E+02   -0.29032E-03   -0.59360E-05   264   0.660E-02    0.820E-03
DAV:  15    -0.320258101217E+02   -0.75548E-04   -0.22661E-05   264   0.556E-02
  60 F= -.32025810E+02 E0= -.32025810E+02  d E =-.214318E+00  mag=     1.0000
       N       E                     dE             d eps       ncg     rms          rms(c)
DAV:   1    -0.318199387438E+02    0.20580E+00   -0.13253E+02   420   0.418E+01    0.824E-01
DAV:   2    -0.320575072079E+02   -0.23757E+00   -0.24736E+00   560   0.121E+01    0.104E+00
DAV:   3    -0.320456007634E+02    0.11906E-01   -0.89145E-02   416   0.667E+00    0.597E-01
DAV:   4    -0.320447759551E+02    0.82481E-03   -0.22718E-02   424   0.152E+00    0.522E-01
DAV:   5    -0.320417609422E+02    0.30150E-02   -0.85045E-03   560   0.146E+00    0.326E-01
DAV:   6    -0.320405543686E+02    0.12066E-02   -0.82789E-03   628   0.145E+00    0.108E-01
DAV:   7    -0.320404680044E+02    0.86364E-04   -0.14297E-03   432   0.921E-01    0.641E-02
DAV:   8    -0.320405830265E+02   -0.11502E-03   -0.10677E-03   404   0.291E-01    0.583E-02
DAV:   9    -0.320405845960E+02   -0.15695E-05   -0.17663E-04   248   0.264E-01
  61 F= -.32040585E+02 E0= -.32040585E+02  d E =-.229092E+00  mag=     1.0000
       N       E                     dE             d eps       ncg     rms          rms(c)
DAV:   1    -0.320565142457E+02   -0.15931E-01   -0.44192E+01   392   0.231E+01    0.498E-01
DAV:   2    -0.321333038361E+02   -0.76790E-01   -0.80739E-01   556   0.673E+00    0.615E-01
DAV:   3    -0.321288718642E+02    0.44320E-02   -0.31302E-02   412   0.380E+00    0.350E-01
DAV:   4    -0.321285478126E+02    0.32405E-03   -0.75650E-03   424   0.100E+00    0.296E-01
DAV:   5    -0.321278562965E+02    0.69152E-03   -0.20184E-03   432   0.622E-01    0.202E-01
DAV:   6    -0.321274921551E+02    0.36414E-03   -0.33660E-03   552   0.582E-01    0.637E-02
DAV:   7    -0.321274535239E+02    0.38631E-04   -0.46596E-04   416   0.547E-01
  62 F= -.32127454E+02 E0= -.32127454E+02  d E =-.868689E-01  mag=     1.0000
       N       E                     dE             d eps       ncg     rms          rms(c)
DAV:   1    -0.317109760260E+02    0.41652E+00   -0.43003E+02   456   0.837E+01    0.157E+00
DAV:   2    -0.323075453851E+02   -0.59657E+00   -0.64724E+00   540   0.279E+01    0.220E+00
DAV:   3    -0.322490339146E+02    0.58511E-01   -0.47088E-01   416   0.164E+01    0.900E-01
DAV:   4    -0.322516406535E+02   -0.26067E-02   -0.12330E-01   440   0.286E+00    0.671E-01
DAV:   5    -0.322493764892E+02    0.22642E-02   -0.27373E-02   404   0.305E+00    0.549E-01
DAV:   6    -0.322477170858E+02    0.16594E-02   -0.22509E-02   588   0.304E+00    0.349E-01
DAV:   7    -0.322460351380E+02    0.16819E-02   -0.59968E-03   480   0.170E+00    0.191E-01
DAV:   8    -0.322457863853E+02    0.24875E-03   -0.58725E-03   540   0.122E+00    0.777E-02
DAV:   9    -0.322460309797E+02   -0.24459E-03   -0.20416E-03   464   0.530E-01    0.608E-02
DAV:  10    -0.322461530795E+02   -0.12210E-03   -0.23406E-04   260   0.271E-01    0.382E-02
DAV:  11    -0.322462963259E+02   -0.14325E-03   -0.13098E-04   272   0.183E-01    0.221E-02
DAV:  12    -0.322464339788E+02   -0.13765E-03   -0.41610E-05   264   0.134E-01    0.168E-02
DAV:  13    -0.322465457147E+02   -0.11174E-03   -0.40090E-05   252   0.908E-02    0.832E-03
DAV:  14    -0.322466020761E+02   -0.56361E-04   -0.51604E-05   264   0.527E-02
  63 F= -.32246602E+02 E0= -.32246602E+02  d E =-.206017E+00  mag=     1.0000
       N       E                     dE             d eps       ncg     rms          rms(c)
DAV:   1    -0.322104501423E+02    0.36096E-01   -0.80218E+01   392   0.315E+01    0.723E-01
DAV:   2    -0.323512736294E+02   -0.14082E+00   -0.15093E+00   536   0.107E+01    0.873E-01
DAV:   3    -0.323423860055E+02    0.88876E-02   -0.71138E-02   400   0.611E+00    0.459E-01
DAV:   4    -0.323419940792E+02    0.39193E-03   -0.17736E-02   432   0.147E+00    0.393E-01
DAV:   5    -0.323406407273E+02    0.13534E-02   -0.40506E-03   396   0.917E-01    0.264E-01
DAV:   6    -0.323400512227E+02    0.58950E-03   -0.64047E-03   600   0.143E+00    0.122E-01
DAV:   7    -0.323399085898E+02    0.14263E-03   -0.13517E-03   440   0.960E-01    0.364E-02
DAV:   8    -0.323400458521E+02   -0.13726E-03   -0.70531E-04   392   0.313E-01    0.439E-02
DAV:   9    -0.323401052810E+02   -0.59429E-04   -0.18573E-04   256   0.192E-01
  64 F= -.32340105E+02 E0= -.32340105E+02  d E =-.935032E-01  mag=     1.0000
       N       E                     dE             d eps       ncg     rms          rms(c)
DAV:   1    -0.319543973409E+02    0.38565E+00   -0.31111E+02   432   0.681E+01    0.142E+00
DAV:   2    -0.324762828479E+02   -0.52189E+00   -0.56491E+00   540   0.254E+01    0.191E+00
DAV:   3    -0.324305697466E+02    0.45713E-01   -0.32952E-01   408   0.140E+01    0.846E-01
DAV:   4    -0.324320863450E+02   -0.15166E-02   -0.90739E-02   416   0.269E+00    0.686E-01
DAV:   5    -0.324290820780E+02    0.30043E-02   -0.14558E-02   400   0.210E+00    0.541E-01
DAV:   6    -0.324265026857E+02    0.25794E-02   -0.23792E-02   576   0.275E+00    0.275E-01
DAV:   7    -0.324256078961E+02    0.89479E-03   -0.59440E-03   512   0.159E+00    0.125E-01
DAV:   8    -0.324257513786E+02   -0.14348E-03   -0.33724E-03   480   0.746E-01    0.776E-02
DAV:   9    -0.324259173904E+02   -0.16601E-03   -0.96702E-04   416   0.440E-01    0.538E-02
DAV:  10    -0.324261455390E+02   -0.22815E-03   -0.17464E-04   256   0.278E-01    0.244E-02
DAV:  11    -0.324263715793E+02   -0.22604E-03   -0.13440E-04   288   0.176E-01    0.118E-02
DAV:  12    -0.324264506238E+02   -0.79044E-04   -0.41937E-05   264   0.101E-01
  65 F= -.32426451E+02 E0= -.32426451E+02  d E =-.179849E+00  mag=     1.0000
       N       E                     dE             d eps       ncg     rms          rms(c)
DAV:   1    -0.324144089660E+02    0.11963E-01   -0.97390E+00   396   0.106E+01    0.229E-01
DAV:   2    -0.324290707971E+02   -0.14662E-01   -0.15625E-01   532   0.307E+00    0.275E-01
DAV:   3    -0.324285104724E+02    0.56032E-03   -0.92183E-03   400   0.176E+00    0.159E-01
DAV:   4    -0.324284015133E+02    0.10896E-03   -0.16160E-03   416   0.599E-01    0.131E-01
DAV:   5    -0.324282579284E+02    0.14358E-03   -0.49355E-04   344   0.224E-01    0.821E-02
DAV:   6    -0.324282806059E+02   -0.22678E-04   -0.62908E-04   404   0.433E-01
  66 F= -.32428281E+02 E0= -.32428281E+02  d E =-.181679E+00  mag=     1.0000
       N       E                     dE             d eps       ncg     rms          rms(c)
DAV:   1    -0.323590372888E+02    0.69221E-01   -0.74775E+01   392   0.304E+01    0.673E-01
DAV:   2    -0.324912299354E+02   -0.13219E+00   -0.14049E+00   536   0.989E+00    0.833E-01
DAV:   3    -0.324831136887E+02    0.81162E-02   -0.62485E-02   400   0.563E+00    0.454E-01
DAV:   4    -0.324826809084E+02    0.43278E-03   -0.14782E-02   416   0.127E+00    0.390E-01
DAV:   5    -0.324813240899E+02    0.13568E-02   -0.36280E-03   412   0.889E-01    0.258E-01
DAV:   6    -0.324809358470E+02    0.38824E-03   -0.61602E-03   620   0.128E+00    0.108E-01
DAV:   7    -0.324808568918E+02    0.78955E-04   -0.11171E-03   424   0.899E-01    0.367E-02
DAV:   8    -0.324810109918E+02   -0.15410E-03   -0.66547E-04   416   0.305E-01    0.483E-02
DAV:   9    -0.324810546496E+02   -0.43658E-04   -0.19706E-04   256   0.204E-01
  67 F= -.32481055E+02 E0= -.32481055E+02  d E =-.527740E-01  mag=     1.0000
       N       E                     dE             d eps       ncg     rms          rms(c)
DAV:   1    -0.323580770107E+02    0.12293E+00   -0.84106E+01   392   0.324E+01    0.711E-01
DAV:   2    -0.325076517933E+02   -0.14957E+00   -0.15862E+00   536   0.107E+01    0.889E-01
DAV:   3    -0.324983954815E+02    0.92563E-02   -0.70342E-02   400   0.602E+00    0.484E-01
DAV:   4    -0.324979284620E+02    0.46702E-03   -0.16890E-02   424   0.132E+00    0.419E-01
DAV:   5    -0.324963052667E+02    0.16232E-02   -0.41074E-03   416   0.961E-01    0.275E-01
DAV:   6    -0.324957081683E+02    0.59710E-03   -0.69089E-03   620   0.135E+00    0.111E-01
DAV:   7    -0.324956246983E+02    0.83470E-04   -0.12435E-03   432   0.935E-01    0.383E-02
DAV:   8    -0.324957950445E+02   -0.17035E-03   -0.70338E-04   432   0.312E-01    0.499E-02
DAV:   9    -0.324958450328E+02   -0.49988E-04   -0.20739E-04   256   0.218E-01
  68 F= -.32495845E+02 E0= -.32495845E+02  d E =-.675644E-01  mag=     1.0000
       N       E                     dE             d eps       ncg     rms          rms(c)
DAV:   1    -0.324551573259E+02    0.40638E-01   -0.42341E+01   392   0.226E+01    0.484E-01
DAV:   2    -0.325299427141E+02   -0.74785E-01   -0.78835E-01   532   0.587E+00    0.603E-01
DAV:   3    -0.325253930755E+02    0.45496E-02   -0.25931E-02   404   0.341E+00    0.356E-01
DAV:   4    -0.325248418625E+02    0.55121E-03   -0.60932E-03   432   0.974E-01    0.298E-01
DAV:   5    -0.325240735232E+02    0.76834E-03   -0.21059E-03   516   0.625E-01    0.194E-01
DAV:   6    -0.325238708582E+02    0.20266E-03   -0.28872E-03   576   0.696E-01    0.691E-02
DAV:   7    -0.325238481577E+02    0.22701E-04   -0.49980E-04   416   0.577E-01
  69 F= -.32523848E+02 E0= -.32523848E+02  d E =-.280031E-01  mag=     1.0000
       N       E                     dE             d eps       ncg     rms          rms(c)
DAV:   1    -0.325165782257E+02    0.72926E-02   -0.74671E+00   396   0.927E+00    0.204E-01
DAV:   2    -0.325277750880E+02   -0.11197E-01   -0.11982E-01   532   0.242E+00    0.240E-01
DAV:   3    -0.325270650919E+02    0.71000E-03   -0.48751E-03   400   0.140E+00    0.136E-01
DAV:   4    -0.325269986430E+02    0.66449E-04   -0.11099E-03   392   0.459E-01    0.110E-01
DAV:   5    -0.325269397466E+02    0.58896E-04   -0.31986E-04   316   0.258E-01
  70 F= -.32526940E+02 E0= -.32526940E+02  d E =-.310947E-01  mag=     1.0000
       N       E                     dE             d eps       ncg     rms          rms(c)
DAV:   1    -0.325160537034E+02    0.10945E-01   -0.14962E+01   392   0.132E+01    0.287E-01
DAV:   2    -0.325403392549E+02   -0.24286E-01   -0.25850E-01   532   0.393E+00    0.362E-01
DAV:   3    -0.325390772056E+02    0.12620E-02   -0.13206E-02   404   0.222E+00    0.206E-01
DAV:   4    -0.325389605678E+02    0.11664E-03   -0.25043E-03   408   0.591E-01    0.173E-01
DAV:   5    -0.325387509711E+02    0.20960E-03   -0.67167E-04   400   0.355E-01    0.117E-01
DAV:   6    -0.325386844145E+02    0.66557E-04   -0.12051E-03   552   0.571E-01    0.485E-02
DAV:   7    -0.325386631504E+02    0.21264E-04   -0.22811E-04   256   0.418E-01
  71 F= -.32538663E+02 E0= -.32538663E+02  d E =-.117234E-01  mag=     1.0000
       N       E                     dE             d eps       ncg     rms          rms(c)
DAV:   1    -0.325347780049E+02    0.39064E-02   -0.38270E+00   392   0.662E+00    0.137E-01
DAV:   2    -0.325402390767E+02   -0.54611E-02   -0.57861E-02   540   0.180E+00    0.158E-01
DAV:   3    -0.325400630942E+02    0.17598E-03   -0.31361E-03   396   0.104E+00    0.911E-02
DAV:   4    -0.325400434013E+02    0.19693E-04   -0.52981E-04   384   0.315E-01
  72 F= -.32540043E+02 E0= -.32540043E+02  d E =-.131037E-01  mag=     1.0000
       N       E                     dE             d eps       ncg     rms          rms(c)
DAV:   1    -0.325254325511E+02    0.14631E-01   -0.13845E+01   392   0.127E+01    0.277E-01
DAV:   2    -0.325472556659E+02   -0.21823E-01   -0.23310E-01   536   0.402E+00    0.356E-01
DAV:   3    -0.325462332614E+02    0.10224E-02   -0.13065E-02   392   0.223E+00    0.207E-01
DAV:   4    -0.325461016803E+02    0.13158E-03   -0.24447E-03   404   0.569E-01    0.179E-01
DAV:   5    -0.325457333953E+02    0.36828E-03   -0.83684E-04   396   0.371E-01    0.102E-01
DAV:   6    -0.325456597812E+02    0.73614E-04   -0.12330E-03   548   0.556E-01    0.408E-02
DAV:   7    -0.325456518814E+02    0.78997E-05   -0.17225E-04   240   0.359E-01
  73 F= -.32545652E+02 E0= -.32545652E+02  d E =-.560848E-02  mag=     1.0000
       N       E                     dE             d eps       ncg     rms          rms(c)
DAV:   1    -0.325451389908E+02    0.52079E-03   -0.44467E-01   388   0.226E+00    0.448E-02
DAV:   2    -0.325457802648E+02   -0.64127E-03   -0.65053E-03   552   0.581E-01    0.409E-02
DAV:   3    -0.325457868285E+02   -0.65637E-05   -0.31204E-04   324   0.322E-01
  74 F= -.32545787E+02 E0= -.32545787E+02  d E =-.574343E-02  mag=     1.0000
       N       E                     dE             d eps       ncg     rms          rms(c)
DAV:   1    -0.325412359468E+02    0.45443E-02   -0.52236E+00   392   0.772E+00    0.156E-01
DAV:   2    -0.325489409694E+02   -0.77050E-02   -0.81409E-02   536   0.211E+00    0.199E-01
DAV:   3    -0.325485913962E+02    0.34957E-03   -0.39317E-03   416   0.116E+00    0.119E-01
DAV:   4    -0.325485235742E+02    0.67822E-04   -0.80138E-04   368   0.405E-01
  75 F= -.32548524E+02 E0= -.32548524E+02  d E =-.273675E-02  mag=     1.0000
       N       E                     dE             d eps       ncg     rms          rms(c)
DAV:   1    -0.325454662788E+02    0.31251E-02   -0.25482E+00   392   0.540E+00    0.103E-01
DAV:   2    -0.325488157299E+02   -0.33495E-02   -0.35394E-02   524   0.117E+00    0.113E-01
DAV:   3    -0.325486999487E+02    0.11578E-03   -0.72187E-04   368   0.275E-01    0.919E-02
DAV:   4    -0.325486366511E+02    0.63298E-04   -0.27518E-04   272   0.406E-01
  76 F= -.32548637E+02 E0= -.32548637E+02  d E =-.284982E-02  mag=     1.0000
       N       E                     dE             d eps       ncg     rms          rms(c)
DAV:   1    -0.325415786105E+02    0.71213E-02   -0.60392E+00   396   0.837E+00    0.157E-01
DAV:   2    -0.325508155041E+02   -0.92369E-02   -0.95456E-02   536   0.197E+00    0.199E-01
DAV:   3    -0.325503169875E+02    0.49852E-03   -0.25329E-03   416   0.104E+00    0.123E-01
DAV:   4    -0.325502375771E+02    0.79410E-04   -0.68554E-04   368   0.367E-01
  77 F= -.32550238E+02 E0= -.32550238E+02  d E =-.160093E-02  mag=     1.0000
       N       E                     dE             d eps       ncg     rms          rms(c)
DAV:   1    -0.325492478949E+02    0.10691E-02   -0.81203E-01   392   0.307E+00    0.810E-02
DAV:   2    -0.325502163923E+02   -0.96850E-03   -0.11187E-02   552   0.847E-01    0.924E-02
DAV:   3    -0.325501664425E+02    0.49950E-04   -0.76451E-04   376   0.503E-01
  78 F= -.32550166E+02 E0= -.32550166E+02  d E =-.152979E-02  mag=     1.0000
       N       E                     dE             d eps       ncg     rms          rms(c)
DAV:   1    -0.325443813056E+02    0.58351E-02   -0.60690E+00   392   0.833E+00    0.170E-01
DAV:   2    -0.325532577086E+02   -0.88764E-02   -0.94286E-02   536   0.209E+00    0.226E-01
DAV:   3    -0.325526085590E+02    0.64915E-03   -0.31845E-03   416   0.108E+00    0.143E-01
DAV:   4    -0.325524944341E+02    0.11412E-03   -0.79375E-04   364   0.375E-01    0.117E-01
DAV:   5    -0.325523477162E+02    0.14672E-03   -0.34104E-04   284   0.325E-01    0.680E-02
DAV:   6    -0.325523912286E+02   -0.43512E-04   -0.76779E-04   448   0.338E-01
  79 F= -.32552391E+02 E0= -.32552391E+02  d E =-.222479E-02  mag=     1.0000
       N       E                     dE             d eps       ncg     rms          rms(c)
DAV:   1    -0.324969190063E+02    0.55429E-01   -0.35601E+01   392   0.205E+01    0.427E-01
DAV:   2    -0.325583416756E+02   -0.61423E-01   -0.64134E-01   532   0.514E+00    0.540E-01
DAV:   3    -0.325543707801E+02    0.39709E-02   -0.18969E-02   408   0.290E+00    0.317E-01
DAV:   4    -0.325538757840E+02    0.49500E-03   -0.54613E-03   472   0.942E-01    0.259E-01
DAV:   5    -0.325533033393E+02    0.57244E-03   -0.15836E-03   428   0.601E-01    0.180E-01
DAV:   6    -0.325530341491E+02    0.26919E-03   -0.29476E-03   580   0.675E-01    0.753E-02
DAV:   7    -0.325530042177E+02    0.29931E-04   -0.45778E-04   400   0.483E-01
  80 F= -.32553004E+02 E0= -.32553004E+02  d E =-.283778E-02  mag=     1.0000
       N       E                     dE             d eps       ncg     rms          rms(c)
DAV:   1    -0.325395609537E+02    0.13473E-01   -0.11547E+01   392   0.116E+01    0.277E-01
DAV:   2    -0.325579117164E+02   -0.18351E-01   -0.20031E-01   540   0.377E+00    0.332E-01
DAV:   3    -0.325569134477E+02    0.99827E-03   -0.12203E-02   408   0.224E+00    0.179E-01
DAV:   4    -0.325568878089E+02    0.25639E-04   -0.23350E-03   400   0.547E-01    0.148E-01
DAV:   5    -0.325567619853E+02    0.12582E-03   -0.52711E-04   392   0.295E-01    0.101E-01
DAV:   6    -0.325567316801E+02    0.30305E-04   -0.78269E-04   440   0.505E-01
  81 F= -.32556732E+02 E0= -.32556732E+02  d E =-.372746E-02  mag=     1.0000
       N       E                     dE             d eps       ncg     rms          rms(c)
DAV:   1    -0.325565049774E+02    0.25701E-03   -0.32896E-01   400   0.199E+00    0.412E-02
DAV:   2    -0.325570622874E+02   -0.55731E-03   -0.56680E-03   540   0.618E-01    0.631E-02
DAV:   3    -0.325570303379E+02    0.31950E-04   -0.26629E-04   272   0.372E-01
  82 F= -.32557030E+02 E0= -.32557030E+02  d E =-.402612E-02  mag=     1.0000
       N       E                     dE             d eps       ncg     rms          rms(c)
DAV:   1    -0.325454880959E+02    0.11574E-01   -0.96891E+00   392   0.106E+01    0.240E-01
DAV:   2    -0.325603742603E+02   -0.14886E-01   -0.16023E-01   536   0.322E+00    0.295E-01
DAV:   3    -0.325595469881E+02    0.82727E-03   -0.96445E-03   408   0.185E+00    0.160E-01
DAV:   4    -0.325594549349E+02    0.92053E-04   -0.16829E-03   448   0.517E-01    0.128E-01
DAV:   5    -0.325593404080E+02    0.11453E-03   -0.37043E-04   332   0.237E-01    0.931E-02
DAV:   6    -0.325592733609E+02    0.67047E-04   -0.72673E-04   456   0.460E-01
  83 F= -.32559273E+02 E0= -.32559273E+02  d E =-.224302E-02  mag=     1.0000
       N       E                     dE             d eps       ncg     rms          rms(c)
DAV:   1    -0.325592786888E+02    0.61719E-04   -0.15202E-02   560   0.530E-01    0.266E-02
DAV:   2    -0.325592859425E+02   -0.72537E-05   -0.14379E-04   236   0.299E-01
  84 F= -.32559286E+02 E0= -.32559286E+02  d E =-.225560E-02  mag=     1.0000
       N       E                     dE             d eps       ncg     rms          rms(c)
DAV:   1    -0.325500235595E+02    0.92551E-02   -0.83622E+00   392   0.975E+00    0.216E-01
DAV:   2    -0.325629376123E+02   -0.12914E-01   -0.13774E-01   536   0.303E+00    0.284E-01
DAV:   3    -0.325620037607E+02    0.93385E-03   -0.70786E-03   400   0.183E+00    0.152E-01
DAV:   4    -0.325619199144E+02    0.83846E-04   -0.14267E-03   432   0.405E-01    0.125E-01
DAV:   5    -0.325617876286E+02    0.13229E-03   -0.28836E-04   292   0.239E-01    0.878E-02
DAV:   6    -0.325617332562E+02    0.54372E-04   -0.90890E-04   536   0.437E-01
  85 F= -.32561733E+02 E0= -.32561733E+02  d E =-.244731E-02  mag=     1.0000
       N       E                     dE             d eps       ncg     rms          rms(c)
DAV:   1    -0.325582387928E+02    0.35488E-02   -0.27704E+00   396   0.560E+00    0.109E-01
DAV:   2    -0.325621968159E+02   -0.39580E-02   -0.40874E-02   536   0.152E+00    0.131E-01
DAV:   3    -0.325620216514E+02    0.17516E-03   -0.17685E-03   380   0.908E-01    0.711E-02
DAV:   4    -0.325620001825E+02    0.21469E-04   -0.25849E-04   276   0.190E-01
  86 F= -.32562000E+02 E0= -.32562000E+02  d E =-.271424E-02  mag=     1.0000
       N       E                     dE             d eps       ncg     rms          rms(c)
DAV:   1    -0.325586223257E+02    0.33993E-02   -0.42319E+00   392   0.690E+00    0.136E-01
DAV:   2    -0.325644518972E+02   -0.58296E-02   -0.61438E-02   532   0.195E+00    0.190E-01
DAV:   3    -0.325640652804E+02    0.38662E-03   -0.28265E-03   392   0.108E+00    0.115E-01
DAV:   4    -0.325639969973E+02    0.68283E-04   -0.49017E-04   364   0.236E-01
  87 F= -.32563997E+02 E0= -.32563997E+02  d E =-.199681E-02  mag=     1.0000
       N       E                     dE             d eps       ncg     rms          rms(c)
DAV:   1    -0.325074394741E+02    0.56626E-01   -0.38384E+01   392   0.212E+01    0.461E-01
DAV:   2    -0.325746598307E+02   -0.67220E-01   -0.70746E-01   536   0.697E+00    0.624E-01
DAV:   3    -0.325693734276E+02    0.52864E-02   -0.25373E-02   392   0.388E+00    0.354E-01
DAV:   4    -0.325688722512E+02    0.50118E-03   -0.62665E-03   396   0.679E-01    0.304E-01
DAV:   5    -0.325678716909E+02    0.10006E-02   -0.20169E-03   524   0.669E-01    0.201E-01
DAV:   6    -0.325673106949E+02    0.56100E-03   -0.33730E-03   608   0.101E+00    0.695E-02
DAV:   7    -0.325672796826E+02    0.31012E-04   -0.69972E-04   400   0.596E-01
  88 F= -.32567280E+02 E0= -.32567280E+02  d E =-.527950E-02  mag=     1.0000
       N       E                     dE             d eps       ncg     rms          rms(c)
DAV:   1    -0.325630311660E+02    0.42795E-02   -0.60072E+00   392   0.831E+00    0.188E-01
DAV:   2    -0.325720467959E+02   -0.90156E-02   -0.97159E-02   536   0.256E+00    0.229E-01
DAV:   3    -0.325715763544E+02    0.47044E-03   -0.61239E-03   396   0.158E+00    0.122E-01
DAV:   4    -0.325715571190E+02    0.19235E-04   -0.11486E-03   392   0.393E-01    0.979E-02
DAV:   5    -0.325715116918E+02    0.45427E-04   -0.23920E-04   232   0.251E-01
  89 F= -.32571512E+02 E0= -.32571512E+02  d E =-.423201E-02  mag=     1.0000
       N       E                     dE             d eps       ncg     rms          rms(c)
DAV:   1    -0.325714972197E+02    0.59899E-04   -0.55072E-02   540   0.921E-01    0.362E-02
DAV:   2    -0.325715170053E+02   -0.19786E-04   -0.44230E-04   376   0.538E-01
  90 F= -.32571517E+02 E0= -.32571517E+02  d E =-.423732E-02  mag=     1.0000
       N       E                     dE             d eps       ncg     rms          rms(c)
DAV:   1    -0.325664976504E+02    0.49996E-02   -0.61920E+00   392   0.842E+00    0.172E-01
DAV:   2    -0.325760331852E+02   -0.95355E-02   -0.99794E-02   544   0.234E+00    0.226E-01
DAV:   3    -0.325754785098E+02    0.55468E-03   -0.42384E-03   396   0.138E+00    0.131E-01
DAV:   4    -0.325753999167E+02    0.78593E-04   -0.81562E-04   368   0.335E-01
  91 F= -.32575400E+02 E0= -.32575400E+02  d E =-.388291E-02  mag=     1.0000
       N       E                     dE             d eps       ncg     rms          rms(c)
DAV:   1    -0.325265339351E+02    0.48945E-01   -0.31237E+01   392   0.192E+01    0.386E-01
DAV:   2    -0.325792522116E+02   -0.52718E-01   -0.54879E-01   544   0.521E+00    0.519E-01
DAV:   3    -0.325762242174E+02    0.30280E-02   -0.18437E-02   396   0.288E+00    0.324E-01
DAV:   4    -0.325757047214E+02    0.51950E-03   -0.41252E-03   456   0.737E-01    0.278E-01
DAV:   5    -0.325748307970E+02    0.87392E-03   -0.19558E-03   516   0.646E-01    0.166E-01
DAV:   6    -0.325745379745E+02    0.29282E-03   -0.29195E-03   580   0.893E-01    0.583E-02
DAV:   7    -0.325745327801E+02    0.51944E-05   -0.49233E-04   384   0.513E-01
  92 F= -.32574533E+02 E0= -.32574533E+02  d E =-.301577E-02  mag=     1.0000
       N       E                     dE             d eps       ncg     rms          rms(c)
DAV:   1    -0.325659876479E+02    0.85503E-02   -0.76808E+00   392   0.938E+00    0.208E-01
DAV:   2    -0.325775347996E+02   -0.11547E-01   -0.12419E-01   540   0.304E+00    0.272E-01
DAV:   3    -0.325768321738E+02    0.70263E-03   -0.72144E-03   412   0.175E+00    0.150E-01
DAV:   4    -0.325767811771E+02    0.50997E-04   -0.13278E-03   388   0.388E-01    0.128E-01
DAV:   5    -0.325766451994E+02    0.13598E-03   -0.29343E-04   288   0.236E-01    0.885E-02
DAV:   6    -0.325766165064E+02    0.28693E-04   -0.10408E-03   536   0.406E-01    0.374E-02
DAV:   7    -0.325766014177E+02    0.15089E-04   -0.10657E-04   240   0.304E-01
  93 F= -.32576601E+02 E0= -.32576601E+02  d E =-.508441E-02  mag=     1.0000
       N       E                     dE             d eps       ncg     rms          rms(c)
DAV:   1    -0.325703461896E+02    0.62703E-02   -0.70488E+00   392   0.892E+00    0.191E-01
DAV:   2    -0.325811858912E+02   -0.10840E-01   -0.11505E-01   540   0.267E+00    0.265E-01
DAV:   3    -0.325802937479E+02    0.89214E-03   -0.54144E-03   408   0.156E+00    0.149E-01
DAV:   4    -0.325801994255E+02    0.94322E-04   -0.10873E-03   440   0.318E-01    0.122E-01
DAV:   5    -0.325800777982E+02    0.12163E-03   -0.20190E-04   224   0.241E-01    0.911E-02
DAV:   6    -0.325799983768E+02    0.79421E-04   -0.82159E-04   460   0.453E-01
  94 F= -.32579998E+02 E0= -.32579998E+02  d E =-.339696E-02  mag=     1.0000
       N       E                     dE             d eps       ncg     rms          rms(c)
DAV:   1    -0.325444447870E+02    0.35633E-01   -0.23792E+01   392   0.166E+01    0.355E-01
DAV:   2    -0.325853926097E+02   -0.40948E-01   -0.42758E-01   540   0.474E+00    0.463E-01
DAV:   3    -0.325824863030E+02    0.29063E-02   -0.15541E-02   404   0.274E+00    0.264E-01
DAV:   4    -0.325821793759E+02    0.30693E-03   -0.36657E-03   464   0.618E-01    0.214E-01
DAV:   5    -0.325818465926E+02    0.33278E-03   -0.83472E-04   384   0.460E-01    0.159E-01
DAV:   6    -0.325816524349E+02    0.19416E-03   -0.19170E-03   548   0.751E-01    0.769E-02
DAV:   7    -0.325815918332E+02    0.60602E-04   -0.45919E-04   368   0.506E-01
  95 F= -.32581592E+02 E0= -.32581592E+02  d E =-.499042E-02  mag=     1.0000
       N       E                     dE             d eps       ncg     rms          rms(c)
DAV:   1    -0.325800067811E+02    0.16457E-02   -0.31150E+00   392   0.589E+00    0.120E-01
DAV:   2    -0.325840918206E+02   -0.40850E-02   -0.42883E-02   540   0.166E+00    0.143E-01
DAV:   3    -0.325838888112E+02    0.20301E-03   -0.23751E-03   392   0.103E+00    0.748E-02
DAV:   4    -0.325838730516E+02    0.15760E-04   -0.37173E-04   320   0.214E-01
  96 F= -.32583873E+02 E0= -.32583873E+02  d E =-.228122E-02  mag=     1.0000
       N       E                     dE             d eps       ncg     rms          rms(c)
DAV:   1    -0.325453209782E+02    0.38568E-01   -0.28207E+01   392   0.180E+01    0.401E-01
DAV:   2    -0.325936906416E+02   -0.48370E-01   -0.51220E-01   536   0.576E+00    0.538E-01
DAV:   3    -0.325898768704E+02    0.38138E-02   -0.20632E-02   400   0.329E+00    0.309E-01
DAV:   4    -0.325894662243E+02    0.41065E-03   -0.45447E-03   412   0.615E-01    0.259E-01
DAV:   5    -0.325888129993E+02    0.65323E-03   -0.13069E-03   488   0.527E-01    0.178E-01
DAV:   6    -0.325884712246E+02    0.34177E-03   -0.26338E-03   588   0.899E-01    0.726E-02
DAV:   7    -0.325884359644E+02    0.35260E-04   -0.58851E-04   416   0.582E-01
  97 F= -.32588436E+02 E0= -.32588436E+02  d E =-.684413E-02  mag=     1.0000
       N       E                     dE             d eps       ncg     rms          rms(c)
DAV:   1    -0.323900100856E+02    0.19846E+00   -0.11576E+02   392   0.383E+01    0.841E-01
DAV:   2    -0.326109537834E+02   -0.22094E+00   -0.23200E+00   536   0.129E+01    0.107E+00
DAV:   3    -0.325952944650E+02    0.15659E-01   -0.90553E-02   400   0.752E+00    0.550E-01
DAV:   4    -0.325947330811E+02    0.56138E-03   -0.23299E-02   400   0.127E+00    0.465E-01
DAV:   5    -0.325931559613E+02    0.15771E-02   -0.37062E-03   412   0.944E-01    0.372E-01
DAV:   6    -0.325913750677E+02    0.17809E-02   -0.99866E-03   608   0.163E+00    0.183E-01
DAV:   7    -0.325909377496E+02    0.43732E-03   -0.23193E-03   480   0.106E+00    0.838E-02
DAV:   8    -0.325910130902E+02   -0.75341E-04   -0.17634E-03   516   0.556E-01    0.566E-02
DAV:   9    -0.325910739480E+02   -0.60858E-04   -0.49664E-04   376   0.316E-01
  98 F= -.32591074E+02 E0= -.32591074E+02  d E =-.948211E-02  mag=     1.0000
       N       E                     dE             d eps       ncg     rms          rms(c)
DAV:   1    -0.325753915208E+02    0.15622E-01   -0.22398E+01   392   0.162E+01    0.375E-01
DAV:   2    -0.326139009108E+02   -0.38509E-01   -0.41633E-01   548   0.514E+00    0.467E-01
DAV:   3    -0.326119114488E+02    0.19895E-02   -0.21982E-02   416   0.305E+00    0.257E-01
DAV:   4    -0.326117796474E+02    0.13180E-03   -0.42447E-03   432   0.771E-01    0.213E-01
DAV:   5    -0.326114876175E+02    0.29203E-03   -0.10935E-03   412   0.418E-01    0.142E-01
DAV:   6    -0.326113936940E+02    0.93923E-04   -0.16926E-03   584   0.705E-01    0.620E-02
DAV:   7    -0.326113490699E+02    0.44624E-04   -0.38560E-04   384   0.555E-01
  99 F= -.32611349E+02 E0= -.32611349E+02  d E =-.202751E-01  mag=     1.0000
       N       E                     dE             d eps       ncg     rms          rms(c)
DAV:   1    -0.326105376179E+02    0.85608E-03   -0.10104E+00   384   0.341E+00    0.695E-02
DAV:   2    -0.326119680052E+02   -0.14304E-02   -0.15015E-02   548   0.944E-01    0.674E-02
DAV:   3    -0.326119795313E+02   -0.11526E-04   -0.91950E-04   372   0.593E-01
 100 F= -.32611980E+02 E0= -.32611980E+02  d E =-.209056E-01  mag=     1.0000
       N       E                     dE             d eps       ncg     rms          rms(c)
DAV:   1    -0.326027356350E+02    0.92324E-02   -0.12785E+01   392   0.122E+01    0.297E-01
DAV:   2    -0.326231002697E+02   -0.20365E-01   -0.22390E-01   544   0.438E+00    0.377E-01
DAV:   3    -0.326216335246E+02    0.14667E-02   -0.14802E-02   408   0.261E+00    0.198E-01
DAV:   4    -0.326215705419E+02    0.62983E-04   -0.28713E-03   400   0.534E-01    0.167E-01
DAV:   5    -0.326213427949E+02    0.22775E-03   -0.61063E-04   384   0.317E-01    0.114E-01
DAV:   6    -0.326212494903E+02    0.93305E-04   -0.12141E-03   552   0.616E-01    0.501E-02
DAV:   7    -0.326212244416E+02    0.25049E-04   -0.22487E-04   240   0.436E-01
 101 F= -.32621224E+02 E0= -.32621224E+02  d E =-.924491E-02  mag=     1.0000
       N       E                     dE             d eps       ncg     rms          rms(c)
DAV:   1    -0.326123163135E+02    0.89332E-02   -0.74359E+00   392   0.925E+00    0.223E-01
DAV:   2    -0.326234044720E+02   -0.11088E-01   -0.12187E-01   544   0.323E+00    0.270E-01
DAV:   3    -0.326227639240E+02    0.64055E-03   -0.91166E-03   404   0.198E+00    0.136E-01
DAV:   4    -0.326227488754E+02    0.15049E-04   -0.16570E-03   384   0.438E-01    0.111E-01
DAV:   5    -0.326226626621E+02    0.86213E-04   -0.28544E-04   264   0.212E-01
 102 F= -.32622663E+02 E0= -.32622663E+02  d E =-.106831E-01  mag=     1.0000
       N       E                     dE             d eps       ncg     rms          rms(c)
DAV:   1    -0.326166393505E+02    0.61095E-02   -0.95839E+00   392   0.105E+01    0.209E-01
DAV:   2    -0.326312242114E+02   -0.14585E-01   -0.15251E-01   544   0.301E+00    0.277E-01
DAV:   3    -0.326304215053E+02    0.80271E-03   -0.63309E-03   412   0.157E+00    0.164E-01
DAV:   4    -0.326303105984E+02    0.11091E-03   -0.12730E-03   372   0.397E-01    0.140E-01
DAV:   5    -0.326301284772E+02    0.18212E-03   -0.36193E-04   320   0.303E-01    0.951E-02
DAV:   6    -0.326300582840E+02    0.70193E-04   -0.11598E-03   544   0.414E-01    0.358E-02
DAV:   7    -0.326300528022E+02    0.54818E-05   -0.12228E-04   240   0.275E-01
 103 F= -.32630053E+02 E0= -.32630053E+02  d E =-.739014E-02  mag=     1.0000
       N       E                     dE             d eps       ncg     rms          rms(c)
DAV:   1    -0.325065152676E+02    0.12354E+00   -0.80367E+01   392   0.315E+01    0.666E-01
DAV:   2    -0.326527363117E+02   -0.14622E+00   -0.15334E+00   536   0.999E+00    0.850E-01
DAV:   3    -0.326436230284E+02    0.91133E-02   -0.52432E-02   392   0.537E+00    0.476E-01
DAV:   4    -0.326429578581E+02    0.66517E-03   -0.13907E-02   412   0.105E+00    0.412E-01
DAV:   5    -0.326413215031E+02    0.16364E-02   -0.32615E-03   412   0.884E-01    0.288E-01
DAV:   6    -0.326401785447E+02    0.11430E-02   -0.74141E-03   544   0.909E-01    0.918E-02
DAV:   7    -0.326401038051E+02    0.74740E-04   -0.81523E-04   404   0.653E-01
 104 F= -.32640104E+02 E0= -.32640104E+02  d E =-.174411E-01  mag=     1.0000
       N       E                     dE             d eps       ncg     rms          rms(c)
DAV:   1    -0.326292356247E+02    0.10943E-01   -0.15045E+01   392   0.131E+01    0.324E-01
DAV:   2    -0.326541605522E+02   -0.24925E-01   -0.27005E-01   544   0.471E+00    0.404E-01
DAV:   3    -0.326521008336E+02    0.20597E-02   -0.14610E-02   400   0.283E+00    0.202E-01
DAV:   4    -0.326520344801E+02    0.66353E-04   -0.32787E-03   420   0.510E-01    0.167E-01
DAV:   5    -0.326518057802E+02    0.22870E-03   -0.63146E-04   392   0.344E-01    0.115E-01
DAV:   6    -0.326517131561E+02    0.92624E-04   -0.12496E-03   568   0.598E-01    0.500E-02
DAV:   7    -0.326516945187E+02    0.18637E-04   -0.22521E-04   240   0.416E-01
 105 F= -.32651695E+02 E0= -.32651695E+02  d E =-.115907E-01  mag=     1.0000
       N       E                     dE             d eps       ncg     rms          rms(c)
DAV:   1    -0.325059949408E+02    0.14572E+00   -0.91678E+01   408   0.338E+01    0.765E-01
DAV:   2    -0.326776521782E+02   -0.17166E+00   -0.18160E+00   544   0.118E+01    0.952E-01
DAV:   3    -0.326654863907E+02    0.12166E-01   -0.72301E-02   400   0.668E+00    0.486E-01
DAV:   4    -0.326652725152E+02    0.21388E-03   -0.19396E-02   404   0.115E+00    0.418E-01
DAV:   5    -0.326638435060E+02    0.14290E-02   -0.29271E-03   432   0.788E-01    0.319E-01
DAV:   6    -0.326625169131E+02    0.13266E-02   -0.76074E-03   576   0.134E+00    0.129E-01
DAV:   7    -0.326623085681E+02    0.20835E-03   -0.15642E-03   416   0.940E-01    0.568E-02
DAV:   8    -0.326623616445E+02   -0.53076E-04   -0.99371E-04   468   0.360E-01
 106 F= -.32662362E+02 E0= -.32662362E+02  d E =-.222578E-01  mag=     1.0000
       N       E                     dE             d eps       ncg     rms          rms(c)
DAV:   1    -0.326559598418E+02    0.63487E-02   -0.89287E+00   408   0.100E+01    0.251E-01
DAV:   2    -0.326705077354E+02   -0.14548E-01   -0.15700E-01   540   0.377E+00    0.321E-01
DAV:   3    -0.326691533581E+02    0.13544E-02   -0.86650E-03   408   0.227E+00    0.155E-01
DAV:   4    -0.326691190616E+02    0.34296E-04   -0.20366E-03   384   0.373E-01    0.128E-01
DAV:   5    -0.326689964046E+02    0.12266E-03   -0.34431E-04   324   0.276E-01    0.886E-02
DAV:   6    -0.326689687835E+02    0.27621E-04   -0.82712E-04   528   0.500E-01
 107 F= -.32668969E+02 E0= -.32668969E+02  d E =-.660714E-02  mag=     1.0000
       N       E                     dE             d eps       ncg     rms          rms(c)
DAV:   1    -0.325454497120E+02    0.12355E+00   -0.82335E+01   408   0.317E+01    0.729E-01
DAV:   2    -0.326997497025E+02   -0.15430E+00   -0.16298E+00   548   0.114E+01    0.923E-01
DAV:   3    -0.326877542967E+02    0.11995E-01   -0.60337E-02   400   0.635E+00    0.471E-01
DAV:   4    -0.326874816574E+02    0.27264E-03   -0.17666E-02   396   0.104E+00    0.401E-01
DAV:   5    -0.326861706959E+02    0.13110E-02   -0.26357E-03   504   0.773E-01    0.308E-01
DAV:   6    -0.326848326948E+02    0.13380E-02   -0.63991E-03   608   0.133E+00    0.125E-01
DAV:   7    -0.326846300854E+02    0.20261E-03   -0.14986E-03   420   0.909E-01    0.489E-02
DAV:   8    -0.326846949093E+02   -0.64824E-04   -0.84288E-04   460   0.340E-01
 108 F= -.32684695E+02 E0= -.32684695E+02  d E =-.223333E-01  mag=     1.0000
       N       E                     dE             d eps       ncg     rms          rms(c)
DAV:   1    -0.321379374882E+02    0.54669E+00   -0.36188E+02   456   0.751E+01    0.157E+00
DAV:   2    -0.327424976416E+02   -0.60456E+00   -0.65728E+00   560   0.290E+01    0.221E+00
DAV:   3    -0.326798967771E+02    0.62601E-01   -0.45492E-01   408   0.163E+01    0.917E-01
DAV:   4    -0.326811521108E+02   -0.12553E-02   -0.10611E-01   416   0.292E+00    0.692E-01
DAV:   5    -0.326792288282E+02    0.19233E-02   -0.25382E-02   400   0.304E+00    0.620E-01
DAV:   6    -0.326751470956E+02    0.40817E-02   -0.24520E-02   588   0.239E+00    0.364E-01
DAV:   7    -0.326729663362E+02    0.21808E-02   -0.64689E-03   424   0.213E+00    0.154E-01
DAV:   8    -0.326731339580E+02   -0.16762E-03   -0.68649E-03   640   0.123E+00    0.844E-02
DAV:   9    -0.326732369018E+02   -0.10294E-03   -0.13152E-03   432   0.448E-01    0.561E-02
DAV:  10    -0.326733068694E+02   -0.69968E-04   -0.21474E-04   272   0.218E-01
 109 F= -.32673307E+02 E0= -.32673307E+02  d E =-.109452E-01  mag=     1.0000
       N       E                     dE             d eps       ncg     rms          rms(c)
DAV:   1    -0.323987403345E+02    0.27450E+00   -0.17570E+02   424   0.486E+01    0.988E-01
DAV:   2    -0.327142129970E+02   -0.31547E+00   -0.33205E+00   548   0.169E+01    0.128E+00
DAV:   3    -0.326942108786E+02    0.20002E-01   -0.14434E-01   408   0.908E+00    0.642E-01
DAV:   4    -0.326942918238E+02   -0.80945E-04   -0.37913E-02   404   0.153E+00    0.552E-01
DAV:   5    -0.326918443133E+02    0.24475E-02   -0.73246E-03   436   0.153E+00    0.446E-01
DAV:   6    -0.326894764581E+02    0.23679E-02   -0.14469E-02   544   0.167E+00    0.227E-01
DAV:   7    -0.326888095643E+02    0.66689E-03   -0.32064E-03   496   0.112E+00    0.142E-01
DAV:   8    -0.326885583991E+02    0.25117E-03   -0.24854E-03   500   0.640E-01    0.675E-02
DAV:   9    -0.326885956508E+02   -0.37252E-04   -0.70120E-04   384   0.387E-01
 110 F= -.32688596E+02 E0= -.32688596E+02  d E =-.262340E-01  mag=     1.0000
       N       E                     dE             d eps       ncg     rms          rms(c)
DAV:   1    -0.326876284717E+02    0.92993E-03   -0.82550E+00   392   0.975E+00    0.200E-01
DAV:   2    -0.327007872304E+02   -0.13159E-01   -0.13891E-01   536   0.292E+00    0.283E-01
DAV:   3    -0.326999877273E+02    0.79950E-03   -0.65529E-03   408   0.165E+00    0.162E-01
DAV:   4    -0.326999166021E+02    0.71125E-04   -0.12561E-03   408   0.375E-01    0.138E-01
DAV:   5    -0.326997805115E+02    0.13609E-03   -0.29328E-04   280   0.271E-01    0.976E-02
DAV:   6    -0.326997225693E+02    0.57942E-04   -0.10474E-03   544   0.459E-01    0.408E-02
DAV:   7    -0.326997058484E+02    0.16721E-04   -0.13640E-04   240   0.313E-01
 111 F= -.32699706E+02 E0= -.32699706E+02  d E =-.111102E-01  mag=     1.0000
       N       E                     dE             d eps       ncg     rms          rms(c)
DAV:   1    -0.326925711593E+02    0.71514E-02   -0.75855E+00   392   0.932E+00    0.201E-01
DAV:   2    -0.327042554919E+02   -0.11684E-01   -0.12468E-01   536   0.277E+00    0.266E-01
DAV:   3    -0.327035432098E+02    0.71228E-03   -0.64741E-03   400   0.160E+00    0.147E-01
DAV:   4    -0.327034813971E+02    0.61813E-04   -0.12362E-03   424   0.422E-01    0.120E-01
DAV:   5    -0.327033828573E+02    0.98540E-04   -0.29539E-04   280   0.256E-01
 112 F= -.32703383E+02 E0= -.32703383E+02  d E =-.147872E-01  mag=     1.0000
       N       E                     dE             d eps       ncg     rms          rms(c)
DAV:   1    -0.327037650577E+02   -0.28366E-03   -0.21206E+00   392   0.494E+00    0.851E-02
DAV:   2    -0.327066808176E+02   -0.29158E-02   -0.29854E-02   540   0.117E+00    0.952E-02
DAV:   3    -0.327066307823E+02    0.50035E-04   -0.88292E-04   384   0.571E-01
 113 F= -.32706631E+02 E0= -.32706631E+02  d E =-.324793E-02  mag=     1.0000
       N       E                     dE             d eps       ncg     rms          rms(c)
DAV:   1    -0.327065902403E+02    0.90577E-04   -0.11079E+00   392   0.356E+00    0.808E-02
DAV:   2    -0.327080336428E+02   -0.14434E-02   -0.15655E-02   552   0.889E-01    0.962E-02
DAV:   3    -0.327079643608E+02    0.69282E-04   -0.53164E-04   384   0.421E-01
 114 F= -.32707964E+02 E0= -.32707964E+02  d E =-.458150E-02  mag=     1.0000
       N       E                     dE             d eps       ncg     rms          rms(c)
DAV:   1    -0.327082745121E+02   -0.24087E-03   -0.67094E-01   392   0.277E+00    0.683E-02
DAV:   2    -0.327090969226E+02   -0.82241E-03   -0.89365E-03   552   0.711E-01    0.688E-02
DAV:   3    -0.327090822881E+02    0.14635E-04   -0.56454E-04   368   0.421E-01
 115 F= -.32709082E+02 E0= -.32709082E+02  d E =-.111793E-02  mag=     1.0000
       N       E                     dE             d eps       ncg     rms          rms(c)
DAV:   1    -0.327085489258E+02    0.54800E-03   -0.98035E-01   392   0.335E+00    0.726E-02
DAV:   2    -0.327098539958E+02   -0.13051E-02   -0.13996E-02   544   0.103E+00    0.932E-02
DAV:   3    -0.327097998542E+02    0.54142E-04   -0.94326E-04   384   0.599E-01
 116 F= -.32709800E+02 E0= -.32709800E+02  d E =-.183549E-02  mag=     1.0000
       N       E                     dE             d eps       ncg     rms          rms(c)
DAV:   1    -0.327097588401E+02    0.95156E-04   -0.70229E-01   392   0.284E+00    0.615E-02
DAV:   2    -0.327106789973E+02   -0.92016E-03   -0.96907E-03   544   0.641E-01    0.669E-02
DAV:   3    -0.327106413614E+02    0.37636E-04   -0.20027E-04   256   0.237E-01
 117 F= -.32710641E+02 E0= -.32710641E+02  d E =-.841507E-03  mag=     1.0000
       N       E                     dE             d eps       ncg     rms          rms(c)
DAV:   1    -0.327106351277E+02    0.43870E-04   -0.29369E-01   392   0.185E+00    0.454E-02
DAV:   2    -0.327110076465E+02   -0.37252E-03   -0.40185E-03   528   0.386E-01    0.512E-02
DAV:   3    -0.327109806876E+02    0.26959E-04   -0.43879E-05   240   0.143E-01
 118 F= -.32710981E+02 E0= -.32710981E+02  d E =-.118083E-02  mag=     1.0000
