unknown system                          
           1
    23.930692    0.000000    0.000000
     0.000000   23.930692    0.000000
     0.000000    0.000000   23.930692
   Ag
  53
Direct configuration=     1
   0.57642237  0.61264921  0.65511438
   0.39502756  0.47156325  0.68521112
   0.35621416  0.56463355  0.64781281
   0.64499650  0.54584561  0.58535206
   0.45402585  0.64422219  0.63898831
   0.58412912  0.50326831  0.67703572
   0.47647794  0.54061649  0.65690225
   0.34963188  0.65801922  0.58936498
   0.54016753  0.70958194  0.60203746
   0.63349570  0.66239341  0.57070365
   0.49528370  0.41853152  0.64905189
   0.62241824  0.42300809  0.61327007
   0.31230389  0.46664700  0.59956780
   0.29590043  0.56747058  0.54762786
   0.71584284  0.55005467  0.48858112
   0.37809805  0.38185529  0.63673834
   0.44692994  0.69292113  0.53631305
   0.72410355  0.46181594  0.57531424
   0.53014934  0.61080620  0.54921626
   0.64144583  0.46431234  0.50530910
   0.42446463  0.46180824  0.57313553
   0.42081740  0.58000752  0.55073239
   0.56086917  0.70513581  0.49104872
   0.53935560  0.49491174  0.57412640
   0.34914982  0.64635439  0.47898466
   0.65774224  0.66231494  0.46107748
   0.53969925  0.38559115  0.54314266
   0.68458817  0.36331180  0.52794462
   0.56729319  0.63843841  0.39444471
   0.45220422  0.41971822  0.46963596
   0.60395612  0.56662228  0.47091639
   0.74650800  0.43744503  0.47118749
   0.44824546  0.34120260  0.56359638
   0.66452711  0.58920842  0.38121961
   0.38017557  0.51451362  0.46669376
   0.46684587  0.62676869  0.44904409
   0.50347145  0.51907667  0.46465312
   0.28197221  0.56767636  0.43794984
   0.37708249  0.59487013  0.38414397
   0.59962877  0.31238843  0.47673181
   0.57014927  0.42006989  0.43483861
   0.35070480  0.38191087  0.52734720
   0.68559231  0.48356995  0.39239266
   0.28548792  0.46089240  0.47761483
   0.67683192  0.36951043  0.41323646
   0.49487686  0.32917029  0.44247996
   0.57011565  0.52030741  0.36692304
   0.44197822  0.49904267  0.37369195
   0.32644377  0.49698170  0.37031310
   0.36845977  0.40670857  0.40613458
   0.49754036  0.40677861  0.35320991
   0.57846622  0.32693557  0.36991566
   0.61405938  0.42288180  0.33140328
Direct configuration=     2
   0.57630723  0.61266412  0.65529326
   0.39511082  0.47173355  0.68587548
   0.35616059  0.56477984  0.64793702
   0.64506359  0.54605583  0.58548788
   0.45396160  0.64452429  0.63932392
   0.58411383  0.50325163  0.67740322
   0.47654466  0.54052343  0.65708519
   0.34940121  0.65850030  0.58959272
   0.54000935  0.71007905  0.60238216
   0.63398610  0.66228678  0.57069373
   0.49547799  0.41835002  0.64932084
   0.62254034  0.42267777  0.61330598
   0.31200562  0.46668901  0.59950455
   0.29576622  0.56730089  0.54774799
   0.71607300  0.55030417  0.48857979
   0.37783173  0.38112922  0.63692497
   0.44680586  0.69332755  0.53620853
   0.72448844  0.46194285  0.57586256
   0.53022713  0.61048315  0.54919889
   0.64102876  0.46428010  0.50521827
   0.42452178  0.46214709  0.57282505
   0.42085645  0.57964130  0.55064816
   0.56060448  0.70531984  0.49082946
   0.53937143  0.49513937  0.57371468
   0.34930115  0.64662797  0.47895047
   0.65827119  0.66265177  0.46114151
   0.54028984  0.38565450  0.54304547
   0.68459431  0.36301422  0.52830390
   0.56694248  0.63863312  0.39421363
   0.45219761  0.42004933  0.46996182
   0.60382657  0.56643526  0.47126054
   0.74709349  0.43741884  0.47099059
   0.44809211  0.34070613  0.56350421
   0.66494371  0.58924652  0.38067557
   0.38046021  0.51455356  0.46710670
   0.46683079  0.62675172  0.44880955
   0.50347972  0.51917135  0.46492901
   0.28138297  0.56794385  0.43790404
   0.37731383  0.59515552  0.38378604
   0.59972769  0.31210519  0.47705954
   0.57007354  0.42031521  0.43502743
   0.35050336  0.38186755  0.52703766
   0.68558325  0.48357484  0.39225835
   0.28515344  0.46069822  0.47777954
   0.67695279  0.36939115  0.41311325
   0.49461768  0.32850745  0.44251601
   0.56994235  0.52034289  0.36683163
   0.44208309  0.49919186  0.37332505
   0.32611487  0.49689940  0.36962112
   0.36833602  0.40615794  0.40603974
   0.49732264  0.40670620  0.35291775
   0.57853444  0.32641573  0.36946856
   0.61414425  0.42302210  0.33088035
Direct configuration=     3
   0.57596183  0.61270885  0.65582988
   0.39536057  0.47224444  0.68786854
   0.35599990  0.56521870  0.64830964
   0.64526488  0.54668651  0.58589535
   0.45376886  0.64543059  0.64033076
   0.58406797  0.50320158  0.67850573
   0.47674484  0.54024425  0.65763400
   0.34870919  0.65994355  0.59027594
   0.53953480  0.71157037  0.60341626
   0.63545732  0.66196688  0.57066397
   0.49606085  0.41780549  0.65012770
   0.62290663  0.42168679  0.61341372
   0.31111080  0.46681506  0.59931480
   0.29536359  0.56679182  0.54810838
   0.71676348  0.55105264  0.48857581
   0.37703275  0.37895100  0.63748483
   0.44643364  0.69454681  0.53589496
   0.72564311  0.46232358  0.57750753
   0.53046049  0.60951400  0.54914679
   0.63977755  0.46418338  0.50494578
   0.42469321  0.46316365  0.57189362
   0.42097360  0.57854263  0.55039544
   0.55981040  0.70587195  0.49017169
   0.53941891  0.49582226  0.57247951
   0.34975514  0.64744872  0.47884791
   0.65985802  0.66366227  0.46133362
   0.54206161  0.38584455  0.54275390
   0.68461274  0.36212148  0.52938173
   0.56589033  0.63921727  0.39352042
   0.45217778  0.42104266  0.47093941
   0.60343794  0.56587422  0.47229299
   0.74884996  0.43734029  0.47039989
   0.44763205  0.33921675  0.56322771
   0.66619350  0.58936080  0.37904344
   0.38131416  0.51467338  0.46834552
   0.46678556  0.62670082  0.44810594
   0.50350453  0.51945539  0.46575668
   0.27961524  0.56874633  0.43776663
   0.37800787  0.59601171  0.38271227
   0.60002447  0.31125545  0.47804270
   0.56984635  0.42105117  0.43559388
   0.34989903  0.38173760  0.52610901
   0.68555607  0.48358949  0.39185541
   0.28415002  0.46011569  0.47827367
   0.67731538  0.36903330  0.41274361
   0.49384012  0.32651894  0.44262415
   0.56942244  0.52044935  0.36655741
   0.44239772  0.49963946  0.37222436
   0.32512818  0.49665249  0.36754516
   0.36796479  0.40450606  0.40575521
   0.49666949  0.40648898  0.35204125
   0.57873909  0.32485621  0.36812728
   0.61439886  0.42344298  0.32931153
Direct configuration=     4
   0.57527101  0.61279831  0.65690313
   0.39586009  0.47326622  0.69185467
   0.35567852  0.56609642  0.64905488
   0.64566745  0.54794787  0.58671030
   0.45338337  0.64724318  0.64234442
   0.58397625  0.50310150  0.68071075
   0.47714518  0.53968589  0.65873162
   0.34732516  0.66283004  0.59164238
   0.53858570  0.71455301  0.60548446
   0.63839975  0.66132707  0.57060446
   0.49722658  0.41671645  0.65174140
   0.62363921  0.41970483  0.61362919
   0.30932115  0.46706714  0.59893531
   0.29455832  0.56577368  0.54882917
   0.71814444  0.55254960  0.48856786
   0.37543481  0.37459457  0.63860457
   0.44568918  0.69698534  0.53526783
   0.72795246  0.46308504  0.58079746
   0.53092723  0.60757569  0.54904259
   0.63727512  0.46398994  0.50440080
   0.42503608  0.46519675  0.57003076
   0.42120791  0.57634530  0.54989001
   0.55822224  0.70697615  0.48885615
   0.53951386  0.49718803  0.57000918
   0.35066311  0.64909020  0.47864279
   0.66303168  0.66568326  0.46171783
   0.54560513  0.38622465  0.54217076
   0.68464958  0.36033600  0.53153741
   0.56378605  0.64038558  0.39213398
   0.45213811  0.42302931  0.47289457
   0.60266067  0.56475214  0.47435788
   0.75236291  0.43718318  0.46921847
   0.44671194  0.33623797  0.56267470
   0.66869308  0.58958937  0.37577918
   0.38302204  0.51491301  0.47082316
   0.46669509  0.62659903  0.44669872
   0.50355415  0.52002347  0.46741202
   0.27607979  0.57035129  0.43749183
   0.37939595  0.59772409  0.38056472
   0.60061804  0.30955597  0.48000904
   0.56939198  0.42252309  0.43672677
   0.34869038  0.38147769  0.52425171
   0.68550170  0.48361880  0.39104953
   0.28214316  0.45895062  0.47926192
   0.67804057  0.36831759  0.41200434
   0.49228502  0.32254192  0.44284043
   0.56838262  0.52066226  0.36600896
   0.44302698  0.50053464  0.37002298
   0.32315480  0.49615869  0.36339325
   0.36722232  0.40120229  0.40518616
   0.49536319  0.40605452  0.35028826
   0.57914838  0.32173717  0.36544471
   0.61490810  0.42428475  0.32617390
Direct configuration=     5
   0.57534804  0.61278834  0.65678346
   0.39580439  0.47315229  0.69141021
   0.35571435  0.56599855  0.64897178
   0.64562256  0.54780723  0.58661943
   0.45342635  0.64704108  0.64211990
   0.58398647  0.50311266  0.68046489
   0.47710054  0.53974815  0.65860923
   0.34747948  0.66250819  0.59149002
   0.53869153  0.71422045  0.60525385
   0.63807167  0.66139841  0.57061109
   0.49709660  0.41683788  0.65156147
   0.62355752  0.41992582  0.61360516
   0.30952070  0.46703903  0.59897763
   0.29464810  0.56588720  0.54874880
   0.71799046  0.55238269  0.48856874
   0.37561298  0.37508032  0.63847972
   0.44577219  0.69671344  0.53533775
   0.72769497  0.46300013  0.58043063
   0.53087519  0.60779181  0.54905421
   0.63755415  0.46401151  0.50446157
   0.42499785  0.46497005  0.57023847
   0.42118178  0.57659030  0.54994637
   0.55839932  0.70685303  0.48900284
   0.53950328  0.49703574  0.57028462
   0.35056187  0.64890717  0.47866566
   0.66267781  0.66545792  0.46167499
   0.54521002  0.38618227  0.54223578
   0.68464548  0.36053508  0.53129705
   0.56402068  0.64025531  0.39228857
   0.45214253  0.42280780  0.47267657
   0.60274734  0.56487725  0.47412764
   0.75197121  0.43720070  0.46935020
   0.44681453  0.33657010  0.56273636
   0.66841437  0.58956389  0.37614315
   0.38283161  0.51488629  0.47054690
   0.46670518  0.62661038  0.44685562
   0.50354862  0.51996013  0.46722745
   0.27647400  0.57017233  0.43752247
   0.37924118  0.59753316  0.38080417
   0.60055186  0.30974547  0.47978979
   0.56944264  0.42235897  0.43660045
   0.34882515  0.38150667  0.52445880
   0.68550776  0.48361553  0.39113939
   0.28236693  0.45908053  0.47915172
   0.67795971  0.36839740  0.41208677
   0.49245842  0.32298536  0.44281631
   0.56849856  0.52063852  0.36607011
   0.44295682  0.50043483  0.37026844
   0.32337483  0.49621375  0.36385620
   0.36730510  0.40157066  0.40524961
   0.49550885  0.40610296  0.35048372
   0.57910275  0.32208495  0.36574382
   0.61485132  0.42419089  0.32652375
Direct configuration=     6
   0.57496703  0.61304021  0.65695644
   0.39576758  0.47248805  0.69213094
   0.35573861  0.56629971  0.64913653
   0.64592839  0.54794523  0.58700521
   0.45318288  0.64740903  0.64255697
   0.58397739  0.50273584  0.68084685
   0.47725435  0.53980372  0.65886919
   0.34718674  0.66322699  0.59178217
   0.53869977  0.71477137  0.60550639
   0.63844877  0.66135686  0.57068720
   0.49731898  0.41665414  0.65174679
   0.62393211  0.41961092  0.61405937
   0.30933310  0.46669756  0.59911760
   0.29451664  0.56589616  0.54876718
   0.71825610  0.55269433  0.48856379
   0.37526877  0.37483321  0.63880767
   0.44561437  0.69721954  0.53523122
   0.72798645  0.46319098  0.58080869
   0.53088945  0.60827849  0.54945643
   0.63844177  0.46385217  0.50529817
   0.42479502  0.46495381  0.57098404
   0.42133280  0.57711671  0.55059242
   0.55803283  0.70686057  0.48883201
   0.53978510  0.49701120  0.57031931
   0.35086334  0.64914366  0.47863260
   0.66332314  0.66558405  0.46135401
   0.54534360  0.38581607  0.54232531
   0.68492810  0.36051880  0.53189236
   0.56414285  0.64032460  0.39200490
   0.45238828  0.42209828  0.47251910
   0.60336711  0.56553269  0.47383412
   0.75255227  0.43721296  0.46944749
   0.44714943  0.33604692  0.56227013
   0.66858451  0.59011553  0.37560330
   0.38219199  0.51473726  0.46987499
   0.46654573  0.62673654  0.44664857
   0.50316721  0.52030548  0.46719786
   0.27599304  0.57039271  0.43725924
   0.37920304  0.59763872  0.38025926
   0.60056872  0.30913253  0.47979536
   0.56863118  0.42201788  0.43544562
   0.34868511  0.38136868  0.52414362
   0.68548339  0.48344741  0.39111678
   0.28187513  0.45925219  0.47915736
   0.67794210  0.36823078  0.41196002
   0.49198422  0.32240655  0.44296527
   0.56817997  0.52081162  0.36597274
   0.44291604  0.50087138  0.36977971
   0.32317572  0.49623530  0.36336034
   0.36721240  0.40101494  0.40512090
   0.49538845  0.40564684  0.35021877
   0.57920701  0.32159699  0.36540594
   0.61471949  0.42415641  0.32579508
Direct configuration=     7
   0.57382402  0.61379584  0.65747538
   0.39565712  0.47049534  0.69429311
   0.35581138  0.56720319  0.64963077
   0.64684587  0.54835923  0.58816254
   0.45245247  0.64851289  0.64386820
   0.58395015  0.50160536  0.68199272
   0.47771576  0.53997045  0.65964906
   0.34630855  0.66538337  0.59265862
   0.53872451  0.71642415  0.60626399
   0.63958007  0.66123220  0.57091553
   0.49798613  0.41610292  0.65230274
   0.62505585  0.41866623  0.61542200
   0.30877031  0.46567318  0.59953751
   0.29412223  0.56592302  0.54882231
   0.71905301  0.55362927  0.48854894
   0.37423614  0.37409189  0.63979154
   0.44514094  0.69873782  0.53491161
   0.72886091  0.46376353  0.58194287
   0.53093224  0.60973853  0.55066310
   0.64110465  0.46337417  0.50780800
   0.42418653  0.46490506  0.57322075
   0.42178585  0.57869593  0.55253057
   0.55693337  0.70688317  0.48831951
   0.54063056  0.49693757  0.57042337
   0.35176776  0.64985310  0.47853344
   0.66525914  0.66596243  0.46039108
   0.54574434  0.38471748  0.54259391
   0.68577597  0.36046996  0.53367828
   0.56450936  0.64053249  0.39115390
   0.45312552  0.41996972  0.47204669
   0.60522644  0.56749901  0.47295356
   0.75429545  0.43724972  0.46973935
   0.44815414  0.33447737  0.56087144
   0.66909490  0.59177046  0.37398373
   0.38027312  0.51429015  0.46785926
   0.46606738  0.62711502  0.44602740
   0.50202296  0.52134155  0.46710909
   0.27455018  0.57105384  0.43646954
   0.37908860  0.59795539  0.37862452
   0.60061932  0.30729371  0.47981209
   0.56619680  0.42099463  0.43198112
   0.34826501  0.38095474  0.52319807
   0.68541027  0.48294306  0.39104895
   0.28039973  0.45976717  0.47917427
   0.67788928  0.36773094  0.41157978
   0.49056161  0.32067013  0.44341215
   0.56722419  0.52133092  0.36568064
   0.44279371  0.50218103  0.36831353
   0.32257838  0.49629995  0.36187276
   0.36693429  0.39934776  0.40473476
   0.49502727  0.40427848  0.34942393
   0.57951981  0.32013311  0.36439229
   0.61432402  0.42405296  0.32360904
Direct configuration=     8
   0.57345222  0.61404163  0.65764418
   0.39562120  0.46984713  0.69499643
   0.35583506  0.56749708  0.64979154
   0.64714432  0.54849390  0.58853900
   0.45221488  0.64887195  0.64429472
   0.58394129  0.50123763  0.68236546
   0.47786585  0.54002468  0.65990275
   0.34602288  0.66608481  0.59294371
   0.53873256  0.71696178  0.60651042
   0.63994806  0.66119165  0.57098980
   0.49820315  0.41592361  0.65248358
   0.62542139  0.41835894  0.61586524
   0.30858724  0.46533996  0.59967410
   0.29399393  0.56593176  0.54884024
   0.71931223  0.55393339  0.48854411
   0.37390024  0.37385074  0.64011158
   0.44498693  0.69923170  0.53480764
   0.72914535  0.46394977  0.58231180
   0.53094615  0.61021346  0.55105561
   0.64197084  0.46321869  0.50862440
   0.42398860  0.46488920  0.57394832
   0.42193322  0.57920963  0.55316102
   0.55657573  0.70689053  0.48815281
   0.54090558  0.49691362  0.57045722
   0.35206196  0.65008387  0.47850119
   0.66588889  0.66608551  0.46007785
   0.54587470  0.38436013  0.54268128
   0.68605177  0.36045407  0.53425921
   0.56462858  0.64060011  0.39087708
   0.45336534  0.41927734  0.47189303
   0.60583125  0.56813862  0.47266713
   0.75486248  0.43726168  0.46983429
   0.44848096  0.33396682  0.56041647
   0.66926093  0.59230878  0.37345691
   0.37964894  0.51414471  0.46720358
   0.46591178  0.62723814  0.44582534
   0.50165075  0.52167856  0.46708021
   0.27408084  0.57126890  0.43621267
   0.37905137  0.59805839  0.37809276
   0.60063578  0.30669557  0.47981753
   0.56540493  0.42066178  0.43085417
   0.34812835  0.38082009  0.52289049
   0.68538649  0.48277900  0.39102689
   0.27991981  0.45993468  0.47917977
   0.67787209  0.36756835  0.41145610
   0.49009886  0.32010529  0.44355751
   0.56691330  0.52149984  0.36558562
   0.44275391  0.50260704  0.36783660
   0.32238407  0.49632098  0.36138887
   0.36684383  0.39880546  0.40460916
   0.49490978  0.40383338  0.34916538
   0.57962156  0.31965693  0.36406257
   0.61419537  0.42401931  0.32289796
Direct configuration=     9
   0.57334178  0.61411464  0.65769432
   0.39561052  0.46965461  0.69520533
   0.35584209  0.56758437  0.64983930
   0.64723296  0.54853390  0.58865082
   0.45214431  0.64897860  0.64442140
   0.58393866  0.50112841  0.68247616
   0.47791042  0.54004079  0.65997809
   0.34593803  0.66629314  0.59302839
   0.53873495  0.71712146  0.60658362
   0.64005736  0.66117961  0.57101186
   0.49826760  0.41587036  0.65253729
   0.62552996  0.41826767  0.61599689
   0.30853287  0.46524099  0.59971467
   0.29395583  0.56593435  0.54884557
   0.71938922  0.55402372  0.48854268
   0.37380047  0.37377912  0.64020664
   0.44494119  0.69937838  0.53477677
   0.72922984  0.46400509  0.58242138
   0.53095029  0.61035452  0.55117219
   0.64222811  0.46317251  0.50886689
   0.42392981  0.46488450  0.57416442
   0.42197699  0.57936221  0.55334828
   0.55646951  0.70689271  0.48810329
   0.54098726  0.49690651  0.57046728
   0.35214934  0.65015241  0.47849161
   0.66607594  0.66612207  0.45998481
   0.54591342  0.38425399  0.54270723
   0.68613369  0.36044935  0.53443176
   0.56466400  0.64062019  0.39079486
   0.45343657  0.41907169  0.47184739
   0.60601089  0.56832860  0.47258206
   0.75503090  0.43726523  0.46986249
   0.44857803  0.33381517  0.56028134
   0.66931024  0.59246867  0.37330044
   0.37946355  0.51410151  0.46700883
   0.46586557  0.62727470  0.44576533
   0.50154020  0.52177866  0.46707164
   0.27394144  0.57133277  0.43613637
   0.37904032  0.59808899  0.37793482
   0.60064067  0.30651792  0.47981915
   0.56516973  0.42056292  0.43051945
   0.34808777  0.38078010  0.52279914
   0.68537942  0.48273027  0.39102034
   0.27977727  0.45998444  0.47918140
   0.67786699  0.36752006  0.41141936
   0.48996142  0.31993753  0.44360068
   0.56682095  0.52155002  0.36555740
   0.44274210  0.50273358  0.36769495
   0.32232636  0.49632723  0.36124515
   0.36681696  0.39864439  0.40457185
   0.49487489  0.40370117  0.34908858
   0.57965178  0.31951550  0.36396464
   0.61415717  0.42400931  0.32268675
Direct configuration=    10
   0.57291018  0.61425770  0.65793810
   0.39568448  0.46922655  0.69552302
   0.35616434  0.56732265  0.65015409
   0.64751853  0.54860946  0.58932902
   0.45185670  0.64946774  0.64486387
   0.58390023  0.50082260  0.68263661
   0.47760921  0.54003104  0.66033585
   0.34569620  0.66683477  0.59312326
   0.53890003  0.71745850  0.60654954
   0.64002089  0.66131809  0.57083974
   0.49847708  0.41573648  0.65257934
   0.62575976  0.41800378  0.61677049
   0.30850602  0.46481910  0.59995957
   0.29420742  0.56610394  0.54871326
   0.71971014  0.55422396  0.48854142
   0.37385816  0.37370328  0.63985370
   0.44488792  0.69978198  0.53487335
   0.72978332  0.46428777  0.58273453
   0.53121248  0.61114448  0.55138792
   0.64215358  0.46270640  0.50825280
   0.42359368  0.46458958  0.57472336
   0.42152692  0.57961798  0.55338904
   0.55636332  0.70652908  0.48799965
   0.54145815  0.49672134  0.57062909
   0.35237823  0.64994684  0.47845820
   0.66651386  0.66637016  0.45971189
   0.54635485  0.38401552  0.54261932
   0.68642036  0.36028924  0.53468266
   0.56510726  0.64066626  0.39054831
   0.45324459  0.41910509  0.47209265
   0.60633229  0.56869953  0.47231912
   0.75513553  0.43730360  0.47016876
   0.44846009  0.33356248  0.55999650
   0.66930937  0.59262917  0.37277854
   0.37901200  0.51415008  0.46666122
   0.46567705  0.62774106  0.44574335
   0.50131148  0.52197966  0.46719890
   0.27398888  0.57152947  0.43582139
   0.37846704  0.59817289  0.37748081
   0.60076556  0.30608828  0.47946019
   0.56598907  0.42066106  0.43084991
   0.34832706  0.38077318  0.52275072
   0.68498348  0.48289219  0.39127024
   0.27920961  0.46041018  0.47912864
   0.67750321  0.36755325  0.41166770
   0.48995657  0.31894682  0.44352730
   0.56664814  0.52172418  0.36554913
   0.44287713  0.50277452  0.36716860
   0.32242972  0.49626031  0.36121745
   0.36676738  0.39856475  0.40440350
   0.49388459  0.40306967  0.34816435
   0.57971469  0.31923498  0.36405249
   0.61383980  0.42390791  0.32223087
Direct configuration=    11
   0.57204954  0.61454296  0.65842421
   0.39583196  0.46837297  0.69615649
   0.35680692  0.56680077  0.65078179
   0.64808796  0.54876013  0.59068138
   0.45128321  0.65044309  0.64574617
   0.58382359  0.50021278  0.68295655
   0.47700857  0.54001160  0.66104924
   0.34521396  0.66791479  0.59331245
   0.53922922  0.71813057  0.60648158
   0.63994817  0.66159423  0.57049652
   0.49889480  0.41546953  0.65266319
   0.62621799  0.41747759  0.61831307
   0.30845250  0.46397785  0.60044793
   0.29470909  0.56644211  0.54844941
   0.72035006  0.55462323  0.48853892
   0.37397318  0.37355205  0.63914993
   0.44478168  0.70058676  0.53506596
   0.73088700  0.46485145  0.58335898
   0.53173529  0.61271970  0.55181809
   0.64200496  0.46177696  0.50702828
   0.42292340  0.46400152  0.57583793
   0.42062947  0.58012799  0.55347031
   0.55615157  0.70580399  0.48779298
   0.54239711  0.49635211  0.57095175
   0.35283466  0.64953693  0.47839159
   0.66738708  0.66686488  0.45916767
   0.54723508  0.38354000  0.54244401
   0.68699199  0.35996998  0.53518296
   0.56599115  0.64075811  0.39005669
   0.45286177  0.41917169  0.47258171
   0.60697318  0.56943918  0.47179480
   0.75534419  0.43738010  0.47077948
   0.44822492  0.33305859  0.55942853
   0.66930763  0.59294921  0.37173785
   0.37811159  0.51424693  0.46596806
   0.46530113  0.62867099  0.44569953
   0.50085539  0.52238045  0.46745266
   0.27408347  0.57192170  0.43519332
   0.37732390  0.59834020  0.37657550
   0.60101458  0.30523156  0.47874441
   0.56762287  0.42085676  0.43150887
   0.34880423  0.38075939  0.52265417
   0.68419395  0.48321507  0.39176854
   0.27807767  0.46125914  0.47902344
   0.67677783  0.36761945  0.41216290
   0.48994689  0.31697131  0.44338098
   0.56630353  0.52207148  0.36553263
   0.44314640  0.50285616  0.36611903
   0.32263582  0.49612687  0.36116220
   0.36666852  0.39840597  0.40406778
   0.49190988  0.40181042  0.34632138
   0.57984013  0.31867563  0.36422768
   0.61320697  0.42370570  0.32132183
Direct configuration=    12
   0.57170085  0.61442175  0.65866666
   0.39597506  0.46811393  0.69624188
   0.35711074  0.56652461  0.65088008
   0.64828635  0.54856610  0.59101144
   0.45106583  0.65070825  0.64590051
   0.58358421  0.50029787  0.68305996
   0.47672665  0.54013884  0.66120041
   0.34516131  0.66788065  0.59333984
   0.53936150  0.71830716  0.60634375
   0.63974738  0.66166860  0.57017580
   0.49910012  0.41537993  0.65256595
   0.62656230  0.41730818  0.61846978
   0.30829016  0.46397866  0.60050899
   0.29521142  0.56642236  0.54847609
   0.72044944  0.55460072  0.48868267
   0.37430968  0.37337191  0.63862569
   0.44474408  0.70080280  0.53538758
   0.73086039  0.46509080  0.58324312
   0.53154170  0.61249873  0.55176987
   0.64214864  0.46183264  0.50700298
   0.42290414  0.46405990  0.57592661
   0.42044084  0.58008294  0.55315806
   0.55636096  0.70553792  0.48753145
   0.54261757  0.49649665  0.57099249
   0.35289790  0.64920327  0.47842829
   0.66761525  0.66707189  0.45899658
   0.54764079  0.38329935  0.54242670
   0.68700753  0.35986128  0.53529165
   0.56613548  0.64092725  0.38988649
   0.45309278  0.41908070  0.47268321
   0.60687871  0.56929535  0.47200546
   0.75500983  0.43749882  0.47106473
   0.44829788  0.33305629  0.55919134
   0.66933593  0.59282186  0.37130409
   0.37825309  0.51441055  0.46599098
   0.46531727  0.62907168  0.44553741
   0.50084951  0.52258566  0.46779555
   0.27432934  0.57211877  0.43494657
   0.37690436  0.59840274  0.37637926
   0.60124372  0.30498571  0.47851445
   0.56747437  0.42076612  0.43095090
   0.34879705  0.38114197  0.52245154
   0.68354816  0.48341222  0.39214210
   0.27776572  0.46148036  0.47919358
   0.67650438  0.36793295  0.41259083
   0.49007379  0.31678504  0.44335982
   0.56625259  0.52204053  0.36559900
   0.44335207  0.50272182  0.36594602
   0.32283408  0.49593367  0.36126927
   0.36682391  0.39864780  0.40391973
   0.49157024  0.40123522  0.34650545
   0.57964353  0.31882710  0.36442430
   0.61265701  0.42363272  0.32146638
Direct configuration=    13
   0.57065478  0.61405812  0.65939398
   0.39640437  0.46733678  0.69649805
   0.35802222  0.56569613  0.65117492
   0.64888154  0.54798399  0.59200160
   0.45041369  0.65150374  0.64636353
   0.58286609  0.50055313  0.68337019
   0.47588089  0.54052057  0.66165392
   0.34500336  0.66777824  0.59342200
   0.53975834  0.71883694  0.60593025
   0.63914501  0.66189172  0.56921364
   0.49971609  0.41511112  0.65227423
   0.62759523  0.41679995  0.61893992
   0.30780314  0.46398110  0.60069218
   0.29671839  0.56636311  0.54855613
   0.72074760  0.55453321  0.48911391
   0.37531917  0.37283146  0.63705298
   0.44463127  0.70145093  0.53635247
   0.73078055  0.46580885  0.58289554
   0.53096093  0.61183580  0.55162524
   0.64257969  0.46199969  0.50692709
   0.42284636  0.46423507  0.57619265
   0.41987494  0.57994779  0.55222128
   0.55698913  0.70473971  0.48674684
   0.54327894  0.49693027  0.57111469
   0.35308763  0.64820230  0.47853836
   0.66829975  0.66769290  0.45848332
   0.54885794  0.38257739  0.54237475
   0.68705415  0.35953520  0.53561773
   0.56656848  0.64143467  0.38937588
   0.45378582  0.41880773  0.47298769
   0.60659532  0.56886387  0.47263745
   0.75400676  0.43785499  0.47192047
   0.44851674  0.33304938  0.55847977
   0.66942081  0.59243983  0.37000282
   0.37867761  0.51490140  0.46605973
   0.46536568  0.63027375  0.44505106
   0.50083186  0.52320128  0.46882420
   0.27506693  0.57271000  0.43420634
   0.37564574  0.59859036  0.37579055
   0.60193114  0.30424816  0.47782459
   0.56702888  0.42049421  0.42927698
   0.34877552  0.38228969  0.52184363
   0.68161080  0.48400365  0.39326278
   0.27682987  0.46214403  0.47970400
   0.67568401  0.36887346  0.41387464
   0.49045447  0.31622622  0.44329636
   0.56609978  0.52194768  0.36579811
   0.44396908  0.50231880  0.36542699
   0.32342883  0.49535406  0.36159048
   0.36729009  0.39937330  0.40347556
   0.49055131  0.39950961  0.34705767
   0.57905372  0.31928149  0.36501416
   0.61100714  0.42341376  0.32190002
Direct configuration=    14
   0.57017615  0.61405880  0.65928018
   0.39661300  0.46663994  0.69654085
   0.35836273  0.56545912  0.65116520
   0.64896868  0.54811080  0.59247792
   0.45028186  0.65173674  0.64636017
   0.58253924  0.50043293  0.68343115
   0.47568007  0.54073436  0.66170823
   0.34498604  0.66745822  0.59352649
   0.53986340  0.71870942  0.60561193
   0.63864546  0.66154680  0.56881440
   0.50004379  0.41502565  0.65192430
   0.62785582  0.41692578  0.61916172
   0.30761797  0.46397560  0.60079637
   0.29722014  0.56615594  0.54853404
   0.72069564  0.55468528  0.48938767
   0.37574690  0.37276913  0.63651993
   0.44467149  0.70152199  0.53670130
   0.73085071  0.46608965  0.58292526
   0.53055379  0.61180338  0.55182183
   0.64219804  0.46183957  0.50702101
   0.42302049  0.46455233  0.57614684
   0.42000405  0.58012133  0.55218269
   0.55720896  0.70437728  0.48656046
   0.54354363  0.49671710  0.57143118
   0.35331175  0.64805890  0.47862597
   0.66849455  0.66739725  0.45795838
   0.54955955  0.38241560  0.54231109
   0.68691391  0.35931485  0.53587529
   0.56690687  0.64143636  0.38912217
   0.45429355  0.41883573  0.47306309
   0.60684966  0.56911176  0.47271414
   0.75364339  0.43803135  0.47201623
   0.44895981  0.33307164  0.55784616
   0.66923115  0.59262909  0.36962359
   0.37885781  0.51474133  0.46580204
   0.46537746  0.63078674  0.44467689
   0.50044995  0.52338358  0.46894376
   0.27521392  0.57276622  0.43404311
   0.37563515  0.59856669  0.37552149
   0.60225764  0.30374453  0.47782925
   0.56659826  0.42069564  0.42941162
   0.34875287  0.38305260  0.52138721
   0.68052171  0.48409639  0.39383033
   0.27660501  0.46269741  0.47997041
   0.67545273  0.36939734  0.41447578
   0.49056022  0.31618027  0.44345032
   0.56593146  0.52226463  0.36601001
   0.44423722  0.50225797  0.36559164
   0.32360801  0.49522893  0.36166791
   0.36795015  0.39957246  0.40337419
   0.48966563  0.39849969  0.34746050
   0.57877725  0.31925397  0.36499369
   0.61040291  0.42340453  0.32179593
Direct configuration=    15
   0.56874027  0.61406085  0.65893876
   0.39723888  0.46454941  0.69666926
   0.35938426  0.56474808  0.65113604
   0.64923011  0.54849126  0.59390688
   0.44988635  0.65243572  0.64635009
   0.58155868  0.50007232  0.68361403
   0.47507760  0.54137573  0.66187117
   0.34493408  0.66649815  0.59383993
   0.54017856  0.71832685  0.60465697
   0.63714680  0.66051204  0.56761669
   0.50102689  0.41476924  0.65087451
   0.62863758  0.41730328  0.61982714
   0.30706247  0.46395911  0.60110895
   0.29872539  0.56553442  0.54846778
   0.72053976  0.55514149  0.49020893
   0.37703008  0.37258212  0.63492077
   0.44479216  0.70173519  0.53774777
   0.73106120  0.46693203  0.58301439
   0.52933237  0.61170612  0.55241160
   0.64105310  0.46135922  0.50730276
   0.42354289  0.46550410  0.57600940
   0.42039139  0.58064194  0.55206693
   0.55786848  0.70328999  0.48600133
   0.54433768  0.49607757  0.57238067
   0.35398413  0.64762869  0.47888878
   0.66907895  0.66651029  0.45638354
   0.55166438  0.38193023  0.54212013
   0.68649320  0.35865382  0.53664798
   0.56792206  0.64144141  0.38836103
   0.45581673  0.41891972  0.47328928
   0.60761269  0.56985542  0.47294423