unknown system                          
           1
    22.238585    0.000000    0.000000
     0.000000   22.238585    0.000000
     0.000000    0.000000   22.238585
   Ag
  34
Direct configuration=     1
   0.68101729  0.46717062  0.67829173
   0.58473711  0.67882549  0.36110717
   0.44146303  0.34483583  0.60830921
   0.72581699  0.52988559  0.46114345
   0.47522137  0.52684760  0.57488891
   0.58174888  0.52177877  0.63519939
   0.40568065  0.46293474  0.39840708
   0.65964005  0.57441192  0.55599302
   0.53426810  0.61493385  0.44927233
   0.49067427  0.53937690  0.36149027
   0.31432335  0.40728168  0.45665013
   0.48463239  0.34770615  0.71989937
   0.50408412  0.71435333  0.50872555
   0.42698896  0.63757198  0.56143280
   0.42336778  0.56142493  0.46576201
   0.33529666  0.57862735  0.61009352
   0.69167908  0.62728140  0.40130676
   0.58487957  0.76966995  0.43676729
   0.36071735  0.47533305  0.66398828
   0.73049854  0.47943345  0.57212079
   0.53229609  0.41362409  0.56317712
   0.61312901  0.52851038  0.40194361
   0.63224722  0.67452540  0.49593301
   0.62837326  0.46497841  0.50720733
   0.47752047  0.46063433  0.67645321
   0.52400309  0.45609416  0.44901360
   0.35774484  0.35968585  0.69299285
   0.55218731  0.62568187  0.57921103
   0.36177990  0.48600684  0.54002307
   0.67793146  0.65335042  0.28582045
   0.58332532  0.40121323  0.67735747
   0.32666737  0.37226869  0.57382783
   0.43069702  0.39164673  0.49722687
   0.58387971  0.57768842  0.29654507
Direct configuration=     2
   0.68114601  0.46718126  0.67853949
   0.58471506  0.67889492  0.36097569
   0.44164713  0.34481305  0.60827621
   0.72594350  0.52980897  0.46110087
   0.47516064  0.52677869  0.57484981
   0.58178381  0.52160938  0.63524233
   0.40561284  0.46275897  0.39833889
   0.65973481  0.57454294  0.55598850
   0.53412516  0.61471025  0.44939170
   0.49071426  0.53941975  0.36136472
   0.31411446  0.40725748  0.45657860
   0.48453101  0.34747937  0.72011754
   0.50402162  0.71460099  0.50880122
   0.42698519  0.63778251  0.56141634
   0.42336921  0.56158488  0.46570393
   0.33512577  0.57880219  0.61012365
   0.69180935  0.62728283  0.40126517
   0.58484617  0.76984963  0.43676000
   0.36056625  0.47531939  0.66396723
   0.73074062  0.47931207  0.57207530
   0.53232121  0.41359340  0.56328079
   0.61323859  0.52843942  0.40200703
   0.63228373  0.67468598  0.49604100
   0.62845855  0.46489280  0.50725069
   0.47758916  0.46063332  0.67650869
   0.52386604  0.45617495  0.44886870
   0.35770390  0.35956581  0.69324591
   0.55214297  0.62581415  0.57926366
   0.36163277  0.48598129  0.53987105
   0.67803283  0.65345069  0.28564420
   0.58346449  0.40109817  0.67740862
   0.32658517  0.37227662  0.57387558
   0.43066340  0.39151857  0.49714551
   0.58384196  0.57767870  0.29629297
Direct configuration=     3
   0.68153215  0.46721316  0.67928277
   0.58464894  0.67910319  0.36058125
   0.44219945  0.34474470  0.60817722
   0.72632304  0.52957911  0.46097310
   0.47497843  0.52657195  0.57473254
   0.58188859  0.52110120  0.63537114
   0.40540941  0.46223167  0.39813435
   0.66001907  0.57493599  0.55597493
   0.53369632  0.61403947  0.44974984
   0.49083423  0.53954828  0.36098808
   0.31348778  0.40718488  0.45636401
   0.48422688  0.34679906  0.72077204
   0.50383413  0.71534396  0.50902823
   0.42697386  0.63841410  0.56136697
   0.42337348  0.56206475  0.46552970
   0.33461309  0.57932670  0.61021405
   0.69220016  0.62728714  0.40114039
   0.58474599  0.77038864  0.43673812
   0.36011297  0.47527840  0.66390407
   0.73146687  0.47894794  0.57193885
   0.53239657  0.41350134  0.56359179
   0.61356731  0.52822653  0.40219729
   0.63239326  0.67516774  0.49636496
   0.62871441  0.46463597  0.50738078
   0.47779522  0.46063027  0.67667514
   0.52345487  0.45641733  0.44843400
   0.35758110  0.35920570  0.69400506
   0.55200992  0.62621097  0.57942156
   0.36119136  0.48590465  0.53941498
   0.67833693  0.65375148  0.28511544
   0.58388202  0.40075302  0.67756206
   0.32633858  0.37230044  0.57401882
   0.43056255  0.39113411  0.49690143
   0.58372871  0.57764956  0.29553665
Direct configuration=     4
   0.68230444  0.46727697  0.68076934
   0.58451669  0.67951974  0.35979238
   0.44330407  0.34460802  0.60797923
   0.72708211  0.52911938  0.46071757
   0.47461401  0.52615847  0.57449799
   0.58209814  0.52008483  0.63562876
   0.40500253  0.46117706  0.39772525
   0.66058760  0.57572210  0.55594780
   0.53283865  0.61269789  0.45046611
   0.49107418  0.53980535  0.36023479
   0.31223441  0.40703968  0.45593483
   0.48361861  0.34543844  0.72208104
   0.50345914  0.71682992  0.50948225
   0.42695121  0.63967728  0.56126823
   0.42338202  0.56302448  0.46518123
   0.33358772  0.58037574  0.61039484
   0.69298178  0.62729574  0.40089084
   0.58454561  0.77146666  0.43669436
   0.35920641  0.47519642  0.66377775
   0.73291937  0.47821968  0.57166594
   0.53254729  0.41331721  0.56421378
   0.61422477  0.52780076  0.40257779
   0.63261232  0.67613126  0.49701287
   0.62922613  0.46412230  0.50764095
   0.47820733  0.46062419  0.67700805
   0.52263254  0.45690209  0.44756461
   0.35733549  0.35848547  0.69552337
   0.55174383  0.62700461  0.57973737
   0.36030854  0.48575137  0.53850283
   0.67894512  0.65435305  0.28405792
   0.58471707  0.40006271  0.67786894
   0.32584541  0.37234806  0.57430530
   0.43036085  0.39036518  0.49641327
   0.58350221  0.57759128  0.29402401
Direct configuration=     5
   0.68384902  0.46740458  0.68374247
   0.58425219  0.68035284  0.35821462
   0.44551333  0.34433466  0.60758326
   0.72860026  0.52819993  0.46020652
   0.47388517  0.52533150  0.57402888
   0.58251726  0.51805211  0.63614401
   0.40418878  0.45906785  0.39690706
   0.66172466  0.57729431  0.55589354
   0.53112332  0.61001474  0.45189864
   0.49155408  0.54031949  0.35872822
   0.30972768  0.40674928  0.45507646
   0.48240209  0.34271718  0.72469905
   0.50270916  0.71980183  0.51039028
   0.42690591  0.64220364  0.56107075
   0.42339909  0.56494393  0.46448430
   0.33153700  0.58247380  0.61075644
   0.69454503  0.62731296  0.40039173
   0.58414487  0.77362271  0.43660685
   0.35739328  0.47503246  0.66352511
   0.73582436  0.47676317  0.57112012
   0.53284874  0.41294896  0.56545777
   0.61553969  0.52694921  0.40333881
   0.63305045  0.67805830  0.49830869
   0.63024958  0.46309496  0.50816129
   0.47903155  0.46061202  0.67767385
   0.52098788  0.45787160  0.44582583
   0.35684427  0.35704502  0.69856000
   0.55121166  0.62859189  0.58036899
   0.35854290  0.48544481  0.53667854
   0.68016151  0.65555621  0.28194287
   0.58638717  0.39868210  0.67848269
   0.32485907  0.37244331  0.57487826
   0.42995744  0.38882732  0.49543696
   0.58304921  0.57747471  0.29099872
Direct configuration=     6
   0.68356620  0.46738122  0.68319807
   0.58430062  0.68020029  0.35850352
   0.44510880  0.34438471  0.60765577
   0.72832228  0.52836829  0.46030010
   0.47401862  0.52548293  0.57411478
   0.58244052  0.51842431  0.63604966
   0.40433779  0.45945406  0.39705688
   0.66151646  0.57700643  0.55590347
   0.53143741  0.61050604  0.45163633
   0.49146621  0.54022535  0.35900408
   0.31018668  0.40680245  0.45523363
   0.48262484  0.34321546  0.72421968
   0.50284648  0.71925765  0.51022402
   0.42691420  0.64174105  0.56110691
   0.42339597  0.56459247  0.46461191
   0.33191250  0.58208963  0.61069023
   0.69425879  0.62730981  0.40048312
   0.58421825  0.77322792  0.43662287
   0.35772528  0.47506248  0.66357137
   0.73529244  0.47702986  0.57122006
   0.53279354  0.41301639  0.56522998
   0.61529892  0.52710513  0.40319947
   0.63297023  0.67770544  0.49807142
   0.63006218  0.46328307  0.50806601
   0.47888063  0.46061425  0.67755193
   0.52128903  0.45769408  0.44614421
   0.35693421  0.35730878  0.69800397
   0.55130910  0.62830125  0.58025333
   0.35886620  0.48550094  0.53701258
   0.67993878  0.65533591  0.28233015
   0.58608137  0.39893490  0.67837031
   0.32503967  0.37242587  0.57477335
   0.43003131  0.38910891  0.49561573
   0.58313216  0.57749605  0.29155267
Direct configuration=     7
   0.68435995  0.46750450  0.68380708
   0.58433573  0.67997810  0.35852937
   0.44500130  0.34426832  0.60847149
   0.72884450  0.52803365  0.46025656
   0.47363068  0.52561285  0.57389159
   0.58284250  0.51809555  0.63558595
   0.40424845  0.45922803  0.39685192
   0.66198888  0.57674658  0.55595253
   0.53217936  0.61075483  0.45245395
   0.49130840  0.54023904  0.35836570
   0.30931452  0.40658561  0.45512294
   0.48232715  0.34275210  0.72461951
   0.50310138  0.72009783  0.51017791
   0.42662825  0.64210816  0.56121304
   0.42243031  0.56447342  0.46431018
   0.33158305  0.58234286  0.61039400
   0.69438713  0.62744159  0.40020921
   0.58405175  0.77362895  0.43641171
   0.35738919  0.47473769  0.66306307
   0.73568064  0.47687559  0.57146118
   0.53309983  0.41333978  0.56486071
   0.61561760  0.52726098  0.40291247
   0.63265171  0.67846724  0.49789764
   0.63016797  0.46304375  0.50830451
   0.47874780  0.45995295  0.67793898
   0.52118130  0.45795247  0.44642014
   0.35729382  0.35707944  0.69842835
   0.55134575  0.62836581  0.58056528
   0.35823638  0.48596466  0.53655499
   0.67995512  0.65560206  0.28199585
   0.58623449  0.39816263  0.67889312
   0.32519440  0.37251082  0.57531732
   0.42974953  0.38863129  0.49547192
   0.58340880  0.57775427  0.29087144
Direct configuration=     8
   0.68632369  0.46780950  0.68531374
   0.58442260  0.67942841  0.35859332
   0.44473536  0.34398037  0.61048958
   0.73013647  0.52720575  0.46014883
   0.47267093  0.52593428  0.57333941
   0.58383700  0.51728221  0.63443875
   0.40402744  0.45866885  0.39634485
   0.66315763  0.57610371  0.55607389
   0.53401493  0.61137034  0.45447670
   0.49091800  0.54027293  0.35678637
   0.30715682  0.40604915  0.45484907
   0.48159067  0.34160575  0.72560867
   0.50373198  0.72217640  0.51006385
   0.42592080  0.64301639  0.56147561
   0.42004132  0.56417889  0.46356370
   0.33076800  0.58296934  0.60966116
   0.69470465  0.62776763  0.39953156
   0.58363984  0.77462109  0.43588929
   0.35655771  0.47393415  0.66180555
   0.73664104  0.47649391  0.57205770
   0.53385757  0.41413985  0.56394714
   0.61640601  0.52764656  0.40220244
   0.63186370  0.68035189  0.49746773
   0.63042967  0.46245169  0.50889454
   0.47841917  0.45831690  0.67889651
   0.52091478  0.45859173  0.44710279
   0.35818349  0.35651206  0.69947824
   0.55143642  0.62852552  0.58133702
   0.35667822  0.48711187  0.53542292
   0.67999557  0.65626051  0.28116880
   0.58661333  0.39625204  0.68018654
   0.32557718  0.37272098  0.57666309
   0.42905242  0.38744966  0.49511613
   0.58409322  0.57839309  0.28918608
Direct configuration=     9
   0.68653476  0.46763030  0.68557035
   0.58453673  0.67887600  0.35913120
   0.44473418  0.34446895  0.61074653
   0.73038311  0.52698126  0.46011129
   0.47230165  0.52609150  0.57354489
   0.58418098  0.51648511  0.63370201
   0.40394122  0.45855722  0.39640753
   0.66334879  0.57624600  0.55562626
   0.53410179  0.61117994  0.45519781
   0.49110604  0.54054568  0.35683340
   0.30670353  0.40588959  0.45520426
   0.48165192  0.34121985  0.72622123
   0.50392579  0.72230224  0.51036643
   0.42604991  0.64322860  0.56115005
   0.41991692  0.56442102  0.46292770
   0.33059902  0.58279776  0.60919326
   0.69467148  0.62774442  0.39951631
   0.58350576  0.77507231  0.43508825
   0.35650272  0.47353562  0.66085068
   0.73656798  0.47657473  0.57257481
   0.53321907  0.41413183  0.56393746
   0.61641866  0.52802857  0.40177766
   0.63171064  0.68045299  0.49738505
   0.63090897  0.46269486  0.50870285
   0.47829707  0.45747410  0.67862701
   0.52093928  0.45925858  0.44756023
   0.35859525  0.35654439  0.69979470
   0.55169479  0.62838888  0.58157529
   0.35576791  0.48725357  0.53492269
   0.67981011  0.65654586  0.28106755
   0.58680735  0.39601418  0.68063358
   0.32611094  0.37313614  0.57709147
   0.42859459  0.38718931  0.49565076
   0.58437873  0.57863204  0.28889104
Direct configuration=    10
   0.68716798  0.46709271  0.68634016
   0.58487914  0.67721877  0.36074485
   0.44473067  0.34593470  0.61151741
   0.73112302  0.52630781  0.45999866
   0.47119379  0.52656315  0.57416136
   0.58521291  0.51409382  0.63149179
   0.40368259  0.45822234  0.39659555
   0.66392224  0.57667285  0.55428339
   0.53436239  0.61060874  0.45736115
   0.49167018  0.54136392  0.35697450
   0.30534366  0.40541093  0.45626981
   0.48183566  0.34006214  0.72805891
   0.50450724  0.72267975  0.51127414
   0.42643722  0.64386520  0.56017335
   0.41954372  0.56514741  0.46101968
   0.33009210  0.58228300  0.60778956
   0.69457197  0.62767479  0.39947055
   0.58310352  0.77642598  0.43268513
   0.35633773  0.47234003  0.65798607
   0.73634879  0.47681721  0.57412614
   0.53130357  0.41410777  0.56390842
   0.61645660  0.52917462  0.40050334
   0.63125146  0.68075629  0.49713701
   0.63234685  0.46342437  0.50812778
   0.47793077  0.45494568  0.67781850
   0.52101277  0.46125913  0.44893256
   0.35983052  0.35664135  0.70074406
   0.55246991  0.62797898  0.58229012
   0.35303695  0.48767868  0.53342198
   0.67925374  0.65740191  0.28076379
   0.58738939  0.39530057  0.68197468
   0.32771220  0.37438162  0.57837660
   0.42722111  0.38640828  0.49725464
   0.58523527  0.57934889  0.28800592
Direct configuration=    11
   0.68744842  0.46685462  0.68668109
   0.58503079  0.67648481  0.36145951
   0.44472911  0.34658386  0.61185881
   0.73145071  0.52600955  0.45994878
   0.47070314  0.52677203  0.57443438
   0.58566994  0.51303476  0.63051292
   0.40356805  0.45807402  0.39667882
   0.66417622  0.57686190  0.55368865
   0.53447780  0.61035577  0.45831926
   0.49192002  0.54172631  0.35703700
   0.30474139  0.40519893  0.45674172
   0.48191704  0.33954941  0.72887278
   0.50476475  0.72284695  0.51167615
   0.42660875  0.64414715  0.55974079
   0.41937844  0.56546911  0.46017466
   0.32986760  0.58205502  0.60716789
   0.69452791  0.62764395  0.39945029
   0.58292538  0.77702549  0.43162083
   0.35626466  0.47181052  0.65671738
   0.73625171  0.47692460  0.57481320
   0.53045523  0.41409711  0.56389556
   0.61647341  0.52968218  0.39993896
   0.63104810  0.68089062  0.49702716
   0.63298366  0.46374745  0.50787310
   0.47776854  0.45382589  0.67746043
   0.52104532  0.46214514  0.44954034
   0.36037760  0.35668429  0.70116452
   0.55281319  0.62779744  0.58260671
   0.35182746  0.48786695  0.53275735
   0.67900734  0.65778104  0.28062926
   0.58764716  0.39498453  0.68256863
   0.32842138  0.37493322  0.57894577
   0.42661281  0.38606237  0.49796497
   0.58561461  0.57966636  0.28761392
Direct configuration=    12
   0.68741297  0.46651188  0.68707009
   0.58501837  0.67589303  0.36231106
   0.44481767  0.34659108  0.61259067
   0.73167698  0.52584500  0.45983439
   0.47012003  0.52695565  0.57471685
   0.58597221  0.51202988  0.62958537
   0.40360556  0.45790876  0.39707120
   0.66427887  0.57720977  0.55311146
   0.53419725  0.60983225  0.45907191
   0.49227653  0.54212803  0.35719035
   0.30437963  0.40487404  0.45704375
   0.48217057  0.33907402  0.72948898
   0.50542243  0.72305967  0.51180935
   0.42671875  0.64405622  0.55922003
   0.41937589  0.56568691  0.45980357
   0.32986988  0.58195027  0.60657959
   0.69477260  0.62753034  0.39959745
   0.58263352  0.77713276  0.43097833
   0.35642759  0.47160385  0.65584138
   0.73606363  0.47720126  0.57525962
   0.53055616  0.41441141  0.56365914
   0.61642811  0.53001576  0.39963217
   0.63085558  0.68126338  0.49676625
   0.63286575  0.46385883  0.50758872
   0.47772198  0.45316030  0.67708091
   0.52083160  0.46294683  0.45008687
   0.36071974  0.35680770  0.70168648
   0.55310596  0.62756547  0.58298854
   0.35116964  0.48839438  0.53179166
   0.67889976  0.65821841  0.28065877
   0.58775718  0.39487704  0.68295381
   0.32851801  0.37511442  0.57926127
   0.42622215  0.38625191  0.49797149
   0.58565506  0.57963289  0.28728010
Direct configuration=    13
   0.68730660  0.46548365  0.68823708
   0.58498112  0.67411766  0.36486570
   0.44508337  0.34661274  0.61478623
   0.73235580  0.52535136  0.45949123
   0.46837069  0.52750649  0.57556426
   0.58687903  0.50901523  0.62680274
   0.40371811  0.45741299  0.39824835
   0.66458684  0.57825336  0.55137990
   0.53335562  0.60826169  0.46132986
   0.49334607  0.54333319  0.35765043
   0.30329435  0.40389936  0.45794984
   0.48293118  0.33764785  0.73133758
   0.50739545  0.72369785  0.51220895
   0.42704874  0.64378343  0.55765774
   0.41936824  0.56634031  0.45869029
   0.32987672  0.58163602  0.60481467
   0.69550666  0.62718950  0.40003891
   0.58175797  0.77745455  0.42905084
   0.35691640  0.47098384  0.65321338
   0.73549936  0.47803125  0.57659891
   0.53085896  0.41535431  0.56294987
   0.61629222  0.53101650  0.39871181
   0.63027801  0.68238167  0.49598352
   0.63251202  0.46419295  0.50673557
   0.47758233  0.45116352  0.67594237
   0.52019043  0.46535188  0.45172645
   0.36174618  0.35717791  0.70325237
   0.55398426  0.62686957  0.58413404
   0.34919619  0.48997668  0.52889461
   0.67857703  0.65953052  0.28074728
   0.58808721  0.39455460  0.68410933
   0.32880792  0.37565799  0.58020779
   0.42505015  0.38682052  0.49799102
   0.58577641  0.57953246  0.28627865
Direct configuration=    14
   0.68709387  0.46342719  0.69057105
   0.58490662  0.67056692  0.36997500
   0.44561475  0.34665605  0.61917735
   0.73371344  0.52436406  0.45880492
   0.46487203  0.52860817  0.57725908
   0.58869268  0.50298594  0.62123747
   0.40394320  0.45642144  0.40060264
   0.66520277  0.58034056  0.54791677
   0.53167234  0.60512057  0.46584576
   0.49548513  0.54574352  0.35857057
   0.30112378  0.40194999  0.45976200
   0.48445240  0.33479551  0.73503477
   0.51134148  0.72497420  0.51300814
   0.42770873  0.64323785  0.55453317
   0.41935295  0.56764710  0.45646375
   0.32989040  0.58100750  0.60128484
   0.69697480  0.62650781  0.40092184
   0.58000686  0.77809814  0.42519585
   0.35789402  0.46974381  0.64795738
   0.73437082  0.47969123  0.57927747
   0.53146457  0.41724011  0.56153133
   0.61602044  0.53301797  0.39687109
   0.62912289  0.68461825  0.49441807
   0.63180455  0.46486121  0.50502929
   0.47730302  0.44716996  0.67366527
   0.51890809  0.47016198  0.45500562
   0.36379904  0.35791834  0.70638415
   0.55574086  0.62547777  0.58642505
   0.34524928  0.49314128  0.52310052
   0.67793156  0.66215473  0.28092431
   0.58874728  0.39390971  0.68642039
   0.32938772  0.37674515  0.58210082
   0.42270616  0.38795774  0.49803009
   0.58601912  0.57933161  0.28427575
Direct configuration=    15
   0.68726012  0.46503436  0.68874700
   0.58496484  0.67334190  0.36598197
   0.44519946  0.34662220  0.61574559
   0.73265241  0.52513566  0.45934129
   0.46760631  0.52774718  0.57593454
   0.58727527  0.50769797  0.62558685
   0.40376729  0.45719636  0.39876271
   0.66472140  0.57870937  0.55062328
   0.53298786  0.60757543  0.46231648
   0.49381340  0.54385980  0.35785146
   0.30282013  0.40347346  0.45834575
   0.48326353  0.33702468  0.73214533
   0.50825756  0.72397670  0.51238355
   0.42719293  0.64366423  0.55697510
   0.41936490  0.56662581  0.45820385
   0.32987971  0.58149870  0.60404348
   0.69582742  0.62704056  0.40023181
   0.58137539  0.77759516  0.42820861
   0.35712999  0.47071292  0.65206506
   0.73525280  0.47839392  0.57718411
   0.53099127  0.41576632  0.56263995
   0.61623284  0.53145377  0.39830965
   0.63002565  0.68287031  0.49564151
   0.63235745  0.46433895  0.50636279
   0.47752131  0.45029102  0.67544487
   0.51991026  0.46640278  0.45244288
   0.36219468  0.35733968  0.70393659
   0.55436804  0.62656549  0.58463458
   0.34833388  0.49066807  0.52762874
   0.67843601  0.66010385  0.28078596
   0.58823142  0.39441370  0.68461425
   0.32893459  0.37589551  0.58062137
   0.42453804  0.38706897  0.49799956
   0.58582944  0.57948858  0.28584106
Direct configuration=    16
   0.68699946  0.46446371  0.68956801
   0.58477704  0.67182723  0.36707593
   0.44583271  0.34589720  0.61561044
   0.73277834  0.52469931  0.45930052
   0.46662685  0.52766327  0.57657526
   0.58797733  0.50709304  0.62434857
   0.40390123  0.45729943  0.39934735
   0.66466819  0.57919201  0.54953809
   0.53274250  0.60664978  0.46385122
   0.49413520  0.54445916  0.35798562
   0.30238963  0.40252490  0.45837900
   0.48396567  0.33638673  0.73295642
   0.50957591  0.72397601  0.51254748
   0.42769752  0.64374287  0.55590476
   0.41890848  0.56669082  0.45800205
   0.33019714  0.58180898  0.60322815
   0.69682121  0.62699768  0.40053870
   0.58074863  0.77756433  0.42767485
   0.35796288  0.47133284  0.65148761
   0.73432181  0.47922248  0.57726445
   0.53101031  0.41530054  0.56230811
   0.61627011  0.53165838  0.39835848
   0.62963663  0.68368088  0.49503530
   0.63206930  0.46459812  0.50573219
   0.47777341  0.45025912  0.67539713
   0.51897852  0.46786110  0.45274599
   0.36231993  0.35792905  0.70507218
   0.55464194  0.62621795  0.58525795
   0.34791371  0.49127066  0.52575719
   0.67805155  0.66078026  0.28158750
   0.58793235  0.39409853  0.68504337
   0.32835299  0.37539543  0.58039195
   0.42479620  0.38762549  0.49851955
   0.58574293  0.57942607  0.28519020
Direct configuration=    17
   0.68648663  0.46334097  0.69118333
   0.58440755  0.66884716  0.36922827
   0.44707862  0.34447078  0.61534454
   0.73302609  0.52384080  0.45922030
   0.46469978  0.52749817  0.57783585
   0.58935861  0.50590287  0.62191228
   0.40416477  0.45750224  0.40049763
   0.66456351  0.58014161  0.54740301
   0.53225977  0.60482860  0.46687077
   0.49476833  0.54563840  0.35824959
   0.30154262  0.40065861  0.45844440
   0.48534709  0.33513161  0.73455220
   0.51216972  0.72397464  0.51287001
   0.42869028  0.64389759  0.55379890
   0.41801048  0.56681871  0.45760503
   0.33082166  0.58241945  0.60162401
   0.69877645  0.62691332  0.40114248
   0.57951550  0.77750366  0.42662469
   0.35960157  0.47255252  0.65035148
   0.73249012  0.48085265  0.57742252
   0.53104777  0.41438414  0.56165523
   0.61634343  0.53206094  0.39845456
   0.62887125  0.68527564  0.49384261
   0.63150236  0.46510803  0.50449150
   0.47826943  0.45019637  0.67530321
   0.51714535  0.47073031  0.45334235
   0.36256635  0.35908862  0.70730641
   0.55518085  0.62553418  0.58648440
   0.34708703  0.49245625  0.52207498
   0.67729514  0.66211108  0.28316451
   0.58734394  0.39347843  0.68588767
   0.32720871  0.37441154  0.57994057
   0.42530411  0.38872042  0.49954262
   0.58557272  0.57930309  0.28390966
Direct configuration=    18
   0.68634883  0.46303930  0.69161735
   0.58430827  0.66804643  0.36980659
   0.44741338  0.34408752  0.61527310
   0.73309266  0.52361013  0.45919875
   0.46418199  0.52745381  0.57817456
   0.58972975  0.50558308  0.62125767
   0.40423558  0.45755673  0.40080670
   0.66453538  0.58039676  0.54682934
   0.53213007  0.60433926  0.46768210
   0.49493845  0.54595525  0.35832052
   0.30131504  0.40015716  0.45846198
   0.48571827  0.33479436  0.73498098
   0.51286666  0.72397427  0.51295667
   0.42895703  0.64393916  0.55323307
   0.41776920  0.56685307  0.45749835
   0.33098947  0.58258348  0.60119298
   0.69930181  0.62689065  0.40130472
   0.57918417  0.77748736  0.42634252
   0.36004187  0.47288024  0.65004621
   0.73199796  0.48129067  0.57746499
   0.53105784  0.41413790  0.56147980
   0.61636313  0.53216910  0.39848037
   0.62866560  0.68570414  0.49352215
   0.63135003  0.46524504  0.50415814
   0.47840271  0.45017951  0.67527797
   0.51665279  0.47150124  0.45350258
   0.36263256  0.35940019  0.70790673
   0.55532565  0.62535045  0.58681394
   0.34686491  0.49277480  0.52108560
   0.67709190  0.66246865  0.28358825
   0.58718584  0.39331181  0.68611452
   0.32690125  0.37414718  0.57981929
   0.42544058  0.38901462  0.49981751
   0.58552699  0.57927004  0.28356559
Direct configuration=    19
   0.68597884  0.46237335  0.69237004
   0.58384631  0.66541465  0.37101257
   0.44741037  0.34294350  0.61564431
   0.73334275  0.52282452  0.45890320
   0.46318528  0.52704920  0.57903023
   0.59088270  0.50552779  0.62046570
   0.40369505  0.45770236  0.40072315
   0.66393757  0.58153763  0.54481204
   0.53227686  0.60304836  0.46983672
   0.49497526  0.54720292  0.35808729
   0.30132598  0.39867399  0.45820061
   0.48604098  0.33463903  0.73486128
   0.51350840  0.72370845  0.51376575
   0.43008967  0.64461236  0.55206687
   0.41718369  0.56766544  0.45679769
   0.33187556  0.58315984  0.59980895
   0.70066118  0.62702621  0.40197436
   0.57844091  0.77756613  0.42512020
   0.36132871  0.47349859  0.64910066
   0.73004917  0.48222812  0.57801929
   0.53129172  0.41312690  0.56103048
   0.61654518  0.53274807  0.39854252
   0.62908457  0.68596599  0.49284284
   0.63054396  0.46535160  0.50309144
   0.47905587  0.45016791  0.67588111
   0.51589051  0.47287814  0.45440224
   0.36364432  0.36095769  0.70810523
   0.55552100  0.62520668  0.58788359
   0.34592275  0.49216003  0.52008991
   0.67629881  0.66329102  0.28539697
   0.58661795  0.39285987  0.68620557
   0.32683102  0.37378124  0.57985306
   0.42572573  0.38947235  0.50100667
   0.58550900  0.57922343  0.28264904
Direct configuration=    20
   0.68519785  0.46096766  0.69395886
   0.58287117  0.65985939  0.37355820
   0.44740402  0.34052867  0.61642787
   0.73387066  0.52116624  0.45827934
   0.46108139  0.52619514  0.58083641
   0.59331640  0.50541108  0.61879397
   0.40255409  0.45800978  0.40054679
   0.66267570  0.58394582  0.54055386
   0.53258670  0.60032348  0.47438477
   0.49505295  0.54983655  0.35759497
   0.30134908  0.39554325  0.45764890
   0.48672218  0.33431115  0.73460861
   0.51486303  0.72314734  0.51547359
   0.43248048  0.64603336  0.54960522
   0.41594778  0.56938024  0.45531871
   0.33374595  0.58437644  0.59688748
   0.70353060  0.62731236  0.40338785
   0.57687200  0.77773239  0.42254010
   0.36404501  0.47480383  0.64710477
   0.72593559  0.48420692  0.57918934
   0.53178542  0.41099285  0.56008204
   0.61692946  0.53397017  0.39867372
   0.62996893  0.68651871  0.49140892
   0.62884245  0.46557654  0.50083980
   0.48043459  0.45014341  0.67715423
   0.51428146  0.47578454  0.45630127
   0.36577998  0.36424533  0.70852424
   0.55593334  0.62490321  0.59014144
   0.34393400  0.49086236  0.51798817
   0.67462472  0.66502691  0.28921489
   0.58541922  0.39190589  0.68639777
   0.32668276  0.37300879  0.57992434
   0.42632763  0.39043855  0.50351679
   0.58547104  0.57912504  0.28071436
Direct configuration=    21
   0.68476884  0.46013765  0.69470014
   0.58188582  0.65748967  0.37516423
   0.44722136  0.33982583  0.61701061
   0.73406143  0.52008973  0.45813333
   0.46077127  0.52629767  0.58103130
   0.59431364  0.50526438  0.61851002
   0.40181878  0.45804611  0.40052007
   0.66211510  0.58375591  0.53818032
   0.53309374  0.59906359  0.47637568
   0.49501308  0.55148702  0.35786338
   0.30206069  0.39373707  0.45726636
   0.48644290  0.33432430  0.73411301
   0.51631915  0.72400975  0.51587168
   0.43290699  0.64592418  0.54935046
   0.41508962  0.57014634  0.45461358
   0.33524750  0.58473020  0.59481042
   0.70476062  0.62751477  0.40457397
   0.57604139  0.77645930  0.42120616
   0.36500106  0.47519636  0.64582689
   0.72291102  0.48527426  0.58000357
   0.53254423  0.41008926  0.56068120
   0.61702952  0.53496776  0.39817767
   0.63024864  0.68794336  0.49005614
   0.62832610  0.46546358  0.49995998
   0.48090091  0.45001659  0.67778438
   0.51306020  0.47665171  0.45687165
   0.36730646  0.36654993  0.70788820
   0.55610550  0.62525401  0.59199645
   0.34303743  0.48987890  0.51791383
   0.67376933  0.66600046  0.29141150
   0.58576840  0.39141871  0.68575188
   0.32726701  0.37293482  0.58049529
   0.42575865  0.39083559  0.50392082
   0.58555124  0.57881460  0.27954742
Direct configuration=    22
   0.68416767  0.45897456  0.69573888
   0.58050505  0.65416899  0.37741478
   0.44696541  0.33884096  0.61782720
   0.73432875  0.51858122  0.45792874
   0.46033670  0.52644135  0.58130439
   0.59571108  0.50505882  0.61811213
   0.40078839  0.45809703  0.40048262
   0.66132954  0.58348979  0.53485428
   0.53380425  0.59729811  0.47916555
   0.49495721  0.55379983  0.35823950
   0.30305787  0.39120606  0.45673030
   0.48605156  0.33434272  0.73341852
   0.51835961  0.72521825  0.51642954
   0.43350465  0.64577119  0.54899347
   0.41388708  0.57121989  0.45362548
   0.33735162  0.58522592  0.59189985
   0.70648425  0.62779841  0.40623607
   0.57487745  0.77467532  0.41933692
   0.36634078  0.47574641  0.64403619
   0.71867270  0.48676991  0.58114454
   0.53360757  0.40882307  0.56152080
   0.61716973  0.53636567  0.39748256
   0.63064059  0.68993973  0.48816049
   0.62760253  0.46530529  0.49872708
   0.48155437  0.44983887  0.67866741
   0.51134886  0.47786688  0.45767091
   0.36944551  0.36977937  0.70699693
   0.55634675  0.62574558  0.59459587
   0.34178107  0.48850078  0.51780965
   0.67257067  0.66736468  0.29448959
   0.58625771  0.39073604  0.68484680
   0.32808571  0.37283117  0.58129537
   0.42496132  0.39139196  0.50448699
   0.58566363  0.57837959  0.27791219
Direct configuration=    23
   0.68444671  0.45951442  0.69525673
   0.58114596  0.65571033  0.37637015
   0.44708421  0.33929810  0.61744817
   0.73420467  0.51928141  0.45802371
   0.46053841  0.52637466  0.58117763
   0.59506244  0.50515424  0.61829682
   0.40126666  0.45807340  0.40050000
   0.66169417  0.58361331  0.53639811
   0.53347446  0.59811758  0.47787060
   0.49498314  0.55272631  0.35806492
   0.30259501  0.39238086  0.45697912
   0.48623321  0.33433417  0.73374087
   0.51741250  0.72465731  0.51617060
   0.43322723  0.64584220  0.54915917
   0.41444526  0.57072159  0.45408412
   0.33637496  0.58499582  0.59325083
   0.70568421  0.62766675  0.40546458
   0.57541771  0.77550338  0.42020455
   0.36571893  0.47549110  0.64486737