<?xml version="1.0" encoding="ISO-8859-1"?>
<modeling>
 <generator>
  <i name="program" type="string">vasp </i>
  <i name="version" type="string">5.3.5  </i>
  <i name="subversion" type="string">31Mar14 (build Feb 01 2018 12:10:03) gamma-only                       parallel </i>
  <i name="platform" type="string">LinuxIFC </i>
  <i name="date" type="string">2019 03 21 </i>
  <i name="time" type="string">22:05:37 </i>
 </generator>
 <incar>
  <i type="string" name="PREC">normal</i>
  <i type="int" name="ISPIN">     2</i>
  <i type="int" name="IBRION">     2</i>
  <i type="int" name="NSW">  1000</i>
  <i type="int" name="ISIF">     2</i>
  <i name="POTIM">      0.10000000</i>
  <i type="logical" name="LPLANE"> T  </i>
  <i type="int" name="ISMEAR">     0</i>
  <i name="SIGMA">      0.00010000</i>
  <i type="logical" name="LWAVE"> F  </i>
  <i type="logical" name="LCHARG"> F  </i>
  <i type="logical" name="LVTOT"> F  </i>
  <i type="string" name="GGA"> PE</i>
 </incar>
 <kpoints>
  <varray name="kpointlist" >
   <v>       0.00000000       0.00000000       0.00000000 </v>
  </varray>
  <varray name="weights" >
   <v>       1.00000000 </v>
  </varray>
 </kpoints>
 <parameters>
  <separator name="general" >
   <i type="string" name="SYSTEM">unknown system</i>
   <i type="logical" name="LCOMPAT"> F  </i>
  </separator>
  <separator name="electronic" >
   <i type="string" name="PREC">normal</i>
   <i name="ENMAX">    249.84400000</i>
   <i name="ENAUG">    412.49600000</i>
   <i name="EDIFF">      0.00010000</i>
   <i type="int" name="IALGO">    38</i>
   <i type="int" name="IWAVPR">    11</i>
   <i type="int" name="NBANDS">   156</i>
   <i name="NELECT">    242.00000000</i>
   <i type="int" name="TURBO">     0</i>
   <i type="int" name="IRESTART">     0</i>
   <i type="int" name="NREBOOT">     0</i>
   <i type="int" name="NMIN">     0</i>
   <i name="EREF">      0.00000000</i>
   <separator name="electronic smearing" >
    <i type="int" name="ISMEAR">     0</i>
    <i name="SIGMA">      0.00010000</i>
    <i name="KSPACING">      0.50000000</i>
    <i type="logical" name="KGAMMA"> T  </i>
   </separator>
   <separator name="electronic projectors" >
    <i type="logical" name="LREAL"> F  </i>
    <v name="ROPT">      0.00000000</v>
    <i type="int" name="LMAXPAW">  -100</i>
    <i type="int" name="LMAXMIX">     2</i>
    <i type="logical" name="NLSPLINE"> F  </i>
   </separator>
   <separator name="electronic startup" >
    <i type="int" name="ISTART">     0</i>
    <i type="int" name="ICHARG">     2</i>
    <i type="int" name="INIWAV">     1</i>
   </separator>
   <separator name="electronic spin" >
    <i type="int" name="ISPIN">     2</i>
    <i type="logical" name="LNONCOLLINEAR"> F  </i>
    <v name="MAGMOM">      1.00000000      1.00000000      1.00000000      1.00000000      1.00000000      1.00000000      1.00000000      1.00000000      1.00000000      1.00000000      1.00000000      1.00000000      1.00000000      1.00000000      1.00000000      1.00000000      1.00000000      1.00000000      1.00000000      1.00000000
      1.00000000      1.00000000</v>
    <i name="NUPDOWN">     -1.00000000</i>
    <i type="logical" name="LSORBIT"> F  </i>
    <v name="SAXIS">      0.00000000      0.00000000      1.00000000</v>
    <i type="logical" name="LSPIRAL"> F  </i>
    <v name="QSPIRAL">      0.00000000      0.00000000      0.00000000</v>
    <i type="logical" name="LZEROZ"> F  </i>
   </separator>
   <separator name="electronic exchange-correlation" >
    <i type="logical" name="LASPH"> F  </i>
    <i type="logical" name="LMETAGGA"> F  </i>
   </separator>
   <separator name="electronic convergence" >
    <i type="int" name="NELM">    60</i>
    <i type="int" name="NELMDL">    -5</i>
    <i type="int" name="NELMIN">     2</i>
    <i name="ENINI">    249.84400000</i>
    <separator name="electronic convergence detail" >
     <i type="logical" name="LDIAG"> T  </i>
     <i type="logical" name="LSUBROT"> F  </i>
     <i name="WEIMIN">      0.00100000</i>
     <i name="EBREAK">      0.00000016</i>
     <i name="DEPER">      0.30000000</i>
     <i type="int" name="NRMM">     4</i>
     <i name="TIME">      0.40000000</i>
    </separator>
   </separator>
   <separator name="electronic mixer" >
    <i name="AMIX">      0.40000000</i>
    <i name="BMIX">      1.00000000</i>
    <i name="AMIN">      0.10000000</i>
    <i name="AMIX_MAG">      1.60000000</i>
    <i name="BMIX_MAG">      1.00000000</i>
    <separator name="electronic mixer details" >
     <i type="int" name="IMIX">     4</i>
     <i type="int" name="MAXMIX">   -45</i>
     <i name="WC">    100.00000000</i>
     <i type="int" name="INIMIX">     1</i>
     <i type="int" name="MIXPRE">     1</i>
     <i type="int" name="MREMOVE">     5</i>
    </separator>
   </separator>
   <separator name="electronic dipolcorrection" >
    <i type="logical" name="LDIPOL"> F  </i>
    <i type="logical" name="LMONO"> F  </i>
    <i type="int" name="IDIPOL">     0</i>
    <i name="EPSILON">      1.00000000</i>
    <v name="DIPOL">   -100.00000000   -100.00000000   -100.00000000</v>
    <i name="EFIELD">      0.00000000</i>
   </separator>
  </separator>
  <separator name="grids" >
   <i type="int" name="NGX">    84</i>
   <i type="int" name="NGY">    84</i>
   <i type="int" name="NGZ">    84</i>
   <i type="int" name="NGXF">   168</i>
   <i type="int" name="NGYF">   168</i>
   <i type="int" name="NGZF">   168</i>
   <i type="logical" name="ADDGRID"> F  </i>
  </separator>
  <separator name="ionic" >
   <i type="int" name="NSW">  1000</i>
   <i type="int" name="IBRION">     2</i>
   <i type="int" name="ISIF">     2</i>
   <i name="PSTRESS">      0.00000000</i>
   <i name="EDIFFG">      0.00100000</i>
   <i type="int" name="NFREE">     1</i>
   <i name="POTIM">      0.10000000</i>
   <i name="SMASS">     -3.00000000</i>
   <i name="SCALEE">      1.00000000</i>
  </separator>
  <separator name="ionic md" >
   <i name="TEBEG">      0.00010000</i>
   <i name="TEEND">      0.00010000</i>
   <i type="int" name="NBLOCK">     1</i>
   <i type="int" name="KBLOCK">  1000</i>
   <i type="int" name="NPACO">   256</i>
   <i name="APACO">     16.00000000</i>
  </separator>
  <separator name="symmetry" >
   <i type="int" name="ISYM">     2</i>
   <i name="SYMPREC">      0.00001000</i>
  </separator>
  <separator name="dos" >
   <i type="logical" name="LORBIT"> F  </i>
   <v name="RWIGS">     -1.00000000</v>
   <i type="int" name="NEDOS">   301</i>
   <i name="EMIN">     10.00000000</i>
   <i name="EMAX">    -10.00000000</i>
   <i name="EFERMI">      0.00000000</i>
  </separator>
  <separator name="writing" >
   <i type="int" name="NWRITE">     2</i>
   <i type="logical" name="LWAVE"> F  </i>
   <i type="logical" name="LCHARG"> F  </i>
   <i type="logical" name="LPARD"> F  </i>
   <i type="logical" name="LVTOT"> F  </i>
   <i type="logical" name="LVHAR"> F  </i>
   <i type="logical" name="LELF"> F  </i>
   <i type="logical" name="LOPTICS"> F  </i>
   <v name="STM">      0.00000000      0.00000000      0.00000000      0.00000000      0.00000000      0.00000000      0.00000000</v>
  </separator>
  <separator name="performance" >
   <i type="int" name="NPAR">     4</i>
   <i type="int" name="NSIM">     4</i>
   <i type="int" name="NBLK">    -1</i>
   <i type="logical" name="LPLANE"> T  </i>
   <i type="logical" name="LSCALAPACK"> T  </i>
   <i type="logical" name="LSCAAWARE"> F  </i>
   <i type="logical" name="LSCALU"> F  </i>
   <i type="logical" name="LASYNC"> F  </i>
   <i type="logical" name="LORBITALREAL"> F  </i>
  </separator>
  <separator name="miscellaneous" >
   <i type="int" name="IDIOT">     3</i>
   <i type="logical" name="LMUSIC"> F  </i>
   <v name="POMASS">    107.86800000</v>
   <v name="DARWINR">      0.00000000</v>
   <v name="DARWINV">      1.00000000</v>
   <i type="logical" name="LCORR"> T  </i>
  </separator>
  <i type="logical" name="GGA_COMPAT"> T  </i>
  <i type="logical" name="LBERRY"> F  </i>
  <i type="int" name="ICORELEVEL">     0</i>
  <i type="logical" name="LDAU"> F  </i>
  <i type="int" name="I_CONSTRAINED_M">     0</i>
  <separator name="electronic exchange-correlation" >
   <i type="string" name="GGA">PE</i>
   <i type="int" name="VOSKOWN">     0</i>
   <i type="logical" name="LHFCALC"> F  </i>
   <i type="string" name="PRECFOCK"></i>
   <i type="logical" name="LSYMGRAD"> F  </i>
   <i type="logical" name="LHFONE"> F  </i>
   <i type="logical" name="LRHFCALC"> F  </i>
   <i type="logical" name="LTHOMAS"> F  </i>
   <i type="logical" name="LMODELHF"> F  </i>
   <i name="ENCUT4O">     -1.00000000</i>
   <i type="int" name="EXXOEP">     0</i>
   <i type="int" name="FOURORBIT">     0</i>
   <i name="AEXX">      0.00000000</i>
   <i name="HFALPHA">      0.00000000</i>
   <i name="MCALPHA">      0.00000000</i>
   <i name="ALDAX">      1.00000000</i>
   <i name="AGGAX">      1.00000000</i>
   <i name="ALDAC">      1.00000000</i>
   <i name="AGGAC">      1.00000000</i>
   <i type="int" name="NKREDX">     1</i>
   <i type="int" name="NKREDY">     1</i>
   <i type="int" name="NKREDZ">     1</i>
   <i type="logical" name="SHIFTRED"> F  </i>
   <i type="logical" name="ODDONLY"> F  </i>
   <i type="logical" name="EVENONLY"> F  </i>
   <i type="int" name="LMAXFOCK">     0</i>
   <i type="int" name="NMAXFOCKAE">     0</i>
   <i type="logical" name="LFOCKAEDFT"> F  </i>
   <i name="HFSCREEN">      0.00000000</i>
   <i name="HFSCREENC">      0.00000000</i>
   <i type="int" name="NBANDSGWLOW">     0</i>
  </separator>
  <separator name="vdW DFT" >
   <i type="logical" name="LUSE_VDW"> F  </i>
   <i name="Zab_VDW">     -0.84910000</i>
   <i name="PARAM1">      0.12340000</i>
   <i name="PARAM2">      1.00000000</i>
   <i name="PARAM3">      0.00000000</i>
  </separator>
  <separator name="model GW" >
   <i type="int" name="MODEL_GW">     0</i>
   <i name="MODEL_EPS0">    261.36271187</i>
   <i name="MODEL_ALPHA">      1.00000000</i>
  </separator>
  <separator name="linear response parameters" >
   <i type="logical" name="LEPSILON"> F  </i>
   <i type="logical" name="LRPA"> F  </i>
   <i type="logical" name="LNABLA"> F  </i>
   <i type="logical" name="LVEL"> F  </i>
   <i type="int" name="KINTER">     0</i>
   <i name="CSHIFT">      0.10000000</i>
   <i name="OMEGAMAX">     -1.00000000</i>
   <i name="DEG_THRESHOLD">      0.00200000</i>
  </separator>
  <separator name="orbital magnetization" >
   <i type="logical" name="NUCIND"> F  </i>
   <v name="MAGPOS">      0.00000000      0.00000000      0.00000000</v>
   <i type="logical" name="LNICSALL"> T  </i>
   <i type="logical" name="ORBITALMAG"> F  </i>
   <i type="logical" name="LMAGBLOCH"> F  </i>
   <i type="logical" name="LCHIMAG"> F  </i>
   <i type="logical" name="LGAUGE"> T  </i>
   <i type="int" name="MAGATOM">     0</i>
   <v name="MAGDIPOL">      0.00000000      0.00000000      0.00000000</v>
   <v name="AVECCONST">      0.00000000      0.00000000      0.00000000</v>
  </separator>
  <separator name="response functions" >
   <i type="logical" name="LADDER"> F  </i>
   <i type="logical" name="LFXC"> F  </i>
   <i type="logical" name="LHARTREE"> T  </i>
   <i type="int" name="IBSE">     0</i>
   <i type="logical" name="LTCTE"> F  </i>
   <i type="logical" name="LTETE"> F  </i>
   <i type="logical" name="LTRIPLET"> F  </i>
   <i type="logical" name="LFXCEPS"> F  </i>
   <i type="logical" name="LFXHEG"> F  </i>
   <i type="logical" name="L2ORDER"> F  </i>
   <i type="logical" name="LUSEW"> F  </i>
   <i name="ENCUTGW">     -2.00000000</i>
   <i name="ENCUTGWSOFT">     -2.00000000</i>
   <i name="ENCUTLF">     -1.00000000</i>
   <i type="int" name="LMAXMP2">    -1</i>
   <i name="SCISSOR">      0.00000000</i>
   <i type="int" name="NOMEGA">     0</i>
   <i type="int" name="NOMEGAR">     0</i>
   <i type="int" name="NBANDSGW">    -1</i>
   <i type="int" name="NBANDSO">    -1</i>
   <i type="int" name="NBANDSV">    -1</i>
   <i type="int" name="NELM">     1</i>
   <i type="int" name="DIM">     3</i>
   <i type="int" name="ANTIRES">     0</i>
   <i name="OMEGAMAX">    -30.00000000</i>
   <i name="OMEGAMIN">    -30.00000000</i>
   <i name="OMEGATL">   -200.00000000</i>
   <i type="int" name="OMEGAGRID">     0</i>
   <i name="CSHIFT">     -0.10000000</i>
   <i type="logical" name="SELFENERGY"> F  </i>
   <i type="logical" name="LSPECTRAL"> F  </i>
   <i type="logical" name="ODDONLYGW"> F  </i>
   <i type="logical" name="EVENONLYGW"> F  </i>
   <i type="int" name="NKREDLFX">     1</i>
   <i type="int" name="NKREDLFY">     1</i>
   <i type="int" name="NKREDLFZ">     1</i>
   <i type="int" name="MAXMEM">  1800</i>
   <i type="int" name="TELESCOPE">     0</i>
   <i type="int" name="TAUPAR">     1</i>
  </separator>
  <separator name="External order field" >
   <i name="OFIELD_KAPPA">      0.00000000</i>
   <v name="OFIELD_K">      0.00000000      0.00000000      0.00000000</v>
   <i name="OFIELD_Q6_NEAR">      0.00000000</i>
   <i name="OFIELD_Q6_FAR">      0.00000000</i>
   <i name="OFIELD_A">      0.00000000</i>
  </separator>
 </parameters>
 <atominfo>
  <atoms>      22 </atoms>
  <types>       1 </types>
  <array name="atoms" >
   <dimension dim="1">ion</dimension>
   <field type="string">element</field>
   <field type="int">atomtype</field>
   <set>
    <rc><c>Ag</c><c>   1</c></rc>
    <rc><c>Ag</c><c>   1</c></rc>
    <rc><c>Ag</c><c>   1</c></rc>
    <rc><c>Ag</c><c>   1</c></rc>
    <rc><c>Ag</c><c>   1</c></rc>
    <rc><c>Ag</c><c>   1</c></rc>
    <rc><c>Ag</c><c>   1</c></rc>
    <rc><c>Ag</c><c>   1</c></rc>
    <rc><c>Ag</c><c>   1</c></rc>
    <rc><c>Ag</c><c>   1</c></rc>
    <rc><c>Ag</c><c>   1</c></rc>
    <rc><c>Ag</c><c>   1</c></rc>
    <rc><c>Ag</c><c>   1</c></rc>
    <rc><c>Ag</c><c>   1</c></rc>
    <rc><c>Ag</c><c>   1</c></rc>
    <rc><c>Ag</c><c>   1</c></rc>
    <rc><c>Ag</c><c>   1</c></rc>
    <rc><c>Ag</c><c>   1</c></rc>
    <rc><c>Ag</c><c>   1</c></rc>
    <rc><c>Ag</c><c>   1</c></rc>
    <rc><c>Ag</c><c>   1</c></rc>
    <rc><c>Ag</c><c>   1</c></rc>
   </set>
  </array>
  <array name="atomtypes" >
   <dimension dim="1">type</dimension>
   <field type="int">atomspertype</field>
   <field type="string">element</field>
   <field>mass</field>
   <field>valence</field>
   <field type="string">pseudopotential</field>
   <set>
    <rc><c>  22</c><c>Ag</c><c>    107.86800000</c><c>     11.00000000</c><c>  PAW_PBE Ag 02Apr2005                  </c></rc>
   </set>
  </array>
 </atominfo>
 <structure name="initialpos" >
  <crystal>
   <varray name="basis" >
    <v>      21.24083993       0.00000000       0.00000000 </v>
    <v>       0.00000000      21.24083993       0.00000000 </v>
    <v>       0.00000000       0.00000000      21.24083993 </v>
   </varray>
   <i name="volume">   9583.29943510 </i>
   <varray name="rec_basis" >
    <v>       0.04707912       0.00000000       0.00000000 </v>
    <v>       0.00000000       0.04707912       0.00000000 </v>
    <v>       0.00000000       0.00000000       0.04707912 </v>
   </varray>
  </crystal>
  <varray name="positions" >
   <v>       0.71611957       0.49669057       0.47702869 </v>
   <v>       0.57134326       0.40397014       0.63538598 </v>
   <v>       0.64405896       0.59924435       0.49378837 </v>
   <v>       0.63666140       0.49844402       0.57450125 </v>
   <v>       0.62196789       0.45179468       0.40979129 </v>
   <v>       0.56478818       0.56110223       0.40660895 </v>
   <v>       0.56112773       0.52174024       0.67581155 </v>
   <v>       0.50017846       0.63060221       0.69698830 </v>
   <v>       0.58121104       0.62410058       0.60036480 </v>
   <v>       0.53202904       0.66017306       0.48547687 </v>
   <v>       0.48021032       0.52587407       0.32341906 </v>
   <v>       0.49194625       0.42896253       0.72880640 </v>
   <v>       0.52158271       0.41004695       0.35166967 </v>
   <v>       0.45296310       0.61745987       0.58027599 </v>
   <v>       0.44921057       0.48771817       0.43820960 </v>
   <v>       0.56104164       0.41982008       0.51283911 </v>
   <v>       0.47643289       0.64557753       0.36715543 </v>
   <v>       0.43655907       0.51355596       0.65179608 </v>
   <v>       0.40992301       0.60024075       0.46464274 </v>
   <v>       0.44039988       0.44062908       0.55245653 </v>
   <v>       0.46462500       0.36062584       0.45583247 </v>
   <v>       0.35168241       0.53837875       0.55876268 </v>
  </varray>
 </structure>
 <calculation>
  <scstep>
   <time name="dav">    2.36    2.37</time>
   <time name="total">    2.66    2.69</time>
   <energy>
    <i name="alphaZ">     42.95804260 </i>
    <i name="ewald">  39318.98979806 </i>
    <i name="hartreedc"> -61163.07034263 </i>
    <i name="XCdc">   -242.26283750 </i>
    <i name="pawpsdc">  22074.18791753 </i>
    <i name="pawaedc"> -21059.82139533 </i>
    <i name="eentropy">     -0.00000000 </i>
    <i name="bandstr">    375.09010210 </i>
    <i name="atom">  22818.36986190 </i>
    <i name="e_fr_energy">   2164.44114673 </i>
    <i name="e_wo_entrp">   2164.44114673 </i>
    <i name="e_0_energy">   2164.44114673 </i>
   </energy>
  </scstep>
  <scstep>
   <time name="dav">    3.85    3.85</time>
   <time name="total">    3.85    3.86</time>
   <energy>
    <i name="e_fr_energy">    576.81988403 </i>
    <i name="e_wo_entrp">    576.81988403 </i>
    <i name="e_0_energy">    576.81988403 </i>
   </energy>
  </scstep>
  <scstep>
   <time name="dav">    3.04    3.04</time>
   <time name="total">    3.04    3.05</time>
   <energy>
    <i name="e_fr_energy">     -3.42069181 </i>
    <i name="e_wo_entrp">     -3.42069181 </i>
    <i name="e_0_energy">     -3.42069181 </i>
   </energy>
  </scstep>
  <scstep>
   <time name="dav">    2.58    2.58</time>
   <time name="total">    2.58    2.59</time>
   <energy>
    <i name="e_fr_energy">    -41.37472976 </i>
    <i name="e_wo_entrp">    -41.37472976 </i>
    <i name="e_0_energy">    -41.37472976 </i>
   </energy>
  </scstep>
  <scstep>
   <time name="dav">    2.62    2.61</time>
   <time name="total">    2.73    2.73</time>
   <energy>
    <i name="e_fr_energy">    -41.95755566 </i>
    <i name="e_wo_entrp">    -41.95755566 </i>
    <i name="e_0_energy">    -41.95755566 </i>
   </energy>
  </scstep>
  <scstep>
   <time name="dav">    2.43    2.43</time>
   <time name="total">    2.84    2.85</time>
   <energy>
    <i name="e_fr_energy">    -11.77533961 </i>
    <i name="e_wo_entrp">    -11.77533961 </i>
    <i name="e_0_energy">    -11.77533961 </i>
   </energy>
  </scstep>
  <scstep>
   <time name="dav">    2.50    2.50</time>
   <time name="total">    2.91    3.53</time>
   <energy>
    <i name="e_fr_energy">     -8.07897919 </i>
    <i name="e_wo_entrp">     -8.07897919 </i>
    <i name="e_0_energy">     -8.07897919 </i>
   </energy>
  </scstep>
  <scstep>
   <time name="dav">    2.58    2.58</time>
   <time name="total">    2.99    3.00</time>
   <energy>
    <i name="e_fr_energy">    -11.66874615 </i>
    <i name="e_wo_entrp">    -11.66874615 </i>
    <i name="e_0_energy">    -11.66874615 </i>
   </energy>
  </scstep>
  <scstep>
   <time name="dav">    2.60    2.60</time>
   <time name="total">    3.01    3.01</time>
   <energy>
    <i name="e_fr_energy">    -12.84142864 </i>
    <i name="e_wo_entrp">    -12.84142864 </i>
    <i name="e_0_energy">    -12.84142864 </i>
   </energy>
  </scstep>
  <scstep>
   <time name="dav">    2.54    2.55</time>
   <time name="total">    2.96    2.97</time>
   <energy>
    <i name="e_fr_energy">    -18.46745668 </i>
    <i name="e_wo_entrp">    -18.46745668 </i>
    <i name="e_0_energy">    -18.46745668 </i>
   </energy>
  </scstep>
  <scstep>
   <time name="dav">    2.50    2.50</time>
   <time name="total">    2.91    3.99</time>
   <energy>
    <i name="e_fr_energy">    -28.59836689 </i>
    <i name="e_wo_entrp">    -28.59836689 </i>
    <i name="e_0_energy">    -28.59836689 </i>
   </energy>
  </scstep>
  <scstep>
   <time name="dav">    2.77    2.78</time>
   <time name="total">    3.19    3.21</time>
   <energy>
    <i name="e_fr_energy">    -29.25913902 </i>
    <i name="e_wo_entrp">    -29.25913902 </i>
    <i name="e_0_energy">    -29.25913902 </i>
   </energy>
  </scstep>
  <scstep>
   <time name="dav">    2.43    2.43</time>
   <time name="total">    2.84    2.86</time>
   <energy>
    <i name="e_fr_energy">    -32.59851122 </i>
    <i name="e_wo_entrp">    -32.59851122 </i>
    <i name="e_0_energy">    -32.59851122 </i>
   </energy>
  </scstep>
  <scstep>
   <time name="dav">    2.48    2.48</time>
   <time name="total">    2.90    2.93</time>
   <energy>
    <i name="e_fr_energy">    -36.57825677 </i>
    <i name="e_wo_entrp">    -36.57825677 </i>
    <i name="e_0_energy">    -36.57825677 </i>
   </energy>
  </scstep>
  <scstep>
   <time name="dav">    2.76    2.76</time>
   <time name="total">    3.17    3.17</time>
   <energy>
    <i name="e_fr_energy">    -36.85423229 </i>
    <i name="e_wo_entrp">    -36.85423229 </i>
    <i name="e_0_energy">    -36.85423229 </i>
   </energy>
  </scstep>
  <scstep>
   <time name="dav">    2.49    2.49</time>
   <time name="total">    2.91    2.93</time>
   <energy>
    <i name="e_fr_energy">    -37.91421863 </i>
    <i name="e_wo_entrp">    -37.91421863 </i>
    <i name="e_0_energy">    -37.91421863 </i>
   </energy>
  </scstep>
  <scstep>
   <time name="dav">    2.46    2.46</time>
   <time name="total">    2.87    2.88</time>
   <energy>
    <i name="e_fr_energy">    -39.36533428 </i>
    <i name="e_wo_entrp">    -39.36533428 </i>
    <i name="e_0_energy">    -39.36533428 </i>
   </energy>
  </scstep>
  <scstep>
   <time name="dav">    2.48    2.48</time>
   <time name="total">    2.90    2.90</time>
   <energy>
    <i name="e_fr_energy">    -40.37688327 </i>
    <i name="e_wo_entrp">    -40.37688327 </i>
    <i name="e_0_energy">    -40.37688327 </i>
   </energy>
  </scstep>
  <scstep>
   <time name="dav">    2.53    2.53</time>
   <time name="total">    2.95    2.95</time>
   <energy>
    <i name="e_fr_energy">    -40.92888607 </i>
    <i name="e_wo_entrp">    -40.92888607 </i>
    <i name="e_0_energy">    -40.92888607 </i>
   </energy>
  </scstep>
  <scstep>
   <time name="dav">    2.50    2.51</time>
   <time name="total">    2.92    3.82</time>
   <energy>
    <i name="e_fr_energy">    -41.37691592 </i>
    <i name="e_wo_entrp">    -41.37691592 </i>
    <i name="e_0_energy">    -41.37691592 </i>
   </energy>
  </scstep>
  <scstep>
   <time name="dav">    2.57    2.57</time>
   <time name="total">    2.99    3.13</time>
   <energy>
    <i name="e_fr_energy">    -41.53212590 </i>
    <i name="e_wo_entrp">    -41.53212590 </i>
    <i name="e_0_energy">    -41.53212590 </i>
   </energy>
  </scstep>
  <scstep>
   <time name="dav">    2.04    2.03</time>
   <time name="total">    2.45    2.48</time>
   <energy>
    <i name="e_fr_energy">    -41.58213044 </i>
    <i name="e_wo_entrp">    -41.58213044 </i>
    <i name="e_0_energy">    -41.58213044 </i>
   </energy>
  </scstep>
  <scstep>
   <time name="dav">    2.42    2.43</time>
   <time name="total">    2.84    3.23</time>
   <energy>
    <i name="e_fr_energy">    -41.62841521 </i>
    <i name="e_wo_entrp">    -41.62841521 </i>
    <i name="e_0_energy">    -41.62841521 </i>
   </energy>
  </scstep>
  <scstep>
   <time name="dav">    1.97    1.97</time>
   <time name="total">    2.39    2.41</time>
   <energy>
    <i name="e_fr_energy">    -41.63211966 </i>
    <i name="e_wo_entrp">    -41.63211966 </i>
    <i name="e_0_energy">    -41.63211966 </i>
   </energy>
  </scstep>
  <scstep>
   <time name="dav">    1.93    1.93</time>
   <time name="total">    2.35    2.36</time>
   <energy>
    <i name="e_fr_energy">    -41.63626301 </i>
    <i name="e_wo_entrp">    -41.63626301 </i>
    <i name="e_0_energy">    -41.63626301 </i>
   </energy>
  </scstep>
  <scstep>
   <time name="dav">    1.99    1.99</time>
   <time name="total">    2.42    2.44</time>
   <energy>
    <i name="e_fr_energy">    -41.64054756 </i>
    <i name="e_wo_entrp">    -41.64054756 </i>
    <i name="e_0_energy">    -41.64054756 </i>
   </energy>
  </scstep>
  <scstep>
   <time name="dav">    1.99    1.99</time>
   <time name="total">    2.41    2.42</time>
   <energy>
    <i name="e_fr_energy">    -41.64236871 </i>
    <i name="e_wo_entrp">    -41.64236871 </i>
    <i name="e_0_energy">    -41.64236871 </i>
   </energy>
  </scstep>
  <scstep>
   <time name="dav">    1.87    1.88</time>
   <time name="total">    2.30    2.32</time>
   <energy>
    <i name="e_fr_energy">    -41.64349824 </i>
    <i name="e_wo_entrp">    -41.64349824 </i>
    <i name="e_0_energy">    -41.64349824 </i>
   </energy>
  </scstep>
  <scstep>
   <time name="dav">    1.88    1.88</time>
   <time name="total">    2.30    2.32</time>
   <energy>
    <i name="e_fr_energy">    -41.64391110 </i>
    <i name="e_wo_entrp">    -41.64391110 </i>
    <i name="e_0_energy">    -41.64391110 </i>
   </energy>
  </scstep>
  <scstep>
   <time name="dav">    1.86    1.87</time>
   <time name="total">    2.16    2.67</time>
   <energy>
    <i name="alphaZ">     42.95804260 </i>
    <i name="ewald">  39318.98979806 </i>
    <i name="hartreedc"> -61151.04617904 </i>
    <i name="XCdc">   -249.79044019 </i>
    <i name="pawpsdc">  24001.75030976 </i>
    <i name="pawaedc"> -23030.34782600 </i>
    <i name="eentropy">      0.00000000 </i>
    <i name="bandstr">  -1792.52754669 </i>
    <i name="atom">  22818.36986190 </i>
    <i name="e_fr_energy">    -41.64397961 </i>
    <i name="e_wo_entrp">    -41.64397961 </i>
    <i name="e_0_energy">    -41.64397961 </i>
   </energy>
  </scstep>
  <structure>
   <crystal>
    <varray name="basis" >
     <v>      21.24083993       0.00000000       0.00000000 </v>
     <v>       0.00000000      21.24083993       0.00000000 </v>
     <v>       0.00000000       0.00000000      21.24083993 </v>
    </varray>
    <i name="volume">   9583.29943510 </i>
    <varray name="rec_basis" >
     <v>       0.04707912       0.00000000       0.00000000 </v>
     <v>       0.00000000       0.04707912       0.00000000 </v>
     <v>       0.00000000       0.00000000       0.04707912 </v>
    </varray>
   </crystal>
   <varray name="positions" >
    <v>       0.71611957       0.49669057       0.47702869 </v>
    <v>       0.57134326       0.40397014       0.63538598 </v>
    <v>       0.64405896       0.59924435       0.49378837 </v>
    <v>       0.63666140       0.49844402       0.57450125 </v>
    <v>       0.62196789       0.45179468       0.40979129 </v>
    <v>       0.56478818       0.56110223       0.40660895 </v>
    <v>       0.56112773       0.52174024       0.67581155 </v>
    <v>       0.50017846       0.63060221       0.69698830 </v>
    <v>       0.58121104       0.62410058       0.60036480 </v>
    <v>       0.53202904       0.66017306       0.48547687 </v>
    <v>       0.48021032       0.52587407       0.32341906 </v>
    <v>       0.49194625       0.42896253       0.72880640 </v>
    <v>       0.52158271       0.41004695       0.35166967 </v>
    <v>       0.45296310       0.61745987       0.58027599 </v>
    <v>       0.44921057       0.48771817       0.43820960 </v>
    <v>       0.56104164       0.41982008       0.51283911 </v>
    <v>       0.47643289       0.64557753       0.36715543 </v>
    <v>       0.43655907       0.51355596       0.65179608 </v>
    <v>       0.40992301       0.60024075       0.46464274 </v>
    <v>       0.44039988       0.44062908       0.55245653 </v>
    <v>       0.46462500       0.36062584       0.45583247 </v>
    <v>       0.35168241       0.53837875       0.55876268 </v>
   </varray>
  </structure>
  <varray name="forces" >
   <v>       0.61033356      -0.00379286      -0.06377468 </v>
   <v>      -0.00524747      -0.30563915       0.03580873 </v>
   <v>       0.58034915       0.21780945       0.15718478 </v>
   <v>       0.17572030       0.26353005       0.13819956 </v>
   <v>       0.67210541      -0.22489684      -0.37725403 </v>
   <v>      -0.08781578       0.22714096      -0.14636530 </v>
   <v>       0.26910619       0.22273696       0.30473797 </v>
   <v>      -0.28393578       0.10193456       0.66756849 </v>
   <v>       0.31455047      -0.04805297      -0.12062828 </v>
   <v>      -0.26487779       0.20985180      -0.10559520 </v>
   <v>      -0.25389035       0.07651669      -0.72729575 </v>
   <v>      -0.23909673      -0.24657686       0.59128875 </v>
   <v>      -0.22793200      -0.21678042      -0.15556910 </v>
   <v>      -0.06778728       0.25919579      -0.03167133 </v>
   <v>       0.08452349      -0.66605861      -0.28174352 </v>
   <v>      -0.20006848      -0.25817540      -0.25787631 </v>
   <v>      -0.13788520       0.31446004      -0.14224888 </v>
   <v>      -0.16039952       0.23194669       0.74785534 </v>
   <v>      -0.35924711       0.87979873      -0.29029419 </v>
   <v>      -0.14466052      -0.42550826       0.37166829 </v>
   <v>      -0.26629667      -0.41712518      -0.10477671 </v>
   <v>      -0.00754790      -0.19231517      -0.20921862 </v>
  </varray>
  <varray name="stress" >
   <v>       0.22955374       0.02692143      -0.03145257 </v>
   <v>       0.02692142       0.33062650      -0.03656639 </v>
   <v>      -0.03145257      -0.03656639       1.19033485 </v>
  </varray>
  <energy>
   <i name="e_fr_energy">    -41.64397961 </i>
   <i name="e_wo_entrp">    -41.64397961 </i>
   <i name="e_0_energy">      0.00000000 </i>
  </energy>
  <time name="totalsc">   88.08   92.76</time>
 </calculation>
 <calculation>
  <scstep>
   <time name="dav">    2.51    2.51</time>
   <time name="total">    2.92    2.94</time>
   <energy>
    <i name="alphaZ">     42.95804260 </i>
    <i name="ewald">  39216.84213530 </i>
    <i name="hartreedc"> -61049.59453852 </i>
    <i name="XCdc">   -249.93579577 </i>
    <i name="pawpsdc">  24001.80430381 </i>
    <i name="pawaedc"> -23030.40261583 </i>
    <i name="eentropy">      0.00000000 </i>
    <i name="bandstr">  -1791.74966439 </i>
    <i name="atom">  22818.36986190 </i>
    <i name="e_fr_energy">    -41.70827090 </i>
    <i name="e_wo_entrp">    -41.70827090 </i>
    <i name="e_0_energy">    -41.70827090 </i>
   </energy>
  </scstep>
  <scstep>
   <time name="dav">    2.51    2.51</time>
   <time name="total">    2.93    2.93</time>
   <energy>
    <i name="e_fr_energy">    -41.71046088 </i>
    <i name="e_wo_entrp">    -41.71046088 </i>
    <i name="e_0_energy">    -41.71046088 </i>
   </energy>
  </scstep>
  <scstep>
   <time name="dav">    2.54    2.55</time>
   <time name="total">    2.84    2.86</time>
   <energy>
    <i name="alphaZ">     42.95804260 </i>
    <i name="ewald">  39216.84213530 </i>
    <i name="hartreedc"> -61050.33695654 </i>
    <i name="XCdc">   -249.91515854 </i>
    <i name="pawpsdc">  23987.81873141 </i>
    <i name="pawaedc"> -23016.19808383 </i>
    <i name="eentropy">      0.00000000 </i>
    <i name="bandstr">  -1791.24898710 </i>
    <i name="atom">  22818.36986190 </i>
    <i name="e_fr_energy">    -41.71041480 </i>
    <i name="e_wo_entrp">    -41.71041480 </i>
    <i name="e_0_energy">    -41.71041480 </i>
   </energy>
  </scstep>
  <structure>
   <crystal>
    <varray name="basis" >
     <v>      21.24083993       0.00000000       0.00000000 </v>
     <v>       0.00000000      21.24083993       0.00000000 </v>
     <v>       0.00000000       0.00000000      21.24083993 </v>
    </varray>
    <i name="volume">   9583.29943510 </i>
    <varray name="rec_basis" >
     <v>       0.04707912       0.00000000       0.00000000 </v>
     <v>       0.00000000       0.04707912       0.00000000 </v>
     <v>       0.00000000       0.00000000       0.04707912 </v>
    </varray>
   </crystal>
   <varray name="positions" >
    <v>       0.71639681       0.49668885       0.47699972 </v>
    <v>       0.57134088       0.40383130       0.63540225 </v>
    <v>       0.64432258       0.59934329       0.49385977 </v>
    <v>       0.63674122       0.49856372       0.57456402 </v>
    <v>       0.62227319       0.45169252       0.40961993 </v>
    <v>       0.56474829       0.56120541       0.40654247 </v>
    <v>       0.56124997       0.52184141       0.67594998 </v>
    <v>       0.50004948       0.63064851       0.69729154 </v>
    <v>       0.58135392       0.62407876       0.60031000 </v>
    <v>       0.53190872       0.66026838       0.48542891 </v>
    <v>       0.48009500       0.52590883       0.32308869 </v>
    <v>       0.49183764       0.42885052       0.72907499 </v>
    <v>       0.52147917       0.40994848       0.35159900 </v>
    <v>       0.45293231       0.61757761       0.58026160 </v>
    <v>       0.44924897       0.48741561       0.43808162 </v>
    <v>       0.56095076       0.41970280       0.51272197 </v>
    <v>       0.47637026       0.64572037       0.36709081 </v>
    <v>       0.43648621       0.51366132       0.65213579 </v>
    <v>       0.40975982       0.60064039       0.46451087 </v>
    <v>       0.44033417       0.44043579       0.55262536 </v>
    <v>       0.46450404       0.36043636       0.45578488 </v>
    <v>       0.35167898       0.53829140       0.55866765 </v>
   </varray>
  </structure>
  <varray name="forces" >
   <v>       0.58272611       0.00087403      -0.05420281 </v>
   <v>      -0.01854907      -0.26346339       0.03844504 </v>
   <v>       0.54457999       0.20908257       0.12926326 </v>
   <v>       0.16123477       0.23230176       0.11716224 </v>
   <v>       0.62437560      -0.20288196      -0.36336161 </v>
   <v>      -0.07878277       0.19539642      -0.13804163 </v>
   <v>       0.24232585       0.18891243       0.29894228 </v>
   <v>      -0.26367993       0.08820041       0.61692729 </v>
   <v>       0.27398954      -0.04493726      -0.09637558 </v>
   <v>      -0.23829080       0.19314637      -0.09919891 </v>
   <v>      -0.23597890       0.07715370      -0.67181490 </v>
   <v>      -0.21289876      -0.22685875       0.55106526 </v>
   <v>      -0.20697162      -0.19397621      -0.13976404 </v>
   <v>      -0.06278436       0.23821780      -0.01485918 </v>
   <v>       0.06485366      -0.58159006      -0.25822385 </v>
   <v>      -0.17532256      -0.23236212      -0.25152601 </v>
   <v>      -0.12941193       0.29600555      -0.15024489 </v>
   <v>      -0.15180200       0.22372203       0.70119619 </v>
   <v>      -0.33781333       0.79848390      -0.27964515 </v>
   <v>      -0.13730752      -0.39912165       0.36896908 </v>
   <v>      -0.26371923      -0.41051815      -0.09835645 </v>
   <v>       0.01922727      -0.18578743      -0.20635566 </v>
  </varray>
  <varray name="stress" >
   <v>       0.12873114       0.03225256      -0.03481857 </v>
   <v>       0.03225256       0.20726139      -0.05052926 </v>
   <v>      -0.03481858      -0.05052926       1.05901447 </v>
  </varray>
  <energy>
   <i name="e_fr_energy">    -41.71041480 </i>
   <i name="e_wo_entrp">    -41.71041480 </i>
   <i name="e_0_energy">      0.00000000 </i>
  </energy>
  <time name="totalsc">   12.99   13.48</time>
 </calculation>
 <calculation>
  <scstep>
   <time name="dav">    2.42    2.42</time>
   <time name="total">    2.82    2.84</time>
   <energy>
    <i name="alphaZ">     42.95804260 </i>
    <i name="ewald">  38912.09789356 </i>
    <i name="hartreedc"> -60747.99819228 </i>
    <i name="XCdc">   -250.33680362 </i>
    <i name="pawpsdc">  23980.22649528 </i>
    <i name="pawaedc"> -23008.48197613 </i>
    <i name="eentropy">      0.00000000 </i>
    <i name="bandstr">  -1788.69831743 </i>
    <i name="atom">  22818.36986190 </i>
    <i name="e_fr_energy">    -41.86299612 </i>
    <i name="e_wo_entrp">    -41.86299612 </i>
    <i name="e_0_energy">    -41.86299612 </i>
   </energy>
  </scstep>
  <scstep>
   <time name="dav">    2.48    2.49</time>
   <time name="total">    2.90    2.90</time>
   <energy>
    <i name="e_fr_energy">    -41.88247014 </i>
    <i name="e_wo_entrp">    -41.88247014 </i>
    <i name="e_0_energy">    -41.88247014 </i>
   </energy>
  </scstep>
  <scstep>
   <time name="dav">    2.52    2.52</time>
   <time name="total">    2.94    2.94</time>
   <energy>
    <i name="e_fr_energy">    -41.88202338 </i>
    <i name="e_wo_entrp">    -41.88202338 </i>
    <i name="e_0_energy">    -41.88202338 </i>
   </energy>
  </scstep>
  <scstep>
   <time name="dav">    2.52    2.52</time>
   <time name="total">    2.94    2.95</time>
   <energy>
    <i name="e_fr_energy">    -41.88181461 </i>
    <i name="e_wo_entrp">    -41.88181461 </i>
    <i name="e_0_energy">    -41.88181461 </i>
   </energy>
  </scstep>
  <scstep>
   <time name="dav">    1.80    1.80</time>
   <time name="total">    2.09    2.12</time>
   <energy>
    <i name="alphaZ">     42.95804260 </i>
    <i name="ewald">  38912.09789356 </i>
    <i name="hartreedc"> -60750.83921057 </i>
    <i name="XCdc">   -250.25711378 </i>
    <i name="pawpsdc">  23917.45175262 </i>
    <i name="pawaedc"> -22944.68532141 </i>
    <i name="eentropy">      0.00000000 </i>
    <i name="bandstr">  -1786.97768686 </i>
    <i name="atom">  22818.36986190 </i>
    <i name="e_fr_energy">    -41.88178194 </i>
    <i name="e_wo_entrp">    -41.88178194 </i>
    <i name="e_0_energy">    -41.88178194 </i>
   </energy>
  </scstep>
  <structure>
   <crystal>
    <varray name="basis" >
     <v>      21.24083993       0.00000000       0.00000000 </v>
     <v>       0.00000000      21.24083993       0.00000000 </v>
     <v>       0.00000000       0.00000000      21.24083993 </v>
    </varray>
    <i name="volume">   9583.29943510 </i>
    <varray name="rec_basis" >
     <v>       0.04707912       0.00000000       0.00000000 </v>
     <v>       0.00000000       0.04707912       0.00000000 </v>
     <v>       0.00000000       0.00000000       0.04707912 </v>
    </varray>
   </crystal>
   <varray name="positions" >
    <v>       0.71722853       0.49668368       0.47691282 </v>
    <v>       0.57133373       0.40341480       0.63545105 </v>
    <v>       0.64511344       0.59964010       0.49407397 </v>
    <v>       0.63698068       0.49892284       0.57475235 </v>
    <v>       0.62318909       0.45138604       0.40910583 </v>
    <v>       0.56462862       0.56151494       0.40634301 </v>
    <v>       0.56161669       0.52214494       0.67636525 </v>
    <v>       0.49966255       0.63078742       0.69820126 </v>
    <v>       0.58178257       0.62401327       0.60014562 </v>
    <v>       0.53154776       0.66055435       0.48528501 </v>
    <v>       0.47974901       0.52601310       0.32209758 </v>
    <v>       0.49151182       0.42851450       0.72988075 </v>
    <v>       0.52116856       0.40965307       0.35138700 </v>
    <v>       0.45283994       0.61793082       0.58021844 </v>
    <v>       0.44936415       0.48650795       0.43769768 </v>
    <v>       0.56067812       0.41935098       0.51237056 </v>
    <v>       0.47618236       0.64614889       0.36689697 </v>
    <v>       0.43626763       0.51397740       0.65315491 </v>
    <v>       0.40927026       0.60183932       0.46411528 </v>
    <v>       0.44013704       0.43985594       0.55313184 </v>
    <v>       0.46414115       0.35986793       0.45564210 </v>
    <v>       0.35166869       0.53802932       0.55838254 </v>
   </varray>
  </structure>
  <varray name="forces" >
   <v>       0.50808669       0.01329086      -0.02832647 </v>
   <v>      -0.05592859      -0.15241623       0.04590910 </v>
   <v>       0.45209906       0.18781100       0.06138214 </v>
   <v>       0.12992694       0.15010848       0.06338964 </v>
   <v>       0.50088875      -0.14676873      -0.32587367 </v>
   <v>      -0.05609534       0.11295085      -0.11897765 </v>
   <v>       0.17124377       0.10003494       0.28516364 </v>
   <v>      -0.21310349       0.04802175       0.48309530 </v>
   <v>       0.16786058      -0.03704511      -0.03389406 </v>
   <v>      -0.17026565       0.15076173      -0.08167232 </v>
   <v>      -0.19189721       0.07980570      -0.53316581 </v>
   <v>      -0.14398709      -0.17516667       0.44689555 </v>
   <v>      -0.15373314      -0.13536076      -0.10070472 </v>
   <v>      -0.05042648       0.18270693       0.03071219 </v>
   <v>       0.01856562      -0.37481355      -0.20318730 </v>
   <v>      -0.11071316      -0.16443950      -0.23642166 </v>
   <v>      -0.10818158       0.25072318      -0.17507574 </v>
   <v>      -0.12708717       0.20361317       0.57922664 </v>
   <v>      -0.28304255       0.60515019      -0.24303382 </v>
   <v>      -0.11796399      -0.33169054       0.36756700 </v>
   <v>      -0.25959162      -0.39771742      -0.08183741 </v>
   <v>       0.09334566      -0.16956026      -0.20117055 </v>
  </varray>
  <varray name="stress" >
   <v>      -0.13185435       0.04598660      -0.04419801 </v>
   <v>       0.04598660      -0.10752741      -0.08251684 </v>
   <v>      -0.04419801      -0.08251684       0.71095720 </v>
  </varray>
  <energy>
   <i name="e_fr_energy">    -41.88178194 </i>
   <i name="e_wo_entrp">    -41.88178194 </i>
   <i name="e_0_energy">      0.00000000 </i>
  </energy>
  <time name="totalsc">   17.99   18.10</time>
 </calculation>
 <calculation>
  <scstep>
   <time name="dav">    2.42    2.42</time>
   <time name="total">    2.83    2.84</time>
   <energy>
    <i name="alphaZ">     42.95804260 </i>
    <i name="ewald">  38310.14662394 </i>
    <i name="hartreedc"> -60152.67726288 </i>
    <i name="XCdc">   -251.07105663 </i>
    <i name="pawpsdc">  23918.15747276 </i>
    <i name="pawaedc"> -22945.39977354 </i>
    <i name="eentropy">      0.00000000 </i>
    <i name="bandstr">  -1782.52221266 </i>
    <i name="atom">  22818.36986190 </i>
    <i name="e_fr_energy">    -42.03830451 </i>
    <i name="e_wo_entrp">    -42.03830451 </i>
    <i name="e_0_energy">    -42.03830451 </i>
   </energy>
  </scstep>
  <scstep>
   <time name="dav">    2.44    2.44</time>
   <time name="total">    2.86    2.86</time>
   <energy>
    <i name="e_fr_energy">    -42.11575592 </i>
    <i name="e_wo_entrp">    -42.11575592 </i>
    <i name="e_0_energy">    -42.11575592 </i>
   </energy>
  </scstep>
  <scstep>
   <time name="dav">    2.49    2.49</time>
   <time name="total">    2.90    2.91</time>
   <energy>
    <i name="e_fr_energy">    -42.11446789 </i>
    <i name="e_wo_entrp">    -42.11446789 </i>
    <i name="e_0_energy">    -42.11446789 </i>
   </energy>
  </scstep>
  <scstep>
   <time name="dav">    2.54    2.55</time>
   <time name="total">    2.96    2.96</time>
   <energy>
    <i name="e_fr_energy">    -42.11305733 </i>
    <i name="e_wo_entrp">    -42.11305733 </i>
    <i name="e_0_energy">    -42.11305733 </i>
   </energy>
  </scstep>
  <scstep>
   <time name="dav">    1.83    1.83</time>
   <time name="total">    2.13    2.27</time>
   <energy>
    <i name="alphaZ">     42.95804260 </i>
    <i name="ewald">  38310.14662394 </i>
    <i name="hartreedc"> -60158.36309539 </i>
    <i name="XCdc">   -250.91640138 </i>
    <i name="pawpsdc">  23803.53140213 </i>
    <i name="pawaedc"> -22828.85792162 </i>
    <i name="eentropy">      0.00000000 </i>
    <i name="bandstr">  -1778.98152875 </i>
    <i name="atom">  22818.36986190 </i>
    <i name="e_fr_energy">    -42.11301656 </i>
    <i name="e_wo_entrp">    -42.11301656 </i>
    <i name="e_0_energy">    -42.11301656 </i>
   </energy>
  </scstep>
  <structure>
   <crystal>
    <varray name="basis" >
     <v>      21.24083993       0.00000000       0.00000000 </v>
     <v>       0.00000000      21.24083993       0.00000000 </v>
     <v>       0.00000000       0.00000000      21.24083993 </v>
    </varray>
    <i name="volume">   9583.29943510 </i>
    <varray name="rec_basis" >
     <v>       0.04707912       0.00000000       0.00000000 </v>
     <v>       0.00000000       0.04707912       0.00000000 </v>
     <v>       0.00000000       0.00000000       0.04707912 </v>
    </varray>
   </crystal>
   <varray name="positions" >
    <v>       0.71889198       0.49667334       0.47673900 </v>
    <v>       0.57131943       0.40258179       0.63554864 </v>
    <v>       0.64669516       0.60023374       0.49450237 </v>
    <v>       0.63745960       0.49964109       0.57512901 </v>
    <v>       0.62502089       0.45077309       0.40807764 </v>
    <v>       0.56438929       0.56213400       0.40594410 </v>
    <v>       0.56235013       0.52275201       0.67719580 </v>
    <v>       0.49888869       0.63106524       0.70002070 </v>
    <v>       0.58263987       0.62388231       0.59981685 </v>
    <v>       0.53082585       0.66112630       0.48499721 </v>
    <v>       0.47905704       0.52622164       0.32011536 </v>
    <v>       0.49086017       0.42784247       0.73149229 </v>
    <v>       0.52054734       0.40906224       0.35096301 </v>
    <v>       0.45265518       0.61863725       0.58013212 </v>
    <v>       0.44959452       0.48469263       0.43692979 </v>
    <v>       0.56013284       0.41864733       0.51166772 </v>
    <v>       0.47580655       0.64700595       0.36650927 </v>
    <v>       0.43583047       0.51460957       0.65519317 </v>
    <v>       0.40829115       0.60423718       0.46332409 </v>
    <v>       0.43974277       0.43869623       0.55414481 </v>
    <v>       0.46341536       0.35873107       0.45535653 </v>
    <v>       0.35164812       0.53750517       0.55781232 </v>
   </varray>
  </structure>
  <varray name="forces" >
   <v>       0.37453877       0.03829452       0.02019482 </v>
   <v>      -0.12297950       0.05425660       0.05302779 </v>
   <v>       0.29266458       0.15100709      -0.07093000 </v>
   <v>       0.06842274       0.00137761      -0.03270022 </v>
   <v>       0.29401778      -0.04768988      -0.24433572 </v>
   <v>      -0.02027340      -0.03040134      -0.08864259 </v>
   <v>       0.03583511      -0.05261070       0.25210919 </v>
   <v>      -0.12741334      -0.02689079       0.23430063 </v>
   <v>      -0.02187993      -0.01846416       0.06739974 </v>
   <v>      -0.05399948       0.08333800      -0.05038443 </v>
   <v>      -0.10453010       0.07881711      -0.27305400 </v>
   <v>      -0.02449314      -0.08116337       0.27418395 </v>
   <v>      -0.05676919      -0.02822739      -0.03583792 </v>
   <v>      -0.03443297       0.08115386       0.10969226 </v>
   <v>      -0.04526950      -0.05009072      -0.12144596 </v>
   <v>      -0.00043441      -0.04163498      -0.21100020 </v>
   <v>      -0.06641065       0.16763252      -0.22374605 </v>
   <v>      -0.07906943       0.16477789       0.36514299 </v>
   <v>      -0.20749818       0.26792692      -0.14265693 </v>
   <v>      -0.07805417      -0.20440557       0.35904958 </v>
   <v>      -0.25089960      -0.37626435      -0.05122946 </v>
   <v>       0.22892803      -0.13073888      -0.18913749 </v>
  </varray>
  <varray name="stress" >
   <v>      -0.62997534       0.06118253      -0.06940876 </v>
   <v>       0.06118253      -0.67849155      -0.13020046 </v>
   <v>      -0.06940876      -0.13020046       0.05050691 </v>
  </varray>
  <energy>
   <i name="e_fr_energy">    -42.11301656 </i>
   <i name="e_wo_entrp">    -42.11301656 </i>
   <i name="e_0_energy">      0.00000000 </i>
  </energy>
  <time name="totalsc">   17.99   18.86</time>
 </calculation>
 <calculation>
  <scstep>
   <time name="dav">    2.42    2.42</time>
   <time name="total">    2.83    2.84</time>
   <energy>
    <i name="alphaZ">     42.95804260 </i>
    <i name="ewald">  37135.55424835 </i>
    <i name="hartreedc"> -58990.13889050 </i>
    <i name="XCdc">   -252.39842639 </i>
    <i name="pawpsdc">  23804.77524225 </i>
    <i name="pawaedc"> -22830.11403932 </i>
    <i name="eentropy">      0.00000000 </i>
    <i name="bandstr">  -1770.91645976 </i>
    <i name="atom">  22818.36986190 </i>
    <i name="e_fr_energy">    -41.91042087 </i>
    <i name="e_wo_entrp">    -41.91042087 </i>
    <i name="e_0_energy">    -41.91042087 </i>
   </energy>
  </scstep>
  <scstep>
   <time name="dav">    2.44    2.44</time>
   <time name="total">    2.86    2.86</time>
   <energy>
    <i name="e_fr_energy">    -42.23167853 </i>
    <i name="e_wo_entrp">    -42.23167853 </i>
    <i name="e_0_energy">    -42.23167853 </i>
   </energy>
  </scstep>
  <scstep>
   <time name="dav">    2.58    2.58</time>
   <time name="total">    2.99    3.01</time>
   <energy>
    <i name="e_fr_energy">    -42.23064873 </i>
    <i name="e_wo_entrp">    -42.23064873 </i>
    <i name="e_0_energy">    -42.23064873 </i>
   </energy>
  </scstep>
  <scstep>
   <time name="dav">    2.48    2.49</time>
   <time name="total">    2.90    2.90</time>
   <energy>
    <i name="e_fr_energy">    -42.22293388 </i>
    <i name="e_wo_entrp">    -42.22293388 </i>
    <i name="e_0_energy">    -42.22293388 </i>
   </energy>
  </scstep>
  <scstep>
   <time name="dav">    2.56    2.56</time>
   <time name="total">    2.97    3.08</time>
   <energy>
    <i name="e_fr_energy">    -42.22318218 </i>
    <i name="e_wo_entrp">    -42.22318218 </i>
    <i name="e_0_energy">    -42.22318218 </i>
   </energy>
  </scstep>
  <scstep>
   <time name="dav">    2.55    2.55</time>
   <time name="total">    2.96    3.46</time>
   <energy>
    <i name="e_fr_energy">    -42.22297668 </i>
    <i name="e_wo_entrp">    -42.22297668 </i>
    <i name="e_0_energy">    -42.22297668 </i>
   </energy>
  </scstep>
  <scstep>
   <time name="dav">    1.86    1.86</time>
   <time name="total">    2.15    2.26</time>
   <energy>
    <i name="alphaZ">     42.95804260 </i>
    <i name="ewald">  37135.55424835 </i>
    <i name="hartreedc"> -59000.21218726 </i>
    <i name="XCdc">   -252.10322241 </i>
    <i name="pawpsdc">  23615.30358883 </i>
    <i name="pawaedc"> -22637.27472648 </i>
    <i name="eentropy">      0.00000000 </i>
    <i name="bandstr">  -1764.81860130 </i>
    <i name="atom">  22818.36986190 </i>
    <i name="e_fr_energy">    -42.22299578 </i>
    <i name="e_wo_entrp">    -42.22299578 </i>
    <i name="e_0_energy">    -42.22299578 </i>
   </energy>
  </scstep>
  <structure>
   <crystal>
    <varray name="basis" >
     <v>      21.24083993       0.00000000       0.00000000 </v>
     <v>       0.00000000      21.24083993       0.00000000 </v>
     <v>       0.00000000       0.00000000      21.24083993 </v>
    </varray>
    <i name="volume">   9583.29943510 </i>
    <varray name="rec_basis" >
     <v>       0.04707912       0.00000000       0.00000000 </v>
     <v>       0.00000000       0.04707912       0.00000000 </v>
     <v>       0.00000000       0.00000000       0.04707912 </v>
    </varray>
   </crystal>
   <varray name="positions" >
    <v>       0.72221886       0.49665267       0.47639137 </v>
    <v>       0.57129082       0.40091577       0.63574383 </v>
    <v>       0.64985861       0.60142100       0.49535917 </v>
    <v>       0.63841744       0.50107757       0.57588233 </v>
    <v>       0.62868450       0.44954720       0.40602125 </v>
    <v>       0.56391061       0.56337213       0.40514627 </v>
    <v>       0.56381701       0.52396613       0.67885691 </v>
    <v>       0.49734098       0.63162088       0.70365957 </v>
    <v>       0.58435446       0.62362037       0.59915932 </v>
    <v>       0.52938202       0.66227019       0.48442162 </v>
    <v>       0.47767310       0.52663873       0.31615092 </v>
    <v>       0.48955687       0.42649839       0.73471537 </v>
    <v>       0.51930490       0.40788059       0.35011501 </v>
    <v>       0.45228568       0.62005011       0.57995948 </v>
    <v>       0.45005525       0.48106199       0.43539403 </v>
    <v>       0.55904228       0.41724003       0.51026206 </v>
    <v>       0.47505495       0.64872005       0.36573388 </v>
    <v>       0.43495614       0.51587389       0.65926968 </v>
    <v>       0.40633292       0.60903291       0.46174172 </v>
    <v>       0.43895424       0.43637681       0.55617075 </v>
    <v>       0.46196380       0.35645735       0.45478540 </v>
    <v>       0.35160698       0.53645688       0.55667188 </v>
   </varray>
  </structure>
  <varray name="forces" >
   <v>       0.16027343       0.08587380       0.09686315 </v>
   <v>      -0.22858408       0.39849183       0.05093742 </v>
   <v>       0.09372532       0.07958377      -0.29478262 </v>
   <v>      -0.02313710      -0.24920209      -0.17732430 </v>
   <v>      -0.07471319       0.11119386      -0.06732827 </v>
   <v>       0.02007616      -0.24305080      -0.04938771 </v>
   <v>      -0.19687340      -0.26581120       0.18507763 </v>
   <v>       0.00171573      -0.15642023      -0.13593134 </v>
   <v>      -0.32382794       0.02367421       0.20290269 </v>
   <v>       0.11013419      -0.03821849       0.00612278 </v>
   <v>       0.04876674       0.06797981       0.15505815 </v>
   <v>       0.15304234       0.07705944      -0.02352095 </v>
   <v>       0.10427075       0.13826569       0.05078209 </v>
   <v>      -0.02381537      -0.10118840       0.22927142 </v>
   <v>      -0.10579977       0.34470632      -0.01825322 </v>
   <v>       0.16136984       0.14553369      -0.15982020 </v>
   <v>       0.01634685       0.05127700      -0.31903774 </v>
   <v>       0.00758968       0.09418020       0.02655257 </v>
   <v>      -0.13451018      -0.15870515       0.10754277 </v>
   <v>       0.00448732      -0.00177616       0.28742805 </v>
   <v>      -0.22619915      -0.35715380       0.00510414 </v>
   <v>       0.45566183      -0.04629332      -0.15825649 </v>
  </varray>
  <varray name="stress" >
   <v>      -1.39166644       0.06135434      -0.13590515 </v>
   <v>       0.06135434      -1.52488253      -0.17641854 </v>
   <v>      -0.13590515      -0.17641855      -1.01852244 </v>
  </varray>
  <energy>
   <i name="e_fr_energy">    -42.22299578 </i>
   <i name="e_wo_entrp">    -42.22299578 </i>
   <i name="e_0_energy">      0.00000000 </i>
  </energy>
  <time name="totalsc">   23.97   24.99</time>
 </calculation>
 <calculation>
  <scstep>
   <time name="dav">    2.42    2.42</time>
   <time name="total">    2.84    2.85</time>
   <energy>
    <i name="alphaZ">     42.95804260 </i>
    <i name="ewald">  37371.03431282 </i>
    <i name="hartreedc"> -59234.92713943 </i>
    <i name="XCdc">   -251.80740471 </i>
    <i name="pawpsdc">  23615.54319131 </i>
    <i name="pawaedc"> -22637.50169153 </i>
    <i name="eentropy">      0.00000000 </i>
    <i name="bandstr">  -1765.88871828 </i>
    <i name="atom">  22818.36986190 </i>
    <i name="e_fr_energy">    -42.21954532 </i>
    <i name="e_wo_entrp">    -42.21954532 </i>
    <i name="e_0_energy">    -42.21954532 </i>
   </energy>
  </scstep>
  <scstep>
   <time name="dav">    2.51    2.51</time>
   <time name="total">    2.92    2.93</time>
   <energy>
    <i name="e_fr_energy">    -42.23284791 </i>
    <i name="e_wo_entrp">    -42.23284791 </i>
    <i name="e_0_energy">    -42.23284791 </i>
   </energy>
  </scstep>
  <scstep>
   <time name="dav">    2.53    2.53</time>
   <time name="total">    2.94    2.97</time>
   <energy>
    <i name="e_fr_energy">    -42.23269769 </i>
    <i name="e_wo_entrp">    -42.23269769 </i>
    <i name="e_0_energy">    -42.23269769 </i>
   </energy>
  </scstep>
  <scstep>
   <time name="dav">    2.48    2.49</time>
   <time name="total">    2.78    2.78</time>
   <energy>
    <i name="alphaZ">     42.95804260 </i>
    <i name="ewald">  37371.03431282 </i>
    <i name="hartreedc"> -59233.02375437 </i>
    <i name="XCdc">   -251.86945464 </i>
    <i name="pawpsdc">  23648.83977976 </i>
    <i name="pawaedc"> -22671.39070354 </i>
    <i name="eentropy">     -0.00000000 </i>
    <i name="bandstr">  -1767.15070422 </i>
    <i name="atom">  22818.36986190 </i>
    <i name="e_fr_energy">    -42.23261968 </i>
    <i name="e_wo_entrp">    -42.23261968 </i>
    <i name="e_0_energy">    -42.23261968 </i>
   </energy>
  </scstep>
  <structure>
   <crystal>
    <varray name="basis" >
     <v>      21.24083993       0.00000000       0.00000000 </v>
     <v>       0.00000000      21.24083993       0.00000000 </v>
     <v>       0.00000000       0.00000000      21.24083993 </v>
    </varray>
    <i name="volume">   9583.29943510 </i>
    <varray name="rec_basis" >
     <v>       0.04707912       0.00000000       0.00000000 </v>
     <v>       0.00000000       0.04707912       0.00000000 </v>
     <v>       0.00000000       0.00000000       0.04707912 </v>
    </varray>
   </crystal>
   <varray name="positions" >
    <v>       0.72154312       0.49665687       0.47646198 </v>
    <v>       0.57129663       0.40125417       0.63570419 </v>
    <v>       0.64921606       0.60117985       0.49518514 </v>
    <v>       0.63822289       0.50078580       0.57572932 </v>
    <v>       0.62794036       0.44979620       0.40643894 </v>
    <v>       0.56400784       0.56312065       0.40530832 </v>
    <v>       0.56351906       0.52371952       0.67851951 </v>
    <v>       0.49765535       0.63150802       0.70292045 </v>
    <v>       0.58400620       0.62367358       0.59929287 </v>
    <v>       0.52967528       0.66203784       0.48453853 </v>
    <v>       0.47795420       0.52655401       0.31695616 </v>
    <v>       0.48982159       0.42677140       0.73406071 </v>
    <v>       0.51955726       0.40812060       0.35028725 </v>
    <v>       0.45236073       0.61976314       0.57999455 </v>
    <v>       0.44996167       0.48179944       0.43570597 </v>
    <v>       0.55926379       0.41752588       0.51054757 </v>
    <v>       0.47520761       0.64837188       0.36589138 </v>
    <v>       0.43513373       0.51561709       0.65844167 </v>
    <v>       0.40673067       0.60805881       0.46206313 </v>
    <v>       0.43911440       0.43684793       0.55575925 </v>
    <v>       0.46225864       0.35691918       0.45490141 </v>
    <v>       0.35161534       0.53666980       0.55690353 </v>
   </varray>
  </structure>
  <varray name="forces" >
   <v>       0.20613817       0.07595300       0.08328996 </v>
   <v>      -0.21128572       0.33815542       0.05212545 </v>
   <v>       0.12376947       0.08981377      -0.25400871 </v>
   <v>      -0.00971149      -0.20324688      -0.15487280 </v>
   <v>      -0.00353983       0.08507939      -0.10191125 </v>
   <v>       0.01300593      -0.20752692      -0.05463951 </v>
   <v>      -0.15579533      -0.23172144       0.19713726 </v>
   <v>      -0.01935211      -0.13184667      -0.07649660 </v>
   <v>      -0.27130261       0.01472448       0.18055137 </v>
   <v>       0.08079386      -0.01652331      -0.00447774 </v>
   <v>       0.01852763       0.07090642       0.08632549 </v>
   <v>       0.12353092       0.04923016       0.03495363 </v>
   <v>       0.07737377       0.11139296       0.03970765 </v>
   <v>      -0.02412683      -0.06763614       0.20855285 </v>
   <v>      -0.09808234       0.28296421      -0.03343045 </v>
   <v>       0.13348125       0.11597415      -0.17081903 </v>
   <v>      -0.00075949       0.07157639      -0.29981499 </v>
   <v>      -0.01053492       0.10646381       0.07980248 </v>
   <v>      -0.14080976      -0.09816730       0.05378843 </v>
   <v>      -0.01175852      -0.03402628       0.30455609 </v>
   <v>      -0.23346006      -0.35859170      -0.00599830 </v>
   <v>       0.41389802      -0.06294753      -0.16432129 </v>
  </varray>
  <varray name="stress" >
   <v>      -1.23122724       0.06418343      -0.12199209 </v>
   <v>       0.06418343      -1.35764796      -0.17235684 </v>
   <v>      -0.12199208      -0.17235684      -0.80289899 </v>
  </varray>
  <energy>
   <i name="e_fr_energy">    -42.23261968 </i>
   <i name="e_wo_entrp">    -42.23261968 </i>
   <i name="e_0_energy">     -0.00000000 </i>
  </energy>
  <time name="totalsc">   15.79   15.88</time>
 </calculation>
 <calculation>
  <scstep>
   <time name="dav">    2.42    2.42</time>
   <time name="total">    2.83    2.84</time>
   <energy>
    <i name="alphaZ">     42.95804260 </i>
    <i name="ewald">  37253.90399338 </i>
    <i name="hartreedc"> -59116.79179996 </i>
    <i name="XCdc">   -252.03684466 </i>
    <i name="pawpsdc">  23650.96147551 </i>
    <i name="pawaedc"> -22673.56422404 </i>
    <i name="eentropy">      0.00000000 </i>
    <i name="bandstr">  -1766.08161709 </i>
    <i name="atom">  22818.36986190 </i>
    <i name="e_fr_energy">    -42.28111236 </i>
    <i name="e_wo_entrp">    -42.28111236 </i>
    <i name="e_0_energy">    -42.28111236 </i>
   </energy>
  </scstep>
  <scstep>
   <time name="dav">    2.54    2.54</time>
   <time name="total">    2.95    2.95</time>
   <energy>
    <i name="e_fr_energy">    -42.29389514 </i>
    <i name="e_wo_entrp">    -42.29389514 </i>
    <i name="e_0_energy">    -42.29389514 </i>
   </energy>
  </scstep>
  <scstep>
   <time name="dav">    2.56    2.56</time>
   <time name="total">    2.97    2.99</time>
   <energy>
    <i name="e_fr_energy">    -42.29372303 </i>
    <i name="e_wo_entrp">    -42.29372303 </i>
    <i name="e_0_energy">    -42.29372303 </i>
   </energy>
  </scstep>
  <scstep>
   <time name="dav">    2.54    2.53</time>
   <time name="total">    2.95    3.46</time>
   <energy>
    <i name="e_fr_energy">    -42.29343765 </i>
    <i name="e_wo_entrp">    -42.29343765 </i>
    <i name="e_0_energy">    -42.29343765 </i>
   </energy>
  </scstep>
  <scstep>
   <time name="dav">    1.84    1.84</time>
   <time name="total">    2.13    2.19</time>
   <energy>
    <i name="alphaZ">     42.95804260 </i>
    <i name="ewald">  37253.90399338 </i>
    <i name="hartreedc"> -59118.15914701 </i>
    <i name="XCdc">   -252.00695041 </i>
    <i name="pawpsdc">  23625.59461696 </i>
    <i name="pawaedc"> -22647.78397816 </i>
    <i name="eentropy">      0.00000000 </i>
    <i name="bandstr">  -1765.16989089 </i>
    <i name="atom">  22818.36986190 </i>
    <i name="e_fr_energy">    -42.29345162 </i>
    <i name="e_wo_entrp">    -42.29345162 </i>
    <i name="e_0_energy">    -42.29345162 </i>
   </energy>
  </scstep>
  <structure>
   <crystal>
    <varray name="basis" >
     <v>      21.24083993       0.00000000       0.00000000 </v>
     <v>       0.00000000      21.24083993       0.00000000 </v>
     <v>       0.00000000       0.00000000      21.24083993 </v>
    </varray>
    <i name="volume">   9583.29943510 </i>
    <varray name="rec_basis" >
     <v>       0.04707912       0.00000000       0.00000000 </v>
     <v>       0.00000000       0.04707912       0.00000000 </v>
     <v>       0.00000000       0.00000000       0.04707912 </v>
    </varray>
   </crystal>
   <varray name="positions" >
    <v>       0.72229351       0.49681754       0.47660797 </v>
    <v>       0.57084169       0.40182323       0.63583391 </v>
    <v>       0.64977495       0.60148242       0.49472101 </v>
    <v>       0.63829110       0.50048419       0.57546779 </v>
    <v>       0.62827319       0.44986441       0.40602971 </v>
    <v>       0.56399120       0.56279145       0.40511723 </v>
    <v>       0.56332186       0.52333630       0.67909586 </v>
    <v>       0.49747011       0.63127741       0.70309482 </v>
    <v>       0.58358476       0.62368076       0.59961827 </v>
    <v>       0.52971408       0.66210876       0.48447546 </v>
    <v>       0.47786527       0.52674455       0.31677259 </v>
    <v>       0.48996492       0.42675189       0.73443501 </v>
    <v>       0.51960744       0.40824926       0.35029346 </v>
    <v>       0.45227475       0.61974963       0.58042494 </v>
    <v>       0.44979452       0.48206781       0.43549171 </v>
    <v>       0.55944820       0.41764337       0.51005130 </v>
    <v>       0.47513615       0.64868437       0.36517754 </v>
    <v>       0.43502994       0.51596247       0.65899128 </v>
    <v>       0.40624729       0.60829428       0.46203124 </v>
    <v>       0.43901596       0.43655957       0.55659944 </v>
    <v>       0.46162401       0.35594030       0.45483550 </v>
    <v>       0.35249752       0.53643765       0.55644581 </v>
   </varray>
  </structure>
  <varray name="forces" >
   <v>       0.15790390       0.06844952       0.06504943 </v>
   <v>      -0.21020625       0.29034698      -0.00979858 </v>
   <v>       0.05716413       0.08204839      -0.17185603 </v>
   <v>      -0.03195726      -0.13739114      -0.14644666 </v>
   <v>       0.03365910       0.09159534      -0.06943846 </v>
   <v>      -0.00837060      -0.15680416      -0.03600859 </v>
   <v>      -0.10800720      -0.17285170       0.15747425 </v>
   <v>      -0.01846417      -0.11851102      -0.05191725 </v>
   <v>      -0.20483965      -0.03777192       0.09616231 </v>
   <v>       0.06092893      -0.05768545      -0.01887405 </v>
   <v>       0.01282209       0.06677698       0.07788850 </v>
   <v>       0.09854036       0.04506481       0.04922104 </v>
   <v>       0.05819058       0.11230045       0.09099701 </v>
   <v>      -0.02428428      -0.04588043       0.13124410 </v>
   <v>      -0.09969593       0.17781410       0.04659446 </v>
   <v>       0.04070264       0.07490942      -0.16971801 </v>
   <v>       0.00307703       0.03880811      -0.21206007 </v>
   <v>      -0.02154266       0.07503164       0.08195308 </v>
   <v>      -0.06000070      -0.05270520       0.01595661 </v>
   <v>       0.05940556      -0.07047972       0.19778041 </v>
   <v>      -0.17793580      -0.19610183       0.02601935 </v>
   <v>       0.38291019      -0.07696319      -0.15022286 </v>
  </varray>
  <varray name="stress" >
   <v>      -1.34189530       0.07197965      -0.10119124 </v>
   <v>       0.07197965      -1.45458142      -0.17591052 </v>
   <v>      -0.10119125      -0.17591053      -1.02421436 </v>
  </varray>
  <energy>
   <i name="e_fr_energy">    -42.29345162 </i>
   <i name="e_wo_entrp">    -42.29345162 </i>
   <i name="e_0_energy">      0.00000000 </i>
  </energy>
  <time name="totalsc">   18.16   18.90</time>
 </calculation>
 <calculation>
  <scstep>
   <time name="dav">    2.42    2.42</time>
   <time name="total">    2.83    2.85</time>
   <energy>
    <i name="alphaZ">     42.95804260 </i>
    <i name="ewald">  36911.88652739 </i>
    <i name="hartreedc"> -58778.19615568 </i>
    <i name="XCdc">   -252.45587508 </i>
    <i name="pawpsdc">  23625.84037178 </i>
    <i name="pawaedc"> -22648.03143306 </i>
    <i name="eentropy">      0.00000000 </i>
    <i name="bandstr">  -1762.63298018 </i>
    <i name="atom">  22818.36986190 </i>
    <i name="e_fr_energy">    -42.26164034 </i>
    <i name="e_wo_entrp">    -42.26164034 </i>
    <i name="e_0_energy">    -42.26164034 </i>
   </energy>
  </scstep>
  <scstep>
   <time name="dav">    2.54    2.54</time>
   <time name="total">    2.95    3.17</time>
   <energy>
    <i name="e_fr_energy">    -42.37568940 </i>
    <i name="e_wo_entrp">    -42.37568940 </i>
    <i name="e_0_energy">    -42.37568940 </i>
   </energy>
  </scstep>
  <scstep>
   <time name="dav">    2.56    2.56</time>
   <time name="total">    2.97    3.00</time>
   <energy>
    <i name="e_fr_energy">    -42.37501937 </i>
    <i name="e_wo_entrp">    -42.37501937 </i>
    <i name="e_0_energy">    -42.37501937 </i>
   </energy>
  </scstep>
  <scstep>
   <time name="dav">    2.49    2.49</time>
   <time name="total">    2.90    2.91</time>
   <energy>
    <i name="e_fr_energy">    -42.37238835 </i>
    <i name="e_wo_entrp">    -42.37238835 </i>
    <i name="e_0_energy">    -42.37238835 </i>
   </energy>
  </scstep>
  <scstep>
   <time name="dav">    2.56    2.56</time>
   <time name="total">    2.97    3.00</time>
   <energy>
    <i name="e_fr_energy">    -42.37247745 </i>
    <i name="e_wo_entrp">    -42.37247745 </i>
    <i name="e_0_energy">    -42.37247745 </i>
   </energy>
  </scstep>
  <scstep>
   <time name="dav">    1.88    1.88</time>
   <time name="total">    2.18    2.18</time>
   <energy>
    <i name="alphaZ">     42.95804260 </i>
    <i name="ewald">  36911.88652739 </i>
    <i name="hartreedc"> -58781.25726540 </i>
    <i name="XCdc">   -252.37438942 </i>
    <i name="pawpsdc">  23564.79094807 </i>
    <i name="pawaedc"> -22585.90012092 </i>
    <i name="eentropy">      0.00000000 </i>
    <i name="bandstr">  -1760.84601879 </i>
    <i name="atom">  22818.36986190 </i>
    <i name="e_fr_energy">    -42.37241456 </i>
    <i name="e_wo_entrp">    -42.37241456 </i>
    <i name="e_0_energy">    -42.37241456 </i>
   </energy>
  </scstep>
  <structure>
   <crystal>
    <varray name="basis" >
     <v>      21.24083993       0.00000000       0.00000000 </v>
     <v>       0.00000000      21.24083993       0.00000000 </v>
     <v>       0.00000000       0.00000000      21.24083993 </v>
    </varray>
    <i name="volume">   9583.29943510 </i>
    <varray name="rec_basis" >
     <v>       0.04707912       0.00000000       0.00000000 </v>
     <v>       0.00000000       0.04707912       0.00000000 </v>
     <v>       0.00000000       0.00000000       0.04707912 </v>
    </varray>
   </crystal>
   <varray name="positions" >
    <v>       0.72451268       0.49729268       0.47703972 </v>
    <v>       0.56949627       0.40350615       0.63621753 </v>
    <v>       0.65142776       0.60237725       0.49334843 </v>
    <v>       0.63849282       0.49959225       0.57469436 </v>
    <v>       0.62925751       0.45006615       0.40481947 </v>
    <v>       0.56394200       0.56181791       0.40455209 </v>
    <v>       0.56273867       0.52220300       0.68080031 </v>
    <v>       0.49692230       0.63059543       0.70361047 </v>
    <v>       0.58233840       0.62370200       0.60058058 </v>
    <v>       0.52982880       0.66231849       0.48428895 </v>
    <v>       0.47760227       0.52730804       0.31622969 </v>
    <v>       0.49038881       0.42669421       0.73554196 </v>
    <v>       0.51975585       0.40862973       0.35031181 </v>
    <v>       0.45202048       0.61970969       0.58169777 </v>
    <v>       0.44930020       0.48286147       0.43485806 </v>
    <v>       0.55999354       0.41799085       0.50858365 </v>
    <v>       0.47492481       0.64960851       0.36306646 </v>
    <v>       0.43472299       0.51698387       0.66061666 </v>
    <v>       0.40481778       0.60899064       0.46193693 </v>
    <v>       0.43872484       0.43570681       0.55908417 </v>
    <v>       0.45974719       0.35304540       0.45464059 </v>
    <v>       0.35510643       0.53575109       0.55509218 </v>
   </varray>
  </structure>
  <varray name="forces" >
   <v>      -0.00112421       0.04923722       0.02138857 </v>
   <v>      -0.18662260       0.13138427      -0.19228959 </v>
   <v>      -0.14085401       0.02168433       0.00780171 </v>
   <v>      -0.07858294       0.03508082      -0.12330390 </v>
   <v>       0.12098672       0.10618830       0.02752251 </v>
   <v>      -0.05466659      -0.01608176       0.02181971 </v>
   <v>       0.02382642       0.03004012       0.05207839 </v>
   <v>      -0.00457134      -0.07041756       0.01877656 </v>
   <v>      -0.02559302      -0.16843127      -0.10322449 </v>
   <v>       0.02187263      -0.17330706      -0.05113247 </v>
   <v>       0.00359587       0.05489812       0.06292203 </v>
   <v>       0.02684021       0.02890308       0.08447537 </v>
   <v>       0.01331493       0.11854731       0.23406946 </v>
   <v>      -0.02193241       0.01468700      -0.08745363 </v>
   <v>      -0.10452184      -0.04718327       0.23720548 </v>
   <v>      -0.19438155      -0.02948215      -0.14604346 </v>
   <v>       0.02175420      -0.04498648       0.00044157 </v>
   <v>      -0.05253523      -0.02424183       0.08303530 </v>
   <v>       0.16622362       0.05561139      -0.08906301 </v>
   <v>       0.25176193      -0.16819991      -0.06174671 </v>
   <v>      -0.03044123       0.21070087       0.10232039 </v>
   <v>       0.24565042      -0.11463153      -0.09959978 </v>
  </varray>
  <varray name="stress" >
   <v>      -1.56196904       0.09680877      -0.04872295 </v>
   <v>       0.09680877      -1.61317844      -0.18762659 </v>
   <v>      -0.04872296      -0.18762659      -1.54394275 </v>
  </varray>
  <energy>
   <i name="e_fr_energy">    -42.37241456 </i>
   <i name="e_wo_entrp">    -42.37241456 </i>
   <i name="e_0_energy">      0.00000000 </i>
  </energy>
  <time name="totalsc">   21.11   21.63</time>
 </calculation>
 <calculation>
  <scstep>
   <time name="dav">    2.42    2.42</time>
   <time name="total">    2.83    2.84</time>
   <energy>
    <i name="alphaZ">     42.95804260 </i>
    <i name="ewald">  36976.43406544 </i>
    <i name="hartreedc"> -58845.75379866 </i>
    <i name="XCdc">   -252.29814944 </i>
    <i name="pawpsdc">  23564.85725210 </i>
    <i name="pawaedc"> -22585.96273461 </i>
    <i name="eentropy">      0.00000000 </i>
    <i name="bandstr">  -1761.01234747 </i>
    <i name="atom">  22818.36986190 </i>
    <i name="e_fr_energy">    -42.40780813 </i>
    <i name="e_wo_entrp">    -42.40780813 </i>
    <i name="e_0_energy">    -42.40780813 </i>
   </energy>
  </scstep>
  <scstep>
   <time name="dav">    2.53    2.53</time>
   <time name="total">    2.94    2.95</time>
   <energy>
    <i name="e_fr_energy">    -42.42805528 </i>
    <i name="e_wo_entrp">    -42.42805528 </i>
    <i name="e_0_energy">    -42.42805528 </i>
   </energy>
  </scstep>
  <scstep>
   <time name="dav">    2.55    2.55</time>
   <time name="total">    2.96    2.98</time>
   <energy>
    <i name="e_fr_energy">    -42.42790429 </i>
    <i name="e_wo_entrp">    -42.42790429 </i>
    <i name="e_0_energy">    -42.42790429 </i>
   </energy>
  </scstep>
  <scstep>
   <time name="dav">    2.54    2.54</time>
   <time name="total">    2.96    2.96</time>
   <energy>
    <i name="e_fr_energy">    -42.42745804 </i>
    <i name="e_wo_entrp">    -42.42745804 </i>
    <i name="e_0_energy">    -42.42745804 </i>
   </energy>
  </scstep>
  <scstep>
   <time name="dav">    2.52    2.52</time>
   <time name="total">    2.93    2.95</time>
   <energy>
    <i name="e_fr_energy">    -42.42737770 </i>
    <i name="e_wo_entrp">    -42.42737770 </i>
    <i name="e_0_energy">    -42.42737770 </i>
   </energy>
  </scstep>
  <scstep>
   <time name="dav">    1.78    1.79</time>
   <time name="total">    2.08    2.11</time>
   <energy>
    <i name="alphaZ">     42.95804260 </i>
    <i name="ewald">  36976.43406544 </i>
    <i name="hartreedc"> -58845.28953694 </i>
    <i name="XCdc">   -252.31663425 </i>
    <i name="pawpsdc">  23572.21494070 </i>
    <i name="pawaedc"> -22593.45214633 </i>
    <i name="eentropy">      0.00000000 </i>
    <i name="bandstr">  -1761.34599776 </i>
    <i name="atom">  22818.36986190 </i>
    <i name="e_fr_energy">    -42.42740465 </i>
    <i name="e_wo_entrp">    -42.42740465 </i>
    <i name="e_0_energy">    -42.42740465 </i>
   </energy>
  </scstep>
  <structure>
   <crystal>
    <varray name="basis" >
     <v>      21.24083993       0.00000000       0.00000000 </v>
     <v>       0.00000000      21.24083993       0.00000000 </v>
     <v>       0.00000000       0.00000000      21.24083993 </v>
    </varray>
    <i name="volume">   9583.29943510 </i>
    <varray name="rec_basis" >
     <v>       0.04707912       0.00000000       0.00000000 </v>
     <v>       0.00000000       0.04707912       0.00000000 </v>
     <v>       0.00000000       0.00000000       0.04707912 </v>
    </varray>
   </crystal>
   <varray name="positions" >
    <v>       0.72501445       0.49756867       0.47721095 </v>
    <v>       0.56855396       0.40433716       0.63564984 </v>
    <v>       0.65132447       0.60265499       0.49306229 </v>
    <v>       0.63827107       0.49950855       0.57409808 </v>
    <v>       0.62989394       0.45047387       0.40463751 </v>
    <v>       0.56374455       0.56154132       0.40449767 </v>
    <v>       0.56268697       0.52204714       0.68136605 </v>
    <v>       0.49678192       0.63020016       0.70379192 </v>
    <v>       0.58196726       0.62313303       0.60044817 </v>
    <v>       0.52992945       0.66177586       0.48407226 </v>
    <v>       0.47755460       0.52762345       0.31632036 </v>
    <v>       0.49057683       0.42677953       0.73608194 </v>
    <v>       0.51983503       0.40912028       0.35111341 </v>
    <v>       0.45188783       0.61975063       0.58168982 </v>
    <v>       0.44883150       0.48288155       0.43552180 </v>
    <v>       0.55945557       0.41796958       0.50775174 </v>
    <v>       0.47495077       0.64966580       0.36258699 </v>
    <v>       0.43447408       0.51713399       0.66126985 </v>
    <v>       0.40505837       0.60933875       0.46161203 </v>
    <v>       0.43951621       0.43493951       0.55943991 </v>
    <v>       0.45921589       0.35310366       0.45494476 </v>
    <v>       0.35653769       0.53520415       0.55444446 </v>
   </varray>
  </structure>
  <varray name="forces" >
   <v>      -0.00756843       0.05957432       0.01839250 </v>
   <v>      -0.18992467       0.08449009      -0.22158024 </v>
   <v>      -0.12366169       0.00018752       0.00534271 </v>
   <v>      -0.10043531       0.04019935      -0.10819686 </v>
   <v>       0.12515904       0.09682784       0.04771672 </v>
   <v>      -0.04929510      -0.01095962       0.02352530 </v>
   <v>       0.05238852       0.06285770       0.03565100 </v>
   <v>      -0.00878637      -0.04104376       0.01298646 </v>
   <v>      -0.00981175      -0.17359057      -0.09686570 </v>
   <v>       0.00908752      -0.15127590      -0.05209809 </v>
   <v>      -0.01969699       0.02842760       0.07202324 </v>
   <v>       0.02076831       0.02494455       0.08210180 </v>
   <v>       0.01943366       0.12598142       0.25988934 </v>
   <v>      -0.00950414       0.02217209      -0.07672373 </v>
   <v>      -0.11755058      -0.01667277       0.21146620 </v>
   <v>      -0.12139550      -0.02391142      -0.15484546 </v>
   <v>       0.03816781      -0.01886157      -0.00539312 </v>
   <v>      -0.04359910      -0.05092921       0.05491452 </v>
   <v>       0.16482161       0.05804825      -0.09068449 </v>
   <v>       0.21953537      -0.15063539       0.02086783 </v>
   <v>      -0.05296256       0.17207927       0.07315149 </v>
   <v>       0.20483036      -0.13790978      -0.11164142 </v>
  </varray>
  <varray name="stress" >
   <v>      -1.51336865       0.10222879      -0.03917726 </v>
   <v>       0.10222879      -1.55055668      -0.18383548 </v>
   <v>      -0.03917727      -0.18383548      -1.57608299 </v>
  </varray>
  <energy>
   <i name="e_fr_energy">    -42.42740465 </i>
   <i name="e_wo_entrp">    -42.42740465 </i>
   <i name="e_0_energy">      0.00000000 </i>
  </energy>
  <time name="totalsc">   21.03   23.90</time>
 </calculation>
 <calculation>
  <scstep>
   <time name="dav">    2.42    2.42</time>
   <time name="total">    2.83    2.84</time>
   <energy>
    <i name="alphaZ">     42.95804260 </i>
    <i name="ewald">  37167.98371106 </i>
    <i name="hartreedc"> -59036.83061665 </i>
    <i name="XCdc">   -252.06761515 </i>
    <i name="pawpsdc">  23572.08729388 </i>
    <i name="pawaedc"> -22593.32406937 </i>
    <i name="eentropy">      0.00000000 </i>
    <i name="bandstr">  -1761.55652152 </i>
    <i name="atom">  22818.36986190 </i>
    <i name="e_fr_energy">    -42.37991326 </i>
    <i name="e_wo_entrp">    -42.37991326 </i>
    <i name="e_0_energy">    -42.37991326 </i>
   </energy>
  </scstep>
  <scstep>
   <time name="dav">    2.54    2.54</time>
   <time name="total">    2.95    2.95</time>
   <energy>
    <i name="e_fr_energy">    -42.57168581 </i>
    <i name="e_wo_entrp">    -42.57168581 </i>
    <i name="e_0_energy">    -42.57168581 </i>
   </energy>
  </scstep>
  <scstep>
   <time name="dav">    2.56    2.56</time>
   <time name="total">    2.97    2.98</time>
   <energy>
    <i name="e_fr_energy">    -42.56993318 </i>
    <i name="e_wo_entrp">    -42.56993318 </i>
    <i name="e_0_energy">    -42.56993318 </i>
   </energy>
  </scstep>
  <scstep>
   <time name="dav">    2.60    2.61</time>
   <time name="total">    3.02    3.02</time>
   <energy>
[...]
       <r>    -0.9645     0.0000   134.0000 </r>
       <r>    -0.9280     0.0000   135.0000 </r>
       <r>    -0.8914     0.0000   135.0000 </r>
       <r>    -0.8549     0.0000   135.0000 </r>
       <r>    -0.8183     0.0000   135.0000 </r>
       <r>    -0.7818     0.0000   135.0000 </r>
       <r>    -0.7452     0.0000   136.0000 </r>
       <r>    -0.7087     0.0000   136.0000 </r>
       <r>    -0.6721     0.0000   136.0000 </r>
       <r>    -0.6355     0.0000   137.0000 </r>
       <r>    -0.5990    27.3579   138.0000 </r>
       <r>    -0.5624     0.0000   138.0000 </r>
       <r>    -0.5259     0.0000   138.0000 </r>
       <r>    -0.4893     0.0000   139.0000 </r>
       <r>    -0.4528     0.0000   140.0000 </r>
       <r>    -0.4162     0.0000   140.0000 </r>
       <r>    -0.3797     0.0000   140.0000 </r>
       <r>    -0.3431     0.0000   140.0000 </r>
       <r>    -0.3066     0.0000   141.0000 </r>
       <r>    -0.2700     0.0000   141.0000 </r>
       <r>    -0.2335     0.0000   141.0000 </r>
       <r>    -0.1969     0.0000   141.0000 </r>
       <r>    -0.1604     0.0000   141.0000 </r>
       <r>    -0.1238     0.0000   142.0000 </r>
       <r>    -0.0873     0.0000   142.0000 </r>
       <r>    -0.0507     0.0000   143.0000 </r>
       <r>    -0.0142     0.0000   144.0000 </r>
       <r>     0.0224     0.0000   145.0000 </r>
       <r>     0.0590     0.0000   145.0000 </r>
       <r>     0.0955     0.0000   145.0000 </r>
       <r>     0.1321     0.0000   145.0000 </r>
       <r>     0.1686     0.0000   145.0000 </r>
       <r>     0.2052     0.0000   145.0000 </r>
       <r>     0.2417     0.0000   145.0000 </r>
       <r>     0.2783     0.0000   145.0000 </r>
       <r>     0.3148     0.0000   146.0000 </r>
       <r>     0.3514     0.0000   146.0000 </r>
       <r>     0.3879     0.0000   147.0000 </r>
       <r>     0.4245     0.0000   147.0000 </r>
       <r>     0.4610     0.0000   147.0000 </r>
       <r>     0.4976     0.0000   147.0000 </r>
       <r>     0.5341     0.0000   148.0000 </r>
       <r>     0.5707     0.0000   148.0000 </r>
       <r>     0.6072     0.0000   149.0000 </r>
       <r>     0.6438     0.0000   150.0000 </r>
       <r>     0.6803     0.0000   152.0000 </r>
       <r>     0.7169     0.0000   153.0000 </r>
       <r>     0.7534     0.0000   154.0000 </r>
       <r>     0.7900     0.0000   155.0000 </r>
       <r>     0.8266     0.0000   156.0000 </r>
       <r>     0.8631     0.0000   156.0000 </r>
       <r>     0.8997     0.0000   156.0000 </r>
       <r>     0.9362     0.0000   156.0000 </r>
       <r>     0.9728     0.0000   156.0000 </r>
       <r>     1.0093     0.0000   156.0000 </r>
       <r>     1.0459     0.0000   156.0000 </r>
       <r>     1.0824     0.0000   156.0000 </r>
       <r>     1.1190     0.0000   156.0000 </r>
       <r>     1.1555     0.0000   156.0000 </r>
       <r>     1.1921     0.0000   156.0000 </r>
       <r>     1.2286     0.0000   156.0000 </r>
       <r>     1.2652     0.0000   156.0000 </r>
       <r>     1.3017     0.0000   156.0000 </r>
      </set>
      <set comment="spin 2">
       <r>    -9.6640     0.0000     0.0000 </r>
       <r>    -9.6275     0.0000     0.0000 </r>
       <r>    -9.5909     0.0000     0.0000 </r>
       <r>    -9.5544     0.0000     0.0000 </r>
       <r>    -9.5178     0.0000     0.0000 </r>
       <r>    -9.4813     0.0000     0.0000 </r>
       <r>    -9.4447     0.0000     0.0000 </r>
       <r>    -9.4082     0.0000     0.0000 </r>
       <r>    -9.3716     0.0000     0.0000 </r>
       <r>    -9.3351     0.0000     0.0000 </r>
       <r>    -9.2985     0.0000     0.0000 </r>
       <r>    -9.2620     0.0000     0.0000 </r>
       <r>    -9.2254     0.0000     0.0000 </r>
       <r>    -9.1889     0.0000     0.0000 </r>
       <r>    -9.1523     0.0000     1.0000 </r>
       <r>    -9.1157     0.0000     1.0000 </r>
       <r>    -9.0792     0.0000     1.0000 </r>
       <r>    -9.0426     0.0000     1.0000 </r>
       <r>    -9.0061     0.0000     2.0000 </r>
       <r>    -8.9695     0.0000     3.0000 </r>
       <r>    -8.9330     0.0000     4.0000 </r>
       <r>    -8.8964     0.0000     5.0000 </r>
       <r>    -8.8599     0.0000     6.0000 </r>
       <r>    -8.8233     0.0000     6.0000 </r>
       <r>    -8.7868     0.0000     8.0000 </r>
       <r>    -8.7502     0.0000     9.0000 </r>
       <r>    -8.7137     0.0000    10.0000 </r>
       <r>    -8.6771     0.0000    11.0000 </r>
       <r>    -8.6406     0.0000    13.0000 </r>
       <r>    -8.6040     0.0000    14.0000 </r>
       <r>    -8.5675     0.0000    15.0000 </r>
       <r>    -8.5309     0.0000    16.0000 </r>
       <r>    -8.4944     0.0000    17.0000 </r>
       <r>    -8.4578     0.0000    18.0000 </r>
       <r>    -8.4212     0.0000    19.0000 </r>
       <r>    -8.3847     0.0000    21.0000 </r>
       <r>    -8.3481     0.0000    22.0000 </r>
       <r>    -8.3116     0.0000    23.0000 </r>
       <r>    -8.2750     0.0000    25.0000 </r>
       <r>    -8.2385     0.0000    26.0000 </r>
       <r>    -8.2019     0.0000    28.0000 </r>
       <r>    -8.1654     0.0000    29.0000 </r>
       <r>    -8.1288     0.0000    31.0000 </r>
       <r>    -8.0923     0.0000    32.0000 </r>
       <r>    -8.0557     0.0000    32.0000 </r>
       <r>    -8.0192     0.0000    34.0000 </r>
       <r>    -7.9826     0.0000    35.0000 </r>
       <r>    -7.9461     0.0000    36.0000 </r>
       <r>    -7.9095     0.0000    37.0000 </r>
       <r>    -7.8730     0.0000    39.0000 </r>
       <r>    -7.8364     0.0000    41.0000 </r>
       <r>    -7.7999     0.0000    42.0000 </r>
       <r>    -7.7633     3.4422    42.1258 </r>
       <r>    -7.7267     0.0000    44.0000 </r>
       <r>    -7.6902     0.0000    46.0000 </r>
       <r>    -7.6536     0.0000    47.0000 </r>
       <r>    -7.6171     0.0000    48.0000 </r>
       <r>    -7.5805     0.0000    49.0000 </r>
       <r>    -7.5440     0.0000    50.0000 </r>
       <r>    -7.5074     0.0000    51.0000 </r>
       <r>    -7.4709     0.0000    52.0000 </r>
       <r>    -7.4343     0.0000    53.0000 </r>
       <r>    -7.3978     2.9583    53.1081 </r>
       <r>    -7.3612     0.0000    54.0000 </r>
       <r>    -7.3247     0.0000    57.0000 </r>
       <r>    -7.2881     0.0000    57.0000 </r>
       <r>    -7.2516     0.0000    59.0000 </r>
       <r>    -7.2150     0.0000    61.0000 </r>
       <r>    -7.1785    25.0556    63.9158 </r>
       <r>    -7.1419     0.0000    65.0000 </r>
       <r>    -7.1054     0.0000    67.0000 </r>
       <r>    -7.0688     0.0000    69.0000 </r>
       <r>    -7.0322     0.0000    71.0000 </r>
       <r>    -6.9957     0.0000    73.0000 </r>
       <r>    -6.9591     0.0000    76.0000 </r>
       <r>    -6.9226     0.0000    78.0000 </r>
       <r>    -6.8860     0.0000    79.0000 </r>
       <r>    -6.8495     0.0000    82.0000 </r>
       <r>    -6.8129     0.0000    84.0000 </r>
       <r>    -6.7764     0.0000    86.0000 </r>
       <r>    -6.7398     0.0000    89.0000 </r>
       <r>    -6.7033     0.0000    91.0000 </r>
       <r>    -6.6667     0.0000    94.0000 </r>
       <r>    -6.6302     0.0000    95.0000 </r>
       <r>    -6.5936     0.0000    97.0000 </r>
       <r>    -6.5571     0.0000    98.0000 </r>
       <r>    -6.5205     0.0000   100.0000 </r>
       <r>    -6.4840     0.0000   102.0000 </r>
       <r>    -6.4474     0.0000   103.0000 </r>
       <r>    -6.4109     0.0000   105.0000 </r>
       <r>    -6.3743     0.0000   107.0000 </r>
       <r>    -6.3377     0.0000   108.0000 </r>
       <r>    -6.3012     0.0000   110.0000 </r>
       <r>    -6.2646     0.0000   110.0000 </r>
       <r>    -6.2281     0.0000   111.0000 </r>
       <r>    -6.1915     0.0000   113.0000 </r>
       <r>    -6.1550     0.0000   113.0000 </r>
       <r>    -6.1184     0.0000   114.0000 </r>
       <r>    -6.0819     0.0000   114.0000 </r>
       <r>    -6.0453     0.0000   114.0000 </r>
       <r>    -6.0088     0.0000   114.0000 </r>
       <r>    -5.9722     0.0000   114.0000 </r>
       <r>    -5.9357     0.0000   114.0000 </r>
       <r>    -5.8991     0.0000   114.0000 </r>
       <r>    -5.8626     0.0000   114.0000 </r>
       <r>    -5.8260     0.0000   114.0000 </r>
       <r>    -5.7895     0.0000   114.0000 </r>
       <r>    -5.7529     0.0000   114.0000 </r>
       <r>    -5.7164     0.0000   114.0000 </r>
       <r>    -5.6798     0.0000   114.0000 </r>
       <r>    -5.6433     0.0000   114.0000 </r>
       <r>    -5.6067     0.0000   114.0000 </r>
       <r>    -5.5701     0.0000   114.0000 </r>
       <r>    -5.5336     0.0000   115.0000 </r>
       <r>    -5.4970     0.0000   115.0000 </r>
       <r>    -5.4605     0.0000   115.0000 </r>
       <r>    -5.4239     0.0000   115.0000 </r>
       <r>    -5.3874     0.0000   115.0000 </r>
       <r>    -5.3508     0.0000   115.0000 </r>
       <r>    -5.3143     0.0000   115.0000 </r>
       <r>    -5.2777     0.0000   115.0000 </r>
       <r>    -5.2412     0.0000   115.0000 </r>
       <r>    -5.2046     0.0000   116.0000 </r>
       <r>    -5.1681     0.0000   116.0000 </r>
       <r>    -5.1315     0.0000   116.0000 </r>
       <r>    -5.0950     0.0000   116.0000 </r>
       <r>    -5.0584     0.0000   116.0000 </r>
       <r>    -5.0219     0.0000   116.0000 </r>
       <r>    -4.9853     0.0000   116.0000 </r>
       <r>    -4.9488     0.0000   116.0000 </r>
       <r>    -4.9122     0.0000   116.0000 </r>
       <r>    -4.8756     0.0000   117.0000 </r>
       <r>    -4.8391     0.0000   117.0000 </r>
       <r>    -4.8025     0.0000   117.0000 </r>
       <r>    -4.7660     0.0000   117.0000 </r>
       <r>    -4.7294     0.0000   117.0000 </r>
       <r>    -4.6929     0.0000   117.0000 </r>
       <r>    -4.6563     0.0000   117.0000 </r>
       <r>    -4.6198     0.0000   117.0000 </r>
       <r>    -4.5832     0.0000   117.0000 </r>
       <r>    -4.5467     0.0000   117.0000 </r>
       <r>    -4.5101     0.0000   117.0000 </r>
       <r>    -4.4736     0.0000   117.0000 </r>
       <r>    -4.4370     0.0000   118.0000 </r>
       <r>    -4.4005     0.0000   118.0000 </r>
       <r>    -4.3639     0.0000   118.0000 </r>
       <r>    -4.3274     0.0000   118.0000 </r>
       <r>    -4.2908     0.0000   119.0000 </r>
       <r>    -4.2543     0.0000   119.0000 </r>
       <r>    -4.2177     0.0000   119.0000 </r>
       <r>    -4.1811     0.0000   119.0000 </r>
       <r>    -4.1446     0.0000   119.0000 </r>
       <r>    -4.1080     0.0000   119.0000 </r>
       <r>    -4.0715     0.0000   119.0000 </r>
       <r>    -4.0349     0.0000   119.0000 </r>
       <r>    -3.9984     0.0000   120.0000 </r>
       <r>    -3.9618     0.0000   120.0000 </r>
       <r>    -3.9253     0.0000   120.0000 </r>
       <r>    -3.8887     0.0000   120.0000 </r>
       <r>    -3.8522     0.0000   120.0000 </r>
       <r>    -3.8156     0.0000   121.0000 </r>
       <r>    -3.7791     0.0000   121.0000 </r>
       <r>    -3.7425     0.0000   121.0000 </r>
       <r>    -3.7060     0.0000   121.0000 </r>
       <r>    -3.6694     0.0000   121.0000 </r>
       <r>    -3.6329     0.0000   121.0000 </r>
       <r>    -3.5963     0.0000   121.0000 </r>
       <r>    -3.5598     0.0000   121.0000 </r>
       <r>    -3.5232     0.0000   121.0000 </r>
       <r>    -3.4866     0.0000   121.0000 </r>
       <r>    -3.4501     0.0000   121.0000 </r>
       <r>    -3.4135     0.0000   121.0000 </r>
       <r>    -3.3770     0.0000   121.0000 </r>
       <r>    -3.3404     0.0000   121.0000 </r>
       <r>    -3.3039     0.0000   121.0000 </r>
       <r>    -3.2673     0.0000   121.0000 </r>
       <r>    -3.2308     0.0000   122.0000 </r>
       <r>    -3.1942     0.0000   122.0000 </r>
       <r>    -3.1577     0.0000   122.0000 </r>
       <r>    -3.1211     0.0000   122.0000 </r>
       <r>    -3.0846     0.0000   122.0000 </r>
       <r>    -3.0480     0.0000   122.0000 </r>
       <r>    -3.0115     0.0000   122.0000 </r>
       <r>    -2.9749     0.0000   123.0000 </r>
       <r>    -2.9384     0.0000   123.0000 </r>
       <r>    -2.9018     0.0000   123.0000 </r>
       <r>    -2.8653     0.0000   123.0000 </r>
       <r>    -2.8287     0.0000   123.0000 </r>
       <r>    -2.7921     0.0000   123.0000 </r>
       <r>    -2.7556     0.0000   123.0000 </r>
       <r>    -2.7190     0.0000   123.0000 </r>
       <r>    -2.6825     0.0000   123.0000 </r>
       <r>    -2.6459     0.0000   123.0000 </r>
       <r>    -2.6094     0.0000   123.0000 </r>
       <r>    -2.5728     0.0000   124.0000 </r>
       <r>    -2.5363     0.0000   125.0000 </r>
       <r>    -2.4997     0.0000   126.0000 </r>
       <r>    -2.4632     0.0000   126.0000 </r>
       <r>    -2.4266     0.0000   126.0000 </r>
       <r>    -2.3901     0.0000   126.0000 </r>
       <r>    -2.3535     0.0000   126.0000 </r>
       <r>    -2.3170     0.0000   127.0000 </r>
       <r>    -2.2804     0.0000   127.0000 </r>
       <r>    -2.2439     0.0000   127.0000 </r>
       <r>    -2.2073     0.0000   127.0000 </r>
       <r>    -2.1708     0.0000   127.0000 </r>
       <r>    -2.1342     0.0000   127.0000 </r>
       <r>    -2.0977     0.0000   128.0000 </r>
       <r>    -2.0611     0.0000   128.0000 </r>
       <r>    -2.0245     0.0000   129.0000 </r>
       <r>    -1.9880     0.0000   129.0000 </r>
       <r>    -1.9514     0.0000   129.0000 </r>
       <r>    -1.9149     0.0000   129.0000 </r>
       <r>    -1.8783     0.0000   129.0000 </r>
       <r>    -1.8418     0.0000   130.0000 </r>
       <r>    -1.8052     0.0000   130.0000 </r>
       <r>    -1.7687     0.0000   130.0000 </r>
       <r>    -1.7321     0.0000   131.0000 </r>
       <r>    -1.6956     0.0000   131.0000 </r>
       <r>    -1.6590     0.0000   131.0000 </r>
       <r>    -1.6225     0.0000   131.0000 </r>
       <r>    -1.5859     0.0000   131.0000 </r>
       <r>    -1.5494     0.0000   131.0000 </r>
       <r>    -1.5128     0.0000   131.0000 </r>
       <r>    -1.4763     0.0000   132.0000 </r>
       <r>    -1.4397     0.0000   132.0000 </r>
       <r>    -1.4032     0.0000   132.0000 </r>
       <r>    -1.3666     0.0000   132.0000 </r>
       <r>    -1.3300     0.0000   132.0000 </r>
       <r>    -1.2935     0.0000   132.0000 </r>
       <r>    -1.2569     0.0000   132.0000 </r>
       <r>    -1.2204     0.0000   132.0000 </r>
       <r>    -1.1838     0.0000   132.0000 </r>
       <r>    -1.1473     0.0000   133.0000 </r>
       <r>    -1.1107     0.0000   133.0000 </r>
       <r>    -1.0742     0.0000   133.0000 </r>
       <r>    -1.0376     0.0000   133.0000 </r>
       <r>    -1.0011     0.0000   134.0000 </r>
       <r>    -0.9645     0.0000   134.0000 </r>
       <r>    -0.9280     0.0000   135.0000 </r>
       <r>    -0.8914     0.0000   135.0000 </r>
       <r>    -0.8549     0.0000   135.0000 </r>
       <r>    -0.8183     0.0000   135.0000 </r>
       <r>    -0.7818     0.0000   135.0000 </r>
       <r>    -0.7452     0.0000   136.0000 </r>
       <r>    -0.7087     0.0000   136.0000 </r>
       <r>    -0.6721     0.0000   136.0000 </r>
       <r>    -0.6355     0.0000   137.0000 </r>
       <r>    -0.5990    27.3579   138.0000 </r>
       <r>    -0.5624     0.0000   138.0000 </r>
       <r>    -0.5259     0.0000   138.0000 </r>
       <r>    -0.4893     0.0000   139.0000 </r>
       <r>    -0.4528     0.0000   140.0000 </r>
       <r>    -0.4162     0.0000   140.0000 </r>
       <r>    -0.3797     0.0000   140.0000 </r>
       <r>    -0.3431     0.0000   140.0000 </r>
       <r>    -0.3066     0.0000   141.0000 </r>
       <r>    -0.2700     0.0000   141.0000 </r>
       <r>    -0.2335     0.0000   141.0000 </r>
       <r>    -0.1969     0.0000   141.0000 </r>
       <r>    -0.1604     0.0000   141.0000 </r>
       <r>    -0.1238     0.0000   142.0000 </r>
       <r>    -0.0873     0.0000   142.0000 </r>
       <r>    -0.0507     0.0000   143.0000 </r>
       <r>    -0.0142     0.0000   144.0000 </r>
       <r>     0.0224     0.0000   145.0000 </r>
       <r>     0.0590     0.0000   145.0000 </r>
       <r>     0.0955     0.0000   145.0000 </r>
       <r>     0.1321     0.0000   145.0000 </r>
       <r>     0.1686     0.0000   145.0000 </r>
       <r>     0.2052     0.0000   145.0000 </r>
       <r>     0.2417     0.0000   145.0000 </r>
       <r>     0.2783     0.0000   145.0000 </r>
       <r>     0.3148     0.0000   146.0000 </r>
       <r>     0.3514     0.0000   146.0000 </r>
       <r>     0.3879     0.0000   147.0000 </r>
       <r>     0.4245     0.0000   147.0000 </r>
       <r>     0.4610     0.0000   147.0000 </r>
       <r>     0.4976     0.0000   147.0000 </r>
       <r>     0.5341     0.0000   148.0000 </r>
       <r>     0.5707     0.0000   148.0000 </r>
       <r>     0.6072     0.0000   149.0000 </r>
       <r>     0.6438     0.0000   150.0000 </r>
       <r>     0.6803     0.0000   152.0000 </r>
       <r>     0.7169     0.0000   153.0000 </r>
       <r>     0.7534     0.0000   154.0000 </r>
       <r>     0.7900     0.0000   155.0000 </r>
       <r>     0.8266     0.0000   156.0000 </r>
       <r>     0.8631     0.0000   156.0000 </r>
       <r>     0.8997     0.0000   156.0000 </r>
       <r>     0.9362     0.0000   156.0000 </r>
       <r>     0.9728     0.0000   156.0000 </r>
       <r>     1.0093     0.0000   156.0000 </r>
       <r>     1.0459     0.0000   156.0000 </r>
       <r>     1.0824     0.0000   156.0000 </r>
       <r>     1.1190     0.0000   156.0000 </r>
       <r>     1.1555     0.0000   156.0000 </r>
       <r>     1.1921     0.0000   156.0000 </r>
       <r>     1.2286     0.0000   156.0000 </r>
       <r>     1.2652     0.0000   156.0000 </r>
       <r>     1.3017     0.0000   156.0000 </r>
      </set>
     </set>
    </array>
   </total>
  </dos>
 </calculation>
 <structure name="finalpos" >
  <crystal>
   <varray name="basis" >
    <v>      21.24083993       0.00000000       0.00000000 </v>
    <v>       0.00000000      21.24083993       0.00000000 </v>
    <v>       0.00000000       0.00000000      21.24083993 </v>
   </varray>
   <i name="volume">   9583.29943510 </i>
   <varray name="rec_basis" >
    <v>       0.04707912       0.00000000       0.00000000 </v>
    <v>       0.00000000       0.04707912       0.00000000 </v>
    <v>       0.00000000       0.00000000       0.04707912 </v>
   </varray>
  </crystal>
  <varray name="positions" >
   <v>       0.74524569       0.50996344       0.49991397 </v>
   <v>       0.54596088       0.41232753       0.62981947 </v>
   <v>       0.64815554       0.59536567       0.48354537 </v>
   <v>       0.63255103       0.48877682       0.56439472 </v>
   <v>       0.64223734       0.47138507       0.43230341 </v>
   <v>       0.54682347       0.55802434       0.40716408 </v>
   <v>       0.58321577       0.52255765       0.68594051 </v>
   <v>       0.49480172       0.62144169       0.69364272 </v>
   <v>       0.57490111       0.60717086       0.58876644 </v>
   <v>       0.53435661       0.66633327       0.47812066 </v>
   <v>       0.44261746       0.54272073       0.33376598 </v>
   <v>       0.50974764       0.44118620       0.75196927 </v>
   <v>       0.52896870       0.43256758       0.37394235 </v>
   <v>       0.44717916       0.62860996       0.57329652 </v>
   <v>       0.42759067       0.47223275       0.44414015 </v>
   <v>       0.54828613       0.40862353       0.50121580 </v>
   <v>       0.48636012       0.66389261       0.35276410 </v>
   <v>       0.45474244       0.50717105       0.64647895 </v>
   <v>       0.41901043       0.60582790       0.44959268 </v>
   <v>       0.43000415       0.40864527       0.56049840 </v>
   <v>       0.45069452       0.34477333       0.44379159 </v>
   <v>       0.37261182       0.52715440       0.54654469 </v>
  </varray>
 </structure>
</modeling>
