 running on   32 total cores
 distrk:  each k-point on   32 cores,    1 groups
 distr:  one band on    8 cores,    4 groups
 using from now: INCAR     
 vasp.5.3.5 31Mar14 (build Feb 01 2018 12:10:03) gamma-only                     
  
 POSCAR found type information on POSCAR  Ag
 POSCAR found :  1 types and       6 ions
 scaLAPACK will be used
 LDA part: xc-table for Pade appr. of Perdew
 POSCAR, INCAR and KPOINTS ok, starting setup
 WARNING: small aliasing (wrap around) errors must be expected
 FFT: planning ...
 WAVECAR not read
 entering main loop
       N       E                     dE             d eps       ncg     rms          rms(c)
DAV:   1     0.565820165536E+03    0.56582E+03   -0.88437E+03   176   0.501E+02
DAV:   2     0.263318282257E+03   -0.30250E+03   -0.27469E+03   352   0.750E+01
DAV:   3     0.279166029347E+02   -0.23540E+03   -0.22038E+03   288   0.808E+01
DAV:   4    -0.870608812799E+01   -0.36623E+02   -0.32754E+02   200   0.397E+01
DAV:   5    -0.946429402061E+01   -0.75821E+00   -0.75540E+00   208   0.721E+00    0.124E+01
DAV:   6     0.119487355015E+01    0.10659E+02   -0.25698E+01   180   0.134E+01    0.546E+00
DAV:   7     0.247794296695E+01    0.12831E+01   -0.23468E+00   204   0.364E+00    0.321E+00
DAV:   8    -0.112506062597E+01   -0.36030E+01   -0.16490E+00   192   0.327E+00    0.170E+00
DAV:   9    -0.416452446519E+01   -0.30395E+01   -0.12889E+00   188   0.260E+00    0.100E+00
DAV:  10    -0.674933888315E+01   -0.25848E+01   -0.10861E+00   176   0.251E+00    0.662E-01
DAV:  11    -0.785697651490E+01   -0.11076E+01   -0.31840E-01   196   0.105E+00    0.449E-01
DAV:  12    -0.892678851557E+01   -0.10698E+01   -0.32459E-01   184   0.112E+00    0.221E-01
DAV:  13    -0.929258491872E+01   -0.36580E+00   -0.55909E-02   184   0.475E-01    0.126E-01
DAV:  14    -0.946558806273E+01   -0.17300E+00   -0.12214E-02   184   0.197E-01    0.695E-02
DAV:  15    -0.955057466068E+01   -0.84987E-01   -0.39154E-03   164   0.110E-01    0.356E-02
DAV:  16    -0.957608023915E+01   -0.25506E-01   -0.15182E-03   152   0.677E-02    0.168E-02
DAV:  17    -0.958000753206E+01   -0.39273E-02   -0.61642E-04   140   0.407E-02    0.108E-02
DAV:  18    -0.958243341734E+01   -0.24259E-02   -0.40654E-04   140   0.331E-02    0.661E-03
DAV:  19    -0.958339337542E+01   -0.95996E-03   -0.13079E-04   128   0.194E-02    0.425E-03
DAV:  20    -0.958373974321E+01   -0.34637E-03   -0.32553E-05   132   0.116E-02    0.252E-03
DAV:  21    -0.958377233985E+01   -0.32597E-04   -0.11897E-05   124   0.732E-03
   1 F= -.95837723E+01 E0= -.95837723E+01  d E =-.958377E+01  mag=     0.0005
 curvature:   0.00 expect dE= 0.000E+00 dE for cont linesearch  0.000E+00
 trial: gam= 0.00000 g(F)=  0.558E-02 g(S)=  0.000E+00 ort = 0.000E+00 (trialstep = 0.100E+01)
 search vector abs. value=  0.558E-02
 bond charge predicted
       N       E                     dE             d eps       ncg     rms          rms(c)
DAV:   1    -0.958899889322E+01   -0.52592E-02   -0.37983E-01   176   0.243E+00    0.559E-02
DAV:   2    -0.958923085369E+01   -0.23196E-03   -0.19110E-03   180   0.231E-01    0.355E-02
DAV:   3    -0.958926639495E+01   -0.35541E-04   -0.31750E-05   108   0.265E-02
   2 F= -.95892664E+01 E0= -.95892664E+01  d E =-.549406E-02  mag=     0.0002
 ZBRENT: can't locate minimum, use default step
 trial-energy change:   -0.005494  1 .order   -0.005304   -0.005576   -0.005031
 step:   4.0000(harm= 10.2310)  dis= 0.00999  next Energy=    -9.612298 (dE=-0.285E-01)
 bond charge predicted
       N       E                     dE             d eps       ncg     rms          rms(c)
DAV:   1    -0.960123179033E+01   -0.12001E-01   -0.34241E+00   180   0.729E+00    0.176E-01
DAV:   2    -0.960285427928E+01   -0.16225E-02   -0.17291E-02   188   0.693E-01    0.109E-01
DAV:   3    -0.960284900338E+01    0.52759E-05   -0.31547E-04   160   0.797E-02
   3 F= -.96028490E+01 E0= -.96028490E+01  d E =-.190767E-01  mag=     0.0001
 curvature:  -2.78 expect dE=-0.695E-02 dE for cont linesearch -0.694E-02
 ZBRENT: increasing intervall
 opt :  10.0000  next Energy=    -9.617400 (dE=-0.336E-01)
 bond charge predicted
       N       E                     dE             d eps       ncg     rms          rms(c)
DAV:   1    -0.961102137888E+01   -0.81671E-02   -0.13701E+01   176   0.146E+01    0.385E-01
DAV:   2    -0.961759201223E+01   -0.65706E-02   -0.70141E-02   192   0.139E+00    0.226E-01
DAV:   3    -0.961754855757E+01    0.43455E-04   -0.13510E-03   176   0.162E-01    0.115E-01
DAV:   4    -0.961755845770E+01   -0.99001E-05   -0.18668E-04   164   0.576E-02
   4 F= -.96175585E+01 E0= -.96175585E+01  d E =-.337861E-01  mag=     0.0000
 curvature:  -5.84 expect dE=-0.118E-02 dE for cont linesearch -0.112E-02
 ZBRENT: extrapolating
 opt :  12.3106  next Energy=    -9.618756 (dE=-0.350E-01)
 bond charge predicted
       N       E                     dE             d eps       ncg     rms          rms(c)
DAV:   1    -0.961762094315E+01   -0.72386E-04   -0.20225E+00   176   0.560E+00    0.150E-01
DAV:   2    -0.961858607183E+01   -0.96513E-03   -0.10279E-02   192   0.533E-01    0.956E-02
DAV:   3    -0.961858307682E+01    0.29950E-05   -0.20063E-04   160   0.627E-02
   5 F= -.96185831E+01 E0= -.96185831E+01  d E =-.348107E-01  mag=     0.0000
 curvature:  -6.22 expect dE=-0.168E-03 dE for cont linesearch -0.616E-04
 trial: gam= 0.00000 g(F)=  0.270E-04 g(S)=  0.000E+00 ort =-0.235E-03 (trialstep = 0.326E+01)
 search vector abs. value=  0.270E-04
 reached required accuracy - stopping structural energy minimisation
Application 91031896 resources: utime ~605s, stime ~34s, Rss ~50808, inblocks ~81064, outblocks ~149735
