    7    7 1000    2
  0.7869050E+03  0.1766065E-08  0.1766065E-08  0.1766065E-08  0.1000000E-15
  1.000000000000000E-004
  CAR 
 unknown system                          
     77      1     52
 
  0.0000000E+00  0.0000000E+00  0.0000000E+00  0.1000000E+01
    1       -9.149537     -9.115741
    2       -8.927257     -8.896540
    3       -8.679127     -8.653918
    4       -8.578170     -8.528914
    5       -8.460164     -8.416120
    6       -8.359103     -8.323245
    7       -8.316314     -8.276975
    8       -8.235652     -8.197288
    9       -8.189101     -8.150438
   10       -8.100401     -8.062405
   11       -8.051284     -8.011840
   12       -7.938181     -7.900056
   13       -7.850665     -7.813792
   14       -7.704079     -7.670181
   15       -7.600078     -7.571109
   16       -7.514533     -7.478221
   17       -7.353864     -7.327471
   18       -7.343146     -7.293018
   19       -7.294406     -7.256016
   20       -7.269159     -7.245953
   21       -7.190874     -7.158674
   22       -7.167481     -7.136389
   23       -7.096562     -7.067282
   24       -7.034398     -7.003386
   25       -7.023667     -6.988774
   26       -7.001418     -6.958040
   27       -6.985945     -6.953695
   28       -6.911241     -6.880850
   29       -6.882198     -6.852769
   30       -6.823396     -6.772310
   31       -6.780727     -6.740498
   32       -6.756397     -6.708826
   33       -6.680469     -6.654573
   34       -6.641901     -6.606917
   35       -6.580469     -6.548860
   36       -6.497951     -6.471217
   37       -5.236008     -5.174329
   38       -4.610816     -4.524929
   39       -3.902679     -3.593842
   40       -2.822787     -2.724960
   41       -2.592729     -2.518471
   42       -2.320514     -2.204244
   43       -1.425469     -1.280900
   44       -1.310131     -1.142249
   45       -1.033298     -0.847561
   46       -0.816150     -0.634326
   47       -0.515133     -0.424672
   48       -0.259741     -0.160720
   49        0.121391      0.219058
   50        0.184449      0.229190
   51        0.227321      0.332099
   52        0.458228      0.556574
