   50   50 1000    2
  0.2676607E+03  0.2374205E-08  0.2374205E-08  0.2374205E-08  0.1000000E-15
  1.000000000000000E-004
  CAR 
 unknown system                          
    550      1    356
 
  0.0000000E+00  0.0000000E+00  0.0000000E+00  0.1000000E+01
    1       -9.812613     -9.812613
    2       -9.328738     -9.328738
    3       -9.231811     -9.231811
    4       -9.186543     -9.186543
    5       -9.135631     -9.135631
    6       -9.093073     -9.093073
    7       -9.033328     -9.033328
    8       -9.013595     -9.013595
    9       -8.994824     -8.994824
   10       -8.954924     -8.954924
   11       -8.951991     -8.951991
   12       -8.933525     -8.933525
   13       -8.907367     -8.907367
   14       -8.865287     -8.865287
   15       -8.859452     -8.859452
   16       -8.829133     -8.829133
   17       -8.812981     -8.812981
   18       -8.781177     -8.781177
   19       -8.766494     -8.766494
   20       -8.762191     -8.762191
   21       -8.745348     -8.745348
   22       -8.733924     -8.733924
   23       -8.721537     -8.721537
   24       -8.694264     -8.694264
   25       -8.662526     -8.662526
   26       -8.644872     -8.644872
   27       -8.633296     -8.633296
   28       -8.626568     -8.626568
   29       -8.612274     -8.612274
   30       -8.607018     -8.607018
   31       -8.582212     -8.582212
   32       -8.557883     -8.557883
   33       -8.545696     -8.545696
   34       -8.543432     -8.543432
   35       -8.524484     -8.524484
   36       -8.518648     -8.518648
   37       -8.501771     -8.501771
   38       -8.481410     -8.481410
   39       -8.456972     -8.456972
   40       -8.445699     -8.445699
   41       -8.438652     -8.438652
   42       -8.425840     -8.425840
   43       -8.411690     -8.411690
   44       -8.405947     -8.405947
   45       -8.388499     -8.388499
   46       -8.378812     -8.378812
   47       -8.364470     -8.364470
   48       -8.350511     -8.350511
   49       -8.338165     -8.338165
   50       -8.332290     -8.332290
   51       -8.308502     -8.308502
   52       -8.298050     -8.298050
   53       -8.278208     -8.278208
   54       -8.271024     -8.271024
   55       -8.255822     -8.255822
   56       -8.244870     -8.244870
   57       -8.225954     -8.225954
   58       -8.212670     -8.212670
   59       -8.201543     -8.201543
   60       -8.192313     -8.192313
   61       -8.183836     -8.183836
   62       -8.178261     -8.178261
   63       -8.161568     -8.161568
   64       -8.150409     -8.150409
   65       -8.123032     -8.123032
   66       -8.116881     -8.116881
   67       -8.111780     -8.111780
   68       -8.098251     -8.098251
   69       -8.088664     -8.088664
   70       -8.072733     -8.072733
   71       -8.061478     -8.061478
   72       -8.041087     -8.041087
   73       -8.035434     -8.035434
   74       -8.019708     -8.019708
   75       -8.012044     -8.012044
   76       -8.008361     -8.008361
   77       -7.993005     -7.993005
   78       -7.981470     -7.981470
   79       -7.970410     -7.970410
   80       -7.952158     -7.952158
   81       -7.936615     -7.936615
   82       -7.935028     -7.935028
   83       -7.918087     -7.918087
   84       -7.893820     -7.893820
   85       -7.872159     -7.872158
   86       -7.864184     -7.864184
   87       -7.849729     -7.849729
   88       -7.834440     -7.834440
   89       -7.829650     -7.829650
   90       -7.814922     -7.814922
   91       -7.806813     -7.806813
   92       -7.782948     -7.782948
   93       -7.764366     -7.764366
   94       -7.749815     -7.749815
   95       -7.741861     -7.741861
   96       -7.733975     -7.733975
   97       -7.715259     -7.715259
   98       -7.701821     -7.701821
   99       -7.699547     -7.699547
  100       -7.691559     -7.691559
  101       -7.679202     -7.679202
  102       -7.671417     -7.671417
  103       -7.668878     -7.668878
  104       -7.649719     -7.649719
  105       -7.634039     -7.634039
  106       -7.616171     -7.616171
  107       -7.593269     -7.593269
  108       -7.586300     -7.586300
  109       -7.573237     -7.573237
  110       -7.564246     -7.564246
  111       -7.548312     -7.548312
  112       -7.530419     -7.530419
  113       -7.522939     -7.522939
  114       -7.512762     -7.512762
  115       -7.505662     -7.505662
  116       -7.488983     -7.488983
  117       -7.469362     -7.469362
  118       -7.457459     -7.457459
  119       -7.447395     -7.447395
  120       -7.441282     -7.441282
  121       -7.425506     -7.425506
  122       -7.414229     -7.414229
  123       -7.408048     -7.408048
  124       -7.391703     -7.391703
  125       -7.386053     -7.386053
  126       -7.367741     -7.367741
  127       -7.357865     -7.357865
  128       -7.346142     -7.346142
  129       -7.323058     -7.323058
  130       -7.313105     -7.313105
  131       -7.303851     -7.303851
  132       -7.296776     -7.296776
  133       -7.287845     -7.287845
  134       -7.275033     -7.275033
  135       -7.267779     -7.267779
  136       -7.263797     -7.263797
  137       -7.239083     -7.239083
  138       -7.232977     -7.232977
  139       -7.216334     -7.216334
  140       -7.208383     -7.208383
  141       -7.191121     -7.191121
  142       -7.184540     -7.184540
  143       -7.161175     -7.161175
  144       -7.147411     -7.147411
  145       -7.140317     -7.140317
  146       -7.129233     -7.129233
  147       -7.119439     -7.119439
  148       -7.100481     -7.100481
  149       -7.098898     -7.098898
  150       -7.067310     -7.067310
  151       -7.050648     -7.050648
  152       -7.044177     -7.044177
  153       -7.031406     -7.031406
  154       -7.017737     -7.017737
  155       -7.008699     -7.008699
  156       -6.993822     -6.993822
  157       -6.987586     -6.987586
  158       -6.974868     -6.974868
  159       -6.954161     -6.954161
  160       -6.948779     -6.948779
  161       -6.932264     -6.932264
  162       -6.928264     -6.928264
  163       -6.925817     -6.925817
  164       -6.906569     -6.906569
  165       -6.896613     -6.896613
  166       -6.885286     -6.885286
  167       -6.872432     -6.872432
  168       -6.869402     -6.869402
  169       -6.864815     -6.864815
  170       -6.853435     -6.853435
  171       -6.842100     -6.842100
  172       -6.834896     -6.834896
  173       -6.831773     -6.831773
  174       -6.822005     -6.822005
  175       -6.815628     -6.815628
  176       -6.808855     -6.808855
  177       -6.802925     -6.802925
  178       -6.792775     -6.792775
  179       -6.782017     -6.782017
  180       -6.773032     -6.773032
  181       -6.765243     -6.765243
  182       -6.758014     -6.758014
  183       -6.748828     -6.748828
  184       -6.734937     -6.734937
  185       -6.727300     -6.727300
  186       -6.721494     -6.721494
  187       -6.709902     -6.709902
  188       -6.704243     -6.704243
  189       -6.701515     -6.701515
  190       -6.692789     -6.692789
  191       -6.686434     -6.686434
  192       -6.675339     -6.675339
  193       -6.666312     -6.666312
  194       -6.655844     -6.655844
  195       -6.650345     -6.650345
  196       -6.640252     -6.640252
  197       -6.628155     -6.628155
  198       -6.625913     -6.625913
  199       -6.618696     -6.618696
  200       -6.607702     -6.607702
  201       -6.603135     -6.603135
  202       -6.597978     -6.597978
  203       -6.585447     -6.585447
  204       -6.576915     -6.576915
  205       -6.571977     -6.571977
  206       -6.566658     -6.566658
  207       -6.557626     -6.557626
  208       -6.549294     -6.549294
  209       -6.546021     -6.546021
  210       -6.535598     -6.535598
  211       -6.529543     -6.529543
  212       -6.513336     -6.513336
  213       -6.508573     -6.508573
  214       -6.505609     -6.505609
  215       -6.499443     -6.499443
  216       -6.490198     -6.490198
  217       -6.479965     -6.479965
  218       -6.465472     -6.465472
  219       -6.460293     -6.460293
  220       -6.451668     -6.451668
  221       -6.438508     -6.438508
  222       -6.434196     -6.434196
  223       -6.423569     -6.423569
  224       -6.418170     -6.418170
  225       -6.402919     -6.402919
  226       -6.394998     -6.394998
  227       -6.387989     -6.387989
  228       -6.384560     -6.384560
  229       -6.372029     -6.372029
  230       -6.364066     -6.364066
  231       -6.354473     -6.354473
  232       -6.342037     -6.342037
  233       -6.335344     -6.335344
  234       -6.330648     -6.330648
  235       -6.316994     -6.316994
  236       -6.307656     -6.307656
  237       -6.300736     -6.300736
  238       -6.292509     -6.292509
  239       -6.274367     -6.274367
  240       -6.254916     -6.254916
  241       -6.246878     -6.246878
  242       -6.243866     -6.243866
  243       -6.236598     -6.236598
  244       -6.227990     -6.227990
  245       -6.216201     -6.216201
  246       -6.208402     -6.208402
  247       -6.198892     -6.198892
  248       -6.189061     -6.189061
  249       -6.161663     -6.161663
  250       -6.142786     -6.142786
  251       -6.126828     -6.126828
  252       -6.118328     -6.118328
  253       -6.099944     -6.099944
  254       -6.088005     -6.088005
  255       -6.065996     -6.065996
  256       -6.024126     -6.024126
  257       -6.014176     -6.014176
  258       -5.956041     -5.956041
  259       -5.915061     -5.915061
  260       -5.495237     -5.495237
  261       -5.249350     -5.249350
  262       -5.171920     -5.171920
  263       -5.102847     -5.102847
  264       -4.957142     -4.957142
  265       -4.836771     -4.836771
  266       -4.702560     -4.702560
  267       -4.533750     -4.533750
  268       -4.377295     -4.377295
  269       -4.112341     -4.112341
  270       -3.861530     -3.861530
  271       -3.786481     -3.786481
  272       -3.690875     -3.690875
  273       -3.635443     -3.635443
  274       -3.525524     -3.525524
  275       -3.335920     -3.335920
  276       -3.183709     -3.183709
  277       -3.147397     -3.147397
  278       -2.958859     -2.958859
  279       -2.878338     -2.878338
  280       -2.831899     -2.831899
  281       -2.687587     -2.687587
  282       -2.508865     -2.508865
  283       -2.371438     -2.371438
  284       -2.270498     -2.270498
  285       -2.159381     -2.159381
  286       -2.083429     -2.083429
  287       -2.071830     -2.071830
  288       -1.986000     -1.986000
  289       -1.928425     -1.928425
  290       -1.808859     -1.808859
  291       -1.741718     -1.741718
  292       -1.652946     -1.652946
  293       -1.625590     -1.625590
  294       -1.519056     -1.519056
  295       -1.422015     -1.422015
  296       -1.309400     -1.309400
  297       -1.218839     -1.218839
  298       -1.163226     -1.163226
  299       -1.066515     -1.066515
  300       -1.028225     -1.028225
  301       -0.920040     -0.920040
  302       -0.857420     -0.857420
  303       -0.746932     -0.746932
  304       -0.698844     -0.698844
  305       -0.602669     -0.602669
  306       -0.530503     -0.530503
  307       -0.442590     -0.442590
  308       -0.295752     -0.295753
  309       -0.282269     -0.282270
  310       -0.263391     -0.263391
  311       -0.137659     -0.137660
  312       -0.067814     -0.067814
  313        0.016571      0.016571
  314        0.064035      0.064034
  315        0.143224      0.143224
  316        0.219528      0.219528
  317        0.379033      0.379031
  318        0.394130      0.394130
  319        0.448451      0.448451
  320        0.525240      0.525238
  321        0.572165      0.572166
  322        0.651474      0.651474
  323        0.711451      0.711448
  324        0.734463      0.734460
  325        0.822783      0.822782
  326        0.839755      0.839755
  327        0.843006      0.843003
  328        0.889257      0.889255
  329        0.929811      0.929809
  330        0.945675      0.945673
  331        0.967433      0.967432
  332        0.986703      0.986704
  333        1.013776      1.013774
  334        1.016942      1.016941
  335        1.055717      1.055715
  336        1.076211      1.076208
  337        1.084543      1.084537
  338        1.116734      1.116732
  339        1.140301      1.140301
  340        1.148782      1.148779
  341        1.187044      1.187042
  342        1.203091      1.203088
  343        1.239088      1.239085
  344        1.275873      1.275872
  345        1.283165      1.283163
  346        1.289921      1.289917
  347        1.331552      1.331550
  348        1.351124      1.351124
  349        1.366991      1.366990
  350        1.375281      1.375278
  351        1.382230      1.382228
  352        1.389373      1.389371
  353        1.414262      1.414253
  354        1.442148      1.442148
  355        1.463084      1.463081
  356        1.505637      1.505635
