   5   5   0   0
  0.1257437E+04  0.1845662E-08  0.1845662E-08  0.1845662E-08  0.1000000E-15
  1.000000000000000E-004
  CAR 
 unknown system                          
      0.56410617     -9.34688741  301     -4.08580165      1.00000000
     -9.347  0.0000E+00  0.0000E+00  0.0000E+00  0.0000E+00
     -9.314  0.0000E+00  0.0000E+00  0.0000E+00  0.0000E+00
     -9.281  0.0000E+00  0.0000E+00  0.0000E+00  0.0000E+00
     -9.248  0.0000E+00  0.0000E+00  0.0000E+00  0.0000E+00
     -9.215  0.0000E+00  0.0000E+00  0.0000E+00  0.0000E+00
     -9.182  0.0000E+00  0.0000E+00  0.0000E+00  0.0000E+00
     -9.149  0.0000E+00  0.0000E+00  0.0000E+00  0.0000E+00
     -9.116  0.0000E+00  0.0000E+00  0.0000E+00  0.0000E+00
     -9.083  0.0000E+00  0.0000E+00  0.0000E+00  0.0000E+00
     -9.050  0.0000E+00  0.0000E+00  0.0000E+00  0.0000E+00
     -9.017  0.0000E+00  0.0000E+00  0.0000E+00  0.0000E+00
     -8.983  0.0000E+00  0.0000E+00  0.0000E+00  0.0000E+00
     -8.950  0.0000E+00  0.0000E+00  0.0000E+00  0.0000E+00
     -8.917  0.0000E+00  0.0000E+00  0.0000E+00  0.0000E+00
     -8.884  0.0000E+00  0.0000E+00  0.1000E-02  0.0000E+00
     -8.851  0.0000E+00  0.0000E+00  0.1000E-02  0.1000E-02
     -8.818  0.0000E+00  0.0000E+00  0.1000E-02  0.1000E-02
     -8.785  0.0000E+00  0.0000E+00  0.1000E-02  0.1000E-02
     -8.752  0.0000E+00  0.0000E+00  0.1000E-02  0.1000E-02
     -8.719  0.0000E+00  0.0000E+00  0.1000E-02  0.1000E-02
     -8.686  0.0000E+00  0.0000E+00  0.2000E-02  0.1000E-02
     -8.653  0.0000E+00  0.0000E+00  0.2000E-02  0.2000E-02
     -8.620  0.0000E+00  0.0000E+00  0.2000E-02  0.2000E-02
     -8.587  0.0000E+00  0.0000E+00  0.3000E-02  0.2000E-02
     -8.554  0.0000E+00  0.0000E+00  0.3000E-02  0.2000E-02
     -8.521  0.0000E+00  0.0000E+00  0.3000E-02  0.3000E-02
     -8.488  0.0000E+00  0.0000E+00  0.3000E-02  0.3000E-02
     -8.455  0.0000E+00  0.0000E+00  0.3000E-02  0.3000E-02
     -8.422  0.0000E+00  0.0000E+00  0.3000E-02  0.3000E-02
     -8.389  0.0000E+00  0.0000E+00  0.3000E-02  0.3000E-02
     -8.356  0.0000E+00  0.0000E+00  0.3000E-02  0.3000E-02
     -8.323  0.0000E+00  0.0000E+00  0.3000E-02  0.3000E-02
     -8.290  0.0000E+00  0.0000E+00  0.4000E-02  0.3000E-02
     -8.257  0.0000E+00  0.0000E+00  0.4000E-02  0.3000E-02
     -8.224  0.0000E+00  0.0000E+00  0.4000E-02  0.4000E-02
     -8.191  0.0000E+00  0.0000E+00  0.4000E-02  0.4000E-02
     -8.158  0.0000E+00  0.0000E+00  0.4000E-02  0.4000E-02
     -8.125  0.0000E+00  0.0000E+00  0.5000E-02  0.4000E-02
     -8.091  0.0000E+00  0.0000E+00  0.5000E-02  0.5000E-02
     -8.058  0.0000E+00  0.0000E+00  0.5000E-02  0.5000E-02
     -8.025  0.0000E+00  0.0000E+00  0.7000E-02  0.5000E-02
     -7.992  0.0000E+00  0.0000E+00  0.7000E-02  0.6000E-02
     -7.959  0.0000E+00  0.0000E+00  0.7000E-02  0.7000E-02
     -7.926  0.0000E+00  0.0000E+00  0.7000E-02  0.7000E-02
     -7.893  0.0000E+00  0.0000E+00  0.8000E-02  0.7000E-02
     -7.860  0.0000E+00  0.0000E+00  0.8000E-02  0.8000E-02
     -7.827  0.0000E+00  0.0000E+00  0.9000E-02  0.8000E-02
     -7.794  0.0000E+00  0.0000E+00  0.9000E-02  0.9000E-02
     -7.761  0.0000E+00  0.0000E+00  0.9000E-02  0.9000E-02
     -7.728  0.0000E+00  0.0000E+00  0.9000E-02  0.9000E-02
     -7.695  0.0000E+00  0.0000E+00  0.9000E-02  0.9000E-02
     -7.662  0.0000E+00  0.0000E+00  0.9000E-02  0.9000E-02
     -7.629  0.0000E+00  0.0000E+00  0.9000E-02  0.9000E-02
     -7.596  0.0000E+00  0.0000E+00  0.9000E-02  0.9000E-02
     -7.563  0.0000E+00  0.0000E+00  0.9000E-02  0.9000E-02
     -7.530  0.0000E+00  0.0000E+00  0.1000E-01  0.9000E-02
     -7.497  0.0000E+00  0.0000E+00  0.1100E-01  0.1000E-01
     -7.464  0.0000E+00  0.0000E+00  0.1100E-01  0.1100E-01
     -7.431  0.0000E+00  0.0000E+00  0.1100E-01  0.1100E-01
     -7.398  0.0000E+00  0.0000E+00  0.1100E-01  0.1100E-01
     -7.365  0.0000E+00  0.0000E+00  0.1200E-01  0.1100E-01
     -7.332  0.0000E+00  0.0000E+00  0.1300E-01  0.1200E-01
     -7.299  0.0000E+00  0.0000E+00  0.1300E-01  0.1300E-01
     -7.266  0.6122E-06  0.0000E+00  0.1300E-01  0.1300E-01
     -7.233  0.0000E+00  0.0000E+00  0.1400E-01  0.1300E-01
     -7.200  0.0000E+00  0.0000E+00  0.1400E-01  0.1400E-01
     -7.166  0.0000E+00  0.0000E+00  0.1500E-01  0.1400E-01
     -7.133  0.0000E+00  0.0000E+00  0.1600E-01  0.1400E-01
     -7.100  0.0000E+00  0.0000E+00  0.1600E-01  0.1500E-01
     -7.067  0.0000E+00  0.0000E+00  0.1700E-01  0.1600E-01
     -7.034  0.0000E+00  0.0000E+00  0.1800E-01  0.1600E-01
     -7.001  0.0000E+00  0.0000E+00  0.1900E-01  0.1700E-01
     -6.968  0.0000E+00  0.0000E+00  0.2000E-01  0.1900E-01
     -6.935  0.0000E+00  0.0000E+00  0.2000E-01  0.2000E-01
     -6.902  0.0000E+00  0.0000E+00  0.2000E-01  0.2000E-01
     -6.869  0.0000E+00  0.0000E+00  0.2100E-01  0.2000E-01
     -6.836  0.0000E+00  0.0000E+00  0.2200E-01  0.2100E-01
     -6.803  0.0000E+00  0.0000E+00  0.2300E-01  0.2200E-01
     -6.770  0.0000E+00  0.0000E+00  0.2300E-01  0.2200E-01
     -6.737  0.0000E+00  0.0000E+00  0.2300E-01  0.2300E-01
     -6.704  0.0000E+00  0.0000E+00  0.2300E-01  0.2300E-01
     -6.671  0.0000E+00  0.0000E+00  0.2300E-01  0.2300E-01
     -6.638  0.0000E+00  0.0000E+00  0.2300E-01  0.2300E-01
     -6.605  0.0000E+00  0.0000E+00  0.2300E-01  0.2300E-01
     -6.572  0.0000E+00  0.0000E+00  0.2500E-01  0.2300E-01
     -6.539  0.0000E+00  0.0000E+00  0.2500E-01  0.2400E-01
     -6.506  0.0000E+00  0.0000E+00  0.2500E-01  0.2500E-01
     -6.473  0.0000E+00  0.0000E+00  0.2500E-01  0.2500E-01
     -6.440  0.0000E+00  0.0000E+00  0.2600E-01  0.2500E-01
     -6.407  0.0000E+00  0.0000E+00  0.2600E-01  0.2500E-01
     -6.374  0.0000E+00  0.0000E+00  0.2600E-01  0.2500E-01
     -6.341  0.0000E+00  0.0000E+00  0.2600E-01  0.2600E-01
     -6.308  0.0000E+00  0.0000E+00  0.2600E-01  0.2600E-01
     -6.274  0.0000E+00  0.0000E+00  0.2600E-01  0.2600E-01
     -6.241  0.0000E+00  0.0000E+00  0.2600E-01  0.2600E-01
     -6.208  0.0000E+00  0.0000E+00  0.2600E-01  0.2600E-01
     -6.175  0.0000E+00  0.0000E+00  0.2600E-01  0.2600E-01
     -6.142  0.0000E+00  0.0000E+00  0.2600E-01  0.2600E-01
     -6.109  0.0000E+00  0.0000E+00  0.2600E-01  0.2600E-01
     -6.076  0.0000E+00  0.0000E+00  0.2600E-01  0.2600E-01
     -6.043  0.0000E+00  0.0000E+00  0.2600E-01  0.2600E-01
     -6.010  0.0000E+00  0.0000E+00  0.2600E-01  0.2600E-01
     -5.977  0.0000E+00  0.0000E+00  0.2600E-01  0.2600E-01
     -5.944  0.0000E+00  0.0000E+00  0.2600E-01  0.2600E-01
     -5.911  0.0000E+00  0.0000E+00  0.2600E-01  0.2600E-01
     -5.878  0.0000E+00  0.0000E+00  0.2600E-01  0.2600E-01
     -5.845  0.0000E+00  0.0000E+00  0.2600E-01  0.2600E-01
     -5.812  0.0000E+00  0.0000E+00  0.2600E-01  0.2600E-01
     -5.779  0.0000E+00  0.0000E+00  0.2600E-01  0.2600E-01
     -5.746  0.0000E+00  0.0000E+00  0.2600E-01  0.2600E-01
     -5.713  0.0000E+00  0.0000E+00  0.2600E-01  0.2600E-01
     -5.680  0.0000E+00  0.0000E+00  0.2600E-01  0.2600E-01
     -5.647  0.0000E+00  0.0000E+00  0.2600E-01  0.2600E-01
     -5.614  0.0000E+00  0.0000E+00  0.2600E-01  0.2600E-01
     -5.581  0.0000E+00  0.0000E+00  0.2600E-01  0.2600E-01
     -5.548  0.0000E+00  0.0000E+00  0.2600E-01  0.2600E-01
     -5.515  0.0000E+00  0.0000E+00  0.2600E-01  0.2600E-01
     -5.482  0.0000E+00  0.0000E+00  0.2600E-01  0.2600E-01
     -5.449  0.0000E+00  0.0000E+00  0.2600E-01  0.2600E-01
     -5.416  0.0000E+00  0.0000E+00  0.2600E-01  0.2600E-01
     -5.382  0.0000E+00  0.0000E+00  0.2600E-01  0.2600E-01
     -5.349  0.0000E+00  0.0000E+00  0.2600E-01  0.2600E-01
     -5.316  0.0000E+00  0.0000E+00  0.2600E-01  0.2600E-01
     -5.283  0.0000E+00  0.0000E+00  0.2600E-01  0.2600E-01
     -5.250  0.0000E+00  0.0000E+00  0.2600E-01  0.2600E-01
     -5.217  0.0000E+00  0.0000E+00  0.2600E-01  0.2600E-01
     -5.184  0.0000E+00  0.0000E+00  0.2600E-01  0.2600E-01
     -5.151  0.0000E+00  0.0000E+00  0.2600E-01  0.2600E-01
     -5.118  0.0000E+00  0.0000E+00  0.2600E-01  0.2600E-01
     -5.085  0.0000E+00  0.0000E+00  0.2600E-01  0.2600E-01
     -5.052  0.0000E+00  0.0000E+00  0.2600E-01  0.2600E-01
     -5.019  0.0000E+00  0.0000E+00  0.2700E-01  0.2600E-01
     -4.986  0.0000E+00  0.0000E+00  0.2700E-01  0.2600E-01
     -4.953  0.0000E+00  0.3002E-01  0.2700E-01  0.2699E-01
     -4.920  0.0000E+00  0.0000E+00  0.2700E-01  0.2700E-01
     -4.887  0.0000E+00  0.0000E+00  0.2700E-01  0.2700E-01
     -4.854  0.0000E+00  0.0000E+00  0.2700E-01  0.2700E-01
     -4.821  0.0000E+00  0.0000E+00  0.2700E-01  0.2700E-01
     -4.788  0.0000E+00  0.0000E+00  0.2700E-01  0.2700E-01
     -4.755  0.0000E+00  0.0000E+00  0.2700E-01  0.2700E-01
     -4.722  0.0000E+00  0.0000E+00  0.2700E-01  0.2700E-01
     -4.689  0.0000E+00  0.0000E+00  0.2700E-01  0.2700E-01
     -4.656  0.0000E+00  0.0000E+00  0.2700E-01  0.2700E-01
     -4.623  0.0000E+00  0.0000E+00  0.2700E-01  0.2700E-01
     -4.590  0.0000E+00  0.0000E+00  0.2700E-01  0.2700E-01
     -4.557  0.0000E+00  0.0000E+00  0.2700E-01  0.2700E-01
     -4.524  0.0000E+00  0.0000E+00  0.2700E-01  0.2700E-01
     -4.491  0.0000E+00  0.0000E+00  0.2700E-01  0.2700E-01
     -4.457  0.0000E+00  0.0000E+00  0.2700E-01  0.2700E-01
     -4.424  0.0000E+00  0.0000E+00  0.2700E-01  0.2700E-01
     -4.391  0.0000E+00  0.0000E+00  0.2700E-01  0.2700E-01
     -4.358  0.0000E+00  0.0000E+00  0.2700E-01  0.2700E-01
     -4.325  0.0000E+00  0.0000E+00  0.2700E-01  0.2700E-01
     -4.292  0.0000E+00  0.0000E+00  0.2700E-01  0.2700E-01
     -4.259  0.0000E+00  0.0000E+00  0.2700E-01  0.2700E-01
     -4.226  0.0000E+00  0.0000E+00  0.2700E-01  0.2700E-01
     -4.193  0.0000E+00  0.0000E+00  0.2700E-01  0.2700E-01
     -4.160  0.0000E+00  0.0000E+00  0.2700E-01  0.2700E-01
     -4.127  0.0000E+00  0.0000E+00  0.2700E-01  0.2700E-01
     -4.094  0.0000E+00  0.0000E+00  0.2800E-01  0.2700E-01
     -4.061  0.0000E+00  0.0000E+00  0.2800E-01  0.2700E-01
     -4.028  0.0000E+00  0.0000E+00  0.2800E-01  0.2700E-01
     -3.995  0.0000E+00  0.0000E+00  0.2800E-01  0.2700E-01
     -3.962  0.0000E+00  0.0000E+00  0.2800E-01  0.2700E-01
     -3.929  0.0000E+00  0.0000E+00  0.2800E-01  0.2700E-01
     -3.896  0.0000E+00  0.0000E+00  0.2800E-01  0.2700E-01
     -3.863  0.0000E+00  0.0000E+00  0.2800E-01  0.2700E-01
     -3.830  0.0000E+00  0.0000E+00  0.2800E-01  0.2700E-01
     -3.797  0.0000E+00  0.0000E+00  0.2800E-01  0.2700E-01
     -3.764  0.0000E+00  0.0000E+00  0.2800E-01  0.2700E-01
     -3.731  0.0000E+00  0.0000E+00  0.2800E-01  0.2800E-01
     -3.698  0.0000E+00  0.0000E+00  0.2800E-01  0.2800E-01
     -3.665  0.0000E+00  0.0000E+00  0.2800E-01  0.2800E-01
     -3.632  0.0000E+00  0.0000E+00  0.2800E-01  0.2800E-01
     -3.599  0.0000E+00  0.0000E+00  0.2800E-01  0.2800E-01
     -3.565  0.0000E+00  0.0000E+00  0.2800E-01  0.2800E-01
     -3.532  0.0000E+00  0.0000E+00  0.2800E-01  0.2800E-01
     -3.499  0.0000E+00  0.0000E+00  0.2800E-01  0.2800E-01
     -3.466  0.0000E+00  0.0000E+00  0.2800E-01  0.2800E-01
     -3.433  0.0000E+00  0.0000E+00  0.2800E-01  0.2800E-01
     -3.400  0.0000E+00  0.0000E+00  0.2800E-01  0.2800E-01
     -3.367  0.0000E+00  0.0000E+00  0.2800E-01  0.2800E-01
     -3.334  0.0000E+00  0.0000E+00  0.2800E-01  0.2800E-01
     -3.301  0.0000E+00  0.0000E+00  0.2800E-01  0.2800E-01
     -3.268  0.0000E+00  0.0000E+00  0.2800E-01  0.2800E-01
     -3.235  0.0000E+00  0.0000E+00  0.2800E-01  0.2800E-01
     -3.202  0.0000E+00  0.0000E+00  0.2800E-01  0.2800E-01
     -3.169  0.0000E+00  0.0000E+00  0.2800E-01  0.2800E-01
     -3.136  0.0000E+00  0.0000E+00  0.2800E-01  0.2800E-01
     -3.103  0.0000E+00  0.0000E+00  0.2800E-01  0.2800E-01
     -3.070  0.0000E+00  0.0000E+00  0.2800E-01  0.2800E-01
     -3.037  0.0000E+00  0.0000E+00  0.2800E-01  0.2800E-01
     -3.004  0.0000E+00  0.0000E+00  0.2800E-01  0.2800E-01
     -2.971  0.0000E+00  0.0000E+00  0.2800E-01  0.2800E-01
     -2.938  0.0000E+00  0.0000E+00  0.2800E-01  0.2800E-01
     -2.905  0.0000E+00  0.0000E+00  0.2800E-01  0.2800E-01
     -2.872  0.0000E+00  0.0000E+00  0.2800E-01  0.2800E-01
     -2.839  0.0000E+00  0.0000E+00  0.2800E-01  0.2800E-01
     -2.806  0.0000E+00  0.0000E+00  0.2800E-01  0.2800E-01
     -2.773  0.0000E+00  0.0000E+00  0.2800E-01  0.2800E-01
     -2.740  0.0000E+00  0.0000E+00  0.2800E-01  0.2800E-01
     -2.707  0.0000E+00  0.0000E+00  0.2900E-01  0.2800E-01
     -2.673  0.0000E+00  0.0000E+00  0.2900E-01  0.2800E-01
     -2.640  0.0000E+00  0.0000E+00  0.2900E-01  0.2800E-01
     -2.607  0.0000E+00  0.0000E+00  0.2900E-01  0.2800E-01
     -2.574  0.0000E+00  0.0000E+00  0.2900E-01  0.2900E-01
     -2.541  0.0000E+00  0.0000E+00  0.2900E-01  0.2900E-01
     -2.508  0.0000E+00  0.0000E+00  0.2900E-01  0.2900E-01
     -2.475  0.0000E+00  0.0000E+00  0.2900E-01  0.2900E-01
     -2.442  0.0000E+00  0.0000E+00  0.3000E-01  0.2900E-01
     -2.409  0.0000E+00  0.0000E+00  0.3000E-01  0.2900E-01
     -2.376  0.0000E+00  0.0000E+00  0.3000E-01  0.2900E-01
     -2.343  0.0000E+00  0.0000E+00  0.3000E-01  0.2900E-01
     -2.310  0.0000E+00  0.0000E+00  0.3000E-01  0.2900E-01
     -2.277  0.0000E+00  0.0000E+00  0.3000E-01  0.2900E-01
     -2.244  0.0000E+00  0.0000E+00  0.3000E-01  0.3000E-01
     -2.211  0.0000E+00  0.0000E+00  0.3000E-01  0.3000E-01
     -2.178  0.0000E+00  0.0000E+00  0.3000E-01  0.3000E-01
     -2.145  0.0000E+00  0.0000E+00  0.3000E-01  0.3000E-01
     -2.112  0.0000E+00  0.0000E+00  0.3000E-01  0.3000E-01
     -2.079  0.0000E+00  0.0000E+00  0.3000E-01  0.3000E-01
     -2.046  0.0000E+00  0.0000E+00  0.3000E-01  0.3000E-01
     -2.013  0.0000E+00  0.0000E+00  0.3000E-01  0.3000E-01
     -1.980  0.0000E+00  0.0000E+00  0.3000E-01  0.3000E-01
     -1.947  0.0000E+00  0.0000E+00  0.3000E-01  0.3000E-01
     -1.914  0.0000E+00  0.0000E+00  0.3000E-01  0.3000E-01
     -1.881  0.0000E+00  0.0000E+00  0.3000E-01  0.3000E-01
     -1.848  0.0000E+00  0.0000E+00  0.3100E-01  0.3000E-01
     -1.815  0.0000E+00  0.0000E+00  0.3100E-01  0.3000E-01
     -1.781  0.0000E+00  0.0000E+00  0.3100E-01  0.3000E-01
     -1.748  0.0000E+00  0.0000E+00  0.3100E-01  0.3000E-01
     -1.715  0.0000E+00  0.0000E+00  0.3100E-01  0.3100E-01
     -1.682  0.0000E+00  0.0000E+00  0.3100E-01  0.3100E-01
     -1.649  0.0000E+00  0.0000E+00  0.3100E-01  0.3100E-01
     -1.616  0.0000E+00  0.0000E+00  0.3100E-01  0.3100E-01
     -1.583  0.0000E+00  0.0000E+00  0.3100E-01  0.3100E-01
     -1.550  0.0000E+00  0.0000E+00  0.3100E-01  0.3100E-01
     -1.517  0.0000E+00  0.0000E+00  0.3100E-01  0.3100E-01
     -1.484  0.0000E+00  0.0000E+00  0.3100E-01  0.3100E-01
     -1.451  0.0000E+00  0.0000E+00  0.3100E-01  0.3100E-01
     -1.418  0.0000E+00  0.0000E+00  0.3100E-01  0.3100E-01
     -1.385  0.0000E+00  0.0000E+00  0.3100E-01  0.3100E-01
     -1.352  0.0000E+00  0.0000E+00  0.3100E-01  0.3100E-01
     -1.319  0.0000E+00  0.0000E+00  0.3200E-01  0.3100E-01
     -1.286  0.0000E+00  0.0000E+00  0.3200E-01  0.3100E-01
     -1.253  0.0000E+00  0.0000E+00  0.3200E-01  0.3100E-01
     -1.220  0.0000E+00  0.0000E+00  0.3200E-01  0.3100E-01
     -1.187  0.0000E+00  0.0000E+00  0.3200E-01  0.3100E-01
     -1.154  0.0000E+00  0.0000E+00  0.3200E-01  0.3100E-01
     -1.121  0.0000E+00  0.0000E+00  0.3200E-01  0.3100E-01
     -1.088  0.0000E+00  0.0000E+00  0.3200E-01  0.3100E-01
     -1.055  0.0000E+00  0.0000E+00  0.3200E-01  0.3100E-01
     -1.022  0.0000E+00  0.0000E+00  0.3200E-01  0.3100E-01
     -0.989  0.0000E+00  0.0000E+00  0.3200E-01  0.3200E-01
     -0.956  0.0000E+00  0.0000E+00  0.3200E-01  0.3200E-01
     -0.923  0.0000E+00  0.0000E+00  0.3200E-01  0.3200E-01
     -0.890  0.0000E+00  0.0000E+00  0.3200E-01  0.3200E-01
     -0.856  0.1155E-06  0.0000E+00  0.3200E-01  0.3200E-01
     -0.823  0.0000E+00  0.0000E+00  0.3300E-01  0.3200E-01
     -0.790  0.0000E+00  0.0000E+00  0.3300E-01  0.3200E-01
     -0.757  0.0000E+00  0.0000E+00  0.3300E-01  0.3200E-01
     -0.724  0.0000E+00  0.0000E+00  0.3300E-01  0.3300E-01
     -0.691  0.0000E+00  0.0000E+00  0.3300E-01  0.3300E-01
     -0.658  0.0000E+00  0.0000E+00  0.3300E-01  0.3300E-01
     -0.625  0.0000E+00  0.0000E+00  0.3300E-01  0.3300E-01
     -0.592  0.0000E+00  0.0000E+00  0.3400E-01  0.3300E-01
     -0.559  0.0000E+00  0.0000E+00  0.3400E-01  0.3300E-01
     -0.526  0.0000E+00  0.0000E+00  0.3400E-01  0.3300E-01
     -0.493  0.0000E+00  0.0000E+00  0.3400E-01  0.3400E-01
     -0.460  0.0000E+00  0.0000E+00  0.3400E-01  0.3400E-01
     -0.427  0.0000E+00  0.0000E+00  0.3500E-01  0.3400E-01
     -0.394  0.0000E+00  0.0000E+00  0.3500E-01  0.3400E-01
     -0.361  0.0000E+00  0.0000E+00  0.3500E-01  0.3400E-01
     -0.328  0.0000E+00  0.0000E+00  0.3500E-01  0.3400E-01
     -0.295  0.0000E+00  0.0000E+00  0.3500E-01  0.3400E-01
     -0.262  0.0000E+00  0.0000E+00  0.3500E-01  0.3400E-01
     -0.229  0.0000E+00  0.0000E+00  0.3500E-01  0.3400E-01
     -0.196  0.0000E+00  0.0000E+00  0.3500E-01  0.3500E-01
     -0.163  0.0000E+00  0.0000E+00  0.3500E-01  0.3500E-01
     -0.130  0.0000E+00  0.0000E+00  0.3500E-01  0.3500E-01
     -0.097  0.0000E+00  0.0000E+00  0.3500E-01  0.3500E-01
     -0.064  0.0000E+00  0.0000E+00  0.3500E-01  0.3500E-01
     -0.031  0.0000E+00  0.0000E+00  0.3600E-01  0.3500E-01
      0.002  0.0000E+00  0.0000E+00  0.3600E-01  0.3500E-01
      0.036  0.0000E+00  0.0000E+00  0.3600E-01  0.3500E-01
      0.069  0.0000E+00  0.0000E+00  0.3600E-01  0.3500E-01
      0.102  0.0000E+00  0.0000E+00  0.3600E-01  0.3500E-01
      0.135  0.0000E+00  0.0000E+00  0.3600E-01  0.3600E-01
      0.168  0.0000E+00  0.0000E+00  0.3600E-01  0.3600E-01
      0.201  0.0000E+00  0.0000E+00  0.3600E-01  0.3600E-01
      0.234  0.0000E+00  0.0000E+00  0.3600E-01  0.3600E-01
      0.267  0.0000E+00  0.0000E+00  0.3600E-01  0.3600E-01
      0.300  0.0000E+00  0.0000E+00  0.3600E-01  0.3600E-01
      0.333  0.0000E+00  0.0000E+00  0.3600E-01  0.3600E-01
      0.366  0.0000E+00  0.0000E+00  0.3600E-01  0.3600E-01
      0.399  0.0000E+00  0.0000E+00  0.3600E-01  0.3600E-01
      0.432  0.0000E+00  0.0000E+00  0.3600E-01  0.3600E-01
      0.465  0.0000E+00  0.0000E+00  0.3600E-01  0.3600E-01
      0.498  0.0000E+00  0.0000E+00  0.3600E-01  0.3600E-01
      0.531  0.0000E+00  0.0000E+00  0.3600E-01  0.3600E-01
      0.564  0.0000E+00  0.0000E+00  0.3600E-01  0.3600E-01
