11
Energy = -42.30685779 eV
Ge 11.839200850043206 8.749290486613443 6.604893569233383
Ge 12.693627200993133 9.357551035028777 9.073147079919297
Ge 10.878515627242981 10.887951475009704 7.844834316679932
Ge 10.633236772592404 9.795323211737218 10.451136307027307
Ge 10.260707979859351 8.04345638827308 8.347731286259389
Ge 8.185209932048396 8.108558292213052 9.945056797433745
Ge 10.134775470932254 11.671483112060557 12.061704308331315
Ge 8.358302357910382 10.048402513397713 7.927203211373297
Ge 8.964052971507135 9.033280075400226 12.358708828593231
Ge 8.034879122106346 10.864136271791631 10.401768502117037
Ge 7.701337496993867 11.2359416853534 12.852670826354318
