15
Energy = -53.09263557 eV
Ge 9.098861145577619 11.06366877858356 6.410927224492285
Ge 11.53529812342699 9.26023220113481 6.261849546972923
Ge 6.264299341641818 7.156904699598865 7.697188007009093
Ge 9.247673461987453 10.019056618924038 9.22683737092995
Ge 6.436567710917637 9.594182088880155 5.951917705986563
Ge 12.225591340727284 7.963059872134932 8.911423477213159
Ge 9.046713277924427 6.522268201804318 8.755028515674246
Ge 11.078365578259122 12.422636510615314 9.89249181650271
Ge 4.986032623583364 9.680924161822537 8.654172521933496
Ge 13.569925752442064 10.734864438362118 9.617531264256149
Ge 12.383046884937126 11.287664213415196 12.315193723203299
Ge 8.729081546831074 6.264338992918845 11.67979998125529
Ge 6.820571436397456 11.02819538500792 10.692347058576505
Ge 11.011843026557417 8.445282896883365 11.797640483898608
Ge 8.062354993925915 9.052947185049844 12.6318775472322
