17
Energy = -66.76953679 eV
Ge 13.123353421582939 12.708827553088117 7.624199302045971
Ge 13.684643429343911 11.238574536534188 9.54427239823062
Ge 11.633782964437229 13.04705044086939 9.649351754044352
Ge 11.420413913400886 10.781022007811213 7.6249645834886675
Ge 14.633066796202339 9.108420238711183 10.432125586586963
Ge 9.635332757611124 10.956925028931947 9.502540477743679
Ge 12.476874450288404 8.68275139979553 8.812130133227562
Ge 10.986608368942425 11.541884546970055 11.695322956150578
Ge 12.324793181518354 9.393811541229384 11.433378555817301
Ge 9.646874833924704 12.616275319500838 13.618868564726236
Ge 8.109872549035687 8.687909860816204 9.617360503655245
Ge 7.110242965722197 11.263843191513754 9.458508008804916
Ge 10.521137531357029 7.455058671378351 10.062069951898065
Ge 8.118101937445543 11.969004687109553 11.735981860881864
Ge 9.561602265822698 8.964839369339039 11.863005052089921
Ge 6.717172557104876 9.666125020035281 11.758345995465808
Ge 8.453506391685803 10.170568766345422 13.778082582326713
