10
Energy = -38.42473408 eV
Ge 11.386514572302545 9.670315629334034 9.213496650886405
Ge 8.08940927629605 11.933128359702401 11.870827648928968
Ge 10.980742733171798 7.441793603807123 8.22674408735103
Ge 10.453931521300202 12.386921070082952 11.112043085737692
Ge 8.743015130959543 6.438268695161064 8.680470187656828
Ge 8.57615455071758 11.198552211562491 9.458026661798597
Ge 12.264443021398261 10.542517871488142 11.399793642581287
Ge 11.04775560858835 12.079017530023444 8.598081109832767
Ge 9.621949776441502 9.872588180966277 11.906983141413901
Ge 8.96516536141588 8.582132759062606 9.687051760708913
