14
Energy = -56.17591323 eV
Ge 10.324476198534143 12.736878731354157 12.14132097820035
Ge 9.404011740651447 9.0219741486447 6.369501184458447
Ge 11.068554046902051 8.956358541401666 8.393726735353487
Ge 8.309482385325515 10.46417316568962 8.244182714458479
Ge 10.714433593688597 11.248369594956346 7.06717916167747
Ge 8.70533649176585 7.726402242788092 8.604841544935185
Ge 9.029528475176761 10.468573338555517 13.13109064880879
Ge 9.38695128163818 9.162359021798103 10.697307536966624
Ge 10.709349617294388 8.333355872897311 12.750353135100514
Ge 8.271249036403015 11.611027944982071 10.81510807771066
Ge 10.711869510943774 11.482180998435387 9.681544959336778
Ge 11.690661994621276 10.760054874501439 13.342533170464398
Ge 12.20306416179084 9.390653396320584 10.876689783804286
Ge 12.767471465264446 11.934078127674846 11.181060368724399
