17
Energy = -67.83565074 eV
Ge 13.110407561953382 8.619124913378675 13.769729991329159
Ge 14.362254882575682 7.777256903029804 11.63165017779887
Ge 11.96472740924835 8.400095004390154 11.117379808888566
Ge 14.084344461576107 10.282025974921961 11.85235927044675
Ge 10.43009624487723 12.221544839967706 14.179531384969856
Ge 10.825149574609174 9.621501903192298 13.19387262957017
Ge 8.546151355117924 10.492773275460612 13.374816631416108
Ge 12.983727659580174 11.365995048803892 14.13410189339037
Ge 12.172481179182586 12.929706098461645 12.105170561176646
Ge 12.600871636947504 13.857055233709238 9.721309049947317
Ge 9.7048721760264 11.709371298849668 11.42029728282807
Ge 11.95931333067273 10.956919131426098 10.2502882078787
Ge 9.563859326330178 11.232356747903454 8.629977902718988
Ge 8.154165261509466 13.13840415001089 9.944248852566483
Ge 10.100569706886974 14.428000566886254 11.155155482150574
Ge 12.021978091836287 11.924850944931022 7.907991519564727
Ge 10.246523370083056 13.86919106912982 8.439171616837841
