28
Energy = -112.30393736 eV
Ge 14.192216934298562 11.053445030535007 13.102012257355257
Ge 14.486215579084444 9.893542434929973 10.68068662854882
Ge 12.998873056419956 8.485341509359559 12.478202017727872
Ge 11.934077848273963 6.219405043541839 11.735091457056043
Ge 12.296471361165775 9.896930596632918 14.523484091082755
Ge 15.88447537462898 12.971492920522827 12.36774621602648
Ge 10.477896107659 7.445476366502705 13.571846018889655
Ge 11.247588372876288 6.909726733286052 9.303932019332928
Ge 11.942790988352636 9.387377018438098 9.94078264984508
Ge 8.410888602861194 8.738756453597741 12.410411587636087
Ge 9.279037093442199 6.3174040571764225 11.36208482165583
Ge 13.711073043763735 13.950192259842192 13.171035075052215
Ge 11.465856779220823 12.253007209497255 13.12760266716528
Ge 10.699053159329338 9.954633772122014 12.17038202209994
Ge 13.11505204522113 12.184901697917764 10.85944390058689
Ge 9.276803269861608 8.49716980037108 9.897757978305986
Ge 14.666035159106475 14.26345329079455 10.483584944714847
Ge 6.858106376140836 10.16044940629043 10.081798455094395
Ge 9.113483854889342 12.167690512674232 10.717375636459705
Ge 10.808450104524459 11.519689228247522 8.754644414801197
Ge 7.935856711389436 9.224355304703774 7.883444681282597
Ge 12.176870886494163 14.771191408928265 11.149201749323888
Ge 9.731232081957746 14.447961113185446 12.013815769926135
Ge 9.564428436495971 10.8543813676864 6.611574985778962
Ge 10.679701786333183 14.08162158873506 9.116675034986184
Ge 6.6013373914716444 12.84129314424333 10.111208694342182
Ge 7.900727327803417 11.973971811594097 8.11049856819436
Ge 8.344363822357515 14.852213497760358 9.877195434513357
