24
Energy = -95.52337319 eV
Ge 17.288566939078866 13.750310633789747 10.481705302215177
Ge 15.97428499974761 12.258667266083881 12.127746368932815
Ge 15.112163061532192 12.94838094774594 9.449830261471526
Ge 15.18993613663051 14.860413375270547 11.458013183624095
Ge 13.509426504924729 13.050713833714724 11.61471236377164
Ge 14.383237796097266 10.686252238228827 10.688877246591698
Ge 11.883533487129617 13.340723187996936 13.53214680738326
Ge 11.781390349231925 15.857432311388205 14.062932801070765
Ge 12.221929917333172 9.825819163921912 12.763880175515368
Ge 12.6695185316528 7.1963480478708615 13.09099440922074
Ge 12.10791101424374 11.200937656626998 14.891422894397268
Ge 11.772231101073487 10.878657692417667 10.206927323922441
Ge 13.497895364662421 16.736739025422764 12.204258605461826
Ge 11.512113386676186 7.934683317630293 10.758499601565818
Ge 10.653339011104169 13.297393876058848 10.820908710506135
Ge 10.1234842776559 8.06797435005379 13.52249797350546
Ge 9.616418533468227 16.78139599668819 12.69527707642488
Ge 9.730450519516959 10.607103449396426 14.051296127502528
Ge 8.89272148843183 7.584666272709229 11.13219139894727
Ge 9.426357108166206 14.083355577136407 13.039657853749555
Ge 11.485599853756836 15.81236815872444 11.143568027861
Ge 10.608463813926127 5.867772337812759 12.239937305858755
Ge 9.618298551709204 10.12419678993648 11.499248566187296
Ge 8.976574664337962 15.287388338165083 10.589835045519632
