27
Energy = -107.2579249 eV
Ge 15.89009662598152 12.30262160529671 15.533470401645573
Ge 16.230529527327075 14.727354668801533 15.404561075892236
Ge 13.73869411887762 14.269111918354199 15.644880390957928
Ge 13.393197426884194 11.675664216387231 15.733125866486075
Ge 10.813488693245732 8.275805516130344 15.670756490155783
Ge 10.870593857608188 10.858166058680828 15.60912894287555
Ge 10.324169493538356 9.266562951012991 13.356740675213087
Ge 14.3697889250716 9.18864891548037 12.975286097644661
Ge 16.38786215748062 11.682610385754446 10.14721485495343
Ge 13.15396872647138 9.131619274246916 15.315134318776614
Ge 16.245808767171035 10.96590524322035 12.632153216651894
Ge 10.877763948280812 11.778120560048007 13.071859511469723
Ge 12.282724917616873 9.738934439166517 11.587495712175361
Ge 17.131627012971784 13.33007830026613 13.246124319584487
Ge 13.776283753173047 17.370265708441345 12.651715868991271
Ge 13.453485133019484 11.787183358618787 13.119045870288867
Ge 15.026032004198028 13.367922619555335 11.744114831109872
Ge 12.76167672519195 15.119250338796538 13.277875868706047
Ge 11.752853811214285 14.337685724616373 10.868388059154146
Ge 13.906387272493552 11.543154341925828 10.121874607907733
Ge 11.410721801686321 17.394137340662276 11.888533117545268
Ge 11.369494310635474 11.839888576140797 9.900690670549226
Ge 13.94901385136624 15.583718902799475 10.766788629004123
Ge 9.378259046712454 13.154513327835932 11.425726868171314
Ge 10.000916278246615 15.241560540004883 13.072636809374163
Ge 9.670950661139763 15.712163397512427 10.303175773707096
Ge 8.975291562719043 17.48798042343987 12.065334331077704
