22
Energy = -87.57023018 eV
Ge 14.090639963146023 12.172067696718123 15.869089325375231
Ge 13.927915962494605 12.865746729668441 18.260263639499794
Ge 13.748845370863215 14.159663145473601 6.498222341306646
Ge 14.169330482899067 14.286573276772254 11.822689853638796
Ge 14.237564485650449 14.88799554771674 8.978842201181983
Ge 12.077947836497462 10.128426078709818 15.507940378514705
Ge 12.12470621766495 14.07491974263645 16.800158096935043
Ge 13.546846190178659 14.478454591833279 14.60645666760079
Ge 15.873073007433819 13.305831943715319 7.863710388620136
Ge 13.430481419354999 12.011617624523605 8.032052244876718
Ge 11.920064824531153 11.390340105404633 17.69205351343917
Ge 15.069962513188365 12.283269354471217 10.224187351191343
Ge 12.347036254831123 15.644997744004593 10.51563513131488
Ge 11.150593702000542 13.648378547142176 14.089789632645427
Ge 11.633551167035074 14.250143827865184 8.162538308715206
Ge 13.41889860237686 11.826843535871614 13.219517837037689
Ge 12.01072624273239 9.412325033534986 12.940818137720203
Ge 12.320387665587011 12.941169615499922 10.379728663332912
Ge 10.027624339072448 12.266677119514128 16.070738536947882
Ge 10.84277604084175 11.83033455493965 12.282933067095216
Ge 9.714968789866928 10.05020333478208 14.631063678060166
Ge 9.529492058993538 9.637388423806058 12.188753393835835
