33
Energy = -131.70199921 eV
Ge 18.418505819315822 12.848114018034806 13.19064798517172
Ge 16.979357006038555 10.849597487718802 13.105936434540679
Ge 16.57530587869334 12.94179531769791 15.015177061591398
Ge 16.034230631206007 13.686511344084076 12.347210816894375
Ge 15.12941166410314 9.179675842493088 12.692620831535114
Ge 14.884261843624282 10.860478620945674 14.917023554815522
Ge 14.961777085833122 14.946199897487146 14.43828860716045
Ge 13.774274591376116 8.540235990709704 14.864411713393157
Ge 12.728310965067756 14.215473368143698 15.612590367966257
Ge 12.484879762807495 10.14567308965259 11.335564655798846
Ge 10.751837997494958 15.400848353966769 14.346957162601827
Ge 13.01385803768801 8.467280182663364 7.454985296338601
Ge 14.28812776421256 11.750989345432972 12.406304481709453
Ge 12.557791031609497 11.8763574447655 14.513511263041798
Ge 11.658194919995259 9.579638234974489 13.720444894769194
Ge 12.74491452640086 14.125655724664151 12.911201521557315
Ge 11.618281961571219 8.346623284161712 9.61351583477188
Ge 9.16353175299268 9.043817878164921 14.26969310037509
Ge 10.957220870051222 12.268066786968292 11.153704676494133
Ge 9.684122414698749 10.042788610091339 10.104186811830676
Ge 11.888908572981787 16.39748355542948 12.200712375956227
Ge 9.869083821490095 13.290439380988742 13.258713515993
Ge 8.053538324724979 9.451460398109843 11.97089275674927
Ge 8.861389109603815 14.393108036196342 11.128702610742973
Ge 13.028673945925128 10.675051939680033 8.644772326713683
Ge 10.749994618714053 9.769063898071487 7.370636055752307
Ge 11.32939369458994 14.151882855865935 9.55000687212957
Ge 10.243107499110556 16.332815853532857 10.193086448587074
Ge 11.332374210779722 12.418453862776705 7.529234884720965
Ge 8.31268422367096 11.449855976590845 14.043826250908877
Ge 9.094392958943969 12.257465270462758 9.014445131352176
Ge 7.156919155551548 11.806030301104947 11.869643039676054
Ge 6.88179689986791 13.38264540459413 9.899278510655245
