37
Energy = -148.78010893 eV
Ge 10.813526160236593 9.294899188070112 5.243438695615046
Ge 10.345522292830047 11.616782339772072 6.309920372233465
Ge 12.358966922198148 13.019118434556015 7.348587672489451
Ge 9.950031119597933 5.949634735019692 7.525652889901879
Ge 8.654324992159255 7.766683541332936 6.04685191760875
Ge 12.729653024174928 8.757663500156132 6.881839138023297
Ge 13.305304130004197 10.76682006247231 8.311202188961225
Ge 7.832201570726634 12.05836592711261 5.845153958512975
Ge 10.25574384781946 8.751748265690178 7.85068163113492
Ge 10.938757325992176 11.637126694742777 9.109006642584427
Ge 8.405078780662782 11.354393715013101 8.451607771218068
Ge 7.030997636323746 9.73813648158827 6.902303796979631
Ge 7.760915349125045 6.949282089730527 9.030563730321536
Ge 12.105511300611557 6.964199823947467 8.640467386457072
Ge 14.972261014595327 10.296251601570457 10.192554765926205
Ge 6.902887330847188 13.51410181059832 7.816131272704073
Ge 11.251463086281351 14.207143564623333 9.612564499742891
Ge 9.153227131171391 4.7437957260133885 9.862520586264292
Ge 13.240865472244552 8.557342856039046 11.097112763911872
Ge 10.447270719653439 6.778571120097442 10.941260347528779
Ge 13.435214991763395 9.439405994344977 13.903949685054862
Ge 7.738971239182622 6.057936616996714 11.628620080491295
Ge 5.253943868737921 12.396943712096332 9.552997313178658
Ge 6.02588664564012 9.978790358716035 9.304269804955245
Ge 13.580678002273538 11.294294906648528 12.090084413255932
Ge 11.168254950315083 10.113822296192398 11.19662838886346
Ge 9.009136151921298 8.913089628346357 10.261642147157753
Ge 8.665599794251943 13.669448852001107 9.67119377912047
Ge 7.154181566365731 12.328762527729104 11.199424125903219
Ge 11.515336598225835 12.720190758350165 11.811390457584658
Ge 12.090142294562709 7.299185613876697 13.139236710042232
Ge 5.771667388902229 7.910494535853798 10.961881617857054
Ge 10.882305872560968 9.378588805106359 14.655095364968401
Ge 7.410786749299498 11.667313456487552 13.569869566006485
Ge 9.939094669504335 11.294497710374566 13.244188395139622
Ge 9.21105380316449 7.931052736743448 13.055887207723293
Ge 7.275702998081105 9.466586803999418 12.31668570658674
