43
Energy = -173.52075727 eV
Ge 10.693647033870393 9.988248367573227 16.33663758983948
Ge 8.952726532697232 11.905386091562278 16.537298420063046
Ge 10.737363620905022 12.405970249897441 14.821176237891907
Ge 8.765764143301372 12.499305540689914 13.016253480183476
Ge 9.070050066927715 9.967612766787228 14.252959278365507
Ge 6.834300916373113 11.416007107577114 14.616862869353886
Ge 12.500980176000553 10.361352406139362 14.407792438917678
Ge 12.661656041232117 13.08338204116906 13.2607932360652
Ge 14.63325045904247 11.40945933079729 13.57525335289034
Ge 4.8421320669451475 10.291342398347956 13.38180000700478
Ge 6.343286257084031 12.321675674716593 11.995738887738426
Ge 13.593720698513971 7.962475569350545 11.756286573200088
Ge 9.368998743713943 14.962603653680262 8.165295271768642
Ge 6.817628244193861 8.55733099871512 13.895722850312477
Ge 11.16608165136834 8.930360416925694 12.807282956655168
Ge 10.887691128184313 13.791949777019372 6.239185389021352
Ge 6.914305279084061 13.758824543865952 8.159595225870946
Ge 12.340339592606455 12.439585174364455 10.727143598091553
Ge 14.563492507365135 12.717327981112525 9.397712559437513
Ge 6.09926827701251 9.808657431917995 11.207810187189423
Ge 14.4531977560423 10.403740639550541 11.126555772337825
Ge 8.715287344458304 10.768440391222242 11.173697770024237
Ge 11.836524853803487 9.944028260507213 10.593865112457285
Ge 8.18631953404542 8.24275936691423 11.580664219158795
Ge 10.283678874054575 6.659854398751898 11.779799138746473
Ge 8.166053511532176 14.296440346389927 5.877048282630917
Ge 16.012595381320416 8.166613096201532 10.488877758244236
Ge 10.654782893921672 12.835278255161267 8.821816131104912
Ge 8.289699351676802 11.70144081639122 8.866673469299029
Ge 15.800044015526877 10.338275939750366 8.815153108480171
Ge 14.110992159856362 6.37542304628338 9.683679952105406
Ge 11.660823734430002 7.604223847279356 9.667941591024519
Ge 12.97859884190338 12.1423042043939 7.338713518409502
Ge 7.243358082808429 11.733923284427739 6.398180650853397
Ge 9.390583559505172 12.066586439731758 4.848216431583255
Ge 8.878515608548698 7.055535251679694 9.171180694193497
Ge 6.327205810161828 7.8366591866037965 9.52727353875284
Ge 12.708910979752508 7.219700839214478 7.352971668598097
Ge 15.313222351737299 7.925893025869894 7.817575106489691
Ge 10.145221753069062 10.933681656223293 7.01346231352273
Ge 7.656157936895892 9.253748316820019 7.7364384930292305
Ge 13.256441870166395 9.72562959107851 8.065920811536174
Ge 9.887982853525918 8.296765468264725 7.005583880870012
