49
Energy = -180.01643684 eV
Ge 15.559390823538502 6.188967723612002 7.513435508946404
Ge 12.029818539780768 5.926927356888074 4.2479237076065015
Ge 6.375843809009999 11.546561959632866 5.221230279912918
Ge 11.443315504924644 10.092164958556692 10.541803457451442
Ge 12.644936752550715 11.230070178168695 4.552307987184675
Ge 5.614600856316665 4.908429270263493 11.48846594907968
Ge 8.844703931128869 11.729515175129686 13.73577239529815
Ge 5.855635022387682 11.558191216648046 8.231749797801694
Ge 13.54060616988463 8.479658042694794 12.062824644427044
Ge 9.210940590219108 7.2224994557701025 14.504141448519592
Ge 7.000448706222337 6.040305361863458 8.939398727986445
Ge 5.8478183341447485 9.173985546158258 14.143139042184325
Ge 13.74445845583869 10.89749364696191 8.68564164964875
Ge 11.828685452745718 6.218931036578449 13.213632308781147
Ge 5.732826234286893 4.549079331095592 6.533843523322651
Ge 4.791146657478619 8.822761270787675 10.180967329043941
Ge 10.103481367894018 2.6713543016316432 7.372758891006735
Ge 2.983829799716423 7.607562910903049 8.07811441054416
Ge 11.322432404247877 12.65066001354613 12.175672722069038
Ge 2.627058860818617 10.690398058447256 11.121465038456636
Ge 10.549073613789124 7.977696585265581 2.47907625002721
Ge 6.116410229938021 14.638185894258616 7.9817759097957275
Ge 7.353891602816697 3.0021207660877764 8.678159413603295
Ge 5.06406627400195 7.973873674650889 5.888748616179128
Ge 12.273925824850547 13.061436397768563 7.012230167879446
Ge 8.224799534405582 4.780648030097431 4.825238329906181
Ge 13.218177394575477 6.832179620632977 9.427668233089745
Ge 8.231041912347296 4.673273070344108 13.071117012993954
Ge 9.988619212345792 5.700741417669777 10.802226995175724
Ge 12.225959542400078 9.13451916896701 6.698824003102597
Ge 10.751074809104649 2.8115520153268796 10.358454534813863
Ge 2.975299689435607 12.406911464119347 8.593650514555412
Ge 9.812235639354169 10.774541705206671 3.58619728799174
Ge 13.5553027209968 3.9962051058999797 7.156223532303245
Ge 8.350107203398295 9.15395071350768 5.79986952353898
Ge 9.541878463046721 12.037789416638649 7.873970005118819
Ge 8.297276115100756 9.07809324286731 12.287873601277624
Ge 13.656947504593077 3.871503560918198 10.145864608266626
Ge 6.861333531567227 12.291182963604749 11.496239175371784
Ge 3.522832407203381 10.187538081170066 4.603285174403006
Ge 7.648231622303167 7.395696906377344 3.4104525713000964
Ge 8.325319142464766 14.023781405685607 5.954048776329239
Ge 10.419070676487461 5.702449637146583 6.8986481663265
Ge 10.194639489681538 14.290893714828194 9.823327433990377
Ge 14.362422482098193 7.7228967806896 5.12046704821741
Ge 7.417797796493948 15.167806973377349 10.709032430280386
Ge 4.0101389841807284 7.253328131309044 12.645439450642629
Ge 1.6543705039775196 10.177960113320848 6.994565460875645
Ge 4.4627737516368535 11.842722574655811 13.300032901101455
