45
Energy = -181.58182458 eV
Ge 8.72874851135582 5.582974244080358 4.593289593104124
Ge 7.908825369252719 5.472864633106058 7.3788002944491
Ge 11.0373065753674 9.016720112444343 11.316639707817176
Ge 6.40722511608192 10.912793239807053 4.497521657259365
Ge 3.227381801458652 7.040135363236003 6.540310202532676
Ge 10.229990214496562 12.962589538097227 9.464140310244664
Ge 8.503441958056149 11.024014069688514 9.10289394985522
Ge 8.029055915562523 4.493670667821125 9.82456784289982
Ge 10.593196117889693 7.475773150172641 4.786915242075285
Ge 8.874481666852068 10.158405264625687 5.58425333354225
Ge 10.761330483372658 4.97276470151042 10.119037954268956
Ge 6.686155695404675 8.079012209924368 5.2894479989610605
Ge 10.928906332303562 5.659400656639167 7.5830302125947835
Ge 4.716929985093732 11.890085093191088 6.2993855437789685
Ge 3.704149298858496 9.113895023795797 9.9544298265799
Ge 13.526462835248616 9.918536036272982 10.335345162973127
Ge 4.736975248658763 4.838294999184517 9.853845264589925
Ge 8.214274052434295 12.497453097650986 11.39864805848031
Ge 7.803174368036091 9.219186829205837 3.2354507109899573
Ge 7.608886478011198 9.871808431127166 11.303926494272062
Ge 5.298716043876421 5.79260335170215 7.471703200022893
Ge 12.741601846611239 12.505480969269708 10.542426604067007
Ge 7.383106957896653 11.979820886451607 6.932658605694509
Ge 8.941720137180145 7.735265615357189 6.766364939348073
Ge 4.284696237588296 9.192087054453015 5.125620302080293
Ge 10.689228315628108 12.965035057453452 12.211684790877145
Ge 8.863403549843621 6.886915354587808 10.427197492490272
Ge 10.937554299581873 6.565718787069901 12.280618748246729
Ge 3.123469941351106 6.797183671990714 9.184417962962753
Ge 12.18093164583823 11.308417343260476 8.25504475450432
Ge 9.62069330474655 3.7276014037396976 6.376207709839258
Ge 9.415583288874307 10.623921787495716 13.083599222008536
Ge 6.469531485996326 5.982925569899226 11.61114914924362
Ge 12.708834199473944 7.013384758488859 6.266522397799352
Ge 3.2667936463698393 9.921538280088162 7.427366991456493
Ge 10.352342128774502 9.709462172094023 3.5092776373409493
Ge 5.450774070002109 8.557932349786538 11.811696104493155
Ge 8.642466471610273 7.859411554454839 12.895180945402888
Ge 5.808230759864718 7.446810949430897 9.395035834346055
Ge 9.725708840391452 8.845408583948151 9.035534419292578
Ge 11.401546064618607 4.918670082221862 4.887825530020309
Ge 12.766040391120308 7.024992836016234 10.358761219122545
Ge 12.162045063035459 8.698096964736225 8.301706637180484
Ge 12.347228530304154 10.8110474552224 12.663428019490018
Ge 5.928372317967755 9.667407361540818 7.454608983741611
