45
Energy = -181.26198196 eV
Ge 10.40089170958888 14.204592031470034 15.045309259291377
Ge 6.236195913007858 11.33841013594077 8.986888993257686
Ge 9.169266943756663 14.965169307759403 12.837162080865733
Ge 6.519182598692281 9.392265591034025 10.719479177375193
Ge 8.256870322716123 14.50146883688257 9.914381707829214
Ge 6.924875020179166 13.212341669120644 12.256914159460187
Ge 5.745290938062978 10.467474370465025 12.958427501769629
Ge 7.892167293374862 13.559339361694192 14.737548447943945
Ge 11.502349009474742 13.351126088234379 12.750994152581772
Ge 8.133808945512454 12.82483360942991 7.73756164589716
Ge 6.055299844593162 8.614602776874792 8.237403778025435
Ge 6.307905152850316 7.5944864121411495 12.64354264882286
Ge 9.631942014927386 11.640327805380766 15.617983586984591
Ge 12.90648654671363 14.965011234101262 11.234515892854178
Ge 7.155304110991508 10.49060683036989 6.567631313595312
Ge 8.636430461223785 8.637232627327126 8.192263667289168
Ge 10.474766725792046 11.809442007729654 7.227656122582985
Ge 7.462480974535635 9.102092471902832 14.518936190836643
Ge 10.870693231632076 14.832403015877649 9.712117588451711
Ge 9.464094993716849 12.603355543201497 11.248179318848885
Ge 9.022746945209718 10.89854355752145 9.400832106406998
Ge 8.470916754710933 11.226189306685614 13.307138687464995
Ge 11.610788290384885 10.84804757709174 14.0495401727417
Ge 12.222785180372226 13.573040506893632 7.970074533737343
Ge 8.759517923147765 8.928956677658942 11.935131164871365
Ge 11.520858421580796 9.74633612297166 8.435763327298744
Ge 11.467006298736996 9.716194903791617 11.701764109709247
Ge 9.805575120550483 9.59475649095884 5.973912114343943
Ge 12.228250653048224 12.343656021713329 10.314195228695326
Ge 8.762952313855603 6.909913653123633 13.699131013969652
Ge 11.148799709124491 8.23266277764465 14.1686951817795
Ge 10.836909647064736 7.2645693031623955 8.76817254708288
Ge 13.563299159068297 10.575347566298401 6.873043827009283
Ge 15.68840967183673 11.151296363395074 8.360629613772268
Ge 14.515892291323953 13.530979368105596 9.546336367152476
Ge 13.744346369530271 9.697948540819429 9.829366814013214
Ge 13.952033671978013 10.010072878983786 13.12056845867301
Ge 10.68151921541834 7.048997261402146 11.515634685206997
Ge 12.395062550778487 8.259877803055131 6.312063178667359
Ge 13.068430866938598 7.606824735970482 12.455258506516186
Ge 15.272145851792725 11.327188463537736 11.158917978514546
Ge 13.077860866413824 6.2626008273656515 7.912773948818125
Ge 15.079236057314962 8.379766756814629 7.545648936797001
Ge 16.467394876436657 9.17469302389299 10.00289477594843
Ge 14.469999898896114 7.219999548853171 10.037211403640088
