48
Energy = -193.43938828 eV
Ge 16.013258306542227 10.567648602755584 11.473279176948465
Ge 12.490650062269612 10.341485347798221 10.329947570420314
Ge 12.547746305552234 9.82710743480431 16.09651008732469
Ge 5.611115477072018 13.215395645150075 10.309672537060992
Ge 13.03721290166944 12.131887788612966 14.724099491573321
Ge 15.007445823796342 10.077845862586845 14.416789798792784
Ge 11.889835442306277 13.740036587540889 11.753149408779459
Ge 12.108974956181742 7.951674853854009 13.974045041087043
Ge 9.919797312077359 15.393149220055426 13.591478794101958
Ge 17.18707371699132 11.910834068548013 9.502797364062959
Ge 7.168809085128489 10.247285003687004 13.428204346871349
Ge 9.75785770319562 7.879758675668466 12.684398675722838
Ge 8.194220593142413 13.046846774061953 11.48577567364763
Ge 11.182968750362642 14.095757900742491 9.235080607769055
Ge 15.305579127139843 13.644535967237085 9.752971310105533
Ge 7.250469472400731 11.525324985906675 9.253519293937408
Ge 12.024648919446685 8.425664026387597 7.417462462324325
Ge 9.326099506666964 12.541236924460366 7.9936114474507525
Ge 12.646697309159952 10.309841128635918 12.893642646903187
Ge 12.939965331096024 12.225900588288505 8.639738758612213
Ge 10.155435169200452 10.355775801363585 6.849986614542684
Ge 9.914652906516066 10.614211098647829 9.727352518785622
Ge 8.901245576368497 11.443362810227432 15.032009262389158
Ge 6.0513212414896 12.623498397550891 12.860440725038586
Ge 14.053690256295168 8.418428341637426 9.30540067439127
Ge 14.355170269591108 12.53776086986792 12.0745725475562
Ge 16.64079665746628 11.93591529927787 13.630610952039214
Ge 12.734883489527205 15.848149881171507 13.185864132966051
Ge 7.716946177287626 9.574980422033107 10.93774428572028
Ge 15.224599711784572 15.131038031205254 11.987582445367222
Ge 7.334898025587274 14.838601768171912 13.386870798581448
Ge 13.546411890479908 15.112626626669616 8.440317838531628
Ge 15.050328631148423 13.919029347374096 14.364853241546063
Ge 10.67977472415141 12.965341107722999 13.894858882241254
Ge 6.83102829026423 15.423437384744147 10.928095053579273
Ge 12.543317097275153 11.073251177806675 6.380519514607677
Ge 10.029440752991244 9.181206977814433 15.183760485197528
Ge 12.964980539358885 16.11765554141073 10.734995690584823
Ge 14.466490062270191 8.453123109591914 12.370292919320361
Ge 14.262807566090801 7.874115931128157 15.48544545615734
Ge 8.940759041559291 8.099667474456279 9.214586245504552
Ge 15.153684152767035 10.750657644309802 8.540926270773062
Ge 9.429547232068956 15.324162707577969 11.024219380664537
Ge 7.85312287412043 7.939024295239881 14.54614239135198
Ge 9.859941805451092 10.583425401928046 12.664812879636031
Ge 11.477900316497482 7.810968854291776 10.067747635492408
Ge 14.315594221853308 9.151557777537255 6.562011604973898
Ge 7.775237318097916 9.583040136715397 7.402280179987297
