46
Energy = -185.13170577 eV
Ge 4.800294693327973 11.292898845296344 6.097554131347003
Ge 4.90662604419921 4.839131905915674 11.372172071926412
Ge 8.716884903915636 2.8263193424585236 8.217374881650052
Ge 8.515257659569643 7.017614389957857 3.40380336897912
Ge 6.025841533183016 11.281695193721449 9.665568222447407
Ge 7.567290269076534 5.477405905006282 11.432643420759543
Ge 10.823761475889917 6.686863548319957 6.313973349400093
Ge 3.9299347276880314 7.753162718759166 3.2768529417145134
Ge 10.191227515994672 5.204917629799231 12.324513040414201
Ge 3.806310352950404 11.000552288637028 8.584556587110672
Ge 8.889623282921027 10.205559176130139 8.64537324472467
Ge 11.568237286259645 3.7093050205485576 10.780129192875568
Ge 7.066207133765861 12.657597713030716 5.458698679180778
Ge 10.18880641518876 13.296970988029859 8.38544411750233
Ge 10.244762093840311 7.648557460464284 11.385744299486932
Ge 4.8183271053014245 10.471144235974439 3.2749969645674226
Ge 7.890754663007685 8.136558089897797 12.164462502110101
Ge 7.413953131142629 4.90490507028496 4.496262781104481
Ge 9.367860388661644 8.784454772594879 5.077119832183819
Ge 11.87087719262106 4.7336740515601115 8.270269742988555
Ge 6.40370594306807 8.351838529038387 3.5116889576803927
Ge 4.090355145768778 3.3555971086328285 9.26590532968091
Ge 5.245883937025703 6.3378747239199695 5.202931923846264
Ge 7.5510343419096655 10.67088223025752 3.7018037368171037
Ge 6.117709996743641 5.60789877541682 8.986999268652507
Ge 9.197763040126711 4.566047086580294 6.339967551657225
Ge 10.007586705531853 7.20869522039011 8.70988043590409
Ge 5.267542201833446 8.62090741633309 6.673057337744481
Ge 3.899603251926022 5.1506454562097765 7.23783670239258
Ge 8.062474263982947 10.554579155841775 11.06045212098346
Ge 7.81090469490559 6.924639564234653 6.3256614176418875
Ge 4.893320517160575 8.676134327921158 9.162873133695001
Ge 11.254951664156708 10.529283141038244 5.3837913361170475
Ge 7.396429513877662 8.205432104637191 9.593453109487193
Ge 6.203609272379336 3.5699535633624144 7.334678818406958
Ge 3.217602899185416 9.461758317114755 5.163955808192948
Ge 12.855600719201012 7.217238758689759 8.085074888415965
Ge 12.666247586811828 6.194795545343646 10.57018770844436
Ge 7.4252194281052555 10.096314044043888 6.370417281110696
Ge 3.623895819348722 6.334250289198912 9.58197066461629
Ge 7.678863438074411 12.510032658083219 8.01708061635892
Ge 9.438929425232947 4.851648421759844 9.65782541982722
Ge 6.565435496936841 2.993579446609825 9.986101815644895
Ge 9.773801262257226 12.575545270182458 5.971878782192118
Ge 11.866896692416026 8.900553398879923 9.880304266815017
Ge 11.194014209613995 10.91680643597814 7.908927531287397
