5
Energy = -17.84607407 eV
Ge 9.824223439952203 7.037742699668384 7.979609653277007
Ge 10.235645743507352 9.608327303110103 8.674706205198785
Ge 7.807835995128634 8.328195992835186 7.431671455964788
Ge 12.025492678696178 8.128599980954341 7.881064918653405
Ge 8.243742861799012 8.826856846090385 9.862657586475127
