8
Energy = -31.05856477 eV
Ge 10.267711602364617 8.71844744354942 9.520278420228461
Ge 8.05361561300902 8.567390469091055 10.8585374563572
Ge 9.13645511448176 11.03489034348061 9.399860102734626
Ge 11.192035916460958 7.1770684561797085 7.853680401201812
Ge 6.587345512405953 10.585018351729637 9.97934772790719
Ge 8.65187464614384 6.80718863107602 8.47311717982607
Ge 9.746595637810612 9.188728089824098 6.896385687861887
Ge 7.55259811665487 9.14411302079794 8.251752102155015
