<?xml version="1.0" encoding="ISO-8859-1"?>
<modeling>
 <generator>
  <i name="program" type="string">vasp </i>
  <i name="version" type="string">5.3.5  </i>
  <i name="subversion" type="string">31Mar14 (build Feb 01 2018 12:10:03) gamma-only                       parallel </i>
  <i name="platform" type="string">LinuxIFC </i>
  <i name="date" type="string">2019 03 21 </i>
  <i name="time" type="string">21:36:45 </i>
 </generator>
 <incar>
  <i type="string" name="PREC">normal</i>
  <i type="int" name="ISPIN">     2</i>
  <i type="int" name="IBRION">     2</i>
  <i type="int" name="NSW">  1000</i>
  <i type="int" name="ISIF">     2</i>
  <i name="POTIM">      0.10000000</i>
  <i type="logical" name="LPLANE"> T  </i>
  <i type="int" name="ISMEAR">     0</i>
  <i name="SIGMA">      0.00010000</i>
  <i type="logical" name="LWAVE"> F  </i>
  <i type="logical" name="LCHARG"> F  </i>
  <i type="logical" name="LVTOT"> F  </i>
  <i type="string" name="GGA"> PE</i>
 </incar>
 <kpoints>
  <varray name="kpointlist" >
   <v>       0.00000000       0.00000000       0.00000000 </v>
  </varray>
  <varray name="weights" >
   <v>       1.00000000 </v>
  </varray>
 </kpoints>
 <parameters>
  <separator name="general" >
   <i type="string" name="SYSTEM">unknown system</i>
   <i type="logical" name="LCOMPAT"> F  </i>
  </separator>
  <separator name="electronic" >
   <i type="string" name="PREC">normal</i>
   <i name="ENMAX">    249.84400000</i>
   <i name="ENAUG">    412.49600000</i>
   <i name="EDIFF">      0.00010000</i>
   <i type="int" name="IALGO">    38</i>
   <i type="int" name="IWAVPR">    11</i>
   <i type="int" name="NBANDS">   152</i>
   <i name="NELECT">    231.00000000</i>
   <i type="int" name="TURBO">     0</i>
   <i type="int" name="IRESTART">     0</i>
   <i type="int" name="NREBOOT">     0</i>
   <i type="int" name="NMIN">     0</i>
   <i name="EREF">      0.00000000</i>
   <separator name="electronic smearing" >
    <i type="int" name="ISMEAR">     0</i>
    <i name="SIGMA">      0.00010000</i>
    <i name="KSPACING">      0.50000000</i>
    <i type="logical" name="KGAMMA"> T  </i>
   </separator>
   <separator name="electronic projectors" >
    <i type="logical" name="LREAL"> F  </i>
    <v name="ROPT">      0.00000000</v>
    <i type="int" name="LMAXPAW">  -100</i>
    <i type="int" name="LMAXMIX">     2</i>
    <i type="logical" name="NLSPLINE"> F  </i>
   </separator>
   <separator name="electronic startup" >
    <i type="int" name="ISTART">     0</i>
    <i type="int" name="ICHARG">     2</i>
    <i type="int" name="INIWAV">     1</i>
   </separator>
   <separator name="electronic spin" >
    <i type="int" name="ISPIN">     2</i>
    <i type="logical" name="LNONCOLLINEAR"> F  </i>
    <v name="MAGMOM">      1.00000000      1.00000000      1.00000000      1.00000000      1.00000000      1.00000000      1.00000000      1.00000000      1.00000000      1.00000000      1.00000000      1.00000000      1.00000000      1.00000000      1.00000000      1.00000000      1.00000000      1.00000000      1.00000000      1.00000000
      1.00000000</v>
    <i name="NUPDOWN">     -1.00000000</i>
    <i type="logical" name="LSORBIT"> F  </i>
    <v name="SAXIS">      0.00000000      0.00000000      1.00000000</v>
    <i type="logical" name="LSPIRAL"> F  </i>
    <v name="QSPIRAL">      0.00000000      0.00000000      0.00000000</v>
    <i type="logical" name="LZEROZ"> F  </i>
   </separator>
   <separator name="electronic exchange-correlation" >
    <i type="logical" name="LASPH"> F  </i>
    <i type="logical" name="LMETAGGA"> F  </i>
   </separator>
   <separator name="electronic convergence" >
    <i type="int" name="NELM">    60</i>
    <i type="int" name="NELMDL">    -5</i>
    <i type="int" name="NELMIN">     2</i>
    <i name="ENINI">    249.84400000</i>
    <separator name="electronic convergence detail" >
     <i type="logical" name="LDIAG"> T  </i>
     <i type="logical" name="LSUBROT"> F  </i>
     <i name="WEIMIN">      0.00100000</i>
     <i name="EBREAK">      0.00000016</i>
     <i name="DEPER">      0.30000000</i>
     <i type="int" name="NRMM">     4</i>
     <i name="TIME">      0.40000000</i>
    </separator>
   </separator>
   <separator name="electronic mixer" >
    <i name="AMIX">      0.40000000</i>
    <i name="BMIX">      1.00000000</i>
    <i name="AMIN">      0.10000000</i>
    <i name="AMIX_MAG">      1.60000000</i>
    <i name="BMIX_MAG">      1.00000000</i>
    <separator name="electronic mixer details" >
     <i type="int" name="IMIX">     4</i>
     <i type="int" name="MAXMIX">   -45</i>
     <i name="WC">    100.00000000</i>
     <i type="int" name="INIMIX">     1</i>
     <i type="int" name="MIXPRE">     1</i>
     <i type="int" name="MREMOVE">     5</i>
    </separator>
   </separator>
   <separator name="electronic dipolcorrection" >
    <i type="logical" name="LDIPOL"> F  </i>
    <i type="logical" name="LMONO"> F  </i>
    <i type="int" name="IDIPOL">     0</i>
    <i name="EPSILON">      1.00000000</i>
    <v name="DIPOL">   -100.00000000   -100.00000000   -100.00000000</v>
    <i name="EFIELD">      0.00000000</i>
   </separator>
  </separator>
  <separator name="grids" >
   <i type="int" name="NGX">    80</i>
   <i type="int" name="NGY">    80</i>
   <i type="int" name="NGZ">    80</i>
   <i type="int" name="NGXF">   160</i>
   <i type="int" name="NGYF">   160</i>
   <i type="int" name="NGZF">   160</i>
   <i type="logical" name="ADDGRID"> F  </i>
  </separator>
  <separator name="ionic" >
   <i type="int" name="NSW">  1000</i>
   <i type="int" name="IBRION">     2</i>
   <i type="int" name="ISIF">     2</i>
   <i name="PSTRESS">      0.00000000</i>
   <i name="EDIFFG">      0.00100000</i>
   <i type="int" name="NFREE">     1</i>
   <i name="POTIM">      0.10000000</i>
   <i name="SMASS">     -3.00000000</i>
   <i name="SCALEE">      1.00000000</i>
  </separator>
  <separator name="ionic md" >
   <i name="TEBEG">      0.00010000</i>
   <i name="TEEND">      0.00010000</i>
   <i type="int" name="NBLOCK">     1</i>
   <i type="int" name="KBLOCK">  1000</i>
   <i type="int" name="NPACO">   256</i>
   <i name="APACO">     16.00000000</i>
  </separator>
  <separator name="symmetry" >
   <i type="int" name="ISYM">     2</i>
   <i name="SYMPREC">      0.00001000</i>
  </separator>
  <separator name="dos" >
   <i type="logical" name="LORBIT"> F  </i>
   <v name="RWIGS">     -1.00000000</v>
   <i type="int" name="NEDOS">   301</i>
   <i name="EMIN">     10.00000000</i>
   <i name="EMAX">    -10.00000000</i>
   <i name="EFERMI">      0.00000000</i>
  </separator>
  <separator name="writing" >
   <i type="int" name="NWRITE">     2</i>
   <i type="logical" name="LWAVE"> F  </i>
   <i type="logical" name="LCHARG"> F  </i>
   <i type="logical" name="LPARD"> F  </i>
   <i type="logical" name="LVTOT"> F  </i>
   <i type="logical" name="LVHAR"> F  </i>
   <i type="logical" name="LELF"> F  </i>
   <i type="logical" name="LOPTICS"> F  </i>
   <v name="STM">      0.00000000      0.00000000      0.00000000      0.00000000      0.00000000      0.00000000      0.00000000</v>
  </separator>
  <separator name="performance" >
   <i type="int" name="NPAR">     4</i>
   <i type="int" name="NSIM">     4</i>
   <i type="int" name="NBLK">    -1</i>
   <i type="logical" name="LPLANE"> T  </i>
   <i type="logical" name="LSCALAPACK"> T  </i>
   <i type="logical" name="LSCAAWARE"> F  </i>
   <i type="logical" name="LSCALU"> F  </i>
   <i type="logical" name="LASYNC"> F  </i>
   <i type="logical" name="LORBITALREAL"> F  </i>
  </separator>
  <separator name="miscellaneous" >
   <i type="int" name="IDIOT">     3</i>
   <i type="logical" name="LMUSIC"> F  </i>
   <v name="POMASS">    107.86800000</v>
   <v name="DARWINR">      0.00000000</v>
   <v name="DARWINV">      1.00000000</v>
   <i type="logical" name="LCORR"> T  </i>
  </separator>
  <i type="logical" name="GGA_COMPAT"> T  </i>
  <i type="logical" name="LBERRY"> F  </i>
  <i type="int" name="ICORELEVEL">     0</i>
  <i type="logical" name="LDAU"> F  </i>
  <i type="int" name="I_CONSTRAINED_M">     0</i>
  <separator name="electronic exchange-correlation" >
   <i type="string" name="GGA">PE</i>
   <i type="int" name="VOSKOWN">     0</i>
   <i type="logical" name="LHFCALC"> F  </i>
   <i type="string" name="PRECFOCK"></i>
   <i type="logical" name="LSYMGRAD"> F  </i>
   <i type="logical" name="LHFONE"> F  </i>
   <i type="logical" name="LRHFCALC"> F  </i>
   <i type="logical" name="LTHOMAS"> F  </i>
   <i type="logical" name="LMODELHF"> F  </i>
   <i name="ENCUT4O">     -1.00000000</i>
   <i type="int" name="EXXOEP">     0</i>
   <i type="int" name="FOURORBIT">     0</i>
   <i name="AEXX">      0.00000000</i>
   <i name="HFALPHA">      0.00000000</i>
   <i name="MCALPHA">      0.00000000</i>
   <i name="ALDAX">      1.00000000</i>
   <i name="AGGAX">      1.00000000</i>
   <i name="ALDAC">      1.00000000</i>
   <i name="AGGAC">      1.00000000</i>
   <i type="int" name="NKREDX">     1</i>
   <i type="int" name="NKREDY">     1</i>
   <i type="int" name="NKREDZ">     1</i>
   <i type="logical" name="SHIFTRED"> F  </i>
   <i type="logical" name="ODDONLY"> F  </i>
   <i type="logical" name="EVENONLY"> F  </i>
   <i type="int" name="LMAXFOCK">     0</i>
   <i type="int" name="NMAXFOCKAE">     0</i>
   <i type="logical" name="LFOCKAEDFT"> F  </i>
   <i name="HFSCREEN">      0.00000000</i>
   <i name="HFSCREENC">      0.00000000</i>
   <i type="int" name="NBANDSGWLOW">     0</i>
  </separator>
  <separator name="vdW DFT" >
   <i type="logical" name="LUSE_VDW"> F  </i>
   <i name="Zab_VDW">     -0.84910000</i>
   <i name="PARAM1">      0.12340000</i>
   <i name="PARAM2">      1.00000000</i>
   <i name="PARAM3">      0.00000000</i>
  </separator>
  <separator name="model GW" >
   <i type="int" name="MODEL_GW">     0</i>
   <i name="MODEL_EPS0">    231.10575041</i>
   <i name="MODEL_ALPHA">      1.00000000</i>
  </separator>
  <separator name="linear response parameters" >
   <i type="logical" name="LEPSILON"> F  </i>
   <i type="logical" name="LRPA"> F  </i>
   <i type="logical" name="LNABLA"> F  </i>
   <i type="logical" name="LVEL"> F  </i>
   <i type="int" name="KINTER">     0</i>
   <i name="CSHIFT">      0.10000000</i>
   <i name="OMEGAMAX">     -1.00000000</i>
   <i name="DEG_THRESHOLD">      0.00200000</i>
  </separator>
  <separator name="orbital magnetization" >
   <i type="logical" name="NUCIND"> F  </i>
   <v name="MAGPOS">      0.00000000      0.00000000      0.00000000</v>
   <i type="logical" name="LNICSALL"> T  </i>
   <i type="logical" name="ORBITALMAG"> F  </i>
   <i type="logical" name="LMAGBLOCH"> F  </i>
   <i type="logical" name="LCHIMAG"> F  </i>
   <i type="logical" name="LGAUGE"> T  </i>
   <i type="int" name="MAGATOM">     0</i>
   <v name="MAGDIPOL">      0.00000000      0.00000000      0.00000000</v>
   <v name="AVECCONST">      0.00000000      0.00000000      0.00000000</v>
  </separator>
  <separator name="response functions" >
   <i type="logical" name="LADDER"> F  </i>
   <i type="logical" name="LFXC"> F  </i>
   <i type="logical" name="LHARTREE"> T  </i>
   <i type="int" name="IBSE">     0</i>
   <i type="logical" name="LTCTE"> F  </i>
   <i type="logical" name="LTETE"> F  </i>
   <i type="logical" name="LTRIPLET"> F  </i>
   <i type="logical" name="LFXCEPS"> F  </i>
   <i type="logical" name="LFXHEG"> F  </i>
   <i type="logical" name="L2ORDER"> F  </i>
   <i type="logical" name="LUSEW"> F  </i>
   <i name="ENCUTGW">     -2.00000000</i>
   <i name="ENCUTGWSOFT">     -2.00000000</i>
   <i name="ENCUTLF">     -1.00000000</i>
   <i type="int" name="LMAXMP2">    -1</i>
   <i name="SCISSOR">      0.00000000</i>
   <i type="int" name="NOMEGA">     0</i>
   <i type="int" name="NOMEGAR">     0</i>
   <i type="int" name="NBANDSGW">    -1</i>
   <i type="int" name="NBANDSO">    -1</i>
   <i type="int" name="NBANDSV">    -1</i>
   <i type="int" name="NELM">     1</i>
   <i type="int" name="DIM">     3</i>
   <i type="int" name="ANTIRES">     0</i>
   <i name="OMEGAMAX">    -30.00000000</i>
   <i name="OMEGAMIN">    -30.00000000</i>
   <i name="OMEGATL">   -200.00000000</i>
   <i type="int" name="OMEGAGRID">     0</i>
   <i name="CSHIFT">     -0.10000000</i>
   <i type="logical" name="SELFENERGY"> F  </i>
   <i type="logical" name="LSPECTRAL"> F  </i>
   <i type="logical" name="ODDONLYGW"> F  </i>
   <i type="logical" name="EVENONLYGW"> F  </i>
   <i type="int" name="NKREDLFX">     1</i>
   <i type="int" name="NKREDLFY">     1</i>
   <i type="int" name="NKREDLFZ">     1</i>
   <i type="int" name="MAXMEM">  1800</i>
   <i type="int" name="TELESCOPE">     0</i>
   <i type="int" name="TAUPAR">     1</i>
  </separator>
  <separator name="External order field" >
   <i name="OFIELD_KAPPA">      0.00000000</i>
   <v name="OFIELD_K">      0.00000000      0.00000000      0.00000000</v>
   <i name="OFIELD_Q6_NEAR">      0.00000000</i>
   <i name="OFIELD_Q6_FAR">      0.00000000</i>
   <i name="OFIELD_A">      0.00000000</i>
  </separator>
 </parameters>
 <atominfo>
  <atoms>      21 </atoms>
  <types>       1 </types>
  <array name="atoms" >
   <dimension dim="1">ion</dimension>
   <field type="string">element</field>
   <field type="int">atomtype</field>
   <set>
    <rc><c>Ag</c><c>   1</c></rc>
    <rc><c>Ag</c><c>   1</c></rc>
    <rc><c>Ag</c><c>   1</c></rc>
    <rc><c>Ag</c><c>   1</c></rc>
    <rc><c>Ag</c><c>   1</c></rc>
    <rc><c>Ag</c><c>   1</c></rc>
    <rc><c>Ag</c><c>   1</c></rc>
    <rc><c>Ag</c><c>   1</c></rc>
    <rc><c>Ag</c><c>   1</c></rc>
    <rc><c>Ag</c><c>   1</c></rc>
    <rc><c>Ag</c><c>   1</c></rc>
    <rc><c>Ag</c><c>   1</c></rc>
    <rc><c>Ag</c><c>   1</c></rc>
    <rc><c>Ag</c><c>   1</c></rc>
    <rc><c>Ag</c><c>   1</c></rc>
    <rc><c>Ag</c><c>   1</c></rc>
    <rc><c>Ag</c><c>   1</c></rc>
    <rc><c>Ag</c><c>   1</c></rc>
    <rc><c>Ag</c><c>   1</c></rc>
    <rc><c>Ag</c><c>   1</c></rc>
    <rc><c>Ag</c><c>   1</c></rc>
   </set>
  </array>
  <array name="atomtypes" >
   <dimension dim="1">type</dimension>
   <field type="int">atomspertype</field>
   <field type="string">element</field>
   <field>mass</field>
   <field>valence</field>
   <field type="string">pseudopotential</field>
   <set>
    <rc><c>  21</c><c>Ag</c><c>    107.86800000</c><c>     11.00000000</c><c>  PAW_PBE Ag 02Apr2005                  </c></rc>
   </set>
  </array>
 </atominfo>
 <structure name="initialpos" >
  <crystal>
   <varray name="basis" >
    <v>      20.07364620       0.00000000       0.00000000 </v>
    <v>       0.00000000      20.07364620       0.00000000 </v>
    <v>       0.00000000       0.00000000      20.07364620 </v>
   </varray>
   <i name="volume">   8088.70126436 </i>
   <varray name="rec_basis" >
    <v>       0.04981656       0.00000000       0.00000000 </v>
    <v>       0.00000000       0.04981656       0.00000000 </v>
    <v>       0.00000000       0.00000000       0.04981656 </v>
   </varray>
  </crystal>
  <varray name="positions" >
   <v>       0.69842836       0.44747679       0.45599287 </v>
   <v>       0.59062840       0.61173302       0.55773064 </v>
   <v>       0.63562249       0.56342060       0.44293587 </v>
   <v>       0.61474624       0.46015468       0.55953748 </v>
   <v>       0.59616881       0.54487288       0.67542627 </v>
   <v>       0.64816528       0.42482577       0.68612467 </v>
   <v>       0.53602037       0.66455198       0.66846699 </v>
   <v>       0.53553318       0.65745125       0.44210114 </v>
   <v>       0.58503301       0.37908604       0.45531138 </v>
   <v>       0.53005333       0.56591561       0.34765355 </v>
   <v>       0.52148219       0.49436334       0.46101137 </v>
   <v>       0.51951490       0.43522686       0.64875624 </v>
   <v>       0.46088002       0.56140203       0.62163161 </v>
   <v>       0.46000989       0.34128146       0.46982245 </v>
   <v>       0.46398495       0.68297191       0.55626635 </v>
   <v>       0.41232753       0.56984113       0.49252612 </v>
   <v>       0.46084719       0.32651845       0.60098686 </v>
   <v>       0.42797892       0.44998174       0.55352145 </v>
   <v>       0.39771395       0.57439990       0.35883547 </v>
   <v>       0.40383670       0.45087786       0.41473303 </v>
   <v>       0.40525335       0.69472156       0.43711333 </v>
  </varray>
 </structure>
 <calculation>
  <scstep>
   <time name="dav">    1.89    1.89</time>
   <time name="total">    2.13    2.16</time>
   <energy>
    <i name="alphaZ">     46.37393769 </i>
    <i name="ewald">  34894.29769295 </i>
    <i name="hartreedc"> -55766.62161743 </i>
    <i name="XCdc">   -231.11249947 </i>
    <i name="pawpsdc">  21070.81573946 </i>
    <i name="pawaedc"> -20102.55678646 </i>
    <i name="eentropy">      0.00000000 </i>
    <i name="bandstr">    322.26807398 </i>
    <i name="atom">  21781.17123181 </i>
    <i name="e_fr_energy">   2014.63577254 </i>
    <i name="e_wo_entrp">   2014.63577254 </i>
    <i name="e_0_energy">   2014.63577254 </i>
   </energy>
  </scstep>
  <scstep>
   <time name="dav">    2.92    2.92</time>
   <time name="total">    2.93    2.93</time>
   <energy>
    <i name="e_fr_energy">    473.21872434 </i>
    <i name="e_wo_entrp">    473.21872434 </i>
    <i name="e_0_energy">    473.21872434 </i>
   </energy>
  </scstep>
  <scstep>
   <time name="dav">    2.38    2.38</time>
   <time name="total">    2.38    2.65</time>
   <energy>
    <i name="e_fr_energy">    -12.99369038 </i>
    <i name="e_wo_entrp">    -12.99369038 </i>
    <i name="e_0_energy">    -12.99369038 </i>
   </energy>
  </scstep>
  <scstep>
   <time name="dav">    2.02    2.02</time>
   <time name="total">    2.03    2.04</time>
   <energy>
    <i name="e_fr_energy">    -40.26853687 </i>
    <i name="e_wo_entrp">    -40.26853687 </i>
    <i name="e_0_energy">    -40.26853687 </i>
   </energy>
  </scstep>
  <scstep>
   <time name="dav">    2.06    2.06</time>
   <time name="total">    2.15    2.97</time>
   <energy>
    <i name="e_fr_energy">    -40.64797934 </i>
    <i name="e_wo_entrp">    -40.64797934 </i>
    <i name="e_0_energy">    -40.64797934 </i>
   </energy>
  </scstep>
  <scstep>
   <time name="dav">    1.91    1.91</time>
   <time name="total">    2.23    2.23</time>
   <energy>
    <i name="e_fr_energy">    -11.50409579 </i>
    <i name="e_wo_entrp">    -11.50409579 </i>
    <i name="e_0_energy">    -11.50409579 </i>
   </energy>
  </scstep>
  <scstep>
   <time name="dav">    1.98    1.98</time>
   <time name="total">    2.30    3.88</time>
   <energy>
    <i name="e_fr_energy">     -8.78809897 </i>
    <i name="e_wo_entrp">     -8.78809897 </i>
    <i name="e_0_energy">     -8.78809897 </i>
   </energy>
  </scstep>
  <scstep>
   <time name="dav">    2.02    2.02</time>
   <time name="total">    2.34    2.35</time>
   <energy>
    <i name="e_fr_energy">    -11.99732650 </i>
    <i name="e_wo_entrp">    -11.99732650 </i>
    <i name="e_0_energy">    -11.99732650 </i>
   </energy>
  </scstep>
  <scstep>
   <time name="dav">    2.02    2.02</time>
   <time name="total">    2.34    3.45</time>
   <energy>
    <i name="e_fr_energy">    -12.84403061 </i>
    <i name="e_wo_entrp">    -12.84403061 </i>
    <i name="e_0_energy">    -12.84403061 </i>
   </energy>
  </scstep>
  <scstep>
   <time name="dav">    1.98    1.98</time>
   <time name="total">    2.30    2.31</time>
   <energy>
    <i name="e_fr_energy">    -18.76360318 </i>
    <i name="e_wo_entrp">    -18.76360318 </i>
    <i name="e_0_energy">    -18.76360318 </i>
   </energy>
  </scstep>
  <scstep>
   <time name="dav">    1.89    1.89</time>
   <time name="total">    2.22    2.22</time>
   <energy>
    <i name="e_fr_energy">    -28.38645750 </i>
    <i name="e_wo_entrp">    -28.38645750 </i>
    <i name="e_0_energy">    -28.38645750 </i>
   </energy>
  </scstep>
  <scstep>
   <time name="dav">    1.97    1.97</time>
   <time name="total">    2.29    2.31</time>
   <energy>
    <i name="e_fr_energy">    -32.90423958 </i>
    <i name="e_wo_entrp">    -32.90423958 </i>
    <i name="e_0_energy">    -32.90423958 </i>
   </energy>
  </scstep>
  <scstep>
   <time name="dav">    2.21    2.21</time>
   <time name="total">    2.53    2.54</time>
   <energy>
    <i name="e_fr_energy">    -33.00821046 </i>
    <i name="e_wo_entrp">    -33.00821046 </i>
    <i name="e_0_energy">    -33.00821046 </i>
   </energy>
  </scstep>
  <scstep>
   <time name="dav">    1.95    1.95</time>
   <time name="total">    2.28    2.29</time>
   <energy>
    <i name="e_fr_energy">    -34.14188866 </i>
    <i name="e_wo_entrp">    -34.14188866 </i>
    <i name="e_0_energy">    -34.14188866 </i>
   </energy>
  </scstep>
  <scstep>
   <time name="dav">    1.90    1.90</time>
   <time name="total">    2.22    2.25</time>
   <energy>
    <i name="e_fr_energy">    -37.17819020 </i>
    <i name="e_wo_entrp">    -37.17819020 </i>
    <i name="e_0_energy">    -37.17819020 </i>
   </energy>
  </scstep>
  <scstep>
   <time name="dav">    1.97    1.97</time>
   <time name="total">    2.30    2.30</time>
   <energy>
    <i name="e_fr_energy">    -38.23932242 </i>
    <i name="e_wo_entrp">    -38.23932242 </i>
    <i name="e_0_energy">    -38.23932242 </i>
   </energy>
  </scstep>
  <scstep>
   <time name="dav">    1.94    1.94</time>
   <time name="total">    2.26    2.87</time>
   <energy>
    <i name="e_fr_energy">    -39.02304534 </i>
    <i name="e_wo_entrp">    -39.02304534 </i>
    <i name="e_0_energy">    -39.02304534 </i>
   </energy>
  </scstep>
  <scstep>
   <time name="dav">    2.01    2.01</time>
   <time name="total">    2.33    2.35</time>
   <energy>
    <i name="e_fr_energy">    -39.71894946 </i>
    <i name="e_wo_entrp">    -39.71894946 </i>
    <i name="e_0_energy">    -39.71894946 </i>
   </energy>
  </scstep>
  <scstep>
   <time name="dav">    2.01    2.01</time>
   <time name="total">    2.34    2.79</time>
   <energy>
    <i name="e_fr_energy">    -39.92507211 </i>
    <i name="e_wo_entrp">    -39.92507211 </i>
    <i name="e_0_energy">    -39.92507211 </i>
   </energy>
  </scstep>
  <scstep>
   <time name="dav">    2.01    2.01</time>
   <time name="total">    2.34    2.69</time>
   <energy>
    <i name="e_fr_energy">    -40.02914573 </i>
    <i name="e_wo_entrp">    -40.02914573 </i>
    <i name="e_0_energy">    -40.02914573 </i>
   </energy>
  </scstep>
  <scstep>
   <time name="dav">    1.96    1.96</time>
   <time name="total">    2.29    2.87</time>
   <energy>
    <i name="e_fr_energy">    -40.07871659 </i>
    <i name="e_wo_entrp">    -40.07871659 </i>
    <i name="e_0_energy">    -40.07871659 </i>
   </energy>
  </scstep>
  <scstep>
   <time name="dav">    1.58    1.58</time>
   <time name="total">    1.91    1.92</time>
   <energy>
    <i name="e_fr_energy">    -40.08497777 </i>
    <i name="e_wo_entrp">    -40.08497777 </i>
    <i name="e_0_energy">    -40.08497777 </i>
   </energy>
  </scstep>
  <scstep>
   <time name="dav">    1.54    1.55</time>
   <time name="total">    1.88    1.92</time>
   <energy>
    <i name="e_fr_energy">    -40.08887087 </i>
    <i name="e_wo_entrp">    -40.08887087 </i>
    <i name="e_0_energy">    -40.08887087 </i>
   </energy>
  </scstep>
  <scstep>
   <time name="dav">    1.56    1.56</time>
   <time name="total">    1.89    1.93</time>
   <energy>
    <i name="e_fr_energy">    -40.09167638 </i>
    <i name="e_wo_entrp">    -40.09167638 </i>
    <i name="e_0_energy">    -40.09167638 </i>
   </energy>
  </scstep>
  <scstep>
   <time name="dav">    1.52    1.52</time>
   <time name="total">    1.86    1.87</time>
   <energy>
    <i name="e_fr_energy">    -40.09347748 </i>
    <i name="e_wo_entrp">    -40.09347748 </i>
    <i name="e_0_energy">    -40.09347748 </i>
   </energy>
  </scstep>
  <scstep>
   <time name="dav">    1.48    1.49</time>
   <time name="total">    1.82    2.10</time>
   <energy>
    <i name="e_fr_energy">    -40.09438945 </i>
    <i name="e_wo_entrp">    -40.09438945 </i>
    <i name="e_0_energy">    -40.09438945 </i>
   </energy>
  </scstep>
  <scstep>
   <time name="dav">    1.53    1.53</time>
   <time name="total">    1.76    1.88</time>
   <energy>
    <i name="alphaZ">     46.37393769 </i>
    <i name="ewald">  34894.29769295 </i>
    <i name="hartreedc"> -55752.58208772 </i>
    <i name="XCdc">   -238.37999071 </i>
    <i name="pawpsdc">  22890.37155410 </i>
    <i name="pawaedc"> -21962.30198664 </i>
    <i name="eentropy">      0.00000000 </i>
    <i name="bandstr">  -1699.04481557 </i>
    <i name="atom">  21781.17123181 </i>
    <i name="e_fr_energy">    -40.09446410 </i>
    <i name="e_wo_entrp">    -40.09446410 </i>
    <i name="e_0_energy">    -40.09446410 </i>
   </energy>
  </scstep>
  <structure>
   <crystal>
    <varray name="basis" >
     <v>      20.07364620       0.00000000       0.00000000 </v>
     <v>       0.00000000      20.07364620       0.00000000 </v>
     <v>       0.00000000       0.00000000      20.07364620 </v>
    </varray>
    <i name="volume">   8088.70126436 </i>
    <varray name="rec_basis" >
     <v>       0.04981656       0.00000000       0.00000000 </v>
     <v>       0.00000000       0.04981656       0.00000000 </v>
     <v>       0.00000000       0.00000000       0.04981656 </v>
    </varray>
   </crystal>
   <varray name="positions" >
    <v>       0.69842836       0.44747679       0.45599287 </v>
    <v>       0.59062840       0.61173302       0.55773064 </v>
    <v>       0.63562249       0.56342060       0.44293587 </v>
    <v>       0.61474624       0.46015468       0.55953748 </v>
    <v>       0.59616881       0.54487288       0.67542627 </v>
    <v>       0.64816528       0.42482577       0.68612467 </v>
    <v>       0.53602037       0.66455198       0.66846699 </v>
    <v>       0.53553318       0.65745125       0.44210114 </v>
    <v>       0.58503301       0.37908604       0.45531138 </v>
    <v>       0.53005333       0.56591561       0.34765355 </v>
    <v>       0.52148219       0.49436334       0.46101137 </v>
    <v>       0.51951490       0.43522686       0.64875624 </v>
    <v>       0.46088002       0.56140203       0.62163161 </v>
    <v>       0.46000989       0.34128146       0.46982245 </v>
    <v>       0.46398495       0.68297191       0.55626635 </v>
    <v>       0.41232753       0.56984113       0.49252612 </v>
    <v>       0.46084719       0.32651845       0.60098686 </v>
    <v>       0.42797892       0.44998174       0.55352145 </v>
    <v>       0.39771395       0.57439990       0.35883547 </v>
    <v>       0.40383670       0.45087786       0.41473303 </v>
    <v>       0.40525335       0.69472156       0.43711333 </v>
   </varray>
  </structure>
  <varray name="forces" >
   <v>       0.63589878       0.01149411      -0.14908896 </v>
   <v>       0.08826578      -0.12325491       0.11600150 </v>
   <v>       0.38596148       0.05926521      -0.22288384 </v>
   <v>       0.46661105       0.73975961       0.00525809 </v>
   <v>       0.06896924       0.19373628       0.01415157 </v>
   <v>       0.46698555      -0.48306369       0.31122782 </v>
   <v>      -0.00080707       0.38576833       0.59510304 </v>
   <v>      -0.00517065       0.10099705      -0.03714876 </v>
   <v>       0.20248325      -0.55771817      -0.39785653 </v>
   <v>       0.31120921      -0.24674925      -0.66352043 </v>
   <v>       0.14136572       0.03058689       0.10812515 </v>
   <v>      -0.27682292      -0.09136825       0.61969969 </v>
   <v>       0.15523440      -0.03717589       0.19112614 </v>
   <v>      -0.21571070      -0.03450402      -0.15400851 </v>
   <v>      -0.06538467       0.23768267       0.24389743 </v>
   <v>      -0.39500344       0.27407189       0.05176017 </v>
   <v>      -0.34343061      -0.35287730       0.32109646 </v>
   <v>      -0.44471463      -0.47019802      -0.09746178 </v>
   <v>      -0.34555607       0.42043137      -0.18520815 </v>
   <v>      -0.42921486      -0.05694805      -0.17306336 </v>
   <v>      -0.40116882       0.00006410      -0.49720672 </v>
  </varray>
  <varray name="stress" >
   <v>       0.73815981      -0.10752284       0.18414099 </v>
   <v>      -0.10752285      -0.15283593      -0.11268800 </v>
   <v>       0.18414099      -0.11268800       0.68991100 </v>
  </varray>
  <energy>
   <i name="e_fr_energy">    -40.09446410 </i>
   <i name="e_wo_entrp">    -40.09446410 </i>
   <i name="e_0_energy">      0.00000000 </i>
  </energy>
  <time name="totalsc">   62.94   69.35</time>
 </calculation>
 <calculation>
  <scstep>
   <time name="dav">    2.02    2.02</time>
   <time name="total">    2.34    2.36</time>
   <energy>
    <i name="alphaZ">     46.37393769 </i>
    <i name="ewald">  34801.81037505 </i>
    <i name="hartreedc"> -55660.68657773 </i>
    <i name="XCdc">   -238.52277867 </i>
    <i name="pawpsdc">  22890.38584033 </i>
    <i name="pawaedc"> -21962.31619445 </i>
    <i name="eentropy">      0.00000000 </i>
    <i name="bandstr">  -1698.36781892 </i>
    <i name="atom">  21781.17123181 </i>
    <i name="e_fr_energy">    -40.15198488 </i>
    <i name="e_wo_entrp">    -40.15198488 </i>
    <i name="e_0_energy">    -40.15198488 </i>
   </energy>
  </scstep>
  <scstep>
   <time name="dav">    2.00    2.00</time>
   <time name="total">    2.32    2.33</time>
   <energy>
    <i name="e_fr_energy">    -40.15394455 </i>
    <i name="e_wo_entrp">    -40.15394455 </i>
    <i name="e_0_energy">    -40.15394455 </i>
   </energy>
  </scstep>
  <scstep>
   <time name="dav">    1.98    1.98</time>
   <time name="total">    2.22    2.22</time>
   <energy>
    <i name="alphaZ">     46.37393769 </i>
    <i name="ewald">  34801.81037505 </i>
    <i name="hartreedc"> -55661.42470555 </i>
    <i name="XCdc">   -238.50190791 </i>
    <i name="pawpsdc">  22876.84407765 </i>
    <i name="pawaedc"> -21948.56270509 </i>
    <i name="eentropy">      0.00000000 </i>
    <i name="bandstr">  -1697.86421620 </i>
    <i name="atom">  21781.17123181 </i>
    <i name="e_fr_energy">    -40.15391254 </i>
    <i name="e_wo_entrp">    -40.15391254 </i>
    <i name="e_0_energy">    -40.15391254 </i>
   </energy>
  </scstep>
  <structure>
   <crystal>
    <varray name="basis" >
     <v>      20.07364620       0.00000000       0.00000000 </v>
     <v>       0.00000000      20.07364620       0.00000000 </v>
     <v>       0.00000000       0.00000000      20.07364620 </v>
    </varray>
    <i name="volume">   8088.70126436 </i>
    <varray name="rec_basis" >
     <v>       0.04981656       0.00000000       0.00000000 </v>
     <v>       0.00000000       0.04981656       0.00000000 </v>
     <v>       0.00000000       0.00000000       0.04981656 </v>
    </varray>
   </crystal>
   <varray name="positions" >
    <v>       0.69873401       0.44748231       0.45592120 </v>
    <v>       0.59067083       0.61167377       0.55778640 </v>
    <v>       0.63580801       0.56344909       0.44282874 </v>
    <v>       0.61497052       0.46051025       0.55954001 </v>
    <v>       0.59620196       0.54496600       0.67543307 </v>
    <v>       0.64838974       0.42459358       0.68627427 </v>
    <v>       0.53601999       0.66473740       0.66875304 </v>
    <v>       0.53553069       0.65749980       0.44208328 </v>
    <v>       0.58513034       0.37881797       0.45512015 </v>
    <v>       0.53020292       0.56579701       0.34733462 </v>
    <v>       0.52155014       0.49437804       0.46106334 </v>
    <v>       0.51938184       0.43518294       0.64905410 </v>
    <v>       0.46095463       0.56138416       0.62172347 </v>
    <v>       0.45990620       0.34126487       0.46974842 </v>
    <v>       0.46395353       0.68308616       0.55638358 </v>
    <v>       0.41213766       0.56997286       0.49255100 </v>
    <v>       0.46068211       0.32634883       0.60114120 </v>
    <v>       0.42776517       0.44975574       0.55347461 </v>
    <v>       0.39754786       0.57460198       0.35874645 </v>
    <v>       0.40363039       0.45085049       0.41464985 </v>
    <v>       0.40506053       0.69472159       0.43687434 </v>
   </varray>
  </structure>
  <varray name="forces" >
   <v>       0.59402714       0.00357201      -0.14098625 </v>
   <v>       0.07280407      -0.10959474       0.10788566 </v>
   <v>       0.35965042       0.05744940      -0.21290646 </v>
   <v>       0.43958573       0.70058145       0.01230752 </v>
   <v>       0.07544840       0.15427957       0.02190437 </v>
   <v>       0.41875783      -0.43738974       0.27946010 </v>
   <v>      -0.00155399       0.36085148       0.56097561 </v>
   <v>      -0.01553102       0.07253967      -0.04289385 </v>
   <v>       0.20703569      -0.50030692      -0.36561894 </v>
   <v>       0.28815066      -0.23418458      -0.61237800 </v>
   <v>       0.12152013       0.02390498       0.09630234 </v>
   <v>      -0.24132219      -0.08704687       0.57179572 </v>
   <v>       0.15337261      -0.04265186       0.16779342 </v>
   <v>      -0.20013692      -0.03118123      -0.13733135 </v>
   <v>      -0.06425351       0.22356150       0.22027066 </v>
   <v>      -0.36964837       0.24432251       0.05492058 </v>
   <v>      -0.33313070      -0.33207031       0.30062763 </v>
   <v>      -0.41512842      -0.43102211      -0.08562403 </v>
   <v>      -0.31227698       0.39934853      -0.17267505 </v>
   <v>      -0.40255785      -0.03220042      -0.16033495 </v>
   <v>      -0.37481272      -0.00276230      -0.46349471 </v>
  </varray>
  <varray name="stress" >
   <v>       0.60243420      -0.10558110       0.16912376 </v>
   <v>      -0.10558110      -0.26919389      -0.12097905 </v>
   <v>       0.16912376      -0.12097905       0.55019575 </v>
  </varray>
  <energy>
   <i name="e_fr_energy">    -40.15391254 </i>
   <i name="e_wo_entrp">    -40.15391254 </i>
   <i name="e_0_energy">      0.00000000 </i>
  </energy>
  <time name="totalsc">   10.14   10.70</time>
 </calculation>
 <calculation>
  <scstep>
   <time name="dav">    1.98    1.98</time>
   <time name="total">    2.30    3.00</time>
   <energy>
    <i name="alphaZ">     46.37393769 </i>
    <i name="ewald">  34525.81510928 </i>
    <i name="hartreedc"> -55387.76757030 </i>
    <i name="XCdc">   -238.91544467 </i>
    <i name="pawpsdc">  22869.55058888 </i>
    <i name="pawaedc"> -21941.15019134 </i>
    <i name="eentropy">      0.00000000 </i>
    <i name="bandstr">  -1695.36909395 </i>
    <i name="atom">  21781.17123181 </i>
    <i name="e_fr_energy">    -40.29143261 </i>
    <i name="e_wo_entrp">    -40.29143261 </i>
    <i name="e_0_energy">    -40.29143261 </i>
   </energy>
  </scstep>
  <scstep>
   <time name="dav">    1.98    1.99</time>
   <time name="total">    2.31    2.32</time>
   <energy>
    <i name="e_fr_energy">    -40.30856936 </i>
    <i name="e_wo_entrp">    -40.30856936 </i>
    <i name="e_0_energy">    -40.30856936 </i>
   </energy>
  </scstep>
  <scstep>
   <time name="dav">    2.06    2.06</time>
   <time name="total">    2.38    2.56</time>
   <energy>
    <i name="e_fr_energy">    -40.30814826 </i>
    <i name="e_wo_entrp">    -40.30814826 </i>
    <i name="e_0_energy">    -40.30814826 </i>
   </energy>
  </scstep>
  <scstep>
   <time name="dav">    2.04    2.04</time>
   <time name="total">    2.37    5.93</time>
   <energy>
    <i name="e_fr_energy">    -40.30790262 </i>
    <i name="e_wo_entrp">    -40.30790262 </i>
    <i name="e_0_energy">    -40.30790262 </i>
   </energy>
  </scstep>
  <scstep>
   <time name="dav">    1.46    1.46</time>
   <time name="total">    1.69    2.16</time>
   <energy>
    <i name="alphaZ">     46.37393769 </i>
    <i name="ewald">  34525.81510928 </i>
    <i name="hartreedc"> -55390.74755918 </i>
    <i name="XCdc">   -238.83445290 </i>
    <i name="pawpsdc">  22808.26054458 </i>
    <i name="pawaedc"> -21878.86312980 </i>
    <i name="eentropy">      0.00000000 </i>
    <i name="bandstr">  -1693.48357082 </i>
    <i name="atom">  21781.17123181 </i>
    <i name="e_fr_energy">    -40.30788934 </i>
    <i name="e_wo_entrp">    -40.30788934 </i>
    <i name="e_0_energy">    -40.30788934 </i>
   </energy>
  </scstep>
  <structure>
   <crystal>
    <varray name="basis" >
     <v>      20.07364620       0.00000000       0.00000000 </v>
     <v>       0.00000000      20.07364620       0.00000000 </v>
     <v>       0.00000000       0.00000000      20.07364620 </v>
    </varray>
    <i name="volume">   8088.70126436 </i>
    <varray name="rec_basis" >
     <v>       0.04981656       0.00000000       0.00000000 </v>
     <v>       0.00000000       0.04981656       0.00000000 </v>
     <v>       0.00000000       0.00000000       0.04981656 </v>
    </varray>
   </crystal>
   <varray name="positions" >
    <v>       0.69965096       0.44749889       0.45570622 </v>
    <v>       0.59079811       0.61149604       0.55795367 </v>
    <v>       0.63636455       0.56353454       0.44250735 </v>
    <v>       0.61564335       0.46157696       0.55954759 </v>
    <v>       0.59630141       0.54524536       0.67545348 </v>
    <v>       0.64906312       0.42389702       0.68672305 </v>
    <v>       0.53601882       0.66529366       0.66961116 </v>
    <v>       0.53552323       0.65764543       0.44202971 </v>
    <v>       0.58542231       0.37801376       0.45454645 </v>
    <v>       0.53065167       0.56544121       0.34637784 </v>
    <v>       0.52175398       0.49442215       0.46121926 </v>
    <v>       0.51898267       0.43505119       0.64994769 </v>
    <v>       0.46117847       0.56133056       0.62199907 </v>
    <v>       0.45959515       0.34121512       0.46952635 </v>
    <v>       0.46385924       0.68342889       0.55673528 </v>
    <v>       0.41156808       0.57036806       0.49262563 </v>
    <v>       0.46018690       0.32584000       0.60160421 </v>
    <v>       0.42712390       0.44907773       0.55333407 </v>
    <v>       0.39704958       0.57520823       0.35847938 </v>
    <v>       0.40301148       0.45076837       0.41440030 </v>
    <v>       0.40448205       0.69472168       0.43615738 </v>
   </varray>
  </structure>
  <varray name="forces" >
   <v>       0.49267135      -0.01599144      -0.12039898 </v>
   <v>       0.03272515      -0.07416513       0.08476857 </v>
   <v>       0.29331272       0.05133192      -0.18864400 </v>
   <v>       0.37964313       0.60389716       0.03200731 </v>
   <v>       0.09260227       0.05173504       0.04578076 </v>
   <v>       0.29696401      -0.32410725       0.19981650 </v>
   <v>      -0.00438260       0.29900362       0.47986381 </v>
   <v>      -0.04414337      -0.00276381      -0.05602272 </v>
   <v>       0.21990401      -0.35397432      -0.28824237 </v>
   <v>       0.23249791      -0.20414543      -0.48758705 </v>
   <v>       0.07144170       0.00663753       0.06570160 </v>
   <v>      -0.15420307      -0.07561909       0.45200696 </v>
   <v>       0.14941016      -0.05754738       0.10831846 </v>
   <v>      -0.16139988      -0.02299570      -0.09562324 </v>
   <v>      -0.06055275       0.18759551       0.15839395 </v>
   <v>      -0.30535592       0.16780125       0.06511794 </v>
   <v>      -0.31161701      -0.27950246       0.25052424 </v>
   <v>      -0.34022369      -0.32955066      -0.05378985 </v>
   <v>      -0.23071531       0.34861493      -0.14239314 </v>
   <v>      -0.33708217       0.03476221      -0.12699320 </v>
   <v>      -0.31149665      -0.01101651      -0.38260554 </v>
  </varray>
  <varray name="stress" >
   <v>       0.23204070      -0.10282180       0.13470288 </v>
   <v>      -0.10282180      -0.57647160      -0.13889735 </v>
   <v>       0.13470288      -0.13889735       0.17819905 </v>
  </varray>
  <energy>
   <i name="e_fr_energy">    -40.30788934 </i>
   <i name="e_wo_entrp">    -40.30788934 </i>
   <i name="e_0_energy">      0.00000000 </i>
  </energy>
  <time name="totalsc">   14.32   19.34</time>
 </calculation>
 <calculation>
  <scstep>
   <time name="dav">    1.91    1.91</time>
   <time name="total">    2.24    2.25</time>
   <energy>
    <i name="alphaZ">     46.37393769 </i>
    <i name="ewald">  33980.37535631 </i>
    <i name="hartreedc"> -54848.97914269 </i>
    <i name="XCdc">   -239.63561913 </i>
    <i name="pawpsdc">  22808.93903091 </i>
    <i name="pawaedc"> -21879.55041105 </i>
    <i name="eentropy">      0.00000000 </i>
    <i name="bandstr">  -1689.14558961 </i>
    <i name="atom">  21781.17123181 </i>
    <i name="e_fr_energy">    -40.45120577 </i>
    <i name="e_wo_entrp">    -40.45120577 </i>
    <i name="e_0_energy">    -40.45120577 </i>
   </energy>
  </scstep>
  <scstep>
   <time name="dav">    1.98    1.98</time>
   <time name="total">    2.31    2.31</time>
   <energy>
    <i name="e_fr_energy">    -40.51970877 </i>
    <i name="e_wo_entrp">    -40.51970877 </i>
    <i name="e_0_energy">    -40.51970877 </i>
   </energy>
  </scstep>
  <scstep>
   <time name="dav">    2.01    2.01</time>
   <time name="total">    2.33    2.33</time>
   <energy>
    <i name="e_fr_energy">    -40.51856607 </i>
    <i name="e_wo_entrp">    -40.51856607 </i>
    <i name="e_0_energy">    -40.51856607 </i>
   </energy>
  </scstep>
  <scstep>
   <time name="dav">    2.02    2.02</time>
   <time name="total">    2.35    2.35</time>
   <energy>
    <i name="e_fr_energy">    -40.51724646 </i>
    <i name="e_wo_entrp">    -40.51724646 </i>
    <i name="e_0_energy">    -40.51724646 </i>
   </energy>
  </scstep>
  <scstep>
   <time name="dav">    1.49    1.49</time>
   <time name="total">    1.73    1.73</time>
   <energy>
    <i name="alphaZ">     46.37393769 </i>
    <i name="ewald">  33980.37535631 </i>
    <i name="hartreedc"> -54854.96049844 </i>
    <i name="XCdc">   -239.47828152 </i>
    <i name="pawpsdc">  22696.52017172 </i>
    <i name="pawaedc"> -21765.26060619 </i>
    <i name="eentropy">      0.00000000 </i>
    <i name="bandstr">  -1685.25856047 </i>
    <i name="atom">  21781.17123181 </i>
    <i name="e_fr_energy">    -40.51724909 </i>
    <i name="e_wo_entrp">    -40.51724909 </i>
    <i name="e_0_energy">    -40.51724909 </i>
   </energy>
  </scstep>
  <structure>
   <crystal>
    <varray name="basis" >
     <v>      20.07364620       0.00000000       0.00000000 </v>
     <v>       0.00000000      20.07364620       0.00000000 </v>
     <v>       0.00000000       0.00000000      20.07364620 </v>
    </varray>
    <i name="volume">   8088.70126436 </i>
    <varray name="rec_basis" >
     <v>       0.04981656       0.00000000       0.00000000 </v>
     <v>       0.00000000       0.04981656       0.00000000 </v>
     <v>       0.00000000       0.00000000       0.04981656 </v>
    </varray>
   </crystal>
   <varray name="positions" >
    <v>       0.70148485       0.44753203       0.45527626 </v>
    <v>       0.59105266       0.61114058       0.55828821 </v>
    <v>       0.63747764       0.56370546       0.44186456 </v>
    <v>       0.61698903       0.46371038       0.55956276 </v>
    <v>       0.59650032       0.54580408       0.67549429 </v>
    <v>       0.65040988       0.42250389       0.68762061 </v>
    <v>       0.53601649       0.66640620       0.67132740 </v>
    <v>       0.53550832       0.65793670       0.44192258 </v>
    <v>       0.58600626       0.37640533       0.45339906 </v>
    <v>       0.53154918       0.56472960       0.34446429 </v>
    <v>       0.52216167       0.49451036       0.46153108 </v>
    <v>       0.51818433       0.43478769       0.65173487 </v>
    <v>       0.46162616       0.56122334       0.62255027 </v>
    <v>       0.45897306       0.34111561       0.46908219 </v>
    <v>       0.46367068       0.68411435       0.55743866 </v>
    <v>       0.41042892       0.57115847       0.49277491 </v>
    <v>       0.45919646       0.32482232       0.60253023 </v>
    <v>       0.42584137       0.44772171       0.55305300 </v>
    <v>       0.39605301       0.57642073       0.35794525 </v>
    <v>       0.40177365       0.45060414       0.41390119 </v>
    <v>       0.40332511       0.69472187       0.43472347 </v>
   </varray>
  </structure>
  <varray name="forces" >
   <v>       0.29686727      -0.04481716      -0.07902164 </v>
   <v>      -0.04235287       0.00314663       0.02863638 </v>
   <v>       0.16587949       0.03618312      -0.13686186 </v>
   <v>       0.28948574       0.41335503       0.06326096 </v>
   <v>       0.11636659      -0.12723524       0.09829641 </v>
   <v>       0.07927018      -0.12295069       0.05255746 </v>
   <v>      -0.01052478       0.18165123       0.32461678 </v>
   <v>      -0.09545449      -0.13901466      -0.06738687 </v>
   <v>       0.22555241      -0.09273322      -0.15787267 </v>
   <v>       0.13848978      -0.14348176      -0.26363359 </v>
   <v>      -0.01815461      -0.02371894       0.00714080 </v>
   <v>      -0.01801461      -0.05356501       0.24245577 </v>
   <v>       0.13854643      -0.07829015      -0.00337325 </v>
   <v>      -0.08318902      -0.00883268      -0.02346239 </v>
   <v>      -0.04728385       0.11197096       0.04777353 </v>
   <v>      -0.18143088       0.02480629       0.08355592 </v>
   <v>      -0.26982627      -0.17653867       0.15742697 </v>
   <v>      -0.19629968      -0.14106966       0.00688137 </v>
   <v>      -0.08788869       0.24234728      -0.08955385 </v>
   <v>      -0.21200726       0.15689892      -0.06101474 </v>
   <v>      -0.18803088      -0.01811164      -0.23042149 </v>
  </varray>
  <varray name="stress" >
   <v>      -0.46052231      -0.09543992       0.06531127 </v>
   <v>      -0.09543992      -1.16273839      -0.16632625 </v>
   <v>       0.06531126      -0.16632625      -0.50900749 </v>
  </varray>
  <energy>
   <i name="e_fr_energy">    -40.51724909 </i>
   <i name="e_wo_entrp">    -40.51724909 </i>
   <i name="e_0_energy">      0.00000000 </i>
  </energy>
  <time name="totalsc">   14.21   14.72</time>
 </calculation>
 <calculation>
  <scstep>
   <time name="dav">    1.91    1.91</time>
   <time name="total">    2.24    2.54</time>
   <energy>
    <i name="alphaZ">     46.37393769 </i>
    <i name="ewald">  32915.27558553 </i>
    <i name="hartreedc"> -53796.01709905 </i>
    <i name="XCdc">   -240.94392531 </i>
    <i name="pawpsdc">  22697.72406256 </i>
    <i name="pawaedc"> -21766.47726894 </i>
    <i name="eentropy">      0.00000000 </i>
    <i name="bandstr">  -1677.43587561 </i>
    <i name="atom">  21781.17123181 </i>
    <i name="e_fr_energy">    -40.32935131 </i>
    <i name="e_wo_entrp">    -40.32935131 </i>
    <i name="e_0_energy">    -40.32935131 </i>
   </energy>
  </scstep>
  <scstep>
   <time name="dav">    1.98    1.98</time>
   <time name="total">    2.30    2.31</time>
   <energy>
    <i name="e_fr_energy">    -40.61229837 </i>
    <i name="e_wo_entrp">    -40.61229837 </i>
    <i name="e_0_energy">    -40.61229837 </i>
   </energy>
  </scstep>
  <scstep>
   <time name="dav">    1.96    1.96</time>
   <time name="total">    2.28    2.29</time>
   <energy>
    <i name="e_fr_energy">    -40.61166488 </i>
    <i name="e_wo_entrp">    -40.61166488 </i>
    <i name="e_0_energy">    -40.61166488 </i>
   </energy>
  </scstep>
  <scstep>
   <time name="dav">    2.00    2.00</time>
   <time name="total">    2.32    2.33</time>
   <energy>
    <i name="e_fr_energy">    -40.60506372 </i>
    <i name="e_wo_entrp">    -40.60506372 </i>
    <i name="e_0_energy">    -40.60506372 </i>
   </energy>
  </scstep>
  <scstep>
   <time name="dav">    2.04    2.04</time>
   <time name="total">    2.36    2.37</time>
   <energy>
    <i name="e_fr_energy">    -40.60537481 </i>
    <i name="e_wo_entrp">    -40.60537481 </i>
    <i name="e_0_energy">    -40.60537481 </i>
   </energy>
  </scstep>
  <scstep>
   <time name="dav">    1.98    1.98</time>
   <time name="total">    2.22    2.22</time>
   <energy>
    <i name="alphaZ">     46.37393769 </i>
    <i name="ewald">  32915.27558553 </i>
    <i name="hartreedc"> -53806.56933849 </i>
    <i name="XCdc">   -240.64388743 </i>
    <i name="pawpsdc">  22507.42872487 </i>
    <i name="pawaedc"> -21572.87601506 </i>
    <i name="eentropy">      0.00000000 </i>
    <i name="bandstr">  -1670.76561546 </i>
    <i name="atom">  21781.17123181 </i>
    <i name="e_fr_energy">    -40.60537653 </i>
    <i name="e_wo_entrp">    -40.60537653 </i>
    <i name="e_0_energy">    -40.60537653 </i>
   </energy>
  </scstep>
  <structure>
   <crystal>
    <varray name="basis" >
     <v>      20.07364620       0.00000000       0.00000000 </v>
     <v>       0.00000000      20.07364620       0.00000000 </v>
     <v>       0.00000000       0.00000000      20.07364620 </v>
    </varray>
    <i name="volume">   8088.70126436 </i>
    <varray name="rec_basis" >
     <v>       0.04981656       0.00000000       0.00000000 </v>
     <v>       0.00000000       0.04981656       0.00000000 </v>
     <v>       0.00000000       0.00000000       0.04981656 </v>
    </varray>
   </crystal>
   <varray name="positions" >
    <v>       0.70515264       0.44759833       0.45441633 </v>
    <v>       0.59156176       0.61042966       0.55895729 </v>
    <v>       0.63970382       0.56404730       0.44057900 </v>
    <v>       0.61968039       0.46797723       0.55959309 </v>
    <v>       0.59689812       0.54692153       0.67557591 </v>
    <v>       0.65310339       0.41971764       0.68941573 </v>
    <v>       0.53601184       0.66863126       0.67475988 </v>
    <v>       0.53547850       0.65851924       0.44170831 </v>
    <v>       0.58717416       0.37318848       0.45110427 </v>
    <v>       0.53334420       0.56330638       0.34063719 </v>
    <v>       0.52297705       0.49468678       0.46215474 </v>
    <v>       0.51658765       0.43426069       0.65530922 </v>
    <v>       0.46252153       0.56100892       0.62365266 </v>
    <v>       0.45772886       0.34091660       0.46819389 </v>
    <v>       0.46329355       0.68548528       0.55884543 </v>
    <v>       0.40815058       0.57273929       0.49307345 </v>
    <v>       0.45721560       0.32278697       0.60438228 </v>
    <v>       0.42327631       0.44500966       0.55249085 </v>
    <v>       0.39405989       0.57884573       0.35687699 </v>
    <v>       0.39929799       0.45027567       0.41290298 </v>
    <v>       0.40101121       0.69472224       0.43185564 </v>
   </varray>
  </structure>
  <varray name="forces" >
   <v>      -0.02578750      -0.07476982      -0.00403395 </v>
   <v>      -0.17601244       0.17532142      -0.11140923 </v>
   <v>      -0.06930997      -0.00571168      -0.03134656 </v>
   <v>       0.20918063       0.07797396       0.09411279 </v>
   <v>       0.13259997      -0.40189908       0.22265410 </v>
   <v>      -0.26244106       0.18694181      -0.17473017 </v>
   <v>      -0.03555762      -0.01027816       0.03868240 </v>
   <v>      -0.17680042      -0.35637454      -0.07766769 </v>
   <v>       0.19079448       0.29683631       0.03799719 </v>
   <v>       0.00521935      -0.04255619       0.12933517 </v>
   <v>      -0.15252371      -0.06738302      -0.09326588 </v>
   <v>       0.16815729      -0.02785986      -0.06682192 </v>
   <v>       0.11152313      -0.08983202      -0.19108937 </v>
   <v>       0.06532895       0.01001454       0.07532763 </v>
   <v>      -0.00071953      -0.04384900      -0.11443294 </v>
   <v>       0.04128376      -0.20166784       0.10839496 </v>
   <v>      -0.20263754       0.01583646       0.00804766 </v>
   <v>       0.06472201       0.17493007       0.11156651 </v>
   <v>       0.10184543       0.01891264      -0.02433322 </v>
   <v>      -0.01292521       0.35055724       0.05533440 </v>
   <v>       0.02406001       0.01485677       0.00767814 </v>
  </varray>
  <varray name="stress" >
   <v>      -1.58235970      -0.08237697      -0.05902378 </v>
   <v>      -0.08237697      -2.11935563      -0.18622449 </v>
   <v>      -0.05902379      -0.18622449      -1.60010280 </v>
  </varray>
  <energy>
   <i name="e_fr_energy">    -40.60537653 </i>
   <i name="e_wo_entrp">    -40.60537653 </i>
   <i name="e_0_energy">      0.00000000 </i>
  </energy>
  <time name="totalsc">   16.99   23.68</time>
 </calculation>
 <calculation>
  <scstep>
   <time name="dav">    1.91    1.91</time>
   <time name="total">    2.24    2.25</time>
   <energy>
    <i name="alphaZ">     46.37393769 </i>
    <i name="ewald">  33178.56689077 </i>
    <i name="hartreedc"> -54068.71355392 </i>
    <i name="XCdc">   -240.28488813 </i>
    <i name="pawpsdc">  22509.65494118 </i>
    <i name="pawaedc"> -21575.10914762 </i>
    <i name="eentropy">      0.00000000 </i>
    <i name="bandstr">  -1672.26116619 </i>
    <i name="atom">  21781.17123181 </i>
    <i name="e_fr_energy">    -40.60175440 </i>
    <i name="e_wo_entrp">    -40.60175440 </i>
    <i name="e_0_energy">    -40.60175440 </i>
   </energy>
  </scstep>
  <scstep>
   <time name="dav">    2.06    2.07</time>
   <time name="total">    2.39    2.39</time>
   <energy>
    <i name="e_fr_energy">    -40.61988068 </i>
    <i name="e_wo_entrp">    -40.61988068 </i>
    <i name="e_0_energy">    -40.61988068 </i>
   </energy>
  </scstep>
  <scstep>
   <time name="dav">    2.04    2.04</time>
   <time name="total">    2.37    2.39</time>
   <energy>
    <i name="e_fr_energy">    -40.61976991 </i>
    <i name="e_wo_entrp">    -40.61976991 </i>
    <i name="e_0_energy">    -40.61976991 </i>
   </energy>
  </scstep>
  <scstep>
   <time name="dav">    2.04    2.05</time>
   <time name="total">    2.37    2.41</time>
   <energy>
    <i name="e_fr_energy">    -40.61988446 </i>
    <i name="e_wo_entrp">    -40.61988446 </i>
    <i name="e_0_energy">    -40.61988446 </i>
   </energy>
  </scstep>
  <scstep>
   <time name="dav">    1.52    1.51</time>
   <time name="total">    1.75    1.77</time>
   <energy>
    <i name="alphaZ">     46.37393769 </i>
    <i name="ewald">  33178.56689077 </i>
    <i name="hartreedc"> -54066.56662991 </i>
    <i name="XCdc">   -240.36217290 </i>
    <i name="pawpsdc">  22554.40777024 </i>
    <i name="pawaedc"> -21620.63632162 </i>
    <i name="eentropy">      0.00000000 </i>
    <i name="bandstr">  -1673.57465806 </i>
    <i name="atom">  21781.17123181 </i>
    <i name="e_fr_energy">    -40.61995198 </i>
    <i name="e_wo_entrp">    -40.61995198 </i>
    <i name="e_0_energy">    -40.61995198 </i>
   </energy>
  </scstep>
  <structure>
   <crystal>
    <varray name="basis" >
     <v>      20.07364620       0.00000000       0.00000000 </v>
     <v>       0.00000000      20.07364620       0.00000000 </v>
     <v>       0.00000000       0.00000000      20.07364620 </v>
    </varray>
    <i name="volume">   8088.70126436 </i>
    <varray name="rec_basis" >
     <v>       0.04981656       0.00000000       0.00000000 </v>
     <v>       0.00000000       0.04981656       0.00000000 </v>
     <v>       0.00000000       0.00000000       0.04981656 </v>
    </varray>
   </crystal>
   <varray name="positions" >
    <v>       0.70423500       0.44758174       0.45463148 </v>
    <v>       0.59143439       0.61060753       0.55878989 </v>
    <v>       0.63914686       0.56396177       0.44090063 </v>
    <v>       0.61900704       0.46690971       0.55958550 </v>
    <v>       0.59679860       0.54664196       0.67555549 </v>
    <v>       0.65242950       0.42041473       0.68896661 </v>
    <v>       0.53601300       0.66807457       0.67390111 </v>
    <v>       0.53548596       0.65837349       0.44176192 </v>
    <v>       0.58688196       0.37399331       0.45167840 </v>
    <v>       0.53289510       0.56366245       0.34159469 </v>
    <v>       0.52277305       0.49464264       0.46199870 </v>
    <v>       0.51698713       0.43439254       0.65441495 </v>
    <v>       0.46229752       0.56106256       0.62337685 </v>
    <v>       0.45804015       0.34096639       0.46841614 </v>
    <v>       0.46338790       0.68514228       0.55849347 </v>
    <v>       0.40872060       0.57234378       0.49299876 </v>
    <v>       0.45771119       0.32329619       0.60391891 </v>
    <v>       0.42391806       0.44568819       0.55263149 </v>
    <v>       0.39455855       0.57823902       0.35714426 </v>
    <v>       0.39991737       0.45035785       0.41315273 </v>
    <v>       0.40159013       0.69472215       0.43257314 </v>
   </varray>
  </structure>
  <varray name="forces" >
   <v>       0.03888405      -0.07041515      -0.01873546 </v>
   <v>      -0.14584832       0.13130127      -0.07304245 </v>
   <v>      -0.01540771       0.00615671      -0.05607302 </v>
   <v>       0.22098477       0.15152046       0.09057329 </v>
   <v>       0.13135214      -0.34348349       0.18947869 </v>
   <v>      -0.18844927       0.12384592      -0.12610810 </v>
   <v>      -0.03011850       0.03222672       0.10151022 </v>
   <v>      -0.16038956      -0.30993558      -0.07592480 </v>
   <v>       0.20262582       0.21553731       0.00122027 </v>
   <v>       0.03502084      -0.06704253       0.03313039 </v>
   <v>      -0.12499595      -0.05917725      -0.06890432 </v>
   <v>       0.13348761      -0.03269430      -0.00875684 </v>
   <v>       0.11901585      -0.09016538      -0.14989541 </v>
   <v>       0.03235545       0.00742364       0.05754905 </v>
   <v>      -0.01446509      -0.00602197      -0.07979290 </v>
   <v>      -0.01019053      -0.15150131       0.10490156 </v>
   <v>      -0.21548072      -0.03052904       0.04101268 </v>
   <v>       0.00650946       0.10525174       0.08728138 </v>
   <v>       0.06472577       0.07599495      -0.03528207 </v>
   <v>      -0.05650803       0.30982140       0.02900712 </v>
   <v>      -0.02310808       0.00188589      -0.04314927 </v>
  </varray>
  <varray name="stress" >
   <v>      -1.29998507      -0.08726432      -0.03654862 </v>
   <v>      -0.08726432      -1.87773885      -0.18597513 </v>
   <v>      -0.03654862      -0.18597513      -1.32948674 </v>
  </varray>
  <energy>
   <i name="e_fr_energy">    -40.61995198 </i>
   <i name="e_wo_entrp">    -40.61995198 </i>
   <i name="e_0_energy">      0.00000000 </i>
  </energy>
  <time name="totalsc">   14.38   15.41</time>
 </calculation>
 <calculation>
  <scstep>
   <time name="dav">    1.92    1.92</time>
   <time name="total">    2.24    2.26</time>
   <energy>
    <i name="alphaZ">     46.37393769 </i>
    <i name="ewald">  33136.74585835 </i>
    <i name="hartreedc"> -54025.21579054 </i>
    <i name="XCdc">   -240.41829918 </i>
    <i name="pawpsdc">  22553.72478932 </i>
    <i name="pawaedc"> -21619.94608951 </i>
    <i name="eentropy">      0.00000000 </i>
    <i name="bandstr">  -1673.08511955 </i>
    <i name="atom">  21781.17123181 </i>
    <i name="e_fr_energy">    -40.64948161 </i>
    <i name="e_wo_entrp">    -40.64948161 </i>
    <i name="e_0_energy">    -40.64948161 </i>
   </energy>
  </scstep>
  <scstep>
   <time name="dav">    2.05    2.05</time>
   <time name="total">    2.37    2.37</time>
   <energy>
    <i name="e_fr_energy">    -40.65619176 </i>
    <i name="e_wo_entrp">    -40.65619176 </i>
    <i name="e_0_energy">    -40.65619176 </i>
   </energy>
  </scstep>
  <scstep>
   <time name="dav">    2.06    2.06</time>
   <time name="total">    2.39    2.40</time>
   <energy>
    <i name="e_fr_energy">    -40.65612900 </i>
    <i name="e_wo_entrp">    -40.65612900 </i>
    <i name="e_0_energy">    -40.65612900 </i>
   </energy>
  </scstep>
  <scstep>
   <time name="dav">    2.00    2.01</time>
   <time name="total">    2.33    3.08</time>
   <energy>
    <i name="e_fr_energy">    -40.65599317 </i>
    <i name="e_wo_entrp">    -40.65599317 </i>
    <i name="e_0_energy">    -40.65599317 </i>
   </energy>
  </scstep>
  <scstep>
   <time name="dav">    1.50    1.50</time>
   <time name="total">    1.73    1.81</time>
   <energy>
    <i name="alphaZ">     46.37393769 </i>
    <i name="ewald">  33136.74585835 </i>
    <i name="hartreedc"> -54025.82985289 </i>
    <i name="XCdc">   -240.40816400 </i>
    <i name="pawpsdc">  22544.97960176 </i>
    <i name="pawaedc"> -21611.07017827 </i>
    <i name="eentropy">      0.00000000 </i>
    <i name="bandstr">  -1672.61845221 </i>
    <i name="atom">  21781.17123181 </i>
    <i name="e_fr_energy">    -40.65601776 </i>
    <i name="e_wo_entrp">    -40.65601776 </i>
    <i name="e_0_energy">    -40.65601776 </i>
   </energy>
  </scstep>
  <structure>
   <crystal>
    <varray name="basis" >
     <v>      20.07364620       0.00000000       0.00000000 </v>
     <v>       0.00000000      20.07364620       0.00000000 </v>
     <v>       0.00000000       0.00000000      20.07364620 </v>
    </varray>
    <i name="volume">   8088.70126436 </i>
    <varray name="rec_basis" >
     <v>       0.04981656       0.00000000       0.00000000 </v>
     <v>       0.00000000       0.04981656       0.00000000 </v>
     <v>       0.00000000       0.00000000       0.04981656 </v>
    </varray>
   </crystal>
   <varray name="positions" >
    <v>       0.70454965       0.44743020       0.45453644 </v>
    <v>       0.59114369       0.61085348       0.55867013 </v>
    <v>       0.63925160       0.56399670       0.44069651 </v>
    <v>       0.61966340       0.46751073       0.55978763 </v>
    <v>       0.59711379       0.54595225       0.67597948 </v>
    <v>       0.65218082       0.42051481       0.68879974 </v>
    <v>       0.53594613       0.66828455       0.67433954 </v>
    <v>       0.53512951       0.65772461       0.44158070 </v>
    <v>       0.58740275       0.37426924       0.45153802 </v>
    <v>       0.53308444       0.56342550       0.34142931 </v>
    <v>       0.52254755       0.49452281       0.46188526 </v>
    <v>       0.51718269       0.43428740       0.65461846 </v>
    <v>       0.46261647       0.56084986       0.62311420 </v>
    <v>       0.45803410       0.34097039       0.46848798 </v>
    <v>       0.46333241       0.68521445       0.55840478 </v>
    <v>       0.40855601       0.57210741       0.49324929 </v>
    <v>       0.45711130       0.32310179       0.60412506 </v>
    <v>       0.42377252       0.44575178       0.55278940 </v>
    <v>       0.39457737       0.57855823       0.35699965 </v>
    <v>       0.39963809       0.45102232       0.41315462 </v>
    <v>       0.40139477       0.69472634       0.43229894 </v>
   </varray>
  </structure>
  <varray name="forces" >
   <v>       0.04464987      -0.04648057      -0.01585691 </v>
   <v>      -0.13755992       0.09474344      -0.00347574 </v>
   <v>      -0.02445030      -0.02005181      -0.02975509 </v>
   <v>       0.20026208       0.14919000       0.03741891 </v>
   <v>       0.08133190      -0.19502075       0.13018873 </v>
   <v>      -0.13990907       0.07313198      -0.10008957 </v>
   <v>      -0.01956659      -0.03399151       0.06387169 </v>
   <v>      -0.17337027      -0.29399768      -0.07507059 </v>
   <v>       0.15211111       0.20516833       0.01169932 </v>
   <v>       0.03055758      -0.07726187       0.02091809 </v>
   <v>      -0.08468284      -0.05988641      -0.04862707 </v>
   <v>       0.08895313      -0.06032319      -0.03919385 </v>
   <v>       0.14120773      -0.06359621      -0.12416725 </v>
   <v>       0.05638926       0.05402115       0.05065394 </v>
   <v>      -0.00687623      -0.01479153      -0.06861795 </v>
   <v>      -0.01886272      -0.10420355       0.07461015 </v>
   <v>      -0.21423545      -0.00049201       0.03565244 </v>
   <v>       0.01810570       0.07099936       0.08920234 </v>
   <v>       0.07205060       0.07412601      -0.03082957 </v>
   <v>      -0.05052251       0.25529412       0.04366197 </v>
   <v>      -0.01558307      -0.00657728      -0.02219400 </v>
  </varray>
  <varray name="stress" >
   <v>      -1.35675648      -0.08046299      -0.03615050 </v>
   <v>      -0.08046298      -1.92615012      -0.15639617 </v>
   <v>      -0.03615050      -0.15639617      -1.41744277 </v>
  </varray>
  <energy>
   <i name="e_fr_energy">    -40.65601776 </i>
   <i name="e_wo_entrp">    -40.65601776 </i>
   <i name="e_0_energy">      0.00000000 </i>
  </energy>
  <time name="totalsc">   14.32   15.34</time>
 </calculation>
 <calculation>
  <scstep>
   <time name="dav">    1.92    1.92</time>
   <time name="total">    2.24    2.25</time>
   <energy>
    <i name="alphaZ">     46.37393769 </i>
    <i name="ewald">  33011.76536989 </i>
    <i name="hartreedc"> -53901.69611923 </i>
    <i name="XCdc">   -240.55647284 </i>
    <i name="pawpsdc">  22544.95021184 </i>
    <i name="pawaedc"> -21611.03927050 </i>
    <i name="eentropy">      0.00000000 </i>
    <i name="bandstr">  -1671.62507466 </i>
    <i name="atom">  21781.17123181 </i>
    <i name="e_fr_energy">    -40.65618599 </i>
    <i name="e_wo_entrp">    -40.65618599 </i>
    <i name="e_0_energy">    -40.65618599 </i>
   </energy>
  </scstep>
  <scstep>
   <time name="dav">    2.02    2.02</time>
   <time name="total">    2.35    2.35</time>
   <energy>
    <i name="e_fr_energy">    -40.71761575 </i>
    <i name="e_wo_entrp">    -40.71761575 </i>
    <i name="e_0_energy">    -40.71761575 </i>
   </energy>
  </scstep>
  <scstep>
   <time name="dav">    2.04    2.04</time>
   <time name="total">    2.37    2.39</time>
   <energy>
    <i name="e_fr_energy">    -40.71716233 </i>
    <i name="e_wo_entrp">    -40.71716233 </i>
    <i name="e_0_energy">    -40.71716233 </i>
   </energy>
  </scstep>
  <scstep>
   <time name="dav">    1.97    1.97</time>
   <time name="total">    2.29    2.32</time>
   <energy>
    <i name="e_fr_energy">    -40.71574216 </i>
    <i name="e_wo_entrp">    -40.71574216 </i>
    <i name="e_0_energy">    -40.71574216 </i>
   </energy>
  </scstep>
  <scstep>
   <time name="dav">    2.06    2.06</time>
   <time name="total">    2.39    2.41</time>
   <energy>
    <i name="e_fr_energy">    -40.71580551 </i>
    <i name="e_wo_entrp">    -40.71580551 </i>
    <i name="e_0_energy">    -40.71580551 </i>
   </energy>
  </scstep>
  <scstep>
   <time name="dav">    1.49    1.50</time>
   <time name="total">    1.73    2.17</time>
   <energy>
    <i name="alphaZ">     46.37393769 </i>
    <i name="ewald">  33011.76536989 </i>
    <i name="hartreedc"> -53903.09623488 </i>
    <i name="XCdc">   -240.52962393 </i>
    <i name="pawpsdc">  22525.35575394 </i>
    <i name="pawaedc"> -21591.10538762 </i>
    <i name="eentropy">      0.00000000 </i>
    <i name="bandstr">  -1670.65083282 </i>
    <i name="atom">  21781.17123181 </i>
    <i name="e_fr_energy">    -40.71578593 </i>
    <i name="e_wo_entrp">    -40.71578593 </i>
    <i name="e_0_energy">    -40.71578593 </i>
   </energy>
  </scstep>
  <structure>
   <crystal>
    <varray name="basis" >
     <v>      20.07364620       0.00000000       0.00000000 </v>
     <v>       0.00000000      20.07364620       0.00000000 </v>
     <v>       0.00000000       0.00000000      20.07364620 </v>
    </varray>
    <i name="volume">   8088.70126436 </i>
    <varray name="rec_basis" >
     <v>       0.04981656       0.00000000       0.00000000 </v>
     <v>       0.00000000       0.04981656       0.00000000 </v>
     <v>       0.00000000       0.00000000       0.04981656 </v>
    </varray>
   </crystal>
   <varray name="positions" >
    <v>       0.70549361       0.44697558       0.45425133 </v>
    <v>       0.59027160       0.61159135       0.55831084 </v>
    <v>       0.63956581       0.56410147       0.44008414 </v>
    <v>       0.62163248       0.46931379       0.56039402 </v>
    <v>       0.59805938       0.54388315       0.67725145 </v>
    <v>       0.65143477       0.42081503       0.68829912 </v>
    <v>       0.53574550       0.66891450       0.67565485 </v>
    <v>       0.53406016       0.65577796       0.44103706 </v>
    <v>       0.58896510       0.37509706       0.45111687 </v>
    <v>       0.53365248       0.56271463       0.34093318 </v>
    <v>       0.52187104       0.49416332       0.46154491 </v>
    <v>       0.51776937       0.43397199       0.65522896 </v>
    <v>       0.46357331       0.56021173       0.62232623 </v>
    <v>       0.45801597       0.34098240       0.46870351 </v>
    <v>       0.46316593       0.68543094       0.55813870 </v>
    <v>       0.40806226       0.57139828       0.49400088 </v>
    <v>       0.45531162       0.32251860       0.60474350 </v>
    <v>       0.42333590       0.44594256       0.55326314 </v>
    <v>       0.39463384       0.57951585       0.35656583 </v>
    <v>       0.39880023       0.45301574       0.41316029 </v>
    <v>       0.40080869       0.69473892       0.43147633 </v>
   </varray>
  </structure>
  <varray name="forces" >
   <v>       0.05165784       0.02749975      -0.00328827 </v>
   <v>      -0.10380080      -0.00402320       0.17577889 </v>
   <v>      -0.05279184      -0.09492239       0.04992834 </v>
   <v>       0.12284192       0.14416625      -0.12381029 </v>
   <v>      -0.07148980       0.23607260      -0.01355838 </v>
   <v>       0.02220652      -0.10732847      -0.01978557 </v>
   <v>       0.00717794      -0.20670544      -0.05198527 </v>
   <v>      -0.20615694      -0.24806847      -0.06850505 </v>
   <v>       0.00420135       0.17693809       0.04224551 </v>
   <v>       0.01280410      -0.10342747      -0.00806283 </v>
   <v>       0.03200763      -0.05874001       0.00632070 </v>
   <v>      -0.04880743      -0.13809604      -0.13750957 </v>
   <v>       0.19579689       0.01927517      -0.04131586 </v>
   <v>       0.12449810       0.18033109       0.03810811 </v>
   <v>       0.01587157      -0.04368783      -0.04066662 </v>
   <v>      -0.03844463       0.04027002      -0.00768176 </v>
   <v>      -0.20923680       0.09433250       0.01398863 </v>
   <v>       0.06003325      -0.03220199       0.09268560 </v>
   <v>       0.09931768       0.06145167      -0.02296784 </v>
   <v>      -0.03004416       0.08197145       0.07674315 </v>
   <v>       0.01235761      -0.02510728       0.04333838 </v>
  </varray>
  <varray name="stress" >
   <v>      -1.46047862      -0.07041466      -0.04058966 </v>
   <v>      -0.07041465      -2.00195484      -0.07100978 </v>
   <v>      -0.04058966      -0.07100978      -1.62247927 </v>
  </varray>
  <energy>
   <i name="e_fr_energy">    -40.71578593 </i>
   <i name="e_wo_entrp">    -40.71578593 </i>
   <i name="e_0_energy">      0.00000000 </i>
  </energy>
  <time name="totalsc">   16.65   17.25</time>
 </calculation>
 <calculation>
  <scstep>
   <time name="dav">    1.91    1.91</time>
   <time name="total">    2.23    2.25</time>
   <energy>
    <i name="alphaZ">     46.37393769 </i>
    <i name="ewald">  32967.14411445 </i>
    <i name="hartreedc"> -53858.69651206 </i>
    <i name="XCdc">   -240.57750368 </i>
    <i name="pawpsdc">  22525.27294516 </i>
    <i name="pawaedc"> -21591.01904739 </i>
    <i name="eentropy">      0.00000000 </i>
    <i name="bandstr">  -1670.38202225 </i>
    <i name="atom">  21781.17123181 </i>
    <i name="e_fr_energy">    -40.71285626 </i>
    <i name="e_wo_entrp">    -40.71285626 </i>
    <i name="e_0_energy">    -40.71285626 </i>
   </energy>
  </scstep>
  <scstep>
   <time name="dav">    1.99    1.99</time>
   <time name="total">    2.32    2.32</time>
   <energy>
    <i name="e_fr_energy">    -40.72077118 </i>
    <i name="e_wo_entrp">    -40.72077118 </i>
    <i name="e_0_energy">    -40.72077118 </i>
   </energy>
  </scstep>
  <scstep>
   <time name="dav">    2.01    2.01</time>
   <time name="total">    2.33    2.38</time>
   <energy>
    <i name="e_fr_energy">    -40.72071260 </i>
    <i name="e_wo_entrp">    -40.72071260 </i>
    <i name="e_0_energy">    -40.72071260 </i>
   </energy>
  </scstep>
  <scstep>
   <time name="dav">    2.02    2.02</time>
   <time name="total">    2.35    2.38</time>
   <energy>
    <i name="e_fr_energy">    -40.72055828 </i>
    <i name="e_wo_entrp">    -40.72055828 </i>
    <i name="e_0_energy">    -40.72055828 </i>
   </energy>
  </scstep>
  <scstep>
   <time name="dav">    1.46    1.46</time>
   <time name="total">    1.70    1.73</time>
   <energy>
    <i name="alphaZ">     46.37393769 </i>
    <i name="ewald">  32967.14411445 </i>
    <i name="hartreedc"> -53859.31267148 </i>
    <i name="XCdc">   -240.56566555 </i>
    <i name="pawpsdc">  22519.52950239 </i>
    <i name="pawaedc"> -21585.17114982 </i>
    <i name="eentropy">      0.00000000 </i>
    <i name="bandstr">  -1669.88988848 </i>
    <i name="atom">  21781.17123181 </i>
    <i name="e_fr_energy">    -40.72058898 </i>
    <i name="e_wo_entrp">    -40.72058898 </i>
    <i name="e_0_energy">    -40.72058898 </i>
   </energy>
  </scstep>
  <structure>
   <crystal>
    <varray name="basis" >
     <v>      20.07364620       0.00000000       0.00000000 </v>
     <v>       0.00000000      20.07364620       0.00000000 </v>
     <v>       0.00000000       0.00000000      20.07364620 </v>
    </varray>
    <i name="volume">   8088.70126436 </i>
    <varray name="rec_basis" >
     <v>       0.04981656       0.00000000       0.00000000 </v>
     <v>       0.00000000       0.04981656       0.00000000 </v>
     <v>       0.00000000       0.00000000       0.04981656 </v>
    </varray>
   </crystal>
   <varray name="positions" >
    <v>       0.70583185       0.44681268       0.45414917 </v>
    <v>       0.58995911       0.61185574       0.55818209 </v>
    <v>       0.63967841       0.56413901       0.43986472 </v>
    <v>       0.62233804       0.46995987       0.56061130 </v>
    <v>       0.59839821       0.54314175       0.67770722 </v>
    <v>       0.65116745       0.42092261       0.68811974 </v>
    <v>       0.53567361       0.66914022       0.67612615 </v>
    <v>       0.53367700       0.65508043       0.44084226 </v>
    <v>       0.58952492       0.37539368       0.45096596 </v>
    <v>       0.53385601       0.56245991       0.34075541 </v>
    <v>       0.52162864       0.49403451       0.46142296 </v>
    <v>       0.51797959       0.43385896       0.65544772 </v>
    <v>       0.46391617       0.55998308       0.62204389 </v>
    <v>       0.45800947       0.34098671       0.46878074 </v>
    <v>       0.46310627       0.68550851       0.55804336 </v>
    <v>       0.40788534       0.57114419       0.49427020 </v>
    <v>       0.45466676       0.32230962       0.60496510 </v>
    <v>       0.42317944       0.44601092       0.55343289 </v>
    <v>       0.39465408       0.57985899       0.35641038 </v>
    <v>       0.39850001       0.45373002       0.41316232 </v>
    <v>       0.40059869       0.69474342       0.43118157 </v>
   </varray>
  </structure>
  <varray name="forces" >
   <v>       0.05833961       0.05384829       0.00199039 </v>
   <v>      -0.09025508      -0.03357746       0.23005712 </v>
   <v>      -0.06126491      -0.11901733       0.07629012 </v>
   <v>       0.09946049       0.14831242      -0.17930928 </v>
   <v>      -0.12377606       0.38166765      -0.05510335 </v>
   <v>       0.08485240      -0.18649970       0.01042729 </v>
   <v>       0.01427589      -0.25824440      -0.08912507 </v>
   <v>      -0.22163832      -0.23423695      -0.06483721 </v>
   <v>      -0.04620536       0.16790985       0.05120832 </v>
   <v>       0.00747584      -0.11372887      -0.01928667 </v>
   <v>       0.07061148      -0.05999602       0.02346029 </v>
   <v>      -0.09973368      -0.16534231      -0.17026174 </v>
   <v>       0.21615073       0.04788209      -0.01295113 </v>
   <v>       0.14618157       0.22101471       0.03642761 </v>
   <v>       0.02268642      -0.05311334      -0.03212544 </v>
   <v>      -0.04817439       0.09238911      -0.03020123 </v>
   <v>      -0.20560195       0.12650019       0.01043733 </v>
   <v>       0.07324969      -0.06973737       0.09491464 </v>
   <v>       0.10951934       0.05905225      -0.02807049 </v>
   <v>      -0.02749429       0.02418748       0.08639872 </v>
   <v>       0.02134057      -0.02927030       0.05965979 </v>
  </varray>
  <varray name="stress" >
   <v>      -1.48765648      -0.07028418      -0.04075239 </v>
   <v>      -0.07028418      -2.00677307      -0.04216820 </v>
   <v>      -0.04075239      -0.04216819      -1.68464554 </v>
  </varray>
  <energy>
   <i name="e_fr_energy">    -40.72058898 </i>
   <i name="e_wo_entrp">    -40.72058898 </i>
   <i name="e_0_energy">      0.00000000 </i>
  </energy>
  <time name="totalsc">   14.23   14.60</time>
 </calculation>
 <calculation>
  <scstep>
   <time name="dav">    1.92    1.92</time>
   <time name="total">    2.24    2.26</time>
   <energy>
    <i name="alphaZ">     46.37393769 </i>
    <i name="ewald">  32989.39403731 </i>
    <i name="hartreedc"> -53881.51668660 </i>
    <i name="XCdc">   -240.52544085 </i>
    <i name="pawpsdc">  22519.50215899 </i>
    <i name="pawaedc"> -21585.14216657 </i>
    <i name="eentropy">      0.00000000 </i>
    <i name="bandstr">  -1670.00337027 </i>
    <i name="atom">  21781.17123181 </i>
    <i name="e_fr_energy">    -40.74629849 </i>
    <i name="e_wo_entrp">    -40.74629849 </i>
    <i name="e_0_energy">    -40.74629849 </i>
   </energy>
  </scstep>
  <scstep>
   <time name="dav">    2.03    2.03</time>
   <time name="total">    2.35    2.35</time>
   <energy>
    <i name="e_fr_energy">    -40.75870491 </i>
    <i name="e_wo_entrp">    -40.75870491 </i>
    <i name="e_0_energy">    -40.75870491 </i>
   </energy>
  </scstep>
  <scstep>
   <time name="dav">    2.04    2.05</time>
   <time name="total">    2.37    2.46</time>
   <energy>
    <i name="e_fr_energy">    -40.75860033 </i>
    <i name="e_wo_entrp">    -40.75860033 </i>
    <i name="e_0_energy">    -40.75860033 </i>
   </energy>
  </scstep>
  <scstep>
   <time name="dav">    2.01    2.01</time>
   <time name="total">    2.34    2.34</time>
   <energy>
    <i name="e_fr_energy">    -40.75829305 </i>
    <i name="e_wo_entrp">    -40.75829305 </i>
    <i name="e_0_energy">    -40.75829305 </i>
   </energy>
  </scstep>
  <scstep>
   <time name="dav">    2.06    2.06</time>
   <time name="total">    2.30    2.32</time>
   <energy>
    <i name="alphaZ">     46.37393769 </i>
    <i name="ewald">  32989.39403731 </i>
    <i name="hartreedc"> -53881.48453257 </i>
    <i name="XCdc">   -240.53333691 </i>
    <i name="pawpsdc">  22524.04717086 </i>
    <i name="pawaedc"> -21589.76500260 </i>
    <i name="eentropy">      0.00000000 </i>
    <i name="bandstr">  -1669.96178359 </i>
    <i name="atom">  21781.17123181 </i>
    <i name="e_fr_energy">    -40.75827799 </i>
    <i name="e_wo_entrp">    -40.75827799 </i>
    <i name="e_0_energy">    -40.75827799 </i>
   </energy>
  </scstep>
  <structure>
   <crystal>
    <varray name="basis" >
     <v>      20.07364620       0.00000000       0.00000000 </v>
     <v>       0.00000000      20.07364620       0.00000000 </v>
     <v>       0.00000000       0.00000000      20.07364620 </v>
    </varray>
    <i name="volume">   8088.70126436 </i>
    <varray name="rec_basis" >
     <v>       0.04981656       0.00000000       0.00000000 </v>
     <v>       0.00000000       0.04981656       0.00000000 </v>
     <v>       0.00000000       0.00000000       0.04981656 </v>
    </varray>
   </crystal>
   <varray name="positions" >
    <v>       0.70625843       0.44678445       0.45406273 </v>
    <v>       0.58948637       0.61201795       0.55856527 </v>
    <v>       0.63964592       0.56391497       0.43983482 </v>
    <v>       0.62317981       0.47085444       0.56041651 </v>
    <v>       0.59843147       0.54330865       0.67799286 </v>
    <v>       0.65111352       0.42061483       0.68798296 </v>
    <v>       0.53564063       0.66878222       0.67635201 </v>
    <v>       0.53285735       0.65395433       0.44052902 </v>
    <v>       0.58992223       0.37602026       0.45094267 </v>
    <v>       0.53405296       0.56198772       0.34055580 </v>
    <v>       0.52156604       0.49379035       0.46136537 </v>
    <v>       0.51795062       0.43340101       0.65527381 </v>
    <v>       0.46468814       0.55988355       0.62176511 </v>
    <v>       0.45831984       0.34146850       0.46892811 </v>
    <v>       0.46310235       0.68546255       0.55788920 </v>
[...]
       <r>    -0.8235     0.0000   130.0000 </r>
       <r>    -0.7847     0.0000   130.0000 </r>
       <r>    -0.7459     0.0000   130.0000 </r>
       <r>    -0.7072     0.0000   130.0000 </r>
       <r>    -0.6684     0.0000   130.0000 </r>
       <r>    -0.6296     0.0000   130.0000 </r>
       <r>    -0.5909     0.0000   131.0000 </r>
       <r>    -0.5521     0.0000   132.0000 </r>
       <r>    -0.5134     0.0000   132.0000 </r>
       <r>    -0.4746     0.0000   132.0000 </r>
       <r>    -0.4358     0.0000   133.0000 </r>
       <r>    -0.3971     0.0000   133.0000 </r>
       <r>    -0.3583     0.0000   133.0000 </r>
       <r>    -0.3195     0.0000   134.0000 </r>
       <r>    -0.2808     0.0000   134.0000 </r>
       <r>    -0.2420     0.0000   134.0000 </r>
       <r>    -0.2032     0.0000   135.0000 </r>
       <r>    -0.1645     0.0000   135.0000 </r>
       <r>    -0.1257     0.0000   135.0000 </r>
       <r>    -0.0870     0.0000   135.0000 </r>
       <r>    -0.0482     0.0000   135.0000 </r>
       <r>    -0.0094     0.0000   137.0000 </r>
       <r>     0.0293     0.0000   137.0000 </r>
       <r>     0.0681     0.0000   138.0000 </r>
       <r>     0.1069     0.0000   138.0000 </r>
       <r>     0.1456     0.0000   138.0000 </r>
       <r>     0.1844     0.0000   139.0000 </r>
       <r>     0.2232     0.0000   139.0000 </r>
       <r>     0.2619     0.0000   139.0000 </r>
       <r>     0.3007     0.0000   139.0000 </r>
       <r>     0.3394     0.0000   139.0000 </r>
       <r>     0.3782     0.0000   140.0000 </r>
       <r>     0.4170     0.0000   140.0000 </r>
       <r>     0.4557     0.0000   141.0000 </r>
       <r>     0.4945     0.0000   141.0000 </r>
       <r>     0.5333     0.0000   141.0000 </r>
       <r>     0.5720     0.0000   141.0000 </r>
       <r>     0.6108     0.0000   141.0000 </r>
       <r>     0.6496     0.0000   142.0000 </r>
       <r>     0.6883    25.7971   144.0000 </r>
       <r>     0.7271     0.0000   144.0000 </r>
       <r>     0.7658     0.0000   146.0000 </r>
       <r>     0.8046     0.0000   146.0000 </r>
       <r>     0.8434     0.0000   147.0000 </r>
       <r>     0.8821     0.0000   148.0000 </r>
       <r>     0.9209     0.0000   148.0000 </r>
       <r>     0.9597     0.0000   149.0000 </r>
       <r>     0.9984     0.0000   150.0000 </r>
       <r>     1.0372     0.0000   151.0000 </r>
       <r>     1.0759     0.0000   152.0000 </r>
       <r>     1.1147     0.0000   152.0000 </r>
       <r>     1.1535     0.0000   152.0000 </r>
       <r>     1.1922     0.0000   152.0000 </r>
       <r>     1.2310     0.0000   152.0000 </r>
       <r>     1.2698     0.0000   152.0000 </r>
       <r>     1.3085     0.0000   152.0000 </r>
       <r>     1.3473     0.0000   152.0000 </r>
       <r>     1.3861     0.0000   152.0000 </r>
       <r>     1.4248     0.0000   152.0000 </r>
       <r>     1.4636     0.0000   152.0000 </r>
       <r>     1.5023     0.0000   152.0000 </r>
       <r>     1.5411     0.0000   152.0000 </r>
       <r>     1.5799     0.0000   152.0000 </r>
       <r>     1.6186     0.0000   152.0000 </r>
      </set>
      <set comment="spin 2">
       <r>   -10.0104     0.0000     0.0000 </r>
       <r>    -9.9717     0.0000     0.0000 </r>
       <r>    -9.9329     0.0000     0.0000 </r>
       <r>    -9.8941     0.0000     0.0000 </r>
       <r>    -9.8554     0.0000     0.0000 </r>
       <r>    -9.8166     0.0000     0.0000 </r>
       <r>    -9.7778     0.0000     0.0000 </r>
       <r>    -9.7391     0.0000     0.0000 </r>
       <r>    -9.7003     0.0000     0.0000 </r>
       <r>    -9.6615     0.0000     0.0000 </r>
       <r>    -9.6228     0.0000     0.0000 </r>
       <r>    -9.5840     0.0000     0.0000 </r>
       <r>    -9.5453     0.0000     0.0000 </r>
       <r>    -9.5065     0.0000     0.0000 </r>
       <r>    -9.4677     0.0000     0.0000 </r>
       <r>    -9.4290     0.0000     1.0000 </r>
       <r>    -9.3902     0.0000     1.0000 </r>
       <r>    -9.3514     0.0000     1.0000 </r>
       <r>    -9.3127     0.0000     1.0000 </r>
       <r>    -9.2739     0.0000     1.0000 </r>
       <r>    -9.2351     0.0000     1.0000 </r>
       <r>    -9.1964     0.0000     1.0000 </r>
       <r>    -9.1576     0.0000     1.0000 </r>
       <r>    -9.1189     0.0000     1.0000 </r>
       <r>    -9.0801     0.0000     2.0000 </r>
       <r>    -9.0413     0.0000     2.0000 </r>
       <r>    -9.0026     0.0000     3.0000 </r>
       <r>    -8.9638     0.0000     4.0000 </r>
       <r>    -8.9250     0.0000     4.0000 </r>
       <r>    -8.8863     0.0000     7.0000 </r>
       <r>    -8.8475     0.0000     8.0000 </r>
       <r>    -8.8087     0.0000     9.0000 </r>
       <r>    -8.7700     0.0000    10.0000 </r>
       <r>    -8.7312     0.0000    10.0000 </r>
       <r>    -8.6925     0.0000    11.0000 </r>
       <r>    -8.6537     0.0000    11.0000 </r>
       <r>    -8.6149     0.0000    11.0000 </r>
       <r>    -8.5762     0.0000    12.0000 </r>
       <r>    -8.5374    25.7975    13.0000 </r>
       <r>    -8.4986     0.0000    15.0000 </r>
       <r>    -8.4599     0.0000    15.0000 </r>
       <r>    -8.4211     0.0000    17.0000 </r>
       <r>    -8.3823     0.0000    19.0000 </r>
       <r>    -8.3436     0.0000    21.0000 </r>
       <r>    -8.3048     0.0000    21.0000 </r>
       <r>    -8.2661     0.0000    23.0000 </r>
       <r>    -8.2273     0.0000    24.0000 </r>
       <r>    -8.1885     0.0000    25.0000 </r>
       <r>    -8.1498     0.0000    26.0000 </r>
       <r>    -8.1110     0.0000    28.0000 </r>
       <r>    -8.0722     0.0000    29.0000 </r>
       <r>    -8.0335     0.0000    30.0000 </r>
       <r>    -7.9947     0.0000    31.0000 </r>
       <r>    -7.9560     0.0000    32.0000 </r>
       <r>    -7.9172     0.0000    34.0000 </r>
       <r>    -7.8784     0.0000    34.0000 </r>
       <r>    -7.8397     0.0000    37.0000 </r>
       <r>    -7.8009     0.0000    38.0000 </r>
       <r>    -7.7621     0.0000    40.0000 </r>
       <r>    -7.7234     0.0000    41.0000 </r>
       <r>    -7.6846     0.0000    41.0000 </r>
       <r>    -7.6458     0.0000    42.0000 </r>
       <r>    -7.6071     0.0000    44.0000 </r>
       <r>    -7.5683     0.0000    45.0000 </r>
       <r>    -7.5296     0.0000    47.0000 </r>
       <r>    -7.4908     0.0000    48.0000 </r>
       <r>    -7.4520     0.0000    49.0000 </r>
       <r>    -7.4133     0.0000    50.0000 </r>
       <r>    -7.3745     0.0000    52.0000 </r>
       <r>    -7.3357     0.0000    54.0000 </r>
       <r>    -7.2970     0.0000    55.0000 </r>
       <r>    -7.2582     0.0000    56.0000 </r>
       <r>    -7.2194     0.0000    56.0000 </r>
       <r>    -7.1807     0.0000    59.0000 </r>
       <r>    -7.1419     0.0000    60.0000 </r>
       <r>    -7.1032     0.0000    62.0000 </r>
       <r>    -7.0644     0.0000    64.0000 </r>
       <r>    -7.0256    25.7975    67.0000 </r>
       <r>    -6.9869     0.0000    69.0000 </r>
       <r>    -6.9481     0.0000    71.0000 </r>
       <r>    -6.9093     0.0000    73.0000 </r>
       <r>    -6.8706     0.0000    75.0000 </r>
       <r>    -6.8318     0.0000    77.0000 </r>
       <r>    -6.7930     0.0000    80.0000 </r>
       <r>    -6.7543     0.0000    82.0000 </r>
       <r>    -6.7155     0.0000    85.0000 </r>
       <r>    -6.6768     0.0000    86.0000 </r>
       <r>    -6.6380     0.0000    88.0000 </r>
       <r>    -6.5992     0.0000    91.0000 </r>
       <r>    -6.5605     0.0000    91.0000 </r>
       <r>    -6.5217     0.0000    94.0000 </r>
       <r>    -6.4829     0.0000    95.0000 </r>
       <r>    -6.4442     0.0000    96.0000 </r>
       <r>    -6.4054     0.0000   100.0000 </r>
       <r>    -6.3666     0.0000   101.0000 </r>
       <r>    -6.3279     0.0000   103.0000 </r>
       <r>    -6.2891     0.0000   104.0000 </r>
       <r>    -6.2504    12.5974   105.4883 </r>
       <r>    -6.2116     0.0000   108.0000 </r>
       <r>    -6.1728     0.0000   108.0000 </r>
       <r>    -6.1341    24.8209   108.9621 </r>
       <r>    -6.0953     0.0000   109.0000 </r>
       <r>    -6.0565     0.0000   109.0000 </r>
       <r>    -6.0178     0.0000   109.0000 </r>
       <r>    -5.9790     0.0000   109.0000 </r>
       <r>    -5.9402     0.0000   109.0000 </r>
       <r>    -5.9015     0.0000   109.0000 </r>
       <r>    -5.8627     0.0000   109.0000 </r>
       <r>    -5.8240     0.0000   109.0000 </r>
       <r>    -5.7852     0.0000   109.0000 </r>
       <r>    -5.7464     0.0000   109.0000 </r>
       <r>    -5.7077     0.0000   109.0000 </r>
       <r>    -5.6689     0.0000   109.0000 </r>
       <r>    -5.6301     0.0000   109.0000 </r>
       <r>    -5.5914     0.0000   109.0000 </r>
       <r>    -5.5526     0.0000   109.0000 </r>
       <r>    -5.5138     0.0000   109.0000 </r>
       <r>    -5.4751     0.0000   109.0000 </r>
       <r>    -5.4363     0.0000   109.0000 </r>
       <r>    -5.3976     0.0000   109.0000 </r>
       <r>    -5.3588     0.0000   109.0000 </r>
       <r>    -5.3200     0.0000   109.0000 </r>
       <r>    -5.2813     0.0000   109.0000 </r>
       <r>    -5.2425     0.0000   109.0000 </r>
       <r>    -5.2037     0.0000   110.0000 </r>
       <r>    -5.1650     0.0000   110.0000 </r>
       <r>    -5.1262     0.0000   110.0000 </r>
       <r>    -5.0874     0.0000   110.0000 </r>
       <r>    -5.0487     0.0000   110.0000 </r>
       <r>    -5.0099     0.0000   110.0000 </r>
       <r>    -4.9712     0.0000   110.0000 </r>
       <r>    -4.9324     0.0000   111.0000 </r>
       <r>    -4.8936     0.0000   111.0000 </r>
       <r>    -4.8549     0.0000   111.0000 </r>
       <r>    -4.8161     0.0000   111.0000 </r>
       <r>    -4.7773     0.0000   111.0000 </r>
       <r>    -4.7386     0.0000   111.0000 </r>
       <r>    -4.6998     0.0000   111.0000 </r>
       <r>    -4.6611     0.0000   111.0000 </r>
       <r>    -4.6223     0.0000   111.0000 </r>
       <r>    -4.5835     0.0000   111.0000 </r>
       <r>    -4.5448     0.0000   111.0000 </r>
       <r>    -4.5060     0.0000   112.0000 </r>
       <r>    -4.4672     0.0000   112.0000 </r>
       <r>    -4.4285     0.0000   113.0000 </r>
       <r>    -4.3897     0.0000   113.0000 </r>
       <r>    -4.3509     0.0000   113.0000 </r>
       <r>    -4.3122     0.0000   113.0000 </r>
       <r>    -4.2734     0.0000   113.0000 </r>
       <r>    -4.2347     0.0000   113.0000 </r>
       <r>    -4.1959     0.0000   113.0000 </r>
       <r>    -4.1571     0.0000   113.0000 </r>
       <r>    -4.1184     0.0000   113.0000 </r>
       <r>    -4.0796     0.0000   114.0000 </r>
       <r>    -4.0408     0.0000   114.0000 </r>
       <r>    -4.0021     0.0000   114.0000 </r>
       <r>    -3.9633     0.0000   114.0000 </r>
       <r>    -3.9245     0.0000   114.0000 </r>
       <r>    -3.8858     0.0000   114.0000 </r>
       <r>    -3.8470     0.0000   114.0000 </r>
       <r>    -3.8083     0.0000   115.0000 </r>
       <r>    -3.7695     0.0000   115.0000 </r>
       <r>    -3.7307     0.0000   115.0000 </r>
       <r>    -3.6920     0.0000   115.0000 </r>
       <r>    -3.6532     0.0000   115.0000 </r>
       <r>    -3.6144     0.0000   115.0000 </r>
       <r>    -3.5757     0.0000   115.0000 </r>
       <r>    -3.5369     0.0000   115.0000 </r>
       <r>    -3.4981     0.0000   115.0000 </r>
       <r>    -3.4594     0.0000   115.0000 </r>
       <r>    -3.4206     0.0000   116.0000 </r>
       <r>    -3.3819     0.0000   116.0000 </r>
       <r>    -3.3431     0.0000   116.0000 </r>
       <r>    -3.3043     0.0000   116.0000 </r>
       <r>    -3.2656     0.0000   116.0000 </r>
       <r>    -3.2268     0.0000   116.0000 </r>
       <r>    -3.1880     0.0000   116.0000 </r>
       <r>    -3.1493     0.0000   116.0000 </r>
       <r>    -3.1105     0.0000   116.0000 </r>
       <r>    -3.0717     0.0000   116.0000 </r>
       <r>    -3.0330     0.0000   116.0000 </r>
       <r>    -2.9942     0.0000   116.0000 </r>
       <r>    -2.9555     0.0000   116.0000 </r>
       <r>    -2.9167     0.0000   117.0000 </r>
       <r>    -2.8779     0.0000   117.0000 </r>
       <r>    -2.8392     0.0000   117.0000 </r>
       <r>    -2.8004     0.0000   117.0000 </r>
       <r>    -2.7616     0.0000   117.0000 </r>
       <r>    -2.7229     0.0000   117.0000 </r>
       <r>    -2.6841     0.0000   117.0000 </r>
       <r>    -2.6453     0.0000   118.0000 </r>
       <r>    -2.6066     0.0000   118.0000 </r>
       <r>    -2.5678     0.0000   118.0000 </r>
       <r>    -2.5291     0.0000   118.0000 </r>
       <r>    -2.4903     0.0000   118.0000 </r>
       <r>    -2.4515     0.0000   119.0000 </r>
       <r>    -2.4128     0.0000   119.0000 </r>
       <r>    -2.3740     0.0000   119.0000 </r>
       <r>    -2.3352     0.0000   120.0000 </r>
       <r>    -2.2965     0.0000   120.0000 </r>
       <r>    -2.2577     0.0000   120.0000 </r>
       <r>    -2.2189     0.0000   121.0000 </r>
       <r>    -2.1802     0.0000   121.0000 </r>
       <r>    -2.1414     0.0000   122.0000 </r>
       <r>    -2.1027     0.0000   122.0000 </r>
       <r>    -2.0639     0.0002   122.0000 </r>
       <r>    -2.0251     0.0000   123.0000 </r>
       <r>    -1.9864     0.0000   123.0000 </r>
       <r>    -1.9476     0.0000   123.0000 </r>
       <r>    -1.9088     0.0000   123.0000 </r>
       <r>    -1.8701     0.0000   123.0000 </r>
       <r>    -1.8313     0.0000   123.0000 </r>
       <r>    -1.7926     0.0000   124.0000 </r>
       <r>    -1.7538     0.0000   124.0000 </r>
       <r>    -1.7150     0.0000   124.0000 </r>
       <r>    -1.6763     0.0000   124.0000 </r>
       <r>    -1.6375     0.0000   124.0000 </r>
       <r>    -1.5987     0.0000   124.0000 </r>
       <r>    -1.5600     0.0000   125.0000 </r>
       <r>    -1.5212     0.0000   125.0000 </r>
       <r>    -1.4824     0.0000   126.0000 </r>
       <r>    -1.4437     0.0000   126.0000 </r>
       <r>    -1.4049     0.0000   126.0000 </r>
       <r>    -1.3662     0.0000   126.0000 </r>
       <r>    -1.3274     0.0000   126.0000 </r>
       <r>    -1.2886     0.0000   126.0000 </r>
       <r>    -1.2499     0.0000   126.0000 </r>
       <r>    -1.2111     0.0000   126.0000 </r>
       <r>    -1.1723     0.0000   126.0000 </r>
       <r>    -1.1336     0.0000   126.0000 </r>
       <r>    -1.0948     0.0000   126.0000 </r>
       <r>    -1.0560     0.0000   127.0000 </r>
       <r>    -1.0173     0.0000   127.0000 </r>
       <r>    -0.9785     0.0000   127.0000 </r>
       <r>    -0.9398     0.0000   127.0000 </r>
       <r>    -0.9010     0.0000   128.0000 </r>
       <r>    -0.8622     0.0000   128.0000 </r>
       <r>    -0.8235     0.0000   129.0000 </r>
       <r>    -0.7847     0.0000   130.0000 </r>
       <r>    -0.7459     0.0000   130.0000 </r>
       <r>    -0.7072     0.0000   130.0000 </r>
       <r>    -0.6684     0.0000   130.0000 </r>
       <r>    -0.6296     0.0000   130.0000 </r>
       <r>    -0.5909     0.0000   130.0000 </r>
       <r>    -0.5521     0.0000   131.0000 </r>
       <r>    -0.5134     0.0000   131.0000 </r>
       <r>    -0.4746     0.0000   131.0000 </r>
       <r>    -0.4358     0.0000   132.0000 </r>
       <r>    -0.3971     0.0000   133.0000 </r>
       <r>    -0.3583     0.0000   133.0000 </r>
       <r>    -0.3195     0.0000   133.0000 </r>
       <r>    -0.2808     0.0000   133.0000 </r>
       <r>    -0.2420     0.0000   134.0000 </r>
       <r>    -0.2032     0.0000   134.0000 </r>
       <r>    -0.1645     0.0000   135.0000 </r>
       <r>    -0.1257     0.0000   135.0000 </r>
       <r>    -0.0870     0.0000   135.0000 </r>
       <r>    -0.0482     0.0000   135.0000 </r>
       <r>    -0.0094     0.0000   136.0000 </r>
       <r>     0.0293     0.0000   136.0000 </r>
       <r>     0.0681     0.0000   138.0000 </r>
       <r>     0.1069     0.0000   138.0000 </r>
       <r>     0.1456     0.0000   138.0000 </r>
       <r>     0.1844     0.0000   138.0000 </r>
       <r>     0.2232     0.0000   139.0000 </r>
       <r>     0.2619     0.0000   139.0000 </r>
       <r>     0.3007     0.0000   139.0000 </r>
       <r>     0.3394     0.0000   139.0000 </r>
       <r>     0.3782     0.0000   139.0000 </r>
       <r>     0.4170     0.0000   139.0000 </r>
       <r>     0.4557     0.0000   140.0000 </r>
       <r>     0.4945     0.0000   141.0000 </r>
       <r>     0.5333     0.0000   141.0000 </r>
       <r>     0.5720     0.0000   141.0000 </r>
       <r>     0.6108     0.0000   141.0000 </r>
       <r>     0.6496     0.0000   142.0000 </r>
       <r>     0.6883     0.0000   142.0000 </r>
       <r>     0.7271     0.0000   143.0000 </r>
       <r>     0.7658    25.7975   145.0000 </r>
       <r>     0.8046     0.0000   146.0000 </r>
       <r>     0.8434     0.0000   147.0000 </r>
       <r>     0.8821     0.0000   147.0000 </r>
       <r>     0.9209     0.0000   148.0000 </r>
       <r>     0.9597     0.0000   149.0000 </r>
       <r>     0.9984     0.0000   150.0000 </r>
       <r>     1.0372     0.0000   150.0000 </r>
       <r>     1.0759     0.0000   151.0000 </r>
       <r>     1.1147     0.0000   152.0000 </r>
       <r>     1.1535     0.0000   152.0000 </r>
       <r>     1.1922     0.0000   152.0000 </r>
       <r>     1.2310     0.0000   152.0000 </r>
       <r>     1.2698     0.0000   152.0000 </r>
       <r>     1.3085     0.0000   152.0000 </r>
       <r>     1.3473     0.0000   152.0000 </r>
       <r>     1.3861     0.0000   152.0000 </r>
       <r>     1.4248     0.0000   152.0000 </r>
       <r>     1.4636     0.0000   152.0000 </r>
       <r>     1.5023     0.0000   152.0000 </r>
       <r>     1.5411     0.0000   152.0000 </r>
       <r>     1.5799     0.0000   152.0000 </r>
       <r>     1.6186     0.0000   152.0000 </r>
      </set>
     </set>
    </array>
   </total>
  </dos>
 </calculation>
 <structure name="finalpos" >
  <crystal>
   <varray name="basis" >
    <v>      20.07364620       0.00000000       0.00000000 </v>
    <v>       0.00000000      20.07364620       0.00000000 </v>
    <v>       0.00000000       0.00000000      20.07364620 </v>
   </varray>
   <i name="volume">   8088.70126436 </i>
   <varray name="rec_basis" >
    <v>       0.04981656       0.00000000       0.00000000 </v>
    <v>       0.00000000       0.04981656       0.00000000 </v>
    <v>       0.00000000       0.00000000       0.04981656 </v>
   </varray>
  </crystal>
  <varray name="positions" >
   <v>       0.73245045       0.46147541       0.44781530 </v>
   <v>       0.59089362       0.61496826       0.55523924 </v>
   <v>       0.63548052       0.55578997       0.43773320 </v>
   <v>       0.64656163       0.47800750       0.55502753 </v>
   <v>       0.58947583       0.53515249       0.66998814 </v>
   <v>       0.64793559       0.41042240       0.67496794 </v>
   <v>       0.53697581       0.66252037       0.67431925 </v>
   <v>       0.51989488       0.63161685       0.43289289 </v>
   <v>       0.60258042       0.41524506       0.43141271 </v>
   <v>       0.52777894       0.50951912       0.35726392 </v>
   <v>       0.51529408       0.50359732       0.49927635 </v>
   <v>       0.52190765       0.42398969       0.61982988 </v>
   <v>       0.45958293       0.55825442       0.62370482 </v>
   <v>       0.48712782       0.36553915       0.49024721 </v>
   <v>       0.46597837       0.68190129       0.55521375 </v>
   <v>       0.39044607       0.57518358       0.49914604 </v>
   <v>       0.42422924       0.32702337       0.60775209 </v>
   <v>       0.39616256       0.45142900       0.56150502 </v>
   <v>       0.40968197       0.58363158       0.35859933 </v>
   <v>       0.40587530       0.45727122       0.41941461 </v>
   <v>       0.39791538       0.69853683       0.43513592 </v>
  </varray>
 </structure>
</modeling>
