17
Energy = -21.46295094 eV
Ba -0.3388117250135844 16.481336440257028 14.769301915640376
Ba 19.33044267204928 12.918304019904706 11.70613535432683
Ba 16.518257380316406 13.905786643698034 14.23327208966768
Ba 19.33547479815526 12.060696625849548 16.245148367120514
Ba 16.095543320561887 10.138602596886372 13.116945679003361
Ba 14.073380633728041 13.973361341495963 11.238498081009935
Ba 16.36121776873453 15.527932833459644 18.05596787372762
Ba 17.389325987741206 16.73782271048068 10.970548854780132
Ba 14.92361751344246 17.734855307253937 14.264441230000855
Ba 11.723244620349854 11.294707924381825 13.901233671339016
Ba 15.054205069962714 11.176689142397189 17.231524624265617
Ba 13.33045924134355 18.282512175110515 10.23754822918041
Ba 12.545235880464713 13.843503789090704 19.813759170740035
Ba 11.743453224520955 17.606872687989018 17.607945596220798
Ba 13.100894951361575 14.348994792156784 15.851463552299492
Ba 9.303083579363186 13.83294927669499 16.794040832903036
Ba 10.772242336490875 16.168659033812833 13.225380937528165
