11
Energy = -11.66143656 eV
Ba 15.604766544000046 14.008106218502203 12.39354418906668
Ba 11.279703827350808 14.631634002302699 12.459622613383754
Ba 10.529225794391486 10.49668573100394 12.808920895717211
Ba 12.884061457380517 11.929834760811788 9.655318839444714
Ba 15.775328867640193 15.702898327945537 16.238139233481625
Ba 11.626752475126722 16.516550809724066 16.511347187002684
Ba 14.844885807281921 9.759655469013447 12.861178925290751
Ba 13.162351345562218 12.469004238720034 15.742043855664328
Ba 8.6793405800351 12.65366376571979 9.599274231780267
Ba 14.022931252414088 18.06860071806506 13.216020128520329
Ba 17.519392029351703 11.73995027061429 15.654127549862475
