15
Energy = -17.67641495 eV
Ba 8.582837542786061 14.853212163365866 16.45691358332839
Ba 10.377274770032509 17.700749543329945 13.658979112855574
Ba 13.048962577198226 16.48975424114199 10.37694523610993
Ba 11.857064737767404 17.458679302224546 17.793993635269434
Ba 11.177819577109345 13.647405570652166 13.172815106225798
Ba 14.49569919227171 16.077821519800096 14.428743309921362
Ba 17.401176783909246 16.271725166601037 11.05096942705718
Ba 18.895512140221584 16.016001148239734 15.208096332725379
Ba 15.184968849154364 12.726110245240811 11.670906232713254
Ba 15.95737437475551 16.02949743803575 18.493696495235298
Ba 12.63947752416226 13.41392704515261 17.25826982020261
Ba 19.42088047744363 12.753665909025118 12.461912409209521
Ba 16.64981631543639 12.48174164245746 15.774985305072189
Ba 13.226535887635599 10.05260662490095 14.52948223108813
Ba 17.17864048430321 8.981884592010099 13.055742179885007
