22
Energy = -27.98806669 eV
Ba 16.996625306929772 14.207664789968097 19.937863412270563
Ba 18.865324267580043 16.536102988874855 16.475337250255873
Ba 14.57439390760585 11.659274321513928 17.512596344670953
Ba 16.434837010588353 10.555957744838855 13.279765006237986
Ba 12.596359983844959 14.085901021590253 0.4373018342382206
Ba 18.86771211214355 12.116805167840488 16.702457955052182
Ba 14.774126427379931 17.046197422157103 17.951898723319932
Ba 19.794581343462536 13.777812085460322 12.916651267759248
Ba 16.729978125723115 0.24709273702570528 15.647069824164697
Ba 10.095047630148802 11.196505893072715 18.015237156647554
Ba 12.03315214249746 10.795801151188922 14.037946654954167
Ba 17.583605373605778 17.635327293180293 12.30830462716616
Ba 13.567151805508228 10.628122707993496 10.001668478273238
Ba 11.704809702836753 14.66413899957576 16.21419597253764
Ba 15.786715588897628 14.42465672859378 14.569299719661045
Ba 9.329661649031989 10.756707392527645 10.694993404006455
Ba 13.552376663326632 17.975627085005332 13.806549126441666
Ba 15.352220822541838 1.339010541604248 11.593631394937482
Ba 16.217805463838925 13.948946454164874 10.353216229579731
Ba 8.303064876207113 12.878227856681596 14.222016904475726
Ba 14.156893664585366 17.63192652744814 9.523422011898973
Ba 12.099386096792065 14.316912852878312 11.768776483711985
