22
Energy = -29.2799342 eV
Ba 17.6662380309915 12.285496557529722 11.103419211946289
Ba 15.804858869563665 15.673190870127506 8.551436477870075
Ba 14.192528195721883 14.608414674596276 12.2510035845443
Ba 18.050214180172865 16.510204055275327 12.325449724261384
Ba 14.273009046565555 10.507853222670647 13.663451515556268
Ba 11.41848854967699 15.901586176729374 9.484934950252246
Ba 14.417769358433015 18.796990845663338 11.316826179557955
Ba 10.368823672767007 12.686474099701979 12.78652626592983
Ba 0.8961883055225636 13.553519067881801 14.127970204959846
Ba 16.92724996943105 13.524836953370496 15.208515396170075
Ba 10.935711179131323 16.98960180891031 13.8775760339586
Ba 17.9769697972271 0.42091720252064135 13.836830371238838
Ba 15.191327799911024 10.80877950452196 18.110806674198844
Ba 12.863117869659813 13.828709892280107 16.11286971265152
Ba 19.505789693343402 12.665382729356505 18.290157555009397
Ba 8.779946196166142 14.115607841104989 16.818828540628267
Ba 11.671730207416942 17.17907738313166 18.395872381047838
Ba 19.287956023677193 16.843838602864285 16.546959039835045
Ba 15.069395027707996 17.548198765260906 15.462502982143132
Ba 10.87948892311342 10.209514163870793 16.653687185309444
Ba 15.72933277394186 15.116099211006047 19.09733581360311
Ba 11.690598225399198 12.987895604186537 -0.04197127321108929
