37
Energy = -52.41009559 eV
Ba 21.792110607172226 17.24359208309434 12.039211831322318
Ba 19.122654219416216 18.717204841982436 15.094330404048227
Ba 0.5682497144325175 19.256200851385017 16.64590179081154
Ba 19.71293032897834 21.89872660779767 18.090554857741743
Ba 22.62605194239492 20.252705563192578 21.226855290383757
Ba 1.2756094241920406 16.17395032406724 19.98961507817711
Ba 15.65778463043598 21.594862258578583 14.474865807202189
Ba 18.081105613999295 20.124437098214393 22.094794997279514
Ba 16.30080744645972 19.19504556909826 18.268836761644486
Ba 21.845381751791315 15.060365708099784 15.948625071071373
Ba 21.570859091386367 12.728386508465515 11.90742898565541
Ba 17.49371898480285 18.740560406029036 11.093847963621696
Ba 13.208965421175565 19.63473690934979 11.267719087859666
Ba 11.15343726847421 -0.12747426698845551 14.045396301809223
Ba 18.350587035049582 14.999121233455378 13.1324453979404
Ba 20.60541275520736 16.48283734885028 0.5256468573974074
Ba 20.206139385587335 17.750470310480605 19.151974423634908
Ba 14.72622135322638 17.439208949898962 14.488410154453307
Ba 12.328960707447633 20.00629102918686 17.2362126470685
Ba 20.227632610312767 13.375173248550297 20.02830720351945
Ba 10.260451395368445 18.4843608667729 14.050698654106307
Ba 16.79644189452233 16.066537843763026 21.11613434799874
Ba 14.492484256676057 15.13619250746032 10.964480855841686
Ba 18.846726907659395 14.964880966576294 9.081402652607634
Ba 19.127403331233467 11.457638433712043 15.618385108270282
Ba 13.15093836224029 18.51173713857562 21.32125978627188
Ba 17.692836790166684 15.213702676937347 17.105024876422018
Ba 8.075793166460457 20.65900793410426 16.908562851883953
Ba 13.698955010380649 15.695627003832685 18.07119051373379
Ba 11.168651091625993 14.543904457820014 14.27427775111954
Ba 17.3211321378369 12.955766391306973 1.0352296440128892
Ba 17.3257611491015 11.40785848159174 11.33075480036739
Ba 9.757500282247744 16.552291272874214 18.143899327142737
Ba 15.949897572526943 12.037346324348363 19.397472390934094
Ba 12.972876968476925 14.083044920333258 21.945861382567053
Ba 14.95894308014687 12.807493829180935 14.928740277304598
Ba 11.546321302973597 12.211944492906433 18.07570929403776
