41
Energy = -56.78264094 eV
Ba 0.24038710477360517 13.886018025485704 18.518692838734204
Ba 20.472987103921483 16.135946910137683 20.606748832067474
Ba 0.7743735101385399 18.192465817373304 19.66113963218011
Ba 21.857494849095218 19.03807315772904 0.08354517884517532
Ba 17.82759698958103 16.677323525808486 0.6972326861945958
Ba 21.42117169017709 10.176265461083208 16.24513792051618
Ba 19.443067044299493 13.714133769887857 16.913429181064785
Ba 16.621127799286377 14.248709640101094 20.618691376974926
Ba 2.130334367443642 17.058070928431313 15.602229641847853
Ba -0.1445867810811856 13.752457667389228 14.500543424883679
Ba 17.259575599173754 10.43998754467684 14.651911370725173
Ba 17.95666941890858 20.898179722443686 23.136850812015425
Ba 13.436794035330296 14.660146795510956 -0.04539763954343982
Ba 21.305356339540108 17.48136331698573 16.378772708149636
Ba 17.347859718174142 10.349501926036444 18.78631140289207
Ba 17.239263526166166 17.60761141981962 18.277197039429748
Ba 20.265440477839988 20.377546903979837 19.550240902450167
Ba 13.208236080224712 11.747429992200908 19.752513058141137
Ba 19.842180182847297 12.857265927103645 12.42093665478848
Ba 14.882516975240263 18.425248445247924 21.75382919314007
Ba 12.74168115736409 16.058298765072514 19.018208361975574
Ba 21.82523421959623 16.956766237477677 12.189516190409979
Ba 17.80233171468863 16.438173077670555 13.845625749339222
Ba 15.256981926652745 13.849178081646619 16.45516326422435
Ba 12.913313494824028 10.705490895828786 15.321061402106126
Ba 16.03831869707348 21.6917611624194 19.15095527287101
Ba 10.036203370060468 13.301186717479512 17.22748497374549
Ba 15.401913619859856 13.27287794059828 12.063018824565612
Ba 11.837371975261089 20.376624203560393 19.06953562226601
Ba 18.31177476950447 15.719017949308661 9.51689367189467
Ba 17.949608299812546 20.749871330119934 15.248927473583075
Ba 14.14789918463118 18.567836296714713 15.653984549585823
Ba 9.519048999648275 17.77311543060084 16.46417595308974
Ba 18.60730166890134 19.75353823527119 11.110333959883183
Ba 14.65421742768756 17.605459364631106 11.318897149128633
Ba 11.973219525218644 15.188034734941837 13.955748892315782
Ba 13.382211332448964 22.74217952001789 15.808510295441193
Ba 9.141731405967112 22.15509791032038 15.909309593679724
Ba 14.93651954960869 21.808349063698643 12.014173079400411
Ba 11.20400977059832 19.820850678684682 13.039889637480636
Ba 11.111849823794156 0.7367465214063069 12.371684348609294
