55
Energy = -79.0766537 eV
Ba 15.751302655909468 16.274662594804568 15.55707205293263
Ba 8.485595449046444 9.508518006615287 13.969922892065055
Ba 15.589947967241148 9.39657798715219 19.422153012802006
Ba 8.446497721704288 16.07884693975225 17.785523488757928
Ba 15.81641416428847 13.946877025295745 11.604607623353031
Ba 15.734478303958097 13.93986072328587 19.481521960805612
Ba 15.652739453053464 20.655018947482574 15.467630443350549
Ba 15.753791373994039 18.415875625775485 11.638254696911863
Ba 19.10065657288952 20.481900841364723 18.13056628130898
Ba 15.780809452755648 11.593870143628289 15.57397830745034
Ba 15.816351649614544 9.460291410831555 11.664564345688518
Ba 11.950652986343812 16.087396953671302 20.347214064142197
Ba 8.454223778379342 11.776994567252231 17.797023925351898
Ba 19.405607207695017 16.170772203971783 10.529264599403051
Ba 8.368569754185158 13.93500924423719 21.606890185467996
Ba 15.718667765982397 7.208888001234718 15.49831096810676
Ba 19.430802035829853 11.733495842634044 10.535649103374595
Ba 19.378612535131712 11.697025870236358 18.259518137554885
Ba 12.011195972210633 13.922656709588324 16.55922917233018
Ba 8.453891314806198 16.193573199148773 10.014877073644197
Ba 19.133218346200717 7.450452362454671 18.180233416675783
Ba 11.99269412797773 18.465261626461146 16.57520428712337
Ba 8.487520658413636 11.695584472283773 10.029144677682295
Ba 15.566245204149528 18.50036941992503 19.389522032496608
Ba 12.049165164752843 9.414058541879838 16.595695351001996
Ba 12.171790256311885 13.95308749367603 8.735140430938245
Ba 19.349304171663405 16.211515572914692 18.246001979496427
Ba 19.344612283068013 13.94178017671049 14.381268147783798
Ba 19.450646968032984 13.95092734915268 6.796424803087687
Ba 8.696212302952434 13.929946292234117 6.14236463133662
Ba 19.309688170705453 18.398975528976475 14.334567533415134
Ba 12.235968434064556 18.478087592934617 8.837103236008826
Ba 8.815288022062997 18.232488552856452 6.284915867289967
Ba 19.38439950600438 9.48914003192435 14.353014101590867
Ba 8.680748225473492 20.425841450225256 10.137965241219574
Ba 8.82984491325836 9.620452063887036 6.297087894031849
Ba 11.995474128634621 16.288713915020598 12.702824786892547
Ba 12.271663439703538 9.42303011901907 8.869041168815619
Ba 12.380021257825858 16.16047720909858 4.990125217545425
Ba 12.103173270597289 20.655311301173857 12.74820379358586
Ba 8.727232228246011 7.440140157938499 10.176568142919017
Ba 12.393135223197302 11.726032620657122 5.0210953078827405
Ba 12.027969328941568 11.600770253381363 12.710859077821183
Ba 15.9533022887511 16.196047442700284 7.691497085244532
Ba 15.973346645110794 13.943570086567917 4.070513675576864
Ba 12.167317944325218 7.26086740669109 12.785114696284307
Ba 15.978440014580663 11.693094229260732 7.705843708395437
Ba 19.07867323192973 13.975414040520176 22.14928624527461
Ba 8.418469609544452 13.943267923868426 13.882834859481255
Ba 11.964173015764517 11.78433116372264 20.368044194141977
Ba 18.938083889215097 18.281747207819123 21.977408880565516
Ba 8.412722271790647 18.383421318240714 13.94898233453765
Ba 15.334517607585987 16.15682661880081 23.198455210420686
Ba 18.943748841044556 9.66690815582075 22.003232937802817
Ba 15.337455665886852 11.781022236026677 23.237717483618578
