   51   51 1000    2
  0.2489843E+03  0.2332996E-08  0.2332996E-08  0.2332996E-08  0.1000000E-15
  1.000000000000000E-004
  CAR 
 unknown system                          
    561      1    364
 
  0.0000000E+00  0.0000000E+00  0.0000000E+00  0.1000000E+01
    1       -9.831596     -9.798358
    2       -9.306461     -9.287619
    3       -9.188503     -9.170619
    4       -9.147363     -9.125286
    5       -9.137646     -9.114123
    6       -9.077685     -9.059313
    7       -9.042574     -9.022783
    8       -8.989827     -8.968143
    9       -8.978149     -8.953985
   10       -8.951042     -8.925536
   11       -8.919010     -8.895815
   12       -8.895668     -8.874873
   13       -8.888900     -8.857491
   14       -8.858636     -8.832642
   15       -8.827216     -8.807440
   16       -8.813122     -8.793965
   17       -8.797194     -8.776861
   18       -8.767161     -8.746024
   19       -8.737212     -8.717693
   20       -8.724812     -8.703117
   21       -8.707594     -8.687213
   22       -8.670706     -8.650305
   23       -8.662249     -8.641025
   24       -8.646030     -8.625238
   25       -8.624972     -8.606455
   26       -8.611601     -8.592191
   27       -8.609805     -8.589311
   28       -8.593947     -8.572963
   29       -8.581992     -8.562082
   30       -8.563436     -8.541581
   31       -8.558508     -8.537782
   32       -8.553132     -8.533402
   33       -8.522086     -8.501751
   34       -8.503162     -8.484347
   35       -8.499240     -8.480934
   36       -8.491911     -8.469044
   37       -8.469601     -8.450718
   38       -8.450201     -8.433108
   39       -8.435975     -8.415335
   40       -8.421648     -8.401878
   41       -8.411345     -8.390537
   42       -8.404456     -8.379021
   43       -8.392520     -8.370364
   44       -8.371353     -8.350130
   45       -8.349085     -8.330415
   46       -8.343631     -8.325116
   47       -8.342496     -8.321161
   48       -8.324316     -8.305215
   49       -8.309422     -8.286494
   50       -8.301512     -8.281701
   51       -8.296554     -8.275249
   52       -8.283385     -8.263947
   53       -8.271322     -8.247773
   54       -8.254306     -8.234021
   55       -8.247589     -8.229636
   56       -8.241817     -8.219751
   57       -8.226306     -8.206215
   58       -8.218979     -8.197400
   59       -8.209905     -8.191139
   60       -8.197937     -8.180041
   61       -8.186170     -8.160872
   62       -8.171025     -8.151835
   63       -8.153455     -8.135144
   64       -8.136461     -8.116524
   65       -8.129476     -8.108115
   66       -8.108966     -8.087132
   67       -8.096663     -8.078427
   68       -8.089229     -8.071531
   69       -8.074027     -8.054383
   70       -8.063008     -8.044648
   71       -8.044122     -8.024519
   72       -8.033444     -8.010884
   73       -8.026680     -8.006370
   74       -7.995915     -7.976912
   75       -7.986635     -7.968632
   76       -7.966135     -7.946666
   77       -7.957273     -7.938707
   78       -7.952509     -7.933857
   79       -7.944353     -7.927098
   80       -7.933243     -7.915866
   81       -7.913267     -7.897325
   82       -7.889814     -7.872728
   83       -7.867099     -7.848854
   84       -7.855446     -7.837433
   85       -7.848467     -7.828894
   86       -7.841640     -7.825027
   87       -7.832976     -7.814702
   88       -7.819905     -7.800902
   89       -7.816063     -7.798488
   90       -7.804586     -7.787175
   91       -7.791516     -7.772828
   92       -7.758523     -7.740601
   93       -7.752452     -7.735086
   94       -7.749574     -7.731166
   95       -7.727169     -7.710477
   96       -7.714389     -7.694059
   97       -7.700472     -7.681901
   98       -7.693536     -7.676618
   99       -7.674873     -7.658764
  100       -7.656916     -7.639161
  101       -7.647160     -7.627739
  102       -7.641929     -7.623822
  103       -7.622337     -7.604756
  104       -7.615325     -7.597643
  105       -7.609605     -7.594055
  106       -7.587423     -7.568912
  107       -7.579622     -7.560534
  108       -7.563471     -7.546145
  109       -7.556463     -7.539233
  110       -7.540299     -7.522167
  111       -7.520022     -7.501572
  112       -7.507693     -7.492691
  113       -7.496320     -7.477832
  114       -7.489023     -7.472418
  115       -7.469915     -7.452672
  116       -7.466137     -7.448042
  117       -7.454092     -7.436618
  118       -7.427403     -7.409601
  119       -7.411898     -7.393576
  120       -7.405483     -7.388162
  121       -7.384962     -7.368722
  122       -7.375742     -7.358409
  123       -7.372469     -7.353839
  124       -7.356595     -7.337285
  125       -7.347459     -7.331097
  126       -7.336251     -7.319814
  127       -7.322915     -7.305444
  128       -7.322277     -7.304478
  129       -7.311207     -7.292712
  130       -7.295529     -7.276318
  131       -7.280666     -7.263737
  132       -7.266263     -7.248497
  133       -7.251190     -7.231564
  134       -7.246318     -7.228424
  135       -7.228846     -7.209843
  136       -7.217271     -7.198457
  137       -7.205503     -7.187466
  138       -7.193431     -7.176315
  139       -7.187177     -7.168279
  140       -7.166258     -7.150122
  141       -7.158771     -7.140678
  142       -7.143125     -7.124071
  143       -7.132170     -7.112604
  144       -7.119140     -7.100799
  145       -7.107674     -7.092872
  146       -7.092680     -7.075695
  147       -7.077440     -7.060012
  148       -7.060558     -7.043730
  149       -7.054807     -7.039374
  150       -7.043123     -7.026819
  151       -7.030975     -7.012779
  152       -7.022045     -7.004401
  153       -7.008521     -6.990540
  154       -7.000444     -6.983206
  155       -6.991705     -6.976874
  156       -6.984897     -6.966943
  157       -6.972629     -6.953235
  158       -6.965099     -6.946850
  159       -6.938036     -6.921135
  160       -6.933202     -6.918572
  161       -6.909111     -6.891355
  162       -6.907112     -6.888433
  163       -6.897206     -6.881615
  164       -6.893674     -6.876535
  165       -6.869443     -6.852362
  166       -6.865615     -6.849988
  167       -6.863795     -6.844636
  168       -6.842411     -6.825518
  169       -6.838712     -6.821770
  170       -6.831165     -6.814598
  171       -6.812166     -6.794413
  172       -6.802230     -6.786511
  173       -6.799268     -6.782239
  174       -6.796949     -6.779546
  175       -6.786878     -6.769802
  176       -6.782921     -6.767031
  177       -6.769260     -6.750752
  178       -6.759311     -6.742775
  179       -6.745769     -6.730203
  180       -6.742966     -6.727370
  181       -6.731652     -6.714594
  182       -6.719003     -6.702643
  183       -6.703871     -6.686103
  184       -6.695188     -6.680211
  185       -6.691159     -6.674522
  186       -6.686573     -6.670371
  187       -6.679746     -6.664061
  188       -6.674702     -6.657084
  189       -6.661660     -6.646026
  190       -6.659324     -6.642208
  191       -6.653895     -6.638135
  192       -6.644299     -6.627331
  193       -6.636705     -6.620951
  194       -6.627649     -6.610541
  195       -6.615980     -6.598043
  196       -6.609086     -6.590686
  197       -6.601324     -6.585703
  198       -6.597417     -6.581907
  199       -6.590177     -6.574598
  200       -6.585212     -6.570426
  201       -6.573213     -6.557853
  202       -6.571074     -6.555742
  203       -6.566203     -6.548189
  204       -6.548103     -6.533769
  205       -6.544688     -6.529144
  206       -6.537549     -6.521607
  207       -6.533356     -6.519897
  208       -6.525579     -6.510988
  209       -6.520733     -6.505070
  210       -6.512971     -6.499664
  211       -6.503258     -6.487999
  212       -6.498035     -6.481284
  213       -6.488992     -6.473855
  214       -6.483379     -6.466941
  215       -6.479805     -6.465562
  216       -6.461629     -6.446096
  217       -6.459579     -6.444477
  218       -6.454430     -6.437005
  219       -6.440999     -6.426977
  220       -6.433816     -6.416973
  221       -6.425286     -6.410629
  222       -6.418439     -6.403510
  223       -6.408345     -6.391647
  224       -6.393244     -6.376784
  225       -6.387473     -6.372603
  226       -6.380992     -6.366583
  227       -6.371669     -6.356481
  228       -6.366999     -6.352803
  229       -6.356110     -6.337104
  230       -6.345968     -6.332505
  231       -6.330245     -6.315143
  232       -6.324674     -6.308187
  233       -6.322561     -6.307599
  234       -6.314581     -6.298920
  235       -6.309096     -6.293035
  236       -6.300038     -6.283804
  237       -6.293747     -6.278235
  238       -6.285842     -6.269783
  239       -6.275237     -6.260896
  240       -6.267081     -6.252846
  241       -6.253155     -6.236664
  242       -6.250264     -6.234126
  243       -6.243085     -6.224959
  244       -6.231846     -6.219252
  245       -6.228744     -6.214542
  246       -6.210075     -6.193603
  247       -6.201181     -6.184609
  248       -6.191804     -6.176117
  249       -6.181282     -6.166381
  250       -6.177285     -6.161924
  251       -6.166065     -6.150672
  252       -6.153470     -6.134950
  253       -6.138497     -6.123461
  254       -6.137178     -6.120264
  255       -6.113738     -6.098036
  256       -6.104264     -6.084234
  257       -6.085821     -6.068833
  258       -6.070367     -6.056134
  259       -6.063672     -6.045816
  260       -6.011990     -5.991707
  261       -6.006834     -5.981678
  262       -5.997637     -5.972253
  263       -5.974008     -5.942625
  264       -5.897727     -5.860303
  265       -5.443649     -5.407749
  266       -5.354608     -5.309588
  267       -5.216591     -5.177191
  268       -4.957504     -4.909670
  269       -4.910576     -4.834842
  270       -4.854993     -4.793401
  271       -4.765485     -4.722843
  272       -4.688183     -4.621614
  273       -4.156465     -4.106385
  274       -4.109066     -4.070203
  275       -4.009830     -3.963624
  276       -3.938742     -3.894813
  277       -3.726780     -3.672950
  278       -3.531206     -3.485328
  279       -3.443526     -3.387787
  280       -3.311696     -3.205580
  281       -3.246676     -3.140124
  282       -3.209529     -3.102116
  283       -3.097193     -3.039289
  284       -2.950305     -2.901359
  285       -2.683910     -2.633025
  286       -2.596729     -2.547874
  287       -2.425680     -2.376318
  288       -2.377243     -2.329667
  289       -2.308678     -2.256562
  290       -2.162642     -2.110628
  291       -2.154391     -2.102400
  292       -2.002283     -1.927155
  293       -1.989970     -1.922086
  294       -1.898236     -1.833020
  295       -1.837257     -1.775137
  296       -1.771557     -1.718849
  297       -1.685752     -1.593565
  298       -1.609357     -1.505382
  299       -1.581837     -1.484347
  300       -1.498833     -1.448162
  301       -1.401707     -1.345181
  302       -1.313442     -1.262846
  303       -1.196851     -1.133092
  304       -1.144137     -1.098312
  305       -1.010169     -0.961435
  306       -0.961552     -0.913544
  307       -0.881173     -0.831795
  308       -0.755814     -0.701614
  309       -0.677000     -0.615500
  310       -0.645972     -0.573497
  311       -0.559188     -0.501160
  312       -0.514634     -0.451056
  313       -0.435645     -0.380436
  314       -0.369229     -0.310879
  315       -0.309553     -0.254636
  316       -0.221291     -0.161959
  317       -0.029497      0.031800
  318       -0.009488      0.049433
  319        0.116255      0.186051
  320        0.189608      0.258624
  321        0.257964      0.331931
  322        0.298411      0.358428
  323        0.334261      0.419493
  324        0.429651      0.484033
  325        0.530029      0.594090
  326        0.563149      0.616657
  327        0.609377      0.646382
  328        0.655696      0.702961
  329        0.697862      0.737422
  330        0.767836      0.821001
  331        0.805442      0.856553
  332        0.844367      0.894556
  333        0.861787      0.925083
  334        0.888797      0.936705
  335        0.918284      0.949508
  336        0.958431      1.010807
  337        1.003809      1.021112
  338        1.035133      1.084566
  339        1.055056      1.089297
  340        1.060583      1.094642
  341        1.103122      1.138162
  342        1.123958      1.153359
  343        1.134854      1.168092
  344        1.145422      1.172995
  345        1.168135      1.207435
  346        1.193062      1.239420
  347        1.225155      1.253796
  348        1.232955      1.265692
  349        1.263987      1.314028
  350        1.290528      1.338764
  351        1.297181      1.350509
  352        1.343537      1.373682
  353        1.375805      1.390162
  354        1.389599      1.410867
  355        1.406441      1.436683
  356        1.428112      1.450415
  357        1.447474      1.468865
  358        1.463875      1.497348
  359        1.469257      1.514772
  360        1.508644      1.553806
  361        1.518106      1.555649
  362        1.542740      1.589168
  363        1.553047      1.599491
  364        1.604163      1.655410
