20
Energy = -58.20609797 eV
Al 9.533526517352195 10.315762546540714 7.5362303858217405
Al 12.21257856154226 11.566705065598397 7.6740331967236175
Al 11.80366863996474 8.931425319488705 7.104076553112755
Al 7.481501039734317 11.427498220398633 8.861321049656665
Al 7.449797727153882 8.666388964059786 8.611045319275638
Al 10.056102488365573 12.285719992006387 9.365963968985252
Al 10.11517013454273 7.728360865743609 8.882679381555858
Al 14.220236421967167 11.262039365498334 9.470208366282751
Al 11.905609910497308 9.760489115001505 9.660630751223705
Al 9.123393904225846 9.856781382047535 10.256746829611151
Al 13.390189375032937 10.348849994142833 11.894791698295048
Al 10.99588805091952 8.275042122672211 11.64336057959749
Al 10.843810382998184 11.088359582162255 11.731669813825526
Al 10.364744895649427 13.72340680821076 12.103438454530632
Al 8.310131581271751 7.458476308949972 10.968914414263033
Al 8.258951495416973 12.005924602898178 11.545872620089671
Al 12.418037001781762 12.913155189943659 10.523881437901144
Al 8.817371108811164 9.4374007581907 12.903230544063906
Al 11.630111576291114 9.79071736167819 13.928423015700627
Al 9.716564789681984 11.80488203796861 13.980867222683946
