20
Energy = -57.86249551 eV
Al 13.30719988293595 10.0957357908714 11.471401528673276
Al 8.783399381732346 9.514280228890497 12.753161597645159
Al 7.539863372629256 12.887700071609073 8.842177071195021
Al 8.162052828482786 8.254447461100293 10.192607644291384
Al 10.043623915236898 9.271287481624027 8.431220475896648
Al 11.554738276901903 13.547756146710004 9.835468708095878
Al 13.340423314107731 12.821267556683958 11.71377325498208
Al 10.881322979464107 11.603498445432589 11.972078626726624
Al 14.186170166529836 8.916724014451091 13.837928629046603
Al 10.673782545629175 8.970840695427816 10.988519886290383
Al 9.962351854803613 11.97645106327577 8.230525173749514
Al 11.266352863740586 14.369655145287558 12.549020024841232
Al 12.645980635952496 8.303589542984776 9.306489971024652
Al 8.636227384612619 10.902265221924306 10.433523349714509
Al 13.038254838720965 11.410443493521942 13.894678450029325
Al 9.179026735865305 13.457233308915663 11.015864790056863
Al 9.445604693210408 14.81527385673167 8.59055745665946
Al 12.044861062423877 10.939240999257793 9.425948210682746
Al 12.873285657758908 7.514548821955791 11.942934994997021
Al 11.346157018515715 9.338440062598181 13.482799564656244
