 vasp.5.3.5 31Mar14 (build Feb 01 2018 12:10:03) gamma-only                     
  
 executed on             LinuxIFC date 2019.03.22  06:59:41
 running on   32 total cores
 distrk:  each k-point on   32 cores,    1 groups
 distr:  one band on NCORES_PER_BAND=   8 cores,    4 groups


--------------------------------------------------------------------------------------------------------


 INCAR:
 POTCAR:    PAW_PBE Ag 02Apr2005                  
 POTCAR:    PAW_PBE Ag 02Apr2005                  
   VRHFIN =Ag : s1 d10                                                          
   LEXCH  = PE                                                                  
   EATOM  =  1037.2675 eV,   76.2370 Ry                                         
                                                                                
   TITEL  = PAW_PBE Ag 02Apr2005                                                
   LULTRA =        F    use ultrasoft PP ?                                      
   IUNSCR =        1    unscreen: 0-lin 1-nonlin 2-no                           
   RPACOR =    2.000    partial core radius                                     
   POMASS =  107.868; ZVAL   =   11.000    mass and valenz                      
   RCORE  =    2.500    outmost cutoff radius                                   
   RWIGS  =    2.840; RWIGS  =    1.503    wigner-seitz radius (au A)           
   ENMAX  =  249.844; ENMIN  =  187.383 eV                                      
   ICORE  =        3    local potential                                         
   LCOR   =        T    correct aug charges                                     
   LPAW   =        T    paw PP                                                  
   EAUG   =  412.496                                                            
   DEXC   =    0.000                                                            
   RMAX   =    2.560    core radius for proj-oper                               
   RAUG   =    1.300    factor for augmentation sphere                          
   RDEP   =    2.576    radius for radial grids                                 
   RDEPT  =    2.072    core radius for aug-charge                              
                                                                                
   Atomic configuration                                                         
   12 entries                                                                   
     n  l   j            E        occ.                                          
     1  0  0.50    -25324.9161   2.0000                                         
     2  0  0.50     -3728.5341   2.0000                                         
     2  1  1.50     -3344.0404   6.0000                                         
     3  0  0.50      -683.5581   2.0000                                         
     3  1  1.50      -557.3225   6.0000                                         
     3  2  2.50      -358.3853  10.0000                                         
     4  0  0.50       -95.0341   2.0000                                         
     4  1  1.50       -58.5511   6.0000                                         
     4  2  2.50        -7.4440  10.0000                                         
     5  0  0.50        -4.4045   1.0000                                         
     5  1  0.50        -1.3606   0.0000                                         
     4  3  2.50        -1.3606   0.0000                                         
   Description                                                                  
     l       E           TYP  RCUT    TYP  RCUT                                 
     2     -7.4439781     23  2.400                                             
     2     -8.8045607     23  2.400                                             
     0     -4.4044681     23  2.400                                             
     0      1.9520038     23  2.400                                             
     1     -1.3605826     23  2.500                                             
     1     27.2116520     23  2.500                                             
     3     -4.0817478     23  2.400                                             
  local pseudopotential read in
  partial core-charges read in
  partial kinetic energy density read in
  atomic valenz-charges read in
  non local Contribution for L=           2  read in
    real space projection operators read in
  non local Contribution for L=           2  read in
    real space projection operators read in
  non local Contribution for L=           0  read in
    real space projection operators read in
  non local Contribution for L=           0  read in
    real space projection operators read in
  non local Contribution for L=           1  read in
    real space projection operators read in
  non local Contribution for L=           1  read in
    real space projection operators read in
    PAW grid and wavefunctions read in
 
   number of l-projection  operators is LMAX  =           6
   number of lm-projection operators is LMMAX =          18
 

 ----------------------------------------------------------------------------- 
|                                                                             |
|  ADVICE TO THIS USER RUNNING 'VASP/VAMP'   (HEAR YOUR MASTER'S VOICE ...):  |
|                                                                             |
|      You have a (more or less) 'large supercell' and for larger cells       |
|      it might be more efficient to use real space projection opertators     |
|      So try LREAL= Auto  in the INCAR   file.                               |
|      Mind: At the moment your POTCAR file does not contain real space       |
|       projectors, and has to be modified,  BUT if you                       |
|      want to do an extremely  accurate calculation you might also keep the  |
|      reciprocal projection scheme          (i.e. LREAL=.FALSE.)             |
|                                                                             |
 ----------------------------------------------------------------------------- 

  PAW_PBE Ag 02Apr2005                  :
 energy of atom  1       EATOM=-1037.2675
 kinetic energy error for atom=    0.0689 (will be added to EATOM!!)
 
 
 POSCAR: Al26, -79.1256889 <s> Ag </s>           
  positions in direct lattice
  No initial velocities read in
 exchange correlation table for  LEXCH =        8
   RHO(1)=    0.500       N(1)  =     2000
   RHO(2)=  100.500       N(2)  =     4000
 


--------------------------------------------------------------------------------------------------------


 ion  position               nearest neighbor table
   1  0.606  0.683  0.462-   4 2.67  18 2.69   9 2.71  19 2.80  12 3.58
   2  0.466  0.378  0.439-  17 2.74   6 2.79  24 2.79   5 2.81  25 2.81  15 3.03  14 3.40
   3  0.510  0.516  0.750-  22 2.67  21 2.72  20 2.78  23 2.87
   4  0.626  0.613  0.363-  16 2.64   1 2.67  19 2.84  13 2.87  12 2.92
   5  0.468  0.491  0.379-  10 2.70   2 2.81  16 2.81  17 2.84  24 2.85  13 2.95  19 3.00  15 3.14
                             6 3.15
   6  0.581  0.434  0.446-   8 2.69  16 2.77  25 2.78   2 2.79  17 2.85  12 2.94  19 3.03  15 3.04
                             5 3.15
   7  0.484  0.619  0.559-   9 2.70  23 2.72  19 2.86  22 2.88  10 2.90  15 2.97  18 3.21  11 3.26

   8  0.603  0.487  0.555-  20 2.69   6 2.69  18 2.76  12 2.77  15 2.82  25 2.91  19 3.01  22 3.09

   9  0.483  0.689  0.457-   7 2.70   1 2.71  10 2.72  13 2.79  19 3.01
  10  0.421  0.581  0.449-   5 2.70   9 2.72  11 2.74  19 2.83  15 2.85  13 2.85   7 2.90  24 2.97

  11  0.361  0.536  0.550-  23 2.64  10 2.74  24 2.75  15 2.83  14 2.95   7 3.26
  12  0.672  0.533  0.459-   8 2.77  19 2.79  18 2.88   4 2.92   6 2.94  16 3.27   1 3.58
  13  0.495  0.620  0.350-   9 2.79  10 2.85  19 2.87   4 2.87   5 2.95  16 3.33
  14  0.401  0.410  0.577-  15 2.70  26 2.73  11 2.95  21 2.98  24 2.99  25 3.13  23 3.29  20 3.36
                             2 3.40
  15  0.478  0.489  0.522-  14 2.70  19 2.71   8 2.82  11 2.83  10 2.85  25 2.90  24 2.96   7 2.97
                            23 3.00   2 3.03   6 3.04   5 3.14  20 3.15
  16  0.589  0.501  0.339-   4 2.64  17 2.75   6 2.77   5 2.81  19 3.12  12 3.27  13 3.33
  17  0.533  0.388  0.334-   2 2.74  16 2.75   5 2.84   6 2.85
  18  0.631  0.610  0.558-   1 2.69  22 2.75   8 2.76  12 2.88  19 2.96   7 3.21
  19  0.549  0.568  0.458-  15 2.71  12 2.79   1 2.80  10 2.83   4 2.84   7 2.86  13 2.87  18 2.96
                             5 3.00   9 3.01   8 3.01   6 3.03  16 3.12
  20  0.533  0.444  0.647-   8 2.69  21 2.69  25 2.70   3 2.78  22 2.95  23 2.96  26 3.00  15 3.15
                            14 3.36
  21  0.427  0.433  0.709-  20 2.69   3 2.72  23 2.76  26 2.79  14 2.98
  22  0.561  0.576  0.657-   3 2.67  18 2.75  23 2.82   7 2.88  20 2.95   8 3.09
  23  0.438  0.540  0.643-  11 2.64   7 2.72  21 2.76  22 2.82   3 2.87  20 2.96  15 3.00  14 3.29

  24  0.366  0.456  0.453-  11 2.75   2 2.79   5 2.85  15 2.96  10 2.97  14 2.99
  25  0.536  0.372  0.547-  20 2.70   6 2.78   2 2.81  26 2.87  15 2.90   8 2.91  14 3.13
  26  0.462  0.327  0.647-  14 2.73  21 2.79  25 2.87  20 3.00
 
  LATTYP: Found a simple cubic cell.
 ALAT       =    21.8633850062
  
  Lattice vectors:
  
 A1 = (  21.8633850062,   0.0000000000,   0.0000000000)
 A2 = (   0.0000000000,  21.8633850062,   0.0000000000)
 A3 = (   0.0000000000,   0.0000000000,  21.8633850062)


Analysis of symmetry for initial positions (statically):
=====================================================================
 Subroutine PRICEL returns:
 Original cell was already a primitive cell.
 

 Routine SETGRP: Setting up the symmetry group for a 
 simple cubic supercell.


 Subroutine GETGRP returns: Found  1 space group operations
 (whereof  1 operations were pure point group operations)
 out of a pool of 48 trial point group operations.


The static configuration has the point symmetry C_1 .


Analysis of symmetry for dynamics (positions and initial velocities):
=====================================================================
 Subroutine PRICEL returns:
 Original cell was already a primitive cell.
 

 Routine SETGRP: Setting up the symmetry group for a 
 simple cubic supercell.


 Subroutine GETGRP returns: Found  1 space group operations
 (whereof  1 operations were pure point group operations)
 out of a pool of 48 trial point group operations.


The dynamic configuration has the point symmetry C_1 .


Analysis of magnetic symmetry:
=====================================================================
 Subroutine PRICEL returns:
 Original cell was already a primitive cell.
 

 Subroutine MAGSYM returns: Found  1 space group operations
 (whereof  1 operations were pure point group operations)
 out of a pool of  1 trial space group operations
 (whereof  1 operations were pure point group operations)
 and found also     1 'primitive' translations


The magnetic configuration has the point symmetry C_1 .
 
 
 KPOINTS: Gamma-point only                        
  k-points in reciprocal lattice
Space group operators:
 irot       det(A)        alpha          n_x          n_y          n_z        tau_x        tau_y        tau_z
    1     1.000000     0.000000     1.000000     0.000000     0.000000     0.000000     0.000000     0.000000


--------------------------------------------------------------------------------------------------------




 Dimension of arrays:
   k-points           NKPTS =      1   k-points in BZ     NKDIM =      1   number of bands    NBANDS=    184
   number of dos      NEDOS =    301   number of ions     NIONS =     26
   non local maximal  LDIM  =      6   non local SUM 2l+1 LMDIM =     18
   total plane-waves  NPLWV = 729000
   max r-space proj   IRMAX =      1   max aug-charges    IRDMAX=   3629
   dimension x,y,z NGX =    90 NGY =   90 NGZ =   90
   dimension x,y,z NGXF=   180 NGYF=  180 NGZF=  180
   support grid    NGXF=   180 NGYF=  180 NGZF=  180
   ions per type =              26
 NGX,Y,Z   is equivalent  to a cutoff of   6.84,  6.84,  6.84 a.u.
 NGXF,Y,Z  is equivalent  to a cutoff of  13.69, 13.69, 13.69 a.u.


 I would recommend the setting:
   dimension x,y,z NGX =    85 NGY =   85 NGZ =   85
 SYSTEM =  unknown system                          
 POSCAR =  Al26, -79.1256889 <s> Ag </s>           

 Startparameter for this run:
   NWRITE =      2    write-flag & timer
   PREC   = normal    normal or accurate (medium, high low for compatibility)
   ISTART =      0    job   : 0-new  1-cont  2-samecut
   ICHARG =      2    charge: 1-file 2-atom 10-const
   ISPIN  =      2    spin polarized calculation?
   LNONCOLLINEAR =      F non collinear calculations
   LSORBIT =      F    spin-orbit coupling
   INIWAV =      1    electr: 0-lowe 1-rand  2-diag
   LASPH  =      F    aspherical Exc in radial PAW
   METAGGA=      F    non-selfconsistent MetaGGA calc.

 Electronic Relaxation 1
   ENCUT  =  249.8 eV  18.36 Ry    4.29 a.u.  28.18 28.18 28.18*2*pi/ulx,y,z
   ENINI  =  249.8     initial cutoff
   ENAUG  =  412.5 eV  augmentation charge cutoff
   NELM   =     60;   NELMIN=  2; NELMDL= -5     # of ELM steps 
   EDIFF  = 0.1E-03   stopping-criterion for ELM
   LREAL  =      F    real-space projection
   NLSPLINE    = F    spline interpolate recip. space projectors
   LCOMPAT=      F    compatible to vasp.4.4
   GGA_COMPAT  = T    GGA compatible to vasp.4.4-vasp.4.6
   LMAXPAW     = -100 max onsite density
   LMAXMIX     =    2 max onsite mixed and CHGCAR
   VOSKOWN=      0    Vosko Wilk Nusair interpolation
   ROPT   =    0.00000
 Ionic relaxation
   EDIFFG = 0.1E-02   stopping-criterion for IOM
   NSW    =   1000    number of steps for IOM
   NBLOCK =      1;   KBLOCK =   1000    inner block; outer block 
   IBRION =      2    ionic relax: 0-MD 1-quasi-New 2-CG
   NFREE  =      1    steps in history (QN), initial steepest desc. (CG)
   ISIF   =      2    stress and relaxation
   IWAVPR =     11    prediction:  0-non 1-charg 2-wave 3-comb
   ISYM   =      2    0-nonsym 1-usesym 2-fastsym
   LCORR  =      T    Harris-Foulkes like correction to forces

   POTIM  = 0.1000    time-step for ionic-motion
   TEIN   =    0.0    initial temperature
   TEBEG  =    0.0;   TEEND  =   0.0 temperature during run
   SMASS  =  -3.00    Nose mass-parameter (am)
   estimated Nose-frequenzy (Omega)   =  0.10E-29 period in steps =****** mass=  -0.109E-25a.u.
   SCALEE = 1.0000    scale energy and forces
   NPACO  =    256;   APACO  = 16.0  distance and # of slots for P.C.
   PSTRESS=    0.0 pullay stress

  Mass of Ions in am
   POMASS = 107.87
  Ionic Valenz
   ZVAL   =  11.00
  Atomic Wigner-Seitz radii
   RWIGS  =  -1.00
  virtual crystal weights 
   VCA    =   1.00
   NELECT =     286.0000    total number of electrons
   NUPDOWN=      -1.0000    fix difference up-down

 DOS related values:
   EMIN   =  10.00;   EMAX   =-10.00  energy-range for DOS
   EFERMI =   0.00
   ISMEAR =     0;   SIGMA  =   0.00  broadening in eV -4-tet -1-fermi 0-gaus

 Electronic relaxation 2 (details)
   IALGO  =     38    algorithm
   LDIAG  =      T    sub-space diagonalisation (order eigenvalues)
   LSUBROT=      F    optimize rotation matrix (better conditioning)
   TURBO    =      0    0=normal 1=particle mesh
   IRESTART =      0    0=no restart 2=restart with 2 vectors
   NREBOOT  =      0    no. of reboots
   NMIN     =      0    reboot dimension
   EREF     =   0.00    reference energy to select bands
   IMIX   =      4    mixing-type and parameters
     AMIX     =   0.40;   BMIX     =  1.00
     AMIX_MAG =   1.60;   BMIX_MAG =  1.00
     AMIN     =   0.10
     WC   =   100.;   INIMIX=   1;  MIXPRE=   1;  MAXMIX= -45

 Intra band minimization:
   WEIMIN = 0.0010     energy-eigenvalue tresh-hold
   EBREAK =  0.14E-06  absolut break condition
   DEPER  =   0.30     relativ break condition  

   TIME   =   0.40     timestep for ELM

  volume/ion in A,a.u.               =     401.96      2712.54
  Fermi-wavevector in a.u.,A,eV,Ry     =   0.493340  0.932277  3.311442  0.243384
  Thomas-Fermi vector in A             =   1.497707
 
 Write flags
   LWAVE  =      F    write WAVECAR
   LCHARG =      F    write CHGCAR
   LVTOT  =      F    write LOCPOT, total local potential
   LVHAR  =      F    write LOCPOT, Hartree potential only
   LELF   =      F    write electronic localiz. function (ELF)
   LORBIT =      0    0 simple, 1 ext, 2 COOP (PROOUT)


 Dipole corrections
   LMONO  =      F    monopole corrections only (constant potential shift)
   LDIPOL =      F    correct potential (dipole corrections)
   IDIPOL =      0    1-x, 2-y, 3-z, 4-all directions 
   EPSILON=  1.0000000 bulk dielectric constant

 Exchange correlation treatment:
   GGA     =    PE    GGA type
   LEXCH   =     8    internal setting for exchange type
   VOSKOWN=      0    Vosko Wilk Nusair interpolation
   LHFCALC =     F    Hartree Fock is set to
   LHFONE  =     F    Hartree Fock one center treatment
   AEXX    =    0.0000 exact exchange contribution

 Linear response parameters
   LEPSILON=     F    determine dielectric tensor
   LRPA    =     F    only Hartree local field effects (RPA)
   LNABLA  =     F    use nabla operator in PAW spheres
   LVEL    =     F    velocity operator in full k-point grid
   LINTERFAST=   F  fast interpolation
   KINTER  =     0    interpolate to denser k-point grid
   CSHIFT  =0.1000    complex shift for real part using Kramers Kronig
   OMEGAMAX=  -1.0    maximum frequency
   DEG_THRESHOLD= 0.2000000E-02 threshold for treating states as degnerate
   RTIME   =    0.100 relaxation time in fs

 Orbital magnetization related:
   ORBITALMAG=     F  switch on orbital magnetization
   LCHIMAG   =     F  perturbation theory with respect to B field
   DQ        =  0.001000  dq finite difference perturbation B field



--------------------------------------------------------------------------------------------------------


 conjugate gradient relaxation of ions
 charge density and potential will be updated during run
 spin polarized calculation
 Variant of blocked Davidson
 Davidson routine will perform the subspace rotation
 perform sub-space diagonalisation
    after iterative eigenvector-optimisation
 modified Broyden-mixing scheme, WC =      100.0
 initial mixing is a Kerker type mixing with AMIX =  0.4000 and BMIX =      1.0000
 Hartree-type preconditioning will be used
 using additional bands           41
 reciprocal scheme for non local part
 use partial core corrections
 calculate Harris-corrections to forces 
   (improved forces if not selfconsistent)
 use gradient corrections 
 use of overlap-Matrix (Vanderbilt PP)
 Gauss-broadening in eV      SIGMA  =   0.00


--------------------------------------------------------------------------------------------------------


  energy-cutoff  :      249.84
  volume of cell :    10450.86
      direct lattice vectors                 reciprocal lattice vectors
    21.863385006  0.000000000  0.000000000     0.045738572  0.000000000  0.000000000
     0.000000000 21.863385006  0.000000000     0.000000000  0.045738572  0.000000000
     0.000000000  0.000000000 21.863385006     0.000000000  0.000000000  0.045738572

  length of vectors
    21.863385006 21.863385006 21.863385006     0.045738572  0.045738572  0.045738572


 
 k-points in units of 2pi/SCALE and weight: Gamma-point only                        
   0.00000000  0.00000000  0.00000000       1.000
 
 k-points in reciprocal lattice and weights: Gamma-point only                        
   0.00000000  0.00000000  0.00000000       1.000
 
 position of ions in fractional coordinates (direct lattice) 
   0.60635911  0.68283292  0.46180016
   0.46636496  0.37830329  0.43935651
   0.50974724  0.51598515  0.74996681
   0.62590622  0.61311177  0.36321263
   0.46764940  0.49130368  0.37852876
   0.58116430  0.43393819  0.44599007
   0.48417116  0.61938772  0.55893705
   0.60272885  0.48660243  0.55510030
   0.48256801  0.68858867  0.45678972
   0.42059615  0.58083368  0.44918501
   0.36084211  0.53622432  0.54976435
   0.67161995  0.53269822  0.45933234
   0.49529757  0.62007973  0.34969313
   0.40094753  0.41024115  0.57674329
   0.47824915  0.48907343  0.52180259
   0.58936172  0.50064043  0.33881244
   0.53291285  0.38826366  0.33386021
   0.63053950  0.60981813  0.55762877
   0.54919365  0.56818962  0.45767351
   0.53325870  0.44444109  0.64728196
   0.42722570  0.43278164  0.70851702
   0.56110866  0.57590931  0.65663495
   0.43777407  0.54016832  0.64276427
   0.36620894  0.45644372  0.45282271
   0.53557250  0.37205350  0.54747100
   0.46249711  0.32698137  0.64673835
 
 position of ions in cartesian coordinates  (Angst):
  13.25706259 14.92903892 10.09651463
  10.19631660  8.27099043  9.60582058
  11.14480021 11.28118198 16.39681309
  13.68442858 13.40469870  7.94105752
  10.22439887 10.74156143  8.27591995
  12.70621883  9.48735764  9.75085267
  10.58562050 13.54191210 12.22025603
  13.17769295 10.63877625 12.13637151
  10.55057020 15.05487920  9.98696954
   9.19565563 12.69899037  9.82070487
   7.88922994 11.72367872 12.01970969
  14.68388564 11.64658617 10.04255972
  10.82888153 13.55704180  7.64547554
   8.76607025  8.96926030 12.60956051
  10.45614522 10.69280078 11.40837091
  12.88544229 10.94569439  7.40758689
  11.65127887  8.48875780  7.29931428
  13.78572777 13.33268845 12.19165249
  12.00723215 12.42254847 10.00629225
  11.65884018  9.71698674 14.15177475
   9.34060000  9.46207170 15.49058044
  12.26773461 12.59132706 14.35626281
   9.57122293 11.80990786 14.05300275
   8.00656700  9.97940482  9.90023725
  11.70942773  8.13434902 11.96956921
  10.11175248  7.14891953 14.13988959
 


--------------------------------------------------------------------------------------------------------


 use parallel FFT for wavefunctions z direction half grid
 k-point  1 :   0.0000 0.0000 0.0000  plane waves:   46691

 maximum and minimum number of plane-waves per node :      5841     5828

 maximum number of plane-waves:     46691
 maximum index in each direction: 
   IXMAX=   28   IYMAX=   28   IZMAX=   28
   IXMIN=  -28   IYMIN=  -28   IZMIN=    0

 WARNING: aliasing errors must be expected set NGX to 114 to avoid them
 WARNING: aliasing errors must be expected set NGY to 114 to avoid them
 WARNING: aliasing errors must be expected set NGZ to 114 to avoid them
 aliasing errors are usually negligible using standard VASP settings
 and one can safely disregard these warnings

 parallel 3D FFT for wavefunctions:
    minimum data exchange during FFTs selected (reduces bandwidth)
 parallel 3D FFT for charge:
    minimum data exchange during FFTs selected (reduces bandwidth)


 total amount of memory used by VASP on root node    72490. kBytes
========================================================================

   base      :      30000. kBytes
   nonl-proj :       3272. kBytes
   fftplans  :       8573. kBytes
   grid      :      21928. kBytes
   one-center:         62. kBytes
   wavefun   :       8655. kBytes
 
     INWAV:  cpu time    0.00: real time    0.00
 Broyden mixing: mesh for mixing (old mesh)
   NGX = 57   NGY = 57   NGZ = 57
  (NGX  =180   NGY  =180   NGZ  =180)
  gives a total of 185193 points

 initial charge density was supplied:
 charge density of overlapping atoms calculated
 number of electron     286.0000000 magnetization      26.0000000
 keeping initial charge density in first step


--------------------------------------------------------------------------------------------------------


 Maximum index for augmentation-charges          271 (set IRDMAX)


--------------------------------------------------------------------------------------------------------


 First call to EWALD:  gamma=   0.081
 Maximum number of real-space cells 3x 3x 3
 Maximum number of reciprocal cells 3x 3x 3

 FEWALD executed in parallel
    FEWALD:  cpu time    0.00: real time    0.00


----------------------------------------- Iteration    1(   1)  ---------------------------------------


    POTLOK:  cpu time    0.37: real time    0.37
    SETDIJ:  cpu time    0.01: real time    0.01
     EDDAV:  cpu time    3.44: real time    3.44
       DOS:  cpu time    0.00: real time    0.00
    --------------------------------------------
      LOOP:  cpu time    3.82: real time    4.36

 eigenvalue-minimisations  :   736
 total energy-change (2. order) : 0.2542101E+04  (-0.5071419E+04)
 number of electron     286.0000000 magnetization      26.0000000
 augmentation part      286.0000000 magnetization      26.0000000

 Free energy of the ion-electron system (eV)
  ---------------------------------------------------
  alpha Z        PSCENC =        55.01849026
  Ewald energy   TEWEN  =     54398.76391692
  -Hartree energ DENC   =    -80234.33352652
  -exchange      EXHF   =         0.00000000
  -V(xc)+E(xc)   XCENC  =      -285.57050771
  PAW double counting   =     26087.67662981   -24888.87983085
  entropy T*S    EENTRO =         0.00000000
  eigenvalues    EBANDS =       442.26192144
  atomic energy  EATOM  =     26967.16438225
  ---------------------------------------------------
  free energy    TOTEN  =      2542.10147560 eV

  energy without entropy =     2542.10147560  energy(sigma->0) =     2542.10147560


--------------------------------------------------------------------------------------------------------




----------------------------------------- Iteration    1(   2)  ---------------------------------------


     EDDAV:  cpu time    5.54: real time    5.54
       DOS:  cpu time    0.00: real time    0.00
    --------------------------------------------
      LOOP:  cpu time    5.54: real time    5.55

 eigenvalue-minimisations  :  1296
 total energy-change (2. order) :-0.1902989E+04  (-0.1699224E+04)
 number of electron     286.0000000 magnetization      26.0000000
 augmentation part      286.0000000 magnetization      26.0000000

 Free energy of the ion-electron system (eV)
  ---------------------------------------------------
  alpha Z        PSCENC =        55.01849026
  Ewald energy   TEWEN  =     54398.76391692
  -Hartree energ DENC   =    -80234.33352652
  -exchange      EXHF   =         0.00000000
  -V(xc)+E(xc)   XCENC  =      -285.57050771
  PAW double counting   =     26087.67662981   -24888.87983085
  entropy T*S    EENTRO =         0.00000000
  eigenvalues    EBANDS =     -1460.72666852
  atomic energy  EATOM  =     26967.16438225
  ---------------------------------------------------
  free energy    TOTEN  =       639.11288564 eV

  energy without entropy =      639.11288564  energy(sigma->0) =      639.11288564


--------------------------------------------------------------------------------------------------------




----------------------------------------- Iteration    1(   3)  ---------------------------------------


     EDDAV:  cpu time    4.41: real time    4.41
       DOS:  cpu time    0.00: real time    0.00
    --------------------------------------------
      LOOP:  cpu time    4.41: real time    4.42

 eigenvalue-minimisations  :   984
 total energy-change (2. order) :-0.6489866E+03  (-0.5959382E+03)
 number of electron     286.0000000 magnetization      26.0000000
 augmentation part      286.0000000 magnetization      26.0000000

 Free energy of the ion-electron system (eV)
  ---------------------------------------------------
  alpha Z        PSCENC =        55.01849026
  Ewald energy   TEWEN  =     54398.76391692
  -Hartree energ DENC   =    -80234.33352652
  -exchange      EXHF   =         0.00000000
  -V(xc)+E(xc)   XCENC  =      -285.57050771
  PAW double counting   =     26087.67662981   -24888.87983085
  entropy T*S    EENTRO =         0.00000000
  eigenvalues    EBANDS =     -2109.71328700
  atomic energy  EATOM  =     26967.16438225
  ---------------------------------------------------
  free energy    TOTEN  =        -9.87373283 eV

  energy without entropy =       -9.87373283  energy(sigma->0) =       -9.87373283


--------------------------------------------------------------------------------------------------------




----------------------------------------- Iteration    1(   4)  ---------------------------------------


     EDDAV:  cpu time    3.81: real time    3.81
       DOS:  cpu time    0.00: real time    0.00
    --------------------------------------------
      LOOP:  cpu time    3.81: real time    4.57

 eigenvalue-minimisations  :   816
 total energy-change (2. order) :-0.4233913E+02  (-0.4140585E+02)
 number of electron     286.0000000 magnetization      26.0000000
 augmentation part      286.0000000 magnetization      26.0000000

 Free energy of the ion-electron system (eV)
  ---------------------------------------------------
  alpha Z        PSCENC =        55.01849026
  Ewald energy   TEWEN  =     54398.76391692
  -Hartree energ DENC   =    -80234.33352652
  -exchange      EXHF   =         0.00000000
  -V(xc)+E(xc)   XCENC  =      -285.57050771
  PAW double counting   =     26087.67662981   -24888.87983085
  entropy T*S    EENTRO =         0.00000000
  eigenvalues    EBANDS =     -2152.05241217
  atomic energy  EATOM  =     26967.16438225
  ---------------------------------------------------
  free energy    TOTEN  =       -52.21285801 eV

  energy without entropy =      -52.21285801  energy(sigma->0) =      -52.21285801


--------------------------------------------------------------------------------------------------------




----------------------------------------- Iteration    1(   5)  ---------------------------------------


     EDDAV:  cpu time    3.90: real time    3.90
       DOS:  cpu time    0.00: real time    0.00
    CHARGE:  cpu time    0.16: real time    0.16
    MIXING:  cpu time    0.01: real time    0.01
    --------------------------------------------
      LOOP:  cpu time    4.07: real time    4.08

 eigenvalue-minimisations  :   840
 total energy-change (2. order) :-0.6752615E+00  (-0.6741790E+00)
 number of electron     286.0001011 magnetization      23.0705079
 augmentation part      134.5235184 magnetization      21.7136056

 Broyden mixing:
  rms(total) = 0.29097E+01    rms(broyden)= 0.29093E+01
  rms(prec ) = 0.29597E+01
  weight for this iteration     100.00

 Free energy of the ion-electron system (eV)
  ---------------------------------------------------
  alpha Z        PSCENC =        55.01849026
  Ewald energy   TEWEN  =     54398.76391692
  -Hartree energ DENC   =    -80234.33352652
  -exchange      EXHF   =         0.00000000
  -V(xc)+E(xc)   XCENC  =      -285.57050771
  PAW double counting   =     26087.67662981   -24888.87983085
  entropy T*S    EENTRO =         0.00000000
  eigenvalues    EBANDS =     -2152.72767366
  atomic energy  EATOM  =     26967.16438225
  ---------------------------------------------------
  free energy    TOTEN  =       -52.88811950 eV

  energy without entropy =      -52.88811950  energy(sigma->0) =      -52.88811950


--------------------------------------------------------------------------------------------------------




----------------------------------------- Iteration    1(   6)  ---------------------------------------


    POTLOK:  cpu time    0.37: real time    0.37
    SETDIJ:  cpu time    0.01: real time    0.01
     EDDAV:  cpu time    3.55: real time    3.55
       DOS:  cpu time    0.00: real time    0.00
    CHARGE:  cpu time    0.16: real time    0.16
    MIXING:  cpu time    0.01: real time    0.01
    --------------------------------------------
      LOOP:  cpu time    4.10: real time    4.11

 eigenvalue-minimisations  :   744
 total energy-change (2. order) : 0.3345147E+02  (-0.1028767E+02)
 number of electron     286.0001032 magnetization      21.1175296
 augmentation part      137.5391536 magnetization      13.2382943

 Broyden mixing:
  rms(total) = 0.15191E+01    rms(broyden)= 0.15190E+01
  rms(prec ) = 0.15395E+01
  weight for this iteration     100.00

 eigenvalues of (default mixing * dielectric matrix)
  average eigenvalue GAMMA=   0.8522
  0.8522

 Free energy of the ion-electron system (eV)
  ---------------------------------------------------
  alpha Z        PSCENC =        55.01849026
  Ewald energy   TEWEN  =     54398.76391692
  -Hartree energ DENC   =    -80133.47149836
  -exchange      EXHF   =         0.00000000
  -V(xc)+E(xc)   XCENC  =      -270.01461761
  PAW double counting   =     26939.60463306   -25759.30503653
  entropy T*S    EENTRO =         0.00000000
  eigenvalues    EBANDS =     -2217.19691695
  atomic energy  EATOM  =     26967.16438225
  ---------------------------------------------------
  free energy    TOTEN  =       -19.43664696 eV

  energy without entropy =      -19.43664696  energy(sigma->0) =      -19.43664696


--------------------------------------------------------------------------------------------------------




----------------------------------------- Iteration    1(   7)  ---------------------------------------


    POTLOK:  cpu time    0.36: real time    0.36
    SETDIJ:  cpu time    0.01: real time    0.01
     EDDAV:  cpu time    3.72: real time    3.73
       DOS:  cpu time    0.00: real time    0.00
    CHARGE:  cpu time    0.16: real time    0.16
    MIXING:  cpu time    0.01: real time    0.01
    --------------------------------------------
      LOOP:  cpu time    4.27: real time    4.28

 eigenvalue-minimisations  :   792
 total energy-change (2. order) : 0.6209078E+01  (-0.6212361E+00)
 number of electron     286.0001031 magnetization      18.1285516
 augmentation part      137.5137145 magnetization      10.4924272

 Broyden mixing:
  rms(total) = 0.90721E+00    rms(broyden)= 0.90720E+00
  rms(prec ) = 0.91843E+00
  weight for this iteration     100.00

 eigenvalues of (default mixing * dielectric matrix)
  average eigenvalue GAMMA=   0.9985
  0.7540  1.2430

 Free energy of the ion-electron system (eV)
  ---------------------------------------------------
  alpha Z        PSCENC =        55.01849026
  Ewald energy   TEWEN  =     54398.76391692
  -Hartree energ DENC   =    -80191.39721332
  -exchange      EXHF   =         0.00000000
  -V(xc)+E(xc)   XCENC  =      -264.68423468
  PAW double counting   =     27458.78394454   -26290.44478418
  entropy T*S    EENTRO =         0.00000000
  eigenvalues    EBANDS =     -2146.43207042
  atomic energy  EATOM  =     26967.16438225
  ---------------------------------------------------
  free energy    TOTEN  =       -13.22756863 eV

  energy without entropy =      -13.22756863  energy(sigma->0) =      -13.22756863


--------------------------------------------------------------------------------------------------------




----------------------------------------- Iteration    1(   8)  ---------------------------------------


    POTLOK:  cpu time    0.36: real time    0.36
    SETDIJ:  cpu time    0.01: real time    0.01
     EDDAV:  cpu time    3.64: real time    3.64
       DOS:  cpu time    0.00: real time    0.00
    CHARGE:  cpu time    0.16: real time    0.16
    MIXING:  cpu time    0.01: real time    0.01
    --------------------------------------------
      LOOP:  cpu time    4.18: real time    4.19

 eigenvalue-minimisations  :   768
 total energy-change (2. order) :-0.1145299E+01  (-0.1953121E+00)
 number of electron     286.0001030 magnetization      16.0554922
 augmentation part      137.3502614 magnetization       8.5936992

 Broyden mixing:
  rms(total) = 0.48034E+00    rms(broyden)= 0.48034E+00
  rms(prec ) = 0.48387E+00
  weight for this iteration     100.00

 eigenvalues of (default mixing * dielectric matrix)
  average eigenvalue GAMMA=   1.2505
  2.2360  0.9012  0.6144

 Free energy of the ion-electron system (eV)
  ---------------------------------------------------
  alpha Z        PSCENC =        55.01849026
  Ewald energy   TEWEN  =     54398.76391692
  -Hartree energ DENC   =    -80260.23703293
  -exchange      EXHF   =         0.00000000
  -V(xc)+E(xc)   XCENC  =      -265.21264306
  PAW double counting   =     28062.61998666   -26906.62852408
  entropy T*S    EENTRO =         0.00000000
  eigenvalues    EBANDS =     -2065.86144396
  atomic energy  EATOM  =     26967.16438225
  ---------------------------------------------------
  free energy    TOTEN  =       -14.37286795 eV

  energy without entropy =      -14.37286795  energy(sigma->0) =      -14.37286795


--------------------------------------------------------------------------------------------------------




----------------------------------------- Iteration    1(   9)  ---------------------------------------


    POTLOK:  cpu time    0.36: real time    0.36
    SETDIJ:  cpu time    0.01: real time    0.01
     EDDAV:  cpu time    3.74: real time    3.74
       DOS:  cpu time    0.00: real time    0.00
    CHARGE:  cpu time    0.16: real time    0.16
    MIXING:  cpu time    0.01: real time    0.01
    --------------------------------------------
      LOOP:  cpu time    4.28: real time    5.12

 eigenvalue-minimisations  :   816
 total energy-change (2. order) :-0.3801288E+01  (-0.8697060E-01)
 number of electron     286.0001030 magnetization      15.5490052
 augmentation part      137.3075117 magnetization      10.1915783

 Broyden mixing:
  rms(total) = 0.36404E+00    rms(broyden)= 0.36397E+00
  rms(prec ) = 0.37624E+00
  weight for this iteration     100.00

 eigenvalues of (default mixing * dielectric matrix)
  average eigenvalue GAMMA=   1.0193
  2.2554  0.9042  0.6056  0.3121

 Free energy of the ion-electron system (eV)
  ---------------------------------------------------
  alpha Z        PSCENC =        55.01849026
  Ewald energy   TEWEN  =     54398.76391692
  -Hartree energ DENC   =    -80284.32830869
  -exchange      EXHF   =         0.00000000
  -V(xc)+E(xc)   XCENC  =      -267.83762287
  PAW double counting   =     28290.92779787   -27139.43745705
  entropy T*S    EENTRO =         0.00000000
  eigenvalues    EBANDS =     -2038.44535484
  atomic energy  EATOM  =     26967.16438225
  ---------------------------------------------------
  free energy    TOTEN  =       -18.17415616 eV

  energy without entropy =      -18.17415616  energy(sigma->0) =      -18.17415616


--------------------------------------------------------------------------------------------------------




----------------------------------------- Iteration    1(  10)  ---------------------------------------


    POTLOK:  cpu time    0.37: real time    0.37
    SETDIJ:  cpu time    0.01: real time    0.01
     EDDAV:  cpu time    3.90: real time    3.90
       DOS:  cpu time    0.00: real time    0.00
    CHARGE:  cpu time    0.16: real time    0.16
    MIXING:  cpu time    0.01: real time    0.01
    --------------------------------------------
      LOOP:  cpu time    4.44: real time    4.45

 eigenvalue-minimisations  :   840
 total energy-change (2. order) :-0.7492934E+00  (-0.1050838E-01)
 number of electron     286.0001030 magnetization      13.1697913
 augmentation part      137.2868469 magnetization       7.8820286

 Broyden mixing:
  rms(total) = 0.33285E+00    rms(broyden)= 0.33285E+00
  rms(prec ) = 0.34204E+00
  weight for this iteration     100.00

 eigenvalues of (default mixing * dielectric matrix)
  average eigenvalue GAMMA=   1.0790
  2.2531  0.9771  0.6376  0.7636  0.7636

 Free energy of the ion-electron system (eV)
  ---------------------------------------------------
  alpha Z        PSCENC =        55.01849026
  Ewald energy   TEWEN  =     54398.76391692
  -Hartree energ DENC   =    -80288.00119151
  -exchange      EXHF   =         0.00000000
  -V(xc)+E(xc)   XCENC  =      -268.27890735
  PAW double counting   =     28303.53269811   -27152.30462796
  entropy T*S    EENTRO =         0.00000000
  eigenvalues    EBANDS =     -2034.81821028
  atomic energy  EATOM  =     26967.16438225
  ---------------------------------------------------
  free energy    TOTEN  =       -18.92344957 eV

  energy without entropy =      -18.92344957  energy(sigma->0) =      -18.92344957


--------------------------------------------------------------------------------------------------------




----------------------------------------- Iteration    1(  11)  ---------------------------------------


    POTLOK:  cpu time    0.36: real time    0.37
    SETDIJ:  cpu time    0.01: real time    0.01
     EDDAV:  cpu time    3.61: real time    3.61
       DOS:  cpu time    0.00: real time    0.00
    CHARGE:  cpu time    0.16: real time    0.16
    MIXING:  cpu time    0.01: real time    0.01
    --------------------------------------------
      LOOP:  cpu time    4.16: real time    4.17

 eigenvalue-minimisations  :   760
 total energy-change (2. order) :-0.8050144E+01  (-0.3041009E+00)
 number of electron     286.0001030 magnetization       9.7329041
 augmentation part      137.2438778 magnetization       4.7717593

 Broyden mixing:
  rms(total) = 0.24092E+00    rms(broyden)= 0.24091E+00
  rms(prec ) = 0.24387E+00
  weight for this iteration     100.00

 eigenvalues of (default mixing * dielectric matrix)
  average eigenvalue GAMMA=   1.2672
  2.2328  2.2328  0.9362  0.9362  0.6038  0.6612

 Free energy of the ion-electron system (eV)
  ---------------------------------------------------
  alpha Z        PSCENC =        55.01849026
  Ewald energy   TEWEN  =     54398.76391692
  -Hartree energ DENC   =    -80296.84113599
  -exchange      EXHF   =         0.00000000
  -V(xc)+E(xc)   XCENC  =      -274.11022111
  PAW double counting   =     28297.84277209   -27146.86607547
  entropy T*S    EENTRO =         0.00000000
  eigenvalues    EBANDS =     -2027.94572227
  atomic energy  EATOM  =     26967.16438225
  ---------------------------------------------------
  free energy    TOTEN  =       -26.97359333 eV

  energy without entropy =      -26.97359333  energy(sigma->0) =      -26.97359333


--------------------------------------------------------------------------------------------------------




----------------------------------------- Iteration    1(  12)  ---------------------------------------


    POTLOK:  cpu time    0.36: real time    0.37
    SETDIJ:  cpu time    0.01: real time    0.01
     EDDAV:  cpu time    3.67: real time    3.67
       DOS:  cpu time    0.00: real time    0.00
    CHARGE:  cpu time    0.16: real time    0.16
    MIXING:  cpu time    0.01: real time    0.01
    --------------------------------------------
      LOOP:  cpu time    4.22: real time    4.47

 eigenvalue-minimisations  :   776
 total energy-change (2. order) :-0.1052251E+02  (-0.5601886E+00)
 number of electron     286.0001029 magnetization       7.9824279
 augmentation part      137.2284418 magnetization       3.4774467

 Broyden mixing:
  rms(total) = 0.15049E+00    rms(broyden)= 0.15047E+00
  rms(prec ) = 0.15429E+00
  weight for this iteration     100.00

 eigenvalues of (default mixing * dielectric matrix)
  average eigenvalue GAMMA=   1.3858
  3.5805  2.2000  0.9626  0.9626  0.7798  0.6074  0.6074

 Free energy of the ion-electron system (eV)
  ---------------------------------------------------
  alpha Z        PSCENC =        55.01849026
  Ewald energy   TEWEN  =     54398.76391692
  -Hartree energ DENC   =    -80299.02483272
  -exchange      EXHF   =         0.00000000
  -V(xc)+E(xc)   XCENC  =      -282.10246199
  PAW double counting   =     28269.54019219   -27118.55176774
  entropy T*S    EENTRO =         0.00000000
  eigenvalues    EBANDS =     -2028.30401811
  atomic energy  EATOM  =     26967.16438225
  ---------------------------------------------------
  free energy    TOTEN  =       -37.49609894 eV

  energy without entropy =      -37.49609894  energy(sigma->0) =      -37.49609894


--------------------------------------------------------------------------------------------------------




----------------------------------------- Iteration    1(  13)  ---------------------------------------


    POTLOK:  cpu time    0.37: real time    0.37
    SETDIJ:  cpu time    0.01: real time    0.01
     EDDAV:  cpu time    3.67: real time    3.67
       DOS:  cpu time    0.00: real time    0.00
    CHARGE:  cpu time    0.16: real time    0.16
    MIXING:  cpu time    0.01: real time    0.01
    --------------------------------------------
      LOOP:  cpu time    4.23: real time    4.23

 eigenvalue-minimisations  :   776
 total energy-change (2. order) :-0.4980180E+01  (-0.1669924E+00)
 number of electron     286.0001029 magnetization       7.7920144
 augmentation part      137.2365678 magnetization       5.4196759

 Broyden mixing:
  rms(total) = 0.19705E+00    rms(broyden)= 0.19690E+00
  rms(prec ) = 0.21034E+00
  weight for this iteration     100.00

 eigenvalues of (default mixing * dielectric matrix)
  average eigenvalue GAMMA=   1.2277
  3.6493  2.1919  0.9541  0.9541  0.7866  0.6075  0.6075  0.0711

 Free energy of the ion-electron system (eV)
  ---------------------------------------------------
  alpha Z        PSCENC =        55.01849026
  Ewald energy   TEWEN  =     54398.76391692
  -Hartree energ DENC   =    -80293.83338935
  -exchange      EXHF   =         0.00000000
  -V(xc)+E(xc)   XCENC  =      -286.01952537
  PAW double counting   =     28248.96459893   -27098.03898501
  entropy T*S    EENTRO =         0.00000000
  eigenvalues    EBANDS =     -2034.49576794
  atomic energy  EATOM  =     26967.16438225
  ---------------------------------------------------
  free energy    TOTEN  =       -42.47627931 eV

  energy without entropy =      -42.47627931  energy(sigma->0) =      -42.47627931


--------------------------------------------------------------------------------------------------------




----------------------------------------- Iteration    1(  14)  ---------------------------------------


    POTLOK:  cpu time    0.37: real time    0.37
    SETDIJ:  cpu time    0.01: real time    0.01
     EDDAV:  cpu time    4.12: real time    4.12
       DOS:  cpu time    0.00: real time    0.00
    CHARGE:  cpu time    0.16: real time    0.16
    MIXING:  cpu time    0.01: real time    0.01
    --------------------------------------------
      LOOP:  cpu time    4.68: real time    4.70

 eigenvalue-minimisations  :   904
 total energy-change (2. order) :-0.1704339E+00  (-0.3948042E-02)
 number of electron     286.0001029 magnetization       7.3838418
 augmentation part      137.2233468 magnetization       5.0386458

 Broyden mixing:
  rms(total) = 0.18529E+00    rms(broyden)= 0.18528E+00
  rms(prec ) = 0.19841E+00
  weight for this iteration     100.00

 eigenvalues of (default mixing * dielectric matrix)
  average eigenvalue GAMMA=   1.1517
  3.6539  2.2288  0.9500  0.9500  0.7831  0.6218  0.5814  0.2984  0.2984

 Free energy of the ion-electron system (eV)
  ---------------------------------------------------
  alpha Z        PSCENC =        55.01849026
  Ewald energy   TEWEN  =     54398.76391692
  -Hartree energ DENC   =    -80293.65772728
  -exchange      EXHF   =         0.00000000
  -V(xc)+E(xc)   XCENC  =      -286.14886319
  PAW double counting   =     28247.43095485   -27096.52254350
  entropy T*S    EENTRO =         0.00000000
  eigenvalues    EBANDS =     -2034.69532356
  atomic energy  EATOM  =     26967.16438225
  ---------------------------------------------------
  free energy    TOTEN  =       -42.64671326 eV

  energy without entropy =      -42.64671326  energy(sigma->0) =      -42.64671326


--------------------------------------------------------------------------------------------------------




----------------------------------------- Iteration    1(  15)  ---------------------------------------


    POTLOK:  cpu time    0.37: real time    0.37
    SETDIJ:  cpu time    0.01: real time    0.01
     EDDAV:  cpu time    3.67: real time    3.67
       DOS:  cpu time    0.00: real time    0.00
    CHARGE:  cpu time    0.16: real time    0.16
    MIXING:  cpu time    0.01: real time    0.01
    --------------------------------------------
      LOOP:  cpu time    4.22: real time    4.24

 eigenvalue-minimisations  :   776
 total energy-change (2. order) :-0.8764110E+00  (-0.6808164E-02)
 number of electron     286.0001029 magnetization       5.1728773
 augmentation part      137.2394947 magnetization       2.8636491

 Broyden mixing:
  rms(total) = 0.16742E+00    rms(broyden)= 0.16742E+00
  rms(prec ) = 0.17810E+00
  weight for this iteration     100.00

 eigenvalues of (default mixing * dielectric matrix)
  average eigenvalue GAMMA=   1.2857
  4.1168  2.2362  0.9645  0.9645  1.0963  1.0963  0.7123  0.6283  0.6283  0.4130

 Free energy of the ion-electron system (eV)
  ---------------------------------------------------
  alpha Z        PSCENC =        55.01849026
  Ewald energy   TEWEN  =     54398.76391692
  -Hartree energ DENC   =    -80288.85988706
  -exchange      EXHF   =         0.00000000
  -V(xc)+E(xc)   XCENC  =      -286.93455469
  PAW double counting   =     28220.49874874   -27069.37599880
  entropy T*S    EENTRO =         0.00000000
  eigenvalues    EBANDS =     -2039.79822190
  atomic energy  EATOM  =     26967.16438225
  ---------------------------------------------------
  free energy    TOTEN  =       -43.52312429 eV

  energy without entropy =      -43.52312429  energy(sigma->0) =      -43.52312429


--------------------------------------------------------------------------------------------------------




----------------------------------------- Iteration    1(  16)  ---------------------------------------


    POTLOK:  cpu time    0.36: real time    0.37
    SETDIJ:  cpu time    0.01: real time    0.01
     EDDAV:  cpu time    3.53: real time    3.54
       DOS:  cpu time    0.00: real time    0.00
    CHARGE:  cpu time    0.16: real time    0.16
    MIXING:  cpu time    0.01: real time    0.01
    --------------------------------------------
      LOOP:  cpu time    4.09: real time    4.12

 eigenvalue-minimisations  :   736
 total energy-change (2. order) :-0.3926518E+01  (-0.1350214E+00)
 number of electron     286.0001030 magnetization       3.4878313
 augmentation part      137.2688571 magnetization       1.3243308

 Broyden mixing:
  rms(total) = 0.84514E-01    rms(broyden)= 0.84503E-01
  rms(prec ) = 0.88204E-01
  weight for this iteration     100.00

 eigenvalues of (default mixing * dielectric matrix)
  average eigenvalue GAMMA=   1.5032
  5.9857  2.2618  2.2618  0.8778  0.8778  0.9566  0.7670  0.7670  0.6661  0.6661
  0.4476

 Free energy of the ion-electron system (eV)
  ---------------------------------------------------
  alpha Z        PSCENC =        55.01849026
  Ewald energy   TEWEN  =     54398.76391692
  -Hartree energ DENC   =    -80269.00506309
  -exchange      EXHF   =         0.00000000
  -V(xc)+E(xc)   XCENC  =      -290.49334515
  PAW double counting   =     28138.60960339   -26987.16040452
  entropy T*S    EENTRO =        -0.00000000
  eigenvalues    EBANDS =     -2060.34722211
  atomic energy  EATOM  =     26967.16438225
  ---------------------------------------------------
  free energy    TOTEN  =       -47.44964206 eV

  energy without entropy =      -47.44964206  energy(sigma->0) =      -47.44964206


--------------------------------------------------------------------------------------------------------




----------------------------------------- Iteration    1(  17)  ---------------------------------------


    POTLOK:  cpu time    0.37: real time    0.37
    SETDIJ:  cpu time    0.01: real time    0.01
     EDDAV:  cpu time    3.62: real time    3.62
       DOS:  cpu time    0.00: real time    0.00
    CHARGE:  cpu time    0.16: real time    0.16
    MIXING:  cpu time    0.02: real time    0.01
    --------------------------------------------
      LOOP:  cpu time    4.18: real time    5.69

 eigenvalue-minimisations  :   760
 total energy-change (2. order) :-0.2075930E+01  (-0.5596508E-01)
 number of electron     286.0001030 magnetization       2.9513874
 augmentation part      137.2740187 magnetization       0.8829139

 Broyden mixing:
  rms(total) = 0.58987E-01    rms(broyden)= 0.58975E-01
  rms(prec ) = 0.64037E-01
  weight for this iteration     100.00

 eigenvalues of (default mixing * dielectric matrix)
  average eigenvalue GAMMA=   1.5390
  6.8172  2.2715  2.2715  0.9643  0.9643  0.9494  0.9494  0.9297  0.6521  0.6227
  0.6227  0.4535

 Free energy of the ion-electron system (eV)
  ---------------------------------------------------
  alpha Z        PSCENC =        55.01849026
  Ewald energy   TEWEN  =     54398.76391692
  -Hartree energ DENC   =    -80253.65726190
  -exchange      EXHF   =         0.00000000
  -V(xc)+E(xc)   XCENC  =      -292.51055370
  PAW double counting   =     28114.51180637   -26962.88584951
  entropy T*S    EENTRO =        -0.00000000
  eigenvalues    EBANDS =     -2075.93050320
  atomic energy  EATOM  =     26967.16438225
  ---------------------------------------------------
  free energy    TOTEN  =       -49.52557252 eV

  energy without entropy =      -49.52557252  energy(sigma->0) =      -49.52557252


--------------------------------------------------------------------------------------------------------




----------------------------------------- Iteration    1(  18)  ---------------------------------------


    POTLOK:  cpu time    0.37: real time    0.37
    SETDIJ:  cpu time    0.01: real time    0.01
     EDDAV:  cpu time    3.68: real time    3.68
       DOS:  cpu time    0.00: real time    0.00
    CHARGE:  cpu time    0.16: real time    0.16
    MIXING:  cpu time    0.02: real time    0.01
    --------------------------------------------
      LOOP:  cpu time    4.24: real time    4.29

 eigenvalue-minimisations  :   776
 total energy-change (2. order) :-0.8922962E+00  (-0.9504734E-02)
 number of electron     286.0001030 magnetization       2.5270889
 augmentation part      137.2748508 magnetization       0.4795295

 Broyden mixing:
  rms(total) = 0.44826E-01    rms(broyden)= 0.44821E-01
  rms(prec ) = 0.49642E-01
  weight for this iteration     100.00

 eigenvalues of (default mixing * dielectric matrix)
  average eigenvalue GAMMA=   1.6344
  7.5438  2.8167  1.8641  1.8641  1.2133  0.9592  0.9592  0.8061  0.8061  0.6581
  0.6581  0.6493  0.4489

 Free energy of the ion-electron system (eV)
  ---------------------------------------------------
  alpha Z        PSCENC =        55.01849026
  Ewald energy   TEWEN  =     54398.76391692
  -Hartree energ DENC   =    -80244.32578509
  -exchange      EXHF   =         0.00000000
  -V(xc)+E(xc)   XCENC  =      -293.42012624
  PAW double counting   =     28111.19439267   -26959.14456871
  entropy T*S    EENTRO =        -0.00000000
  eigenvalues    EBANDS =     -2085.66857079
  atomic energy  EATOM  =     26967.16438225
  ---------------------------------------------------
  free energy    TOTEN  =       -50.41786872 eV

  energy without entropy =      -50.41786872  energy(sigma->0) =      -50.41786872


--------------------------------------------------------------------------------------------------------




----------------------------------------- Iteration    1(  19)  ---------------------------------------


    POTLOK:  cpu time    0.37: real time    0.37
    SETDIJ:  cpu time    0.01: real time    0.01
     EDDAV:  cpu time    3.63: real time    3.63
       DOS:  cpu time    0.00: real time    0.00
    CHARGE:  cpu time    0.16: real time    0.16
    MIXING:  cpu time    0.02: real time    0.02
    --------------------------------------------
      LOOP:  cpu time    4.18: real time    4.20

 eigenvalue-minimisations  :   760
 total energy-change (2. order) :-0.9616505E+00  (-0.7398728E-02)
 number of electron     286.0001030 magnetization       2.3763296
 augmentation part      137.2721570 magnetization       0.3282183

 Broyden mixing:
  rms(total) = 0.19918E-01    rms(broyden)= 0.19909E-01
  rms(prec ) = 0.23652E-01
  weight for this iteration     100.00

 eigenvalues of (default mixing * dielectric matrix)
  average eigenvalue GAMMA=   1.6753
  8.0343  3.3434  1.9418  1.9418  1.4618  0.9207  0.9207  0.9519  0.7880  0.7880
  0.6359  0.6359  0.6405  0.4493

 Free energy of the ion-electron system (eV)
  ---------------------------------------------------
  alpha Z        PSCENC =        55.01849026
  Ewald energy   TEWEN  =     54398.76391692
  -Hartree energ DENC   =    -80231.12348550
  -exchange      EXHF   =         0.00000000
  -V(xc)+E(xc)   XCENC  =      -294.44757638
  PAW double counting   =     28129.28790506   -26976.88982694
  entropy T*S    EENTRO =        -0.00000000
  eigenvalues    EBANDS =     -2099.15332490
  atomic energy  EATOM  =     26967.16438225
  ---------------------------------------------------
  free energy    TOTEN  =       -51.37951923 eV

  energy without entropy =      -51.37951923  energy(sigma->0) =      -51.37951923


--------------------------------------------------------------------------------------------------------




----------------------------------------- Iteration    1(  20)  ---------------------------------------


    POTLOK:  cpu time    0.37: real time    0.37
    SETDIJ:  cpu time    0.01: real time    0.01
     EDDAV:  cpu time    3.71: real time    3.71
       DOS:  cpu time    0.00: real time    0.00
    CHARGE:  cpu time    0.16: real time    0.16
    MIXING:  cpu time    0.02: real time    0.02
    --------------------------------------------
      LOOP:  cpu time    4.27: real time    4.33

 eigenvalue-minimisations  :   784
 total energy-change (2. order) :-0.3603004E+00  (-0.1179750E-02)
 number of electron     286.0001030 magnetization       2.2232149
 augmentation part      137.2696883 magnetization       0.1687237

 Broyden mixing:
  rms(total) = 0.14834E-01    rms(broyden)= 0.14831E-01
  rms(prec ) = 0.17680E-01
  weight for this iteration     100.00

 eigenvalues of (default mixing * dielectric matrix)
  average eigenvalue GAMMA=   1.6575
  8.1706  3.5726  1.8122  1.8122  1.7255  0.9253  0.9253  0.9960  0.9373  0.9373
  0.6571  0.6571  0.6427  0.6427  0.4490

 Free energy of the ion-electron system (eV)
  ---------------------------------------------------
  alpha Z        PSCENC =        55.01849026
  Ewald energy   TEWEN  =     54398.76391692
  -Hartree energ DENC   =    -80222.73732810
  -exchange      EXHF   =         0.00000000
  -V(xc)+E(xc)   XCENC  =      -294.86305126
  PAW double counting   =     28139.54565465   -26987.13124812
  entropy T*S    EENTRO =        -0.00000000
  eigenvalues    EBANDS =     -2107.50063620
  atomic energy  EATOM  =     26967.16438225
  ---------------------------------------------------
  free energy    TOTEN  =       -51.73981960 eV

  energy without entropy =      -51.73981960  energy(sigma->0) =      -51.73981960


--------------------------------------------------------------------------------------------------------




----------------------------------------- Iteration    1(  21)  ---------------------------------------


    POTLOK:  cpu time    0.37: real time    0.37
    SETDIJ:  cpu time    0.01: real time    0.01
     EDDAV:  cpu time    3.72: real time    3.72
       DOS:  cpu time    0.00: real time    0.00
    CHARGE:  cpu time    0.16: real time    0.16
    MIXING:  cpu time    0.02: real time    0.02
    --------------------------------------------
      LOOP:  cpu time    4.28: real time    4.34

 eigenvalue-minimisations  :   784
 total energy-change (2. order) :-0.1416299E+00  (-0.3416730E-03)
 number of electron     286.0001031 magnetization       2.2251385
 augmentation part      137.2726822 magnetization       2.1097213

 Broyden mixing:
  rms(total) = 0.13910E+00    rms(broyden)= 0.13895E+00
  rms(prec ) = 0.14811E+00
  weight for this iteration     100.00

 eigenvalues of (default mixing * dielectric matrix)
  average eigenvalue GAMMA=   1.5542
  8.1774  3.5678  1.8128  1.8128  1.7266  0.9252  0.9252  0.9395  0.9395  0.9900
  0.6575  0.6575  0.6420  0.6420  0.4490  0.0026

 Free energy of the ion-electron system (eV)
  ---------------------------------------------------
  alpha Z        PSCENC =        55.01849026
  Ewald energy   TEWEN  =     54398.76391692
  -Hartree energ DENC   =    -80216.42522573
  -exchange      EXHF   =         0.00000000
  -V(xc)+E(xc)   XCENC  =      -295.05604530
  PAW double counting   =     28138.59705689   -26986.21945072
  entropy T*S    EENTRO =        -0.00000000
  eigenvalues    EBANDS =     -2113.72457410
  atomic energy  EATOM  =     26967.16438225
  ---------------------------------------------------
  free energy    TOTEN  =       -51.88144954 eV

  energy without entropy =      -51.88144954  energy(sigma->0) =      -51.88144954


--------------------------------------------------------------------------------------------------------




----------------------------------------- Iteration    1(  22)  ---------------------------------------


    POTLOK:  cpu time    0.36: real time    0.37
    SETDIJ:  cpu time    0.01: real time    0.01
     EDDAV:  cpu time    2.90: real time    2.90
       DOS:  cpu time    0.00: real time    0.00
    CHARGE:  cpu time    0.17: real time    0.17
    MIXING:  cpu time    0.02: real time    0.02
    --------------------------------------------
      LOOP:  cpu time    3.46: real time    3.48

 eigenvalue-minimisations  :   552
 total energy-change (2. order) : 0.3422913E-02  (-0.2807194E-04)
 number of electron     286.0001031 magnetization       2.1834995
 augmentation part      137.2728772 magnetization       2.0681106

 Broyden mixing:
  rms(total) = 0.13900E+00    rms(broyden)= 0.13900E+00
  rms(prec ) = 0.14817E+00
  weight for this iteration     100.00

 eigenvalues of (default mixing * dielectric matrix)
  average eigenvalue GAMMA=   1.4857
  8.2459  3.6570  1.8655  1.8655  1.6584  0.9197  0.9197  1.0783  0.9093  0.9093
  0.6582  0.6582  0.6468  0.6468  0.4490  0.0872  0.0824

 Free energy of the ion-electron system (eV)
  ---------------------------------------------------
  alpha Z        PSCENC =        55.01849026
  Ewald energy   TEWEN  =     54398.76391692
  -Hartree energ DENC   =    -80216.43234408
  -exchange      EXHF   =         0.00000000
  -V(xc)+E(xc)   XCENC  =      -295.05368768
  PAW double counting   =     28138.60648300   -26986.22949237
  entropy T*S    EENTRO =        -0.00000000
  eigenvalues    EBANDS =     -2113.71577492
  atomic energy  EATOM  =     26967.16438225
  ---------------------------------------------------
  free energy    TOTEN  =       -51.87802663 eV

  energy without entropy =      -51.87802663  energy(sigma->0) =      -51.87802663


--------------------------------------------------------------------------------------------------------




----------------------------------------- Iteration    1(  23)  ---------------------------------------


    POTLOK:  cpu time    0.36: real time    0.37
    SETDIJ:  cpu time    0.01: real time    0.01
     EDDAV:  cpu time    2.84: real time    2.84
       DOS:  cpu time    0.00: real time    0.00
    CHARGE:  cpu time    0.17: real time    0.17
    MIXING:  cpu time    0.02: real time    0.02
    --------------------------------------------
      LOOP:  cpu time    3.40: real time    4.51

 eigenvalue-minimisations  :   536
 total energy-change (2. order) :-0.2725632E-01  (-0.3943733E-04)
 number of electron     286.0001031 magnetization       2.2242763
 augmentation part      137.2764269 magnetization       2.1100608

 Broyden mixing:
  rms(total) = 0.13969E+00    rms(broyden)= 0.13969E+00
  rms(prec ) = 0.14887E+00
  weight for this iteration     100.00

 eigenvalues of (default mixing * dielectric matrix)
  average eigenvalue GAMMA=   1.4508
  8.2247  3.8580  1.9056  1.9056  1.6600  1.1343  0.9215  0.9215  0.8721  0.8721
  0.6553  0.6553  0.6583  0.6583  0.4491  0.3053  0.2290  0.2290

 Free energy of the ion-electron system (eV)
  ---------------------------------------------------
  alpha Z        PSCENC =        55.01849026
  Ewald energy   TEWEN  =     54398.76391692
  -Hartree energ DENC   =    -80214.87465686
  -exchange      EXHF   =         0.00000000
  -V(xc)+E(xc)   XCENC  =      -295.09632566
  PAW double counting   =     28139.63753036   -26987.21837351
  entropy T*S    EENTRO =        -0.00000000
  eigenvalues    EBANDS =     -2115.30024671
  atomic energy  EATOM  =     26967.16438225
  ---------------------------------------------------
  free energy    TOTEN  =       -51.90528295 eV

  energy without entropy =      -51.90528295  energy(sigma->0) =      -51.90528295


--------------------------------------------------------------------------------------------------------




----------------------------------------- Iteration    1(  24)  ---------------------------------------


    POTLOK:  cpu time    0.36: real time    0.37
    SETDIJ:  cpu time    0.01: real time    0.01
     EDDAV:  cpu time    2.90: real time    2.90
       DOS:  cpu time    0.00: real time    0.00
    CHARGE:  cpu time    0.16: real time    0.17
    MIXING:  cpu time    0.02: real time    0.02
    --------------------------------------------
      LOOP:  cpu time    3.46: real time    3.49

 eigenvalue-minimisations  :   552
 total energy-change (2. order) :-0.1108661E-01  (-0.2833514E-04)
 number of electron     286.0001031 magnetization       2.1836979
 augmentation part      137.2738473 magnetization       2.0655469

 Broyden mixing:
  rms(total) = 0.14309E+00    rms(broyden)= 0.14309E+00
  rms(prec ) = 0.15222E+00
  weight for this iteration     100.00

 eigenvalues of (default mixing * dielectric matrix)
  average eigenvalue GAMMA=   1.3927
  8.2508  3.8269  1.9020  1.9020  1.6531  1.1344  0.9201  0.9201  0.8744  0.8744
  0.6554  0.6554  0.6744  0.6484  0.4491  0.2727  0.2727  0.2875  0.2875

 Free energy of the ion-electron system (eV)
  ---------------------------------------------------
  alpha Z        PSCENC =        55.01849026
  Ewald energy   TEWEN  =     54398.76391692
  -Hartree energ DENC   =    -80214.51360863
  -exchange      EXHF   =         0.00000000
  -V(xc)+E(xc)   XCENC  =      -295.10773393
  PAW double counting   =     28146.44745491   -26993.99499305
  entropy T*S    EENTRO =        -0.00000000
  eigenvalues    EBANDS =     -2115.69427829
  atomic energy  EATOM  =     26967.16438225
  ---------------------------------------------------
  free energy    TOTEN  =       -51.91636956 eV

  energy without entropy =      -51.91636956  energy(sigma->0) =      -51.91636956


--------------------------------------------------------------------------------------------------------




----------------------------------------- Iteration    1(  25)  ---------------------------------------


    POTLOK:  cpu time    0.37: real time    0.37
    SETDIJ:  cpu time    0.01: real time    0.01
     EDDAV:  cpu time    2.79: real time    2.79
       DOS:  cpu time    0.00: real time    0.00
    CHARGE:  cpu time    0.17: real time    0.17
    MIXING:  cpu time    0.02: real time    0.02
    --------------------------------------------
      LOOP:  cpu time    3.36: real time    3.38

 eigenvalue-minimisations  :   520
 total energy-change (2. order) : 0.9775892E-03  (-0.1571548E-04)
 number of electron     286.0001031 magnetization       2.0066431
 augmentation part      137.2738953 magnetization       1.8905460

 Broyden mixing:
  rms(total) = 0.13922E+00    rms(broyden)= 0.13922E+00
  rms(prec ) = 0.14827E+00
  weight for this iteration     100.00

 eigenvalues of (default mixing * dielectric matrix)
  average eigenvalue GAMMA=   1.4276
  8.5046  3.6849  1.9343  1.9343  1.6468  0.8126  0.8126  1.2106  0.9291  0.9291
  0.8287  0.8287  0.5295  0.5295  0.7380  0.6428  0.6428  0.6392  0.4489  0.3254

 Free energy of the ion-electron system (eV)
  ---------------------------------------------------
  alpha Z        PSCENC =        55.01849026
  Ewald energy   TEWEN  =     54398.76391692
  -Hartree energ DENC   =    -80214.73283252
  -exchange      EXHF   =         0.00000000
  -V(xc)+E(xc)   XCENC  =      -295.10462216
  PAW double counting   =     28142.44044150   -26990.04382835
  entropy T*S    EENTRO =        -0.00000000
  eigenvalues    EBANDS =     -2115.42133986
  atomic energy  EATOM  =     26967.16438225
  ---------------------------------------------------
  free energy    TOTEN  =       -51.91539197 eV

  energy without entropy =      -51.91539197  energy(sigma->0) =      -51.91539197


--------------------------------------------------------------------------------------------------------




----------------------------------------- Iteration    1(  26)  ---------------------------------------


    POTLOK:  cpu time    0.37: real time    0.37
    SETDIJ:  cpu time    0.01: real time    0.01
     EDDAV:  cpu time    3.64: real time    3.64
       DOS:  cpu time    0.00: real time    0.00
    CHARGE:  cpu time    0.16: real time    0.16
    MIXING:  cpu time    0.02: real time    0.02
    --------------------------------------------
      LOOP:  cpu time    4.20: real time    4.21

 eigenvalue-minimisations  :   760
 total energy-change (2. order) :-0.1130022E-01  (-0.2607995E-03)
 number of electron     286.0001031 magnetization       1.7961390
 augmentation part      137.2712399 magnetization       1.6890129

 Broyden mixing:
  rms(total) = 0.12680E+00    rms(broyden)= 0.12680E+00
  rms(prec ) = 0.13504E+00
  weight for this iteration     100.00

 eigenvalues of (default mixing * dielectric matrix)
  average eigenvalue GAMMA=   1.4406
  8.8097  3.5503  2.0885  2.0885  1.0654  1.0654  1.4223  1.4223  0.9313  0.9313
  0.6846  0.6846  0.8129  0.8129  0.7132  0.6493  0.6493  0.6376  0.4497  0.3922
  0.3922

 Free energy of the ion-electron system (eV)
  ---------------------------------------------------
  alpha Z        PSCENC =        55.01849026
  Ewald energy   TEWEN  =     54398.76391692
  -Hartree energ DENC   =    -80214.94380914
  -exchange      EXHF   =         0.00000000
  -V(xc)+E(xc)   XCENC  =      -295.10833241
  PAW double counting   =     28128.86980577   -26976.65833663
  entropy T*S    EENTRO =         0.00000000
  eigenvalues    EBANDS =     -2115.03280920
  atomic energy  EATOM  =     26967.16438225
  ---------------------------------------------------
  free energy    TOTEN  =       -51.92669219 eV

  energy without entropy =      -51.92669219  energy(sigma->0) =      -51.92669219


--------------------------------------------------------------------------------------------------------




----------------------------------------- Iteration    1(  27)  ---------------------------------------


    POTLOK:  cpu time    0.37: real time    0.37
    SETDIJ:  cpu time    0.01: real time    0.01
     EDDAV:  cpu time    3.72: real time    3.73
       DOS:  cpu time    0.00: real time    0.00
    CHARGE:  cpu time    0.17: real time    0.16
    MIXING:  cpu time    0.02: real time    0.02
    --------------------------------------------
      LOOP:  cpu time    4.30: real time    4.36

 eigenvalue-minimisations  :   784
 total energy-change (2. order) :-0.1692249E-01  (-0.2609989E-03)
 number of electron     286.0001031 magnetization       1.6104302
 augmentation part      137.2716506 magnetization       1.5156654

 Broyden mixing:
  rms(total) = 0.11694E+00    rms(broyden)= 0.11694E+00
  rms(prec ) = 0.12422E+00
  weight for this iteration     100.00

 eigenvalues of (default mixing * dielectric matrix)
  average eigenvalue GAMMA=   1.4511
  8.9968  3.5230  2.1446  2.1446  1.2490  1.2490  1.4116  1.4116  0.8930  0.8930
  0.9228  0.9228  0.8230  0.8230  0.7311  0.6392  0.6392  0.6293  0.5349  0.5349
  0.4485  0.3593

 Free energy of the ion-electron system (eV)
  ---------------------------------------------------
  alpha Z        PSCENC =        55.01849026
  Ewald energy   TEWEN  =     54398.76391692
  -Hartree energ DENC   =    -80214.36717996
  -exchange      EXHF   =         0.00000000
  -V(xc)+E(xc)   XCENC  =      -295.12708417
  PAW double counting   =     28118.41999476   -26966.31995266
  entropy T*S    EENTRO =        -0.00000000
  eigenvalues    EBANDS =     -2115.49618209
  atomic energy  EATOM  =     26967.16438225
  ---------------------------------------------------
  free energy    TOTEN  =       -51.94361468 eV

  energy without entropy =      -51.94361468  energy(sigma->0) =      -51.94361468


--------------------------------------------------------------------------------------------------------




----------------------------------------- Iteration    1(  28)  ---------------------------------------


    POTLOK:  cpu time    0.37: real time    0.37
    SETDIJ:  cpu time    0.01: real time    0.01
     EDDAV:  cpu time    3.76: real time    3.76
       DOS:  cpu time    0.00: real time    0.00
    CHARGE:  cpu time    0.16: real time    0.16
    MIXING:  cpu time    0.02: real time    0.03
    --------------------------------------------
      LOOP:  cpu time    4.32: real time    4.34

 eigenvalue-minimisations  :   792
 total energy-change (2. order) :-0.1407913E-01  (-0.2073307E-03)
 number of electron     286.0001031 magnetization       1.2792265
 augmentation part      137.2691166 magnetization       1.1939773

 Broyden mixing:
  rms(total) = 0.10734E+00    rms(broyden)= 0.10734E+00
  rms(prec ) = 0.11358E+00
  weight for this iteration     100.00

 eigenvalues of (default mixing * dielectric matrix)
  average eigenvalue GAMMA=   1.4646
  9.2885  3.4222  2.1825  2.1825  1.3591  1.3591  1.1861  1.1861  1.3890  1.3890
  0.9179  0.9179  0.6603  0.6603  0.8093  0.8093  0.7394  0.6429  0.6429  0.6360
  0.4466  0.4849  0.3739

 Free energy of the ion-electron system (eV)
  ---------------------------------------------------
  alpha Z        PSCENC =        55.01849026
  Ewald energy   TEWEN  =     54398.76391692
  -Hartree energ DENC   =    -80214.20376696
  -exchange      EXHF   =         0.00000000
  -V(xc)+E(xc)   XCENC  =      -295.13704808
  PAW double counting   =     28114.01242876   -26961.98734394
  entropy T*S    EENTRO =         0.00000000
  eigenvalues    EBANDS =     -2115.58875302
  atomic energy  EATOM  =     26967.16438225
  ---------------------------------------------------
  free energy    TOTEN  =       -51.95769382 eV

  energy without entropy =      -51.95769382  energy(sigma->0) =      -51.95769382


--------------------------------------------------------------------------------------------------------




----------------------------------------- Iteration    1(  29)  ---------------------------------------


    POTLOK:  cpu time    0.36: real time    0.37
    SETDIJ:  cpu time    0.01: real time    0.01
     EDDAV:  cpu time    3.72: real time    3.72
       DOS:  cpu time    0.00: real time    0.00
    CHARGE:  cpu time    0.16: real time    0.16
    MIXING:  cpu time    0.03: real time    0.03
    --------------------------------------------
      LOOP:  cpu time    4.29: real time    4.30

 eigenvalue-minimisations  :   784
 total energy-change (2. order) :-0.1616172E-01  (-0.4805437E-03)
 number of electron     286.0001031 magnetization       0.7207412
 augmentation part      137.2701289 magnetization       0.6536681

 Broyden mixing:
  rms(total) = 0.93073E-01    rms(broyden)= 0.93073E-01
  rms(prec ) = 0.97693E-01
  weight for this iteration     100.00

 eigenvalues of (default mixing * dielectric matrix)
  average eigenvalue GAMMA=   1.5668
 10.2951  3.1482  2.9163  2.9163  1.3266  1.3266  1.4980  1.4980  1.4228  1.4228
  0.9683  0.9683  0.8119  0.8119  0.8185  0.8185  0.7251  0.6627  0.6627  0.6184
  0.5752  0.5752  0.4479  0.3690

 Free energy of the ion-electron system (eV)
  ---------------------------------------------------
  alpha Z        PSCENC =        55.01849026
  Ewald energy   TEWEN  =     54398.76391692
  -Hartree energ DENC   =    -80213.32570066
  -exchange      EXHF   =         0.00000000
  -V(xc)+E(xc)   XCENC  =      -295.15647572
  PAW double counting   =     28106.51124879   -26954.56478776
  entropy T*S    EENTRO =         0.00000000
  eigenvalues    EBANDS =     -2116.38492961
  atomic energy  EATOM  =     26967.16438225
  ---------------------------------------------------
  free energy    TOTEN  =       -51.97385554 eV

  energy without entropy =      -51.97385554  energy(sigma->0) =      -51.97385554


--------------------------------------------------------------------------------------------------------




----------------------------------------- Iteration    1(  30)  ---------------------------------------


    POTLOK:  cpu time    0.37: real time    0.37
    SETDIJ:  cpu time    0.01: real time    0.01
     EDDAV:  cpu time    3.78: real time    3.78
       DOS:  cpu time    0.00: real time    0.00
    CHARGE:  cpu time    0.16: real time    0.16
    MIXING:  cpu time    0.03: real time    0.03
    --------------------------------------------
      LOOP:  cpu time    4.36: real time    4.38

 eigenvalue-minimisations  :   800
 total energy-change (2. order) :-0.3578376E-01  (-0.1439010E-02)
 number of electron     286.0001031 magnetization       0.4027048
 augmentation part      137.2703663 magnetization       0.3653730

 Broyden mixing:
  rms(total) = 0.54102E-01    rms(broyden)= 0.54101E-01
  rms(prec ) = 0.56600E-01
  weight for this iteration     100.00

 eigenvalues of (default mixing * dielectric matrix)
  average eigenvalue GAMMA=   1.6426
 10.8743  3.5935  3.5935  3.3105  1.3140  1.3140  1.6892  1.6892  1.3238  1.3238
  1.0419  1.0419  0.8630  0.8630  0.9003  0.9003  0.7916  0.6941  0.6941  0.4478
  0.6207  0.6207  0.6288  0.5624  0.3694

 Free energy of the ion-electron system (eV)
  ---------------------------------------------------
  alpha Z        PSCENC =        55.01849026
  Ewald energy   TEWEN  =     54398.76391692
  -Hartree energ DENC   =    -80210.73516350
  -exchange      EXHF   =         0.00000000
  -V(xc)+E(xc)   XCENC  =      -295.20206349
  PAW double counting   =     28115.69026205   -26963.68814683
  entropy T*S    EENTRO =         0.00000000
  eigenvalues    EBANDS =     -2119.02131695
  atomic energy  EATOM  =     26967.16438225
  ---------------------------------------------------
  free energy    TOTEN  =       -52.00963930 eV

  energy without entropy =      -52.00963930  energy(sigma->0) =      -52.00963930


--------------------------------------------------------------------------------------------------------




----------------------------------------- Iteration    1(  31)  ---------------------------------------


    POTLOK:  cpu time    0.37: real time    0.37
    SETDIJ:  cpu time    0.01: real time    0.01
     EDDAV:  cpu time    3.72: real time    3.72
       DOS:  cpu time    0.00: real time    0.00
    CHARGE:  cpu time    0.16: real time    0.16
    MIXING:  cpu time    0.03: real time    0.03
    --------------------------------------------
      LOOP:  cpu time    4.29: real time    4.32

 eigenvalue-minimisations  :   784
 total energy-change (2. order) :-0.1586883E-01  (-0.7258678E-03)
 number of electron     286.0001031 magnetization       0.0955649
 augmentation part      137.2713224 magnetization       0.0755753

 Broyden mixing:
  rms(total) = 0.23338E-01    rms(broyden)= 0.23337E-01
  rms(prec ) = 0.24898E-01
  weight for this iteration     100.00

 eigenvalues of (default mixing * dielectric matrix)
  average eigenvalue GAMMA=   1.7196
 12.0239  4.1612  4.1612  3.1077  2.4927  1.3104  1.3104  1.8449  1.2737  1.2737
  1.0905  1.0905  0.8525  0.8525  0.8639  0.8639  0.7210  0.7210  0.7737  0.4478
  0.5918  0.5918  0.6525  0.6338  0.6338  0.3694

 Free energy of the ion-electron system (eV)
  ---------------------------------------------------
  alpha Z        PSCENC =        55.01849026
  Ewald energy   TEWEN  =     54398.76391692
  -Hartree energ DENC   =    -80207.35251562
  -exchange      EXHF   =         0.00000000
  -V(xc)+E(xc)   XCENC  =      -295.23855018
  PAW double counting   =     28134.37960965   -26982.22506421
  entropy T*S    EENTRO =         0.00000000
  eigenvalues    EBANDS =     -2122.53577719
  atomic energy  EATOM  =     26967.16438225
[...]
    141      -4.1601      1.00000
    142      -3.8624      1.00000
    143      -3.6905      1.00000
    144      -3.2856      0.00000
    145      -3.0299      0.00000
    146      -2.7788      0.00000
    147      -2.6111      0.00000
    148      -2.5312      0.00000
    149      -2.4309      0.00000
    150      -2.3377      0.00000
    151      -2.1818      0.00000
    152      -2.1037      0.00000
    153      -1.9036      0.00000
    154      -1.6936      0.00000
    155      -1.6224      0.00000
    156      -1.2966      0.00000
    157      -1.1027      0.00000
    158      -1.0135      0.00000
    159      -0.9749      0.00000
    160      -0.8664      0.00000
    161      -0.7945      0.00000
    162      -0.6807      0.00000
    163      -0.6036      0.00000
    164      -0.5278      0.00000
    165      -0.3550      0.00000
    166      -0.3377      0.00000
    167      -0.2287      0.00000
    168      -0.0314      0.00000
    169       0.1479      0.00000
    170       0.2862      0.00000
    171       0.3817      0.00000
    172       0.4641      0.00000
    173       0.5751      0.00000
    174       0.5833      0.00000
    175       0.6083      0.00000
    176       0.6460      0.00000
    177       0.7047      0.00000
    178       0.7271      0.00000
    179       0.7449      0.00000
    180       0.8049      0.00000
    181       0.8179      0.00000
    182       0.8759      0.00000
    183       0.9192      0.00000
    184       0.9346      0.00000


--------------------------------------------------------------------------------------------------------


 soft charge-density along one line, spin component           1
         0         1         2         3         4         5         6         7         8         9
 total charge-density along one line
 
 soft charge-density along one line, spin component           2
         0         1         2         3         4         5         6         7         8         9
 total charge-density along one line
 
 pseudopotential strength for first ion, spin component:           1
-10.438  -0.007   0.006   0.000   0.003 -10.407  -0.006   0.006
 -0.007 -10.442   0.000  -0.000  -0.000  -0.006 -10.412   0.000
  0.006   0.000 -10.438   0.001  -0.002   0.006   0.000 -10.408
  0.000  -0.000   0.001 -10.434  -0.005   0.000  -0.000   0.001
  0.003  -0.000  -0.002  -0.005 -10.438   0.003  -0.000  -0.002
-10.407  -0.006   0.006   0.000   0.003 -10.353  -0.006   0.006
 -0.006 -10.412   0.000  -0.000  -0.000  -0.006 -10.357   0.000
  0.006   0.000 -10.408   0.001  -0.002   0.006   0.000 -10.354
  0.000  -0.000   0.001 -10.403  -0.005   0.000  -0.000   0.001
  0.003  -0.000  -0.002  -0.005 -10.408   0.003  -0.000  -0.002
  0.001  -0.001   0.001   0.002  -0.001   0.001  -0.001   0.001
  0.001  -0.001   0.001   0.004  -0.002   0.001  -0.001   0.001
  0.014   0.007  -0.015  -0.000  -0.026   0.013   0.007  -0.015
 -0.000   0.026   0.008   0.015  -0.000  -0.000   0.025   0.008
  0.027  -0.000  -0.008   0.007   0.015   0.026  -0.000  -0.007
  0.017   0.009  -0.019  -0.001  -0.032   0.016   0.009  -0.018
 -0.001   0.032   0.010   0.018  -0.000  -0.001   0.031   0.010
  0.033  -0.001  -0.010   0.008   0.018   0.031  -0.001  -0.009
 pseudopotential strength for first ion, spin component:           2
-10.438  -0.007   0.006   0.000   0.003 -10.407  -0.006   0.006
 -0.007 -10.442   0.000  -0.000  -0.000  -0.006 -10.412   0.000
  0.006   0.000 -10.438   0.001  -0.002   0.006   0.000 -10.408
  0.000  -0.000   0.001 -10.434  -0.005   0.000  -0.000   0.001
  0.003  -0.000  -0.002  -0.005 -10.438   0.003  -0.000  -0.002
-10.407  -0.006   0.006   0.000   0.003 -10.353  -0.006   0.006
 -0.006 -10.412   0.000  -0.000  -0.000  -0.006 -10.357   0.000
  0.006   0.000 -10.408   0.001  -0.002   0.006   0.000 -10.354
  0.000  -0.000   0.001 -10.403  -0.005   0.000  -0.000   0.001
  0.003  -0.000  -0.002  -0.005 -10.408   0.003  -0.000  -0.002
  0.001  -0.001   0.001   0.002  -0.001   0.001  -0.001   0.001
  0.001  -0.001   0.001   0.004  -0.002   0.001  -0.001   0.001
  0.014   0.007  -0.015  -0.000  -0.026   0.013   0.007  -0.015
 -0.000   0.026   0.008   0.015  -0.000  -0.000   0.025   0.008
  0.027  -0.000  -0.008   0.007   0.015   0.026  -0.000  -0.007
  0.017   0.009  -0.019  -0.001  -0.032   0.016   0.009  -0.018
 -0.001   0.032   0.010   0.018  -0.000  -0.001   0.031   0.010
  0.033  -0.001  -0.010   0.008   0.018   0.031  -0.001  -0.009
 total augmentation occupancy for first ion, spin component:           1
  2.593  -0.024  -0.065   0.041   0.061  -0.585  -0.024   0.104  -0.032  -0.016  -0.098   0.051   0.044  -0.009   0.084   0.004
 -0.024   2.819   0.080   0.082   0.020  -0.024  -0.854  -0.069  -0.042  -0.026   0.021   0.013  -0.006   0.181  -0.005   0.004
 -0.065   0.080   2.550   0.024   0.004   0.104  -0.069  -0.566   0.014   0.003  -0.028  -0.015  -0.024   0.029  -0.046  -0.007
  0.041   0.082   0.024   2.562   0.138  -0.032  -0.042   0.014  -0.549  -0.160  -0.199   0.047  -0.010   0.047   0.067  -0.001
  0.061   0.020   0.004   0.138   2.770  -0.016  -0.026   0.003  -0.160  -0.762   0.111  -0.042  -0.125   0.039   0.094  -0.007
 -0.585  -0.024   0.104  -0.032  -0.016   0.556   0.065  -0.138   0.025  -0.022   0.081  -0.040  -0.061   0.006  -0.099   0.005
 -0.024  -0.854  -0.069  -0.042  -0.026   0.065   0.862   0.059   0.008   0.031  -0.026  -0.008   0.001  -0.207   0.002   0.001
  0.104  -0.069  -0.566   0.014   0.003  -0.138   0.059   0.555  -0.044  -0.009   0.036   0.008   0.031  -0.035   0.065  -0.002
 -0.032  -0.042   0.014  -0.549  -0.160   0.025   0.008  -0.044   0.514   0.180   0.187  -0.042   0.007  -0.046  -0.079   0.000
 -0.016  -0.026   0.003  -0.160  -0.762  -0.022   0.031  -0.009   0.180   0.733  -0.100   0.035   0.150  -0.042  -0.106  -0.009
 -0.098   0.021  -0.028  -0.199   0.111   0.081  -0.026   0.036   0.187  -0.100   1.768  -0.235  -0.199  -0.057  -0.108   0.018
  0.051   0.013  -0.015   0.047  -0.042  -0.040  -0.008   0.008  -0.042   0.035  -0.235   0.046   0.041   0.011   0.022  -0.003
  0.044  -0.006  -0.024  -0.010  -0.125  -0.061   0.001   0.031   0.007   0.150  -0.199   0.041   0.067  -0.007  -0.001  -0.005
 -0.009   0.181   0.029   0.047   0.039   0.006  -0.207  -0.035  -0.046  -0.042  -0.057   0.011  -0.007   0.078   0.010  -0.000
  0.084  -0.005  -0.046   0.067   0.094  -0.099   0.002   0.065  -0.079  -0.106  -0.108   0.022  -0.001   0.010   0.060  -0.001
  0.004   0.004  -0.007  -0.001  -0.007   0.005   0.001  -0.002   0.000  -0.009   0.018  -0.003  -0.005  -0.000  -0.001   0.001
 -0.001   0.006   0.004   0.006  -0.002   0.000   0.012   0.002   0.003   0.002   0.005  -0.001  -0.000  -0.004  -0.001   0.000
  0.010  -0.001  -0.002   0.000   0.005   0.006   0.000  -0.004   0.005   0.005   0.010  -0.002  -0.001  -0.001  -0.004   0.000
 total augmentation occupancy for first ion, spin component:           2
 -0.000   0.000  -0.000  -0.000   0.000   0.000  -0.000  -0.000   0.000  -0.000  -0.000  -0.000   0.000   0.000   0.000  -0.000
  0.000  -0.000   0.000  -0.000  -0.000  -0.000   0.000  -0.000   0.000   0.000   0.000  -0.000   0.000   0.000   0.000  -0.000
 -0.000   0.000   0.000   0.000   0.000   0.000  -0.000  -0.000  -0.000  -0.000   0.000  -0.000   0.000  -0.000   0.000  -0.000
 -0.000  -0.000   0.000  -0.000  -0.000   0.000   0.000  -0.000   0.000   0.000  -0.000   0.000   0.000   0.000  -0.000  -0.000
  0.000  -0.000   0.000  -0.000   0.000  -0.000   0.000  -0.000   0.000  -0.000  -0.000   0.000   0.000  -0.000  -0.000  -0.000
  0.000  -0.000   0.000   0.000  -0.000  -0.000   0.000   0.000  -0.000   0.000   0.000   0.000  -0.000  -0.000   0.000   0.000
 -0.000   0.000  -0.000   0.000   0.000   0.000  -0.000   0.000  -0.000  -0.000  -0.000   0.000  -0.000  -0.000  -0.000   0.000
 -0.000  -0.000  -0.000  -0.000  -0.000   0.000   0.000   0.000   0.000  -0.000   0.000   0.000  -0.000   0.000  -0.000   0.000
  0.000   0.000  -0.000   0.000   0.000  -0.000  -0.000   0.000  -0.000  -0.000   0.000  -0.000  -0.000   0.000   0.000   0.000
 -0.000   0.000  -0.000   0.000  -0.000   0.000  -0.000  -0.000  -0.000   0.000  -0.000   0.000  -0.000   0.000   0.000   0.000
 -0.000   0.000   0.000  -0.000  -0.000   0.000  -0.000   0.000   0.000  -0.000  -0.000   0.000  -0.000   0.000  -0.000   0.000
 -0.000  -0.000  -0.000   0.000   0.000   0.000   0.000   0.000  -0.000   0.000   0.000  -0.000  -0.000   0.000  -0.000  -0.000
  0.000   0.000   0.000   0.000   0.000  -0.000  -0.000  -0.000  -0.000  -0.000  -0.000  -0.000  -0.000   0.000  -0.000  -0.000
  0.000   0.000  -0.000   0.000  -0.000  -0.000  -0.000   0.000   0.000   0.000   0.000   0.000   0.000   0.000  -0.000   0.000
  0.000   0.000   0.000  -0.000  -0.000   0.000  -0.000  -0.000   0.000   0.000  -0.000  -0.000  -0.000  -0.000  -0.000   0.000
 -0.000  -0.000  -0.000  -0.000  -0.000   0.000   0.000   0.000   0.000   0.000   0.000  -0.000  -0.000   0.000   0.000   0.000
  0.000  -0.000   0.000  -0.000   0.000  -0.000   0.000  -0.000   0.000  -0.000   0.000  -0.000   0.000  -0.000   0.000  -0.000
 -0.000  -0.000  -0.000   0.000   0.000   0.000   0.000   0.000  -0.000  -0.000  -0.000   0.000   0.000   0.000  -0.000  -0.000


------------------------ aborting loop because EDIFF is reached ----------------------------------------


    CHARGE:  cpu time    0.16: real time    0.16
    FORLOC:  cpu time    0.02: real time    0.02
    FORNL :  cpu time    2.18: real time    2.18
    STRESS:  cpu time    2.80: real time    2.80
    FORCOR:  cpu time    0.37: real time    0.37
    FORHAR:  cpu time    0.06: real time    0.06
    MIXING:  cpu time    0.01: real time    0.01
    OFIELD:  cpu time    0.00: real time    0.00

  FORCE on cell =-STRESS in cart. coord.  units (eV):
  Direction    XX          YY          ZZ          XY          YZ          ZX
  --------------------------------------------------------------------------------------
  Alpha Z    55.01849    55.01849    55.01849
  Ewald   10314.40973 16580.90817 26347.45215  3601.29779 -4735.62874 -3068.29312
  Hartree 19508.68823 25144.10566 34417.81327  3175.54377 -4436.02840 -2759.90954
  E(xc)   -1508.69474 -1507.13914 -1506.58910     1.07649    -0.32542    -0.73743
  Local  -34062.76371-45945.50082-64990.00823 -6764.17175  9174.96099  5822.30348
  n-local  -279.50753  -281.38556  -278.34820    -1.00733    -2.37274    -0.25015
  augment  2392.09798  2386.59026  2386.57084    -3.69580     0.07797     2.12619
  Kinetic  3570.71860  3557.42619  3558.04237    -9.06323    -0.67694     4.78895
  Fock        0.00000     0.00000     0.00000     0.00000     0.00000     0.00000
  -------------------------------------------------------------------------------------
  Total     -10.03295    -9.97677   -10.04841    -0.02005     0.00672     0.02839
  in kB      -1.53811    -1.52950    -1.54048    -0.00307     0.00103     0.00435
  external pressure =       -1.54 kB  Pullay stress =        0.00 kB


 VOLUME and BASIS-vectors are now :
 -----------------------------------------------------------------------------
  energy-cutoff  :      249.84
  volume of cell :    10450.86
      direct lattice vectors                 reciprocal lattice vectors
    21.863385006  0.000000000  0.000000000     0.045738572  0.000000000  0.000000000
     0.000000000 21.863385006  0.000000000     0.000000000  0.045738572  0.000000000
     0.000000000  0.000000000 21.863385006     0.000000000  0.000000000  0.045738572

  length of vectors
    21.863385006 21.863385006 21.863385006     0.045738572  0.045738572  0.045738572


 FORCES acting on ions
    electron-ion (+dipol)            ewald-force                    non-local-force                 convergence-correction
 -----------------------------------------------------------------------------------------------
   -.632E+03 -.122E+04 -.548E+02   0.630E+03 0.122E+04 0.535E+02   0.242E+01 0.441E+01 0.132E+01   -.848E-02 0.137E-01 0.894E-02
   0.488E+03 0.122E+04 0.461E+03   -.486E+03 -.122E+04 -.460E+03   -.168E+01 -.446E+01 -.924E+00   0.362E-02 0.183E-01 0.124E-01
   -.311E+02 -.226E+03 -.125E+04   0.306E+02 0.224E+03 0.124E+04   0.477E+00 0.214E+01 0.639E+01   0.194E-02 -.141E-01 -.120E-01
   -.846E+03 -.686E+03 0.882E+03   0.843E+03 0.682E+03 -.879E+03   0.241E+01 0.342E+01 -.285E+01   -.424E-02 -.200E-02 0.123E-01
   0.600E+03 0.289E+03 0.107E+04   -.599E+03 -.288E+03 -.106E+04   -.900E+00 -.918E+00 -.161E+01   0.758E-03 0.831E-02 -.180E-01
   -.786E+03 0.827E+03 0.351E+03   0.786E+03 -.827E+03 -.349E+03   0.452E+00 -.414E+00 -.154E+01   0.254E-01 -.212E-01 -.424E-02
   0.279E+03 -.112E+04 -.577E+03   -.279E+03 0.112E+04 0.576E+03   -.364E+00 0.416E+01 0.116E+01   0.346E-01 -.163E-02 0.199E-01
   -.115E+04 0.404E+03 -.440E+03   0.115E+04 -.402E+03 0.439E+03   0.112E+01 -.142E+01 0.125E+01   0.138E-01 -.832E-02 0.451E-02
   0.401E+03 -.128E+04 0.346E+03   -.399E+03 0.127E+04 -.347E+03   -.116E+01 0.427E+01 0.603E+00   -.854E-02 0.172E-01 -.431E-01
   0.106E+04 -.694E+03 0.463E+03   -.106E+04 0.692E+03 -.462E+03   -.153E+01 0.152E+01 -.133E+01   -.904E-02 -.563E-02 0.111E-01
   0.128E+04 -.537E+03 -.366E+03   -.128E+04 0.536E+03 0.364E+03   -.382E+01 0.120E+01 0.217E+01   -.107E-01 -.978E-02 -.175E-02
   -.139E+04 0.207E+02 0.227E+03   0.139E+04 -.213E+02 -.226E+03   0.471E+01 0.628E+00 -.153E+01   -.168E-01 -.188E-01 0.171E-01
   0.348E+03 -.536E+03 0.126E+04   -.347E+03 0.536E+03 -.125E+04   -.104E+01 0.773E+00 -.436E+01   -.382E-03 -.142E-02 0.923E-03
   0.101E+04 0.715E+03 -.255E+03   -.101E+04 -.712E+03 0.256E+03   -.166E+01 -.218E+01 -.130E+01   0.167E-01 -.150E-01 0.330E-01
   0.210E+03 0.118E+03 -.118E+03   -.209E+03 -.118E+03 0.117E+03   -.726E+00 -.230E-01 0.969E+00   0.838E-03 0.236E-02 0.793E-02
   -.661E+03 0.237E+03 0.118E+04   0.659E+03 -.236E+03 -.117E+04   0.212E+01 -.975E+00 -.233E+01   0.124E-01 0.116E-01 -.155E-01
   -.169E+03 0.955E+03 0.973E+03   0.169E+03 -.951E+03 -.969E+03   -.632E-02 -.479E+01 -.363E+01   -.206E-01 -.136E-01 0.127E-04
   -.944E+03 -.736E+03 -.563E+03   0.942E+03 0.734E+03 0.564E+03   0.184E+01 0.216E+01 -.244E+00   0.170E-02 0.520E-02 0.246E-01
   -.229E+03 -.451E+03 0.276E+03   0.228E+03 0.450E+03 -.275E+03   0.748E+00 0.121E+01 -.975E+00   -.505E-02 0.552E-02 -.139E-01
   -.615E+03 0.578E+03 -.890E+03   0.615E+03 -.578E+03 0.889E+03   0.612E+00 0.145E-01 0.132E+01   -.381E-01 0.189E-02 -.189E-01
   0.768E+03 0.410E+03 -.972E+03   -.765E+03 -.408E+03 0.968E+03   -.260E+01 -.145E+01 0.363E+01   0.216E-01 0.106E-01 -.543E-02
   -.628E+03 -.546E+03 -.974E+03   0.627E+03 0.544E+03 0.971E+03   0.940E+00 0.250E+01 0.288E+01   -.206E-01 0.335E-02 -.600E-02
   0.580E+03 -.466E+03 -.835E+03   -.580E+03 0.465E+03 0.834E+03   0.870E-02 0.949E+00 0.121E+01   0.283E-01 0.131E-01 0.229E-01
   0.133E+04 0.361E+03 0.466E+03   -.133E+04 -.359E+03 -.465E+03   -.389E+01 -.204E+01 -.102E+01   0.645E-02 -.993E-02 0.702E-02
   -.417E+03 0.117E+04 -.130E+03   0.417E+03 -.117E+04 0.131E+03   0.506E+00 -.280E+01 -.114E+01   -.981E-02 0.191E-01 -.155E-02
   0.151E+03 0.119E+04 -.520E+03   -.149E+03 -.119E+04 0.519E+03   -.182E+01 -.595E+01 0.111E+01   -.104E-01 -.409E-03 -.302E-01
 -----------------------------------------------------------------------------------------------
   0.278E+01 -.197E+01 0.735E+00   -.739E-12 0.000E+00 0.171E-11   -.283E+01 0.191E+01 -.779E+00   0.543E-02 0.846E-02 0.120E-01
 
 
 POSITION                                       TOTAL-FORCE (eV/Angst)
 -----------------------------------------------------------------------------------
     13.16376     15.06722     10.22220        -0.013938      0.000016      0.006277
     10.05522      8.40333      9.87801        -0.000084      0.004761      0.000911
     10.90567     11.02320     16.57917         0.007613     -0.001651      0.015103
     13.63194     13.70911      7.81426         0.001194      0.009023      0.006713
     10.22509     10.69254      8.30828         0.005303     -0.001559     -0.000608
     12.63282      9.59803      9.84667        -0.001509     -0.006641     -0.009868
     10.66682     13.47990     12.13327         0.008950     -0.005458      0.007282
     13.55833     10.38076     12.35939         0.006958     -0.001596      0.005204
     10.60756     15.17305      9.13730        -0.000582      0.002204     -0.024122
      9.06754     12.90400      9.62763         0.007989      0.005079      0.005322
      8.03885     12.14911     12.08639         0.009425     -0.007261      0.015487
     14.47711     11.70854      9.91515        -0.004841     -0.004142      0.011407
     10.83271     13.22580      7.17946        -0.002380     -0.002008     -0.006954
      8.77572      9.14226     12.68522         0.006349     -0.001956      0.000792
     10.50573     10.83306     11.30462         0.001278      0.008498     -0.001700
     12.86352     11.09183      7.42758        -0.001051     -0.012246      0.000419
     11.76583      8.49669      7.46238        -0.009305      0.003727      0.006529
     13.49181     13.11359     12.13474         0.009150      0.003395     -0.005096
     11.89890     12.66258      9.70432        -0.006939      0.006686      0.008238
     11.93532      9.31472     14.69649        -0.003872      0.000630     -0.006966
      9.02799      9.24655     15.48020        -0.002250     -0.003794      0.005512
     12.48088     12.03213     14.39312         0.004972      0.001013     -0.000391
      9.77910     11.48346     14.08417        -0.015721      0.013821     -0.022613
      7.96223     10.30381     10.03940         0.000888     -0.004694      0.004383
     11.67907      8.29220     12.16678         0.002847      0.004786     -0.008576
     10.31328      7.14395     14.25692        -0.010445     -0.010634     -0.012683
 -----------------------------------------------------------------------------------
    total drift:                               -0.046924     -0.044920     -0.031514


--------------------------------------------------------------------------------------------------------



  FREE ENERGIE OF THE ION-ELECTRON SYSTEM (eV)
  ---------------------------------------------------
  free  energy   TOTEN  =       -52.93387954 eV

  energy  without entropy=      -52.93387954  energy(sigma->0) =      -52.93387954
 
 d Force = 0.1963078E-03[ 0.121E-03, 0.272E-03]  d Energy = 0.3251701E-03-0.129E-03
 d Force =-0.1219203E+01[-0.122E+01,-0.122E+01]  d Ewald  =-0.1219202E+01-0.118E-05


--------------------------------------------------------------------------------------------------------


    POTLOK:  cpu time    0.38: real time    0.38


--------------------------------------------------------------------------------------------------------




--------------------------------------------------------------------------------------------------------


  
 reached required accuracy - stopping structural energy minimisation
     LOOP+:  cpu time   17.55: real time   18.08
    4ORBIT:  cpu time    0.00: real time    0.00

 total amount of memory used by VASP on root node    72490. kBytes
========================================================================

   base      :      30000. kBytes
   nonl-proj :       3272. kBytes
   fftplans  :       8573. kBytes
   grid      :      21928. kBytes
   one-center:         62. kBytes
   wavefun   :       8655. kBytes
 
  
  
 General timing and accounting informations for this job:
 ========================================================
  
                  Total CPU time used (sec):     1501.954
                            User time (sec):     1492.393
                          System time (sec):        9.561
                         Elapsed time (sec):     1590.802
  
                   Maximum memory used (kb):       94504.
                   Average memory used (kb):           0.
  
                          Minor page faults:      1586702
                          Major page faults:            0
                 Voluntary context switches:         9845
