       N       E                     dE             d eps       ncg     rms          rms(c)
DAV:   1     0.257616883003E+04    0.25762E+04   -0.48411E+04   736   0.577E+02
DAV:   2     0.733850117121E+03   -0.18423E+04   -0.16395E+04  1312   0.128E+02
DAV:   3     0.928485112730E+01   -0.72457E+03   -0.67191E+03  1008   0.924E+01
DAV:   4    -0.492531699400E+02   -0.58538E+02   -0.55082E+02   864   0.280E+01
DAV:   5    -0.504958237861E+02   -0.12427E+01   -0.12390E+01   840   0.456E+00    0.294E+01
DAV:   6    -0.167030454853E+02    0.33793E+02   -0.10359E+02   752   0.163E+01    0.151E+01
DAV:   7    -0.146399969152E+02    0.20630E+01   -0.52684E+00   792   0.468E+00    0.932E+00
DAV:   8    -0.107063035005E+02    0.39337E+01   -0.20787E+00   808   0.489E+00    0.478E+00
DAV:   9    -0.157211936290E+02   -0.50149E+01   -0.13635E+00   816   0.225E+00    0.298E+00
DAV:  10    -0.244217084221E+02   -0.87005E+01   -0.24859E+00   752   0.271E+00    0.315E+00
DAV:  11    -0.260878423034E+02   -0.16661E+01   -0.34361E-01   840   0.130E+00    0.265E+00
DAV:  12    -0.334340673982E+02   -0.73462E+01   -0.32791E+00   776   0.288E+00    0.173E+00
DAV:  13    -0.403643250766E+02   -0.69303E+01   -0.29647E+00   752   0.208E+00    0.198E+00
DAV:  14    -0.407596989786E+02   -0.39537E+00   -0.76878E-02   912   0.452E-01    0.179E+00
DAV:  15    -0.430917805591E+02   -0.23321E+01   -0.46181E-01   760   0.105E+00    0.141E+00
DAV:  16    -0.448318701370E+02   -0.17401E+01   -0.31201E-01   776   0.924E-01    0.120E+00
DAV:  17    -0.453217107811E+02   -0.48984E+00   -0.38151E-02   824   0.496E-01    0.106E+00
DAV:  18    -0.464630603063E+02   -0.11413E+01   -0.16382E-01   776   0.726E-01    0.155E+00
DAV:  19    -0.466803898564E+02   -0.21733E+00   -0.18778E-02   808   0.396E-01    0.133E+00
DAV:  20    -0.472759333202E+02   -0.59554E+00   -0.84327E-02   752   0.737E-01    0.918E-01
DAV:  21    -0.483422866952E+02   -0.10664E+01   -0.17401E-01   760   0.109E+00    0.382E-01
DAV:  22    -0.491795152003E+02   -0.83723E+00   -0.74953E-02   760   0.606E-01    0.360E-01
DAV:  23    -0.495127794758E+02   -0.33326E+00   -0.11606E-02   816   0.264E-01    0.285E-01
DAV:  24    -0.497075196491E+02   -0.19474E+00   -0.53399E-03   776   0.189E-01    0.170E-01
DAV:  25    -0.498866624142E+02   -0.17914E+00   -0.83839E-03   792   0.284E-01    0.118E-01
DAV:  26    -0.499577815840E+02   -0.71119E-01   -0.26791E-03   784   0.155E-01    0.123E-01
DAV:  27    -0.500038576844E+02   -0.46076E-01   -0.14576E-03   776   0.114E-01    0.804E-02
DAV:  28    -0.500217250059E+02   -0.17867E-01   -0.79780E-04   776   0.916E-02    0.375E-02
DAV:  29    -0.500267269709E+02   -0.50020E-02   -0.31317E-04   552   0.603E-02    0.250E-02
DAV:  30    -0.500295312852E+02   -0.28043E-02   -0.22814E-04   536   0.264E-02    0.159E-02
DAV:  31    -0.500313270953E+02   -0.17958E-02   -0.78221E-05   528   0.215E-02    0.976E-03
DAV:  32    -0.500333987582E+02   -0.20717E-02   -0.50730E-05   536   0.117E-02    0.828E-03
DAV:  33    -0.500351518843E+02   -0.17531E-02   -0.37193E-05   528   0.122E-02    0.707E-03
DAV:  34    -0.500357963280E+02   -0.64444E-03   -0.68389E-06   520   0.516E-03    0.528E-03
DAV:  35    -0.500362400571E+02   -0.44373E-03   -0.66968E-06   504   0.761E-03    0.332E-03
DAV:  36    -0.500363948672E+02   -0.15481E-03   -0.20126E-06   504   0.332E-03    0.340E-03
DAV:  37    -0.500364895188E+02   -0.94652E-04   -0.98145E-07   488   0.323E-03
   1 F= -.50036490E+02 E0= -.50036490E+02  d E =-.500365E+02  mag=    -0.0010
       N       E                     dE             d eps       ncg     rms          rms(c)
DAV:   1    -0.500997513464E+02   -0.63356E-01   -0.45076E+00   784   0.426E+00    0.171E-01
DAV:   2    -0.501018245804E+02   -0.20732E-02   -0.21106E-02   784   0.412E-01    0.127E-01
DAV:   3    -0.501017680297E+02    0.56551E-04   -0.41130E-04   760   0.640E-02
   2 F= -.50101768E+02 E0= -.50101768E+02  d E =-.652785E-01  mag=    -0.0006
       N       E                     dE             d eps       ncg     rms          rms(c)
DAV:   1    -0.502563664616E+02   -0.15454E+00   -0.40660E+01   752   0.128E+01    0.484E-01
DAV:   2    -0.502749775168E+02   -0.18611E-01   -0.18923E-01   768   0.124E+00    0.379E-01
DAV:   3    -0.502746023329E+02    0.37518E-03   -0.35128E-03   784   0.182E-01    0.238E-01
DAV:   4    -0.502743404763E+02    0.26186E-03   -0.18387E-03   800   0.101E-01    0.409E-02
DAV:   5    -0.502743265468E+02    0.13929E-04   -0.56759E-05   496   0.285E-02
   3 F= -.50274327E+02 E0= -.50274327E+02  d E =-.237837E+00  mag=    -0.0002
       N       E                     dE             d eps       ncg     rms          rms(c)
DAV:   1    -0.504526396929E+02   -0.17830E+00   -0.16308E+02   736   0.257E+01    0.840E-01
DAV:   2    -0.505267308703E+02   -0.74091E-01   -0.74963E-01   768   0.247E+00    0.729E-01
DAV:   3    -0.505256518795E+02    0.10790E-02   -0.12801E-02   784   0.335E-01    0.508E-01
DAV:   4    -0.505240289701E+02    0.16229E-02   -0.77855E-03   792   0.198E-01    0.134E-01
DAV:   5    -0.505240708814E+02   -0.41911E-04   -0.31657E-04   592   0.640E-02
   4 F= -.50524071E+02 E0= -.50524071E+02  d E =-.487581E+00  mag=    -0.0001
       N       E                     dE             d eps       ncg     rms          rms(c)
DAV:   1    -0.504060589447E+02    0.11797E+00   -0.66253E+02   736   0.524E+01    0.138E+00
DAV:   2    -0.507087634497E+02   -0.30270E+00   -0.30488E+00   768   0.506E+00    0.140E+00
DAV:   3    -0.507080544893E+02    0.70896E-03   -0.49575E-02   800   0.628E-01    0.106E+00
DAV:   4    -0.507000866367E+02    0.79679E-02   -0.19251E-02   784   0.319E-01    0.551E-01
DAV:   5    -0.507002208087E+02   -0.13417E-03   -0.67888E-03   800   0.189E-01    0.168E-01
DAV:   6    -0.507000312527E+02    0.18956E-03   -0.51026E-04   784   0.476E-02    0.809E-02
DAV:   7    -0.506999996327E+02    0.31620E-04   -0.21488E-04   512   0.380E-02
   5 F= -.50700000E+02 E0= -.50700000E+02  d E =-.663510E+00  mag=    -0.0000
       N       E                     dE             d eps       ncg     rms          rms(c)
DAV:   1    -0.507941505832E+02   -0.94119E-01   -0.72476E+01   736   0.171E+01    0.445E-01
DAV:   2    -0.508274722121E+02   -0.33322E-01   -0.33481E-01   768   0.163E+00    0.379E-01
DAV:   3    -0.508269249422E+02    0.54727E-03   -0.53365E-03   808   0.206E-01    0.267E-01
DAV:   4    -0.508260799174E+02    0.84502E-03   -0.30049E-03   784   0.118E-01    0.871E-02
DAV:   5    -0.508261317257E+02   -0.51808E-04   -0.24160E-04   520   0.459E-02
   6 F= -.50826132E+02 E0= -.50826132E+02  d E =-.126132E+00  mag=    -0.0000
       N       E                     dE             d eps       ncg     rms          rms(c)
DAV:   1    -0.506981089333E+02    0.12797E+00   -0.66463E+02   736   0.525E+01    0.122E+00
DAV:   2    -0.510103020599E+02   -0.31219E+00   -0.31148E+00   784   0.505E+00    0.111E+00
DAV:   3    -0.510080990156E+02    0.22030E-02   -0.48249E-02   816   0.610E-01    0.808E-01
DAV:   4    -0.510003196136E+02    0.77794E-02   -0.15673E-02   784   0.277E-01    0.424E-01
DAV:   5    -0.510000740910E+02    0.24552E-03   -0.71063E-03   800   0.186E-01    0.131E-01
DAV:   6    -0.510000060878E+02    0.68003E-04   -0.34222E-04   624   0.414E-02
   7 F= -.51000006E+02 E0= -.51000006E+02  d E =-.300006E+00  mag=    -0.0000
       N       E                     dE             d eps       ncg     rms          rms(c)
DAV:   1    -0.510885800598E+02   -0.88506E-01   -0.15743E+02   736   0.252E+01    0.481E-01
DAV:   2    -0.511642378487E+02   -0.75658E-01   -0.73947E-01   784   0.243E+00    0.374E-01
DAV:   3    -0.511633188318E+02    0.91902E-03   -0.11460E-02   816   0.305E-01    0.272E-01
DAV:   4    -0.511615920696E+02    0.17268E-02   -0.27523E-03   784   0.113E-01    0.141E-01
DAV:   5    -0.511614004224E+02    0.19165E-03   -0.22878E-03   784   0.101E-01    0.400E-02
DAV:   6    -0.511614360060E+02   -0.35584E-04   -0.47736E-05   496   0.174E-02
   8 F= -.51161436E+02 E0= -.51161436E+02  d E =-.161430E+00  mag=    -0.0000
       N       E                     dE             d eps       ncg     rms          rms(c)
DAV:   1    -0.507511588619E+02    0.41024E+00   -0.14846E+03   736   0.797E+01    0.251E+00
DAV:   2    -0.515227906499E+02   -0.77163E+00   -0.76520E+00   784   0.803E+00    0.128E+00
DAV:   3    -0.515138639673E+02    0.89267E-02   -0.12728E-01   784   0.108E+00    0.801E-01
DAV:   4    -0.515025724677E+02    0.11291E-01   -0.17383E-02   784   0.299E-01    0.489E-01
DAV:   5    -0.514997916271E+02    0.27808E-02   -0.14550E-02   800   0.258E-01    0.112E-01
DAV:   6    -0.515000414992E+02   -0.24987E-03   -0.22908E-04   528   0.497E-02    0.559E-02
DAV:   7    -0.515002089604E+02   -0.16746E-03   -0.67614E-05   496   0.223E-02    0.161E-02
DAV:   8    -0.515003024333E+02   -0.93473E-04   -0.17597E-05   480   0.933E-03
   9 F= -.51500302E+02 E0= -.51500302E+02  d E =-.500296E+00  mag=    -0.0000
       N       E                     dE             d eps       ncg     rms          rms(c)
DAV:   1    -0.453679143097E+02    0.61323E+01   -0.66913E+03   736   0.182E+02    0.144E+01
DAV:   2    -0.509057699235E+02   -0.55379E+01   -0.56449E+01   784   0.221E+01    0.626E+00
DAV:   3    -0.508372120983E+02    0.68558E-01   -0.11830E+00   800   0.405E+00    0.350E+00
DAV:   4    -0.508089116141E+02    0.28300E-01   -0.85767E-02   800   0.679E-01    0.253E+00
DAV:   5    -0.507956201653E+02    0.13291E-01   -0.73634E-02   784   0.652E-01    0.427E-01
DAV:   6    -0.507963960886E+02   -0.77592E-03   -0.18005E-03   800   0.123E-01    0.162E-01
DAV:   7    -0.507967406260E+02   -0.34454E-03   -0.35707E-04   624   0.502E-02    0.615E-02
DAV:   8    -0.507969847031E+02   -0.24408E-03   -0.56983E-05   528   0.206E-02    0.179E-02
DAV:   9    -0.507971927022E+02   -0.20800E-03   -0.18977E-05   496   0.869E-03    0.717E-03
DAV:  10    -0.507974056951E+02   -0.21299E-03   -0.19359E-05   528   0.539E-03    0.377E-03
DAV:  11    -0.507975877219E+02   -0.18203E-03   -0.16529E-05   512   0.424E-03    0.310E-03
DAV:  12    -0.507976896131E+02   -0.10189E-03   -0.92302E-06   528   0.275E-03    0.186E-03
DAV:  13    -0.507977439541E+02   -0.54341E-04   -0.51025E-06   512   0.217E-03
  10 F= -.50797744E+02 E0= -.50797744E+02  d E =0.202262E+00  mag=    -0.0000
       N       E                     dE             d eps       ncg     rms          rms(c)
DAV:   1    -0.486953799502E+02    0.21023E+01   -0.48063E+03   736   0.151E+02    0.678E+00
DAV:   2    -0.515988126120E+02   -0.29034E+01   -0.28928E+01   800   0.160E+01    0.471E+00
DAV:   3    -0.515855717074E+02    0.13241E-01   -0.49301E-01   832   0.203E+00    0.315E+00
DAV:   4    -0.515528884188E+02    0.32683E-01   -0.52098E-02   784   0.564E-01    0.214E+00
DAV:   5    -0.515432006886E+02    0.96877E-02   -0.74648E-02   800   0.624E-01    0.333E-01
DAV:   6    -0.515434250491E+02   -0.22436E-03   -0.14450E-03   800   0.111E-01    0.191E-01
DAV:   7    -0.515435842260E+02   -0.15918E-03   -0.72581E-04   768   0.675E-02    0.626E-02
DAV:   8    -0.515437528537E+02   -0.16863E-03   -0.37961E-05   528   0.177E-02    0.201E-02
DAV:   9    -0.515438898046E+02   -0.13695E-03   -0.14842E-05   496   0.735E-03    0.606E-03
DAV:  10    -0.515440130632E+02   -0.12326E-03   -0.96057E-06   496   0.405E-03    0.304E-03
DAV:  11    -0.515441669419E+02   -0.15388E-03   -0.21201E-05   480   0.422E-03    0.294E-03
DAV:  12    -0.515442394325E+02   -0.72491E-04   -0.63693E-06   512   0.226E-03
  11 F= -.51544239E+02 E0= -.51544239E+02  d E =-.544233E+00  mag=    -0.0000
       N       E                     dE             d eps       ncg     rms          rms(c)
DAV:   1    -0.515918346475E+02   -0.47668E-01   -0.28272E+02   736   0.338E+01    0.748E-01
DAV:   2    -0.517310228442E+02   -0.13919E+00   -0.13760E+00   800   0.335E+00    0.633E-01
DAV:   3    -0.517298858950E+02    0.11369E-02   -0.23010E-02   784   0.437E-01    0.428E-01
DAV:   4    -0.517266069899E+02    0.32789E-02   -0.59614E-03   784   0.177E-01    0.237E-01
DAV:   5    -0.517263895130E+02    0.21748E-03   -0.38129E-03   784   0.132E-01    0.736E-02
DAV:   6    -0.517263538053E+02    0.35708E-04   -0.17402E-04   544   0.281E-02
  12 F= -.51726354E+02 E0= -.51726354E+02  d E =-.182114E+00  mag=    -0.0000
       N       E                     dE             d eps       ncg     rms          rms(c)
DAV:   1    -0.514227586891E+02    0.30363E+00   -0.85601E+02   736   0.596E+01    0.170E+00
DAV:   2    -0.518562143149E+02   -0.43346E+00   -0.43556E+00   800   0.601E+00    0.113E+00
DAV:   3    -0.518517340103E+02    0.44803E-02   -0.75694E-02   784   0.809E-01    0.708E-01
DAV:   4    -0.518435725934E+02    0.81614E-02   -0.16504E-02   768   0.300E-01    0.385E-01
DAV:   5    -0.518431214284E+02    0.45117E-03   -0.79113E-03   800   0.192E-01    0.103E-01
DAV:   6    -0.518431047215E+02    0.16707E-04   -0.47286E-04   752   0.457E-02
  13 F= -.51843105E+02 E0= -.51843105E+02  d E =-.298865E+00  mag=    -0.0000
       N       E                     dE             d eps       ncg     rms          rms(c)
DAV:   1    -0.517636763545E+02    0.79445E-01   -0.47206E+02   736   0.439E+01    0.978E-01
DAV:   2    -0.519994270712E+02   -0.23575E+00   -0.23163E+00   784   0.433E+00    0.766E-01
DAV:   3    -0.519966998318E+02    0.27272E-02   -0.37375E-02   800   0.553E-01    0.526E-01
DAV:   4    -0.519912260175E+02    0.54738E-02   -0.87929E-03   800   0.202E-01    0.293E-01
DAV:   5    -0.519904940293E+02    0.73199E-03   -0.60002E-03   784   0.166E-01    0.870E-02
DAV:   6    -0.519905566931E+02   -0.62664E-04   -0.15219E-04   544   0.299E-02
  14 F= -.51990557E+02 E0= -.51990557E+02  d E =-.147452E+00  mag=    -0.0000
       N       E                     dE             d eps       ncg     rms          rms(c)
DAV:   1    -0.518715953096E+02    0.11890E+00   -0.32398E+02   736   0.363E+01    0.841E-01
DAV:   2    -0.520291659603E+02   -0.15757E+00   -0.15717E+00   768   0.355E+00    0.661E-01
DAV:   3    -0.520268296660E+02    0.23363E-02   -0.25268E-02   800   0.454E-01    0.451E-01
DAV:   4    -0.520229117552E+02    0.39179E-02   -0.81950E-03   784   0.193E-01    0.217E-01
DAV:   5    -0.520228245050E+02    0.87250E-04   -0.30625E-03   800   0.122E-01    0.708E-02
DAV:   6    -0.520228307743E+02   -0.62693E-05   -0.18468E-04   528   0.299E-02
  15 F= -.52022831E+02 E0= -.52022831E+02  d E =-.179726E+00  mag=    -0.0000
       N       E                     dE             d eps       ncg     rms          rms(c)
DAV:   1    -0.520392668606E+02   -0.16442E-01   -0.24631E+02   736   0.317E+01    0.741E-01
DAV:   2    -0.521566710971E+02   -0.11740E+00   -0.11657E+00   784   0.306E+00    0.658E-01
DAV:   3    -0.521555223548E+02    0.11487E-02   -0.18949E-02   816   0.381E-01    0.463E-01
DAV:   4    -0.521524203976E+02    0.31020E-02   -0.74645E-03   752   0.206E-01    0.222E-01
DAV:   5    -0.521525031311E+02   -0.82733E-04   -0.23418E-03   800   0.110E-01    0.738E-02
DAV:   6    -0.521524478951E+02    0.55236E-04   -0.21844E-04   528   0.316E-02
  16 F= -.52152448E+02 E0= -.52152448E+02  d E =-.129617E+00  mag=    -0.0000
       N       E                     dE             d eps       ncg     rms          rms(c)
DAV:   1    -0.521402166697E+02    0.12286E-01   -0.63071E+01   736   0.160E+01    0.355E-01
DAV:   2    -0.521700596800E+02   -0.29843E-01   -0.29671E-01   784   0.154E+00    0.322E-01
DAV:   3    -0.521697933241E+02    0.26636E-03   -0.48202E-03   816   0.192E-01    0.228E-01
DAV:   4    -0.521690185133E+02    0.77481E-03   -0.19192E-03   768   0.105E-01    0.111E-01
DAV:   5    -0.521690652389E+02   -0.46726E-04   -0.68643E-04   800   0.594E-02
  17 F= -.52169065E+02 E0= -.52169065E+02  d E =-.146234E+00  mag=    -0.0000
       N       E                     dE             d eps       ncg     rms          rms(c)
DAV:   1    -0.521821891517E+02   -0.13171E-01   -0.18357E+02   736   0.273E+01    0.524E-01
DAV:   2    -0.522687932281E+02   -0.86604E-01   -0.85631E-01   784   0.263E+00    0.511E-01
DAV:   3    -0.522681937247E+02    0.59950E-03   -0.13690E-02   816   0.327E-01    0.373E-01
DAV:   4    -0.522657562138E+02    0.24375E-02   -0.38233E-03   784   0.140E-01    0.218E-01
DAV:   5    -0.522655172809E+02    0.23893E-03   -0.33687E-03   800   0.123E-01    0.753E-02
DAV:   6    -0.522655064974E+02    0.10784E-04   -0.10304E-04   480   0.224E-02
  18 F= -.52265506E+02 E0= -.52265506E+02  d E =-.964413E-01  mag=     0.0000
       N       E                     dE             d eps       ncg     rms          rms(c)
DAV:   1    -0.521700394323E+02    0.95478E-01   -0.31042E+02   736   0.356E+01    0.703E-01
DAV:   2    -0.523172257902E+02   -0.14719E+00   -0.14546E+00   784   0.345E+00    0.648E-01
DAV:   3    -0.523159982727E+02    0.12275E-02   -0.23399E-02   816   0.429E-01    0.464E-01
DAV:   4    -0.523121093124E+02    0.38890E-02   -0.61042E-03   768   0.178E-01    0.270E-01
DAV:   5    -0.523116430816E+02    0.46623E-03   -0.50176E-03   800   0.150E-01    0.891E-02
DAV:   6    -0.523116474227E+02   -0.43412E-05   -0.14566E-04   496   0.265E-02
  19 F= -.52311647E+02 E0= -.52311647E+02  d E =-.142582E+00  mag=     0.0000
       N       E                     dE             d eps       ncg     rms          rms(c)
DAV:   1    -0.523221175468E+02   -0.10474E-01   -0.15452E+02   736   0.250E+01    0.439E-01
DAV:   2    -0.523941382456E+02   -0.72021E-01   -0.70363E-01   800   0.238E+00    0.393E-01
DAV:   3    -0.523933423882E+02    0.79586E-03   -0.10881E-02   816   0.292E-01    0.290E-01
DAV:   4    -0.523914172256E+02    0.19252E-02   -0.25234E-03   768   0.109E-01    0.170E-01
DAV:   5    -0.523910124433E+02    0.40478E-03   -0.29290E-03   800   0.114E-01    0.527E-02
DAV:   6    -0.523910501729E+02   -0.37730E-04   -0.42622E-05   464   0.159E-02
  20 F= -.52391050E+02 E0= -.52391050E+02  d E =-.794028E-01  mag=    -0.0000
       N       E                     dE             d eps       ncg     rms          rms(c)
DAV:   1    -0.517490408831E+02    0.64197E+00   -0.14625E+03   736   0.792E+01    0.231E+00
DAV:   2    -0.524854586586E+02   -0.73642E+00   -0.73125E+00   800   0.787E+00    0.138E+00
DAV:   3    -0.524768189452E+02    0.86397E-02   -0.12144E-01   816   0.105E+00    0.866E-01
DAV:   4    -0.524644996844E+02    0.12319E-01   -0.17575E-02   784   0.298E-01    0.559E-01
DAV:   5    -0.524609695402E+02    0.35301E-02   -0.15493E-02   784   0.266E-01    0.150E-01
DAV:   6    -0.524611893027E+02   -0.21976E-03   -0.26798E-04   576   0.453E-02    0.733E-02
DAV:   7    -0.524613182766E+02   -0.12897E-03   -0.74110E-05   480   0.234E-02    0.210E-02
DAV:   8    -0.524613886521E+02   -0.70376E-04   -0.20040E-05   512   0.100E-02
  21 F= -.52461389E+02 E0= -.52461389E+02  d E =-.149741E+00  mag=    -0.0000
       N       E                     dE             d eps       ncg     rms          rms(c)
DAV:   1    -0.524261009757E+02    0.35217E-01   -0.10406E+02   736   0.205E+01    0.336E-01
DAV:   2    -0.524741502996E+02   -0.48049E-01   -0.46843E-01   800   0.194E+00    0.335E-01
DAV:   3    -0.524737547880E+02    0.39551E-03   -0.72347E-03   816   0.234E-01    0.257E-01
DAV:   4    -0.524724547101E+02    0.13001E-02   -0.15883E-03   768   0.876E-02    0.159E-01
DAV:   5    -0.524721838154E+02    0.27089E-03   -0.25485E-03   752   0.105E-01    0.531E-02
DAV:   6    -0.524721929918E+02   -0.91764E-05   -0.39611E-05   496   0.149E-02
  22 F= -.52472193E+02 E0= -.52472193E+02  d E =-.160546E+00  mag=    -0.0000
       N       E                     dE             d eps       ncg     rms          rms(c)
DAV:   1    -0.524704614921E+02    0.17223E-02   -0.14986E+02   736   0.247E+01    0.571E-01
DAV:   2    -0.525406384724E+02   -0.70177E-01   -0.70187E-01   784   0.238E+00    0.475E-01
DAV:   3    -0.525396451237E+02    0.99335E-03   -0.11548E-02   800   0.299E-01    0.326E-01
DAV:   4    -0.525377551308E+02    0.18900E-02   -0.44226E-03   784   0.155E-01    0.149E-01
DAV:   5    -0.525377727436E+02   -0.17613E-04   -0.12543E-03   784   0.838E-02    0.510E-02
DAV:   6    -0.525377283386E+02    0.44405E-04   -0.12565E-04   496   0.247E-02
  23 F= -.52537728E+02 E0= -.52537728E+02  d E =-.655353E-01  mag=    -0.0000
       N       E                     dE             d eps       ncg     rms          rms(c)
DAV:   1    -0.525241427255E+02    0.13630E-01   -0.56676E+01   736   0.151E+01    0.346E-01
DAV:   2    -0.525503463441E+02   -0.26204E-01   -0.26290E-01   784   0.145E+00    0.294E-01
DAV:   3    -0.525499498192E+02    0.39652E-03   -0.43068E-03   800   0.181E-01    0.203E-01
DAV:   4    -0.525492225761E+02    0.72724E-03   -0.18208E-03   784   0.992E-02    0.897E-02
DAV:   5    -0.525492497292E+02   -0.27153E-04   -0.46251E-04   768   0.515E-02
  24 F= -.52549250E+02 E0= -.52549250E+02  d E =-.770567E-01  mag=     0.0000
       N       E                     dE             d eps       ncg     rms          rms(c)
DAV:   1    -0.525485698085E+02    0.65277E-03   -0.84430E+01   736   0.185E+01    0.412E-01
DAV:   2    -0.525887296878E+02   -0.40160E-01   -0.39692E-01   800   0.177E+00    0.342E-01
DAV:   3    -0.525882140616E+02    0.51563E-03   -0.62436E-03   800   0.216E-01    0.242E-01
DAV:   4    -0.525871812458E+02    0.10328E-02   -0.27520E-03   784   0.114E-01    0.991E-02
DAV:   5    -0.525872361379E+02   -0.54892E-04   -0.59205E-04   784   0.593E-02
  25 F= -.52587236E+02 E0= -.52587236E+02  d E =-.379864E-01  mag=     0.0000
       N       E                     dE             d eps       ncg     rms          rms(c)
DAV:   1    -0.525702691325E+02    0.16912E-01   -0.50050E+01   736   0.142E+01    0.323E-01
DAV:   2    -0.525941740571E+02   -0.23905E-01   -0.23562E-01   784   0.136E+00    0.265E-01
DAV:   3    -0.525939004545E+02    0.27360E-03   -0.37142E-03   800   0.166E-01    0.186E-01
DAV:   4    -0.525933381619E+02    0.56229E-03   -0.16546E-03   768   0.888E-02    0.737E-02
DAV:   5    -0.525933814831E+02   -0.43321E-04   -0.27704E-04   512   0.439E-02
  26 F= -.52593381E+02 E0= -.52593381E+02  d E =-.441318E-01  mag=     0.0000
       N       E                     dE             d eps       ncg     rms          rms(c)
DAV:   1    -0.525838493374E+02    0.94888E-02   -0.81606E+01   736   0.182E+01    0.320E-01
DAV:   2    -0.526233886614E+02   -0.39539E-01   -0.38162E-01   784   0.174E+00    0.292E-01
DAV:   3    -0.526230937301E+02    0.29493E-03   -0.59205E-03   800   0.213E-01    0.220E-01
DAV:   4    -0.526220729487E+02    0.10208E-02   -0.15207E-03   768   0.849E-02    0.121E-01
DAV:   5    -0.526219489492E+02    0.12400E-03   -0.15344E-03   768   0.847E-02    0.411E-02
DAV:   6    -0.526219477603E+02    0.11889E-05   -0.44950E-05   464   0.154E-02
  27 F= -.52621948E+02 E0= -.52621948E+02  d E =-.285663E-01  mag=     0.0000
       N       E                     dE             d eps       ncg     rms          rms(c)
DAV:   1    -0.525878303273E+02    0.34119E-01   -0.94878E+01   736   0.196E+01    0.354E-01
DAV:   2    -0.526332580400E+02   -0.45428E-01   -0.44259E-01   784   0.188E+00    0.318E-01
DAV:   3    -0.526327935670E+02    0.46447E-03   -0.68928E-03   784   0.231E-01    0.238E-01
DAV:   4    -0.526315494476E+02    0.12441E-02   -0.19153E-03   784   0.948E-02    0.127E-01
DAV:   5    -0.526314162335E+02    0.13321E-03   -0.16547E-03   752   0.882E-02    0.435E-02
DAV:   6    -0.526314129978E+02    0.32357E-05   -0.55914E-05   464   0.169E-02
  28 F= -.52631413E+02 E0= -.52631413E+02  d E =-.380315E-01  mag=     0.0000
       N       E                     dE             d eps       ncg     rms          rms(c)
DAV:   1    -0.526238078967E+02    0.76083E-02   -0.79231E+01   736   0.179E+01    0.348E-01
DAV:   2    -0.526615711929E+02   -0.37763E-01   -0.37414E-01   768   0.173E+00    0.333E-01
DAV:   3    -0.526612650384E+02    0.30615E-03   -0.60148E-03   832   0.218E-01    0.243E-01
DAV:   4    -0.526602007710E+02    0.10643E-02   -0.18076E-03   768   0.943E-02    0.134E-01
DAV:   5    -0.526601383065E+02    0.62464E-04   -0.13607E-03   800   0.798E-02    0.478E-02
DAV:   6    -0.526601243932E+02    0.13913E-04   -0.59467E-05   480   0.163E-02
  29 F= -.52660124E+02 E0= -.52660124E+02  d E =-.287114E-01  mag=     0.0000
       N       E                     dE             d eps       ncg     rms          rms(c)
DAV:   1    -0.526008943538E+02    0.59244E-01   -0.14189E+02   736   0.239E+01    0.481E-01
DAV:   2    -0.526685476626E+02   -0.67653E-01   -0.67292E-01   784   0.233E+00    0.444E-01
DAV:   3    -0.526678995588E+02    0.64810E-03   -0.10866E-02   816   0.295E-01    0.319E-01
DAV:   4    -0.526660321533E+02    0.18674E-02   -0.31564E-03   768   0.124E-01    0.175E-01
DAV:   5    -0.526659021499E+02    0.13000E-03   -0.22095E-03   784   0.102E-01    0.602E-02
DAV:   6    -0.526658752339E+02    0.26916E-04   -0.10229E-04   480   0.212E-02
  30 F= -.52665875E+02 E0= -.52665875E+02  d E =-.344622E-01  mag=     0.0000
       N       E                     dE             d eps       ncg     rms          rms(c)
DAV:   1    -0.526610037010E+02    0.48984E-02   -0.16108E+01   736   0.805E+00    0.150E-01
DAV:   2    -0.526685540869E+02   -0.75504E-02   -0.75159E-02   768   0.775E-01    0.146E-01
DAV:   3    -0.526684953431E+02    0.58744E-04   -0.12057E-03   832   0.969E-02    0.109E-01
DAV:   4    -0.526682915337E+02    0.20381E-03   -0.34378E-04   704   0.421E-02    0.612E-02
DAV:   5    -0.526682919202E+02   -0.38651E-06   -0.32768E-04   640   0.404E-02
  31 F= -.52668292E+02 E0= -.52668292E+02  d E =-.368789E-01  mag=     0.0000
       N       E                     dE             d eps       ncg     rms          rms(c)
DAV:   1    -0.526446965516E+02    0.23595E-01   -0.10826E+02   736   0.209E+01    0.368E-01
DAV:   2    -0.526966269451E+02   -0.51930E-01   -0.50382E-01   784   0.200E+00    0.339E-01
DAV:   3    -0.526961434764E+02    0.48347E-03   -0.76985E-03   816   0.241E-01    0.258E-01
DAV:   4    -0.526947327711E+02    0.14107E-02   -0.20736E-03   752   0.985E-02    0.140E-01
DAV:   5    -0.526945417513E+02    0.19102E-03   -0.19337E-03   784   0.941E-02    0.466E-02
DAV:   6    -0.526945352693E+02    0.64820E-05   -0.47729E-05   464   0.162E-02
  32 F= -.52694535E+02 E0= -.52694535E+02  d E =-.262433E-01  mag=     0.0000
       N       E                     dE             d eps       ncg     rms          rms(c)
DAV:   1    -0.526797707266E+02    0.14771E-01   -0.38754E+01   736   0.125E+01    0.215E-01
DAV:   2    -0.526981794833E+02   -0.18409E-01   -0.17940E-01   784   0.119E+00    0.199E-01
DAV:   3    -0.526980121150E+02    0.16737E-03   -0.27190E-03   816   0.143E-01    0.152E-01
DAV:   4    -0.526975212351E+02    0.49088E-03   -0.75598E-04   768   0.596E-02    0.810E-02
DAV:   5    -0.526974722292E+02    0.49006E-04   -0.70072E-04   784   0.569E-02
  33 F= -.52697472E+02 E0= -.52697472E+02  d E =-.291803E-01  mag=     0.0000
       N       E                     dE             d eps       ncg     rms          rms(c)
DAV:   1    -0.526851115307E+02    0.12410E-01   -0.72629E+01   736   0.170E+01    0.281E-01
DAV:   2    -0.527198220580E+02   -0.34711E-01   -0.34033E-01   768   0.163E+00    0.261E-01
DAV:   3    -0.527195603141E+02    0.26174E-03   -0.51761E-03   832   0.197E-01    0.197E-01
DAV:   4    -0.527187245878E+02    0.83573E-03   -0.10325E-03   768   0.714E-02    0.118E-01
DAV:   5    -0.527185414197E+02    0.18317E-03   -0.15384E-03   784   0.822E-02    0.373E-02
DAV:   6    -0.527185489453E+02   -0.75256E-05   -0.26141E-05   464   0.122E-02
  34 F= -.52718549E+02 E0= -.52718549E+02  d E =-.210767E-01  mag=     0.0000
       N       E                     dE             d eps       ncg     rms          rms(c)
DAV:   1    -0.526058784469E+02    0.11266E+00   -0.27361E+02   736   0.332E+01    0.643E-01
DAV:   2    -0.527391839576E+02   -0.13331E+00   -0.13080E+00   784   0.322E+00    0.516E-01
DAV:   3    -0.527378549631E+02    0.13290E-02   -0.20239E-02   816   0.393E-01    0.371E-01
DAV:   4    -0.527348211712E+02    0.30338E-02   -0.41493E-03   768   0.142E-01    0.211E-01
DAV:   5    -0.527342201495E+02    0.60102E-03   -0.40312E-03   784   0.134E-01    0.590E-02
DAV:   6    -0.527342480796E+02   -0.27930E-04   -0.74871E-05   512   0.217E-02
  35 F= -.52734248E+02 E0= -.52734248E+02  d E =-.367759E-01  mag=     0.0000
       N       E                     dE             d eps       ncg     rms          rms(c)
DAV:   1    -0.527034967232E+02    0.30723E-01   -0.13122E+02   736   0.227E+01    0.442E-01
DAV:   2    -0.527674293146E+02   -0.63933E-01   -0.63469E-01   784   0.223E+00    0.386E-01
DAV:   3    -0.527669933023E+02    0.43601E-03   -0.10144E-02   816   0.282E-01    0.276E-01
DAV:   4    -0.527655363227E+02    0.14570E-02   -0.21528E-03   768   0.104E-01    0.158E-01
DAV:   5    -0.527653402853E+02    0.19604E-03   -0.21987E-03   768   0.991E-02    0.484E-02
DAV:   6    -0.527653388072E+02    0.14781E-05   -0.67477E-05   528   0.178E-02
  36 F= -.52765339E+02 E0= -.52765339E+02  d E =-.310907E-01  mag=    -0.0000
       N       E                     dE             d eps       ncg     rms          rms(c)
DAV:   1    -0.527379818794E+02    0.27358E-01   -0.73156E+01   736   0.170E+01    0.322E-01
DAV:   2    -0.527737796274E+02   -0.35798E-01   -0.35170E-01   784   0.166E+00    0.289E-01
DAV:   3    -0.527736693261E+02    0.11030E-03   -0.56280E-03   816   0.209E-01    0.209E-01
DAV:   4    -0.527728471012E+02    0.82222E-03   -0.12754E-03   752   0.803E-02    0.118E-01
DAV:   5    -0.527727622042E+02    0.84897E-04   -0.12890E-03   784   0.760E-02    0.381E-02
DAV:   6    -0.527727591158E+02    0.30884E-05   -0.45540E-05   464   0.144E-02
  37 F= -.52772759E+02 E0= -.52772759E+02  d E =-.385110E-01  mag=    -0.0000
       N       E                     dE             d eps       ncg     rms          rms(c)
DAV:   1    -0.527450624042E+02    0.27700E-01   -0.12062E+02   736   0.217E+01    0.386E-01
DAV:   2    -0.528049944234E+02   -0.59932E-01   -0.58501E-01   752   0.212E+00    0.363E-01
DAV:   3    -0.528046481347E+02    0.34629E-03   -0.90933E-03   832   0.262E-01    0.267E-01
DAV:   4    -0.528032687422E+02    0.13794E-02   -0.17444E-03   752   0.934E-02    0.166E-01
DAV:   5    -0.528029608965E+02    0.30785E-03   -0.24934E-03   784   0.104E-01    0.519E-02
DAV:   6    -0.528029717421E+02   -0.10846E-04   -0.43782E-05   480   0.157E-02
  38 F= -.52802972E+02 E0= -.52802972E+02  d E =-.302126E-01  mag=    -0.0000
       N       E                     dE             d eps       ncg     rms          rms(c)
DAV:   1    -0.527204571541E+02    0.82504E-01   -0.18976E+02   736   0.272E+01    0.524E-01
DAV:   2    -0.528144239722E+02   -0.93967E-01   -0.92913E-01   768   0.269E+00    0.457E-01
DAV:   3    -0.528137357807E+02    0.68819E-03   -0.14550E-02   800   0.332E-01    0.327E-01
DAV:   4    -0.528116708866E+02    0.20649E-02   -0.28866E-03   768   0.120E-01    0.196E-01
DAV:   5    -0.528112998870E+02    0.37100E-03   -0.31821E-03   784   0.118E-01    0.594E-02
DAV:   6    -0.528113131811E+02   -0.13294E-04   -0.68256E-05   496   0.193E-02
  39 F= -.52811313E+02 E0= -.52811313E+02  d E =-.385541E-01  mag=    -0.0000
       N       E                     dE             d eps       ncg     rms          rms(c)
DAV:   1    -0.527949818192E+02    0.16318E-01   -0.83835E+01   736   0.182E+01    0.294E-01
DAV:   2    -0.528358517805E+02   -0.40870E-01   -0.39401E-01   752   0.175E+00    0.275E-01
DAV:   3    -0.528355265745E+02    0.32521E-03   -0.58119E-03   800   0.205E-01    0.213E-01
DAV:   4    -0.528345180091E+02    0.10086E-02   -0.12645E-03   768   0.771E-02    0.125E-01
DAV:   5    -0.528342969347E+02    0.22107E-03   -0.18263E-03   784   0.878E-02    0.390E-02
DAV:   6    -0.528343227356E+02   -0.25801E-04   -0.22264E-05   464   0.122E-02
  40 F= -.52834323E+02 E0= -.52834323E+02  d E =-.230096E-01  mag=    -0.0000
       N       E                     dE             d eps       ncg     rms          rms(c)
DAV:   1    -0.524713827687E+02    0.36291E+00   -0.78464E+02   736   0.565E+01    0.137E+00
DAV:   2    -0.528790843642E+02   -0.40770E+00   -0.39510E+00   768   0.560E+00    0.948E-01
DAV:   3    -0.528755854816E+02    0.34989E-02   -0.62304E-02   784   0.683E-01    0.646E-01
DAV:   4    -0.528683991432E+02    0.71863E-02   -0.90816E-03   784   0.215E-01    0.416E-01
DAV:   5    -0.528661538184E+02    0.22453E-02   -0.10172E-02   784   0.208E-01    0.114E-01
DAV:   6    -0.528663111087E+02   -0.15729E-03   -0.15773E-04   512   0.362E-02    0.596E-02
DAV:   7    -0.528664135033E+02   -0.10239E-03   -0.55359E-05   496   0.219E-02    0.176E-02
DAV:   8    -0.528664628133E+02   -0.49310E-04   -0.18103E-05   512   0.955E-03
  41 F= -.52866463E+02 E0= -.52866463E+02  d E =-.551496E-01  mag=    -0.0000
       N       E                     dE             d eps       ncg     rms          rms(c)
DAV:   1    -0.528431594116E+02    0.23254E-01   -0.14781E+02   736   0.243E+01    0.403E-01
DAV:   2    -0.529131983271E+02   -0.70039E-01   -0.68772E-01   768   0.231E+00    0.367E-01
DAV:   3    -0.529124215835E+02    0.77674E-03   -0.10162E-02   800   0.270E-01    0.280E-01
DAV:   4    -0.529105687576E+02    0.18528E-02   -0.23485E-03   768   0.104E-01    0.161E-01
DAV:   5    -0.529101611969E+02    0.40756E-03   -0.28088E-03   800   0.110E-01    0.492E-02
DAV:   6    -0.529101965211E+02   -0.35324E-04   -0.34760E-05   480   0.157E-02
  42 F= -.52910197E+02 E0= -.52910197E+02  d E =-.437337E-01  mag=    -0.0000
       N       E                     dE             d eps       ncg     rms          rms(c)
DAV:   1    -0.525677802017E+02    0.34238E+00   -0.77098E+02   736   0.563E+01    0.131E+00
DAV:   2    -0.529574514442E+02   -0.38967E+00   -0.38018E+00   768   0.552E+00    0.914E-01
DAV:   3    -0.529539820588E+02    0.34694E-02   -0.59357E-02   800   0.668E-01    0.619E-01
DAV:   4    -0.529467129165E+02    0.72691E-02   -0.98786E-03   752   0.221E-01    0.380E-01
DAV:   5    -0.529448893219E+02    0.18236E-02   -0.94387E-03   800   0.202E-01    0.104E-01
DAV:   6    -0.529450511021E+02   -0.16178E-03   -0.13175E-04   528   0.344E-02    0.575E-02
DAV:   7    -0.529451663292E+02   -0.11523E-03   -0.51053E-05   512   0.200E-02    0.159E-02
DAV:   8    -0.529452300346E+02   -0.63705E-04   -0.16429E-05   496   0.899E-03
  43 F= -.52945230E+02 E0= -.52945230E+02  d E =-.787672E-01  mag=    -0.0000
       N       E                     dE             d eps       ncg     rms          rms(c)
DAV:   1    -0.529291072519E+02    0.16059E-01   -0.11490E+02   736   0.215E+01    0.464E-01
DAV:   2    -0.529852725468E+02   -0.56165E-01   -0.54649E-01   768   0.207E+00    0.384E-01
DAV:   3    -0.529847282620E+02    0.54428E-03   -0.86061E-03   832   0.254E-01    0.271E-01
DAV:   4    -0.529833338640E+02    0.13944E-02   -0.32396E-03   752   0.125E-01    0.122E-01
DAV:   5    -0.529833773220E+02   -0.43458E-04   -0.10898E-03   800   0.748E-02    0.443E-02
DAV:   6    -0.529833648095E+02    0.12513E-04   -0.89212E-05   512   0.201E-02
  44 F= -.52983365E+02 E0= -.52983365E+02  d E =-.381348E-01  mag=    -0.0000
       N       E                     dE             d eps       ncg     rms          rms(c)
DAV:   1    -0.529454010941E+02    0.37976E-01   -0.10256E+02   736   0.203E+01    0.457E-01
DAV:   2    -0.529946468618E+02   -0.49246E-01   -0.48607E-01   752   0.195E+00    0.374E-01
DAV:   3    -0.529940380949E+02    0.60877E-03   -0.76516E-03   832   0.240E-01    0.260E-01
DAV:   4    -0.529927991017E+02    0.12390E-02   -0.31420E-03   752   0.123E-01    0.112E-01
DAV:   5    -0.529928565401E+02   -0.57438E-04   -0.81115E-04   800   0.664E-02
  45 F= -.52992857E+02 E0= -.52992857E+02  d E =-.476265E-01  mag=    -0.0000
       N       E                     dE             d eps       ncg     rms          rms(c)
DAV:   1    -0.529615631551E+02    0.31236E-01   -0.13263E+02   736   0.232E+01    0.427E-01
DAV:   2    -0.530255111330E+02   -0.63948E-01   -0.62232E-01   768   0.222E+00    0.373E-01
DAV:   3    -0.530250240584E+02    0.48707E-03   -0.96549E-03   816   0.271E-01    0.274E-01
DAV:   4    -0.530234955645E+02    0.15285E-02   -0.25021E-03   768   0.111E-01    0.148E-01
DAV:   5    -0.530233642683E+02    0.13130E-03   -0.21998E-03   784   0.100E-01    0.488E-02
DAV:   6    -0.530233637304E+02    0.53790E-06   -0.68108E-05   496   0.187E-02
  46 F= -.53023364E+02 E0= -.53023364E+02  d E =-.305072E-01  mag=    -0.0000
       N       E                     dE             d eps       ncg     rms          rms(c)
DAV:   1    -0.529962188381E+02    0.27145E-01   -0.63315E+01   736   0.160E+01    0.287E-01
DAV:   2    -0.530266574780E+02   -0.30439E-01   -0.29559E-01   784   0.153E+00    0.259E-01
DAV:   3    -0.530263978635E+02    0.25961E-03   -0.45559E-03   816   0.186E-01    0.192E-01
DAV:   4    -0.530256223280E+02    0.77554E-03   -0.12770E-03   768   0.785E-02    0.102E-01
DAV:   5    -0.530255678390E+02    0.54489E-04   -0.11114E-03   768   0.714E-02    0.353E-02
DAV:   6    -0.530255703481E+02   -0.25091E-05   -0.36601E-05   480   0.135E-02
  47 F= -.53025570E+02 E0= -.53025570E+02  d E =-.327138E-01  mag=    -0.0000
       N       E                     dE             d eps       ncg     rms          rms(c)
DAV:   1    -0.529808698315E+02    0.44698E-01   -0.14208E+02   736   0.238E+01    0.426E-01
DAV:   2    -0.530498200604E+02   -0.68950E-01   -0.67289E-01   784   0.229E+00    0.392E-01
DAV:   3    -0.530493193266E+02    0.50073E-03   -0.10192E-02   816   0.275E-01    0.296E-01
DAV:   4    -0.530476074741E+02    0.17119E-02   -0.25634E-03   784   0.110E-01    0.164E-01
DAV:   5    -0.530474047870E+02    0.20269E-03   -0.25932E-03   784   0.107E-01    0.546E-02
DAV:   6    -0.530473940572E+02    0.10730E-04   -0.71113E-05   480   0.193E-02
  48 F= -.53047394E+02 E0= -.53047394E+02  d E =-.218237E-01  mag=    -0.0000
       N       E                     dE             d eps       ncg     rms          rms(c)
DAV:   1    -0.530463253916E+02    0.10794E-02   -0.24216E+00   736   0.310E+00    0.546E-02
DAV:   2    -0.530474980115E+02   -0.11726E-02   -0.11451E-02   800   0.298E-01    0.498E-02
DAV:   3    -0.530474915047E+02    0.65068E-05   -0.15147E-04   448   0.356E-02
  49 F= -.53047492E+02 E0= -.53047492E+02  d E =-.219212E-01  mag=    -0.0000
       N       E                     dE             d eps       ncg     rms          rms(c)
DAV:   1    -0.530427077021E+02    0.47903E-02   -0.40305E+01   736   0.127E+01    0.276E-01
DAV:   2    -0.530617521689E+02   -0.19044E-01   -0.18937E-01   800   0.121E+00    0.239E-01
DAV:   3    -0.530615516200E+02    0.20055E-03   -0.29641E-03   816   0.145E-01    0.169E-01
DAV:   4    -0.530611004826E+02    0.45114E-03   -0.11683E-03   800   0.775E-02    0.729E-02
DAV:   5    -0.530611256276E+02   -0.25145E-04   -0.30349E-04   624   0.415E-02
  50 F= -.53061126E+02 E0= -.53061126E+02  d E =-.136341E-01  mag=    -0.0000
       N       E                     dE             d eps       ncg     rms          rms(c)
DAV:   1    -0.530595345548E+02    0.15659E-02   -0.44027E+00   736   0.419E+00    0.957E-02
DAV:   2    -0.530616226237E+02   -0.20881E-02   -0.20971E-02   800   0.401E-01    0.760E-02
DAV:   3    -0.530616095101E+02    0.13114E-04   -0.30414E-04   544   0.481E-02
  51 F= -.53061610E+02 E0= -.53061610E+02  d E =-.141180E-01  mag=    -0.0000
       N       E                     dE             d eps       ncg     rms          rms(c)
DAV:   1    -0.530542737586E+02    0.73489E-02   -0.24401E+01   736   0.994E+00    0.323E-01
DAV:   2    -0.530652575459E+02   -0.10984E-01   -0.11416E-01   768   0.949E-01    0.248E-01
DAV:   3    -0.530651247003E+02    0.13285E-03   -0.21652E-03   816   0.125E-01    0.148E-01
DAV:   4    -0.530649977498E+02    0.12695E-03   -0.69407E-04   752   0.714E-02    0.461E-02
DAV:   5    -0.530650106133E+02   -0.12863E-04   -0.43000E-05   480   0.240E-02
  52 F= -.53065011E+02 E0= -.53065011E+02  d E =-.340110E-02  mag=    -0.0000
       N       E                     dE             d eps       ncg     rms          rms(c)
DAV:   1    -0.530654405984E+02   -0.44285E-03   -0.36572E+00   736   0.384E+00    0.127E-01
DAV:   2    -0.530670794532E+02   -0.16389E-02   -0.16962E-02   784   0.366E-01    0.983E-02
DAV:   3    -0.530670510391E+02    0.28414E-04   -0.30533E-04   560   0.478E-02
  53 F= -.53067051E+02 E0= -.53067051E+02  d E =-.544153E-02  mag=    -0.0000
       N       E                     dE             d eps       ncg     rms          rms(c)
DAV:   1    -0.530670624644E+02    0.16989E-04   -0.95982E+00   736   0.621E+00    0.112E-01
DAV:   2    -0.530716087092E+02   -0.45462E-02   -0.44596E-02   800   0.592E-01    0.999E-02
DAV:   3    -0.530715611089E+02    0.47600E-04   -0.68053E-04   800   0.711E-02
  54 F= -.53071561E+02 E0= -.53071561E+02  d E =-.451007E-02  mag=    -0.0000
       N       E                     dE             d eps       ncg     rms          rms(c)
DAV:   1    -0.530694188551E+02    0.21899E-02   -0.82603E+00   736   0.577E+00    0.122E-01
DAV:   2    -0.530731867107E+02   -0.37679E-02   -0.37333E-02   800   0.542E-01    0.111E-01
DAV:   3    -0.530731123122E+02    0.74399E-04   -0.56355E-04   800   0.632E-02
  55 F= -.53073112E+02 E0= -.53073112E+02  d E =-.606127E-02  mag=    -0.0000
       N       E                     dE             d eps       ncg     rms          rms(c)
DAV:   1    -0.530729363597E+02    0.25035E-03   -0.75098E+00   736   0.549E+00    0.981E-02
DAV:   2    -0.530764069511E+02   -0.34706E-02   -0.34245E-02   784   0.515E-01    0.920E-02
DAV:   3    -0.530763670316E+02    0.39919E-04   -0.50435E-04   800   0.586E-02
  56 F= -.53076367E+02 E0= -.53076367E+02  d E =-.325472E-02  mag=    -0.0000
       N       E                     dE             d eps       ncg     rms          rms(c)
DAV:   1    -0.530729652876E+02    0.34417E-02   -0.10066E+01   736   0.635E+00    0.128E-01
DAV:   2    -0.530776236663E+02   -0.46584E-02   -0.45698E-02   800   0.596E-01    0.117E-01
DAV:   3    -0.530775604143E+02    0.63252E-04   -0.67626E-04   800   0.676E-02
  57 F= -.53077560E+02 E0= -.53077560E+02  d E =-.444810E-02  mag=    -0.0000
       N       E                     dE             d eps       ncg     rms          rms(c)
DAV:   1    -0.530750820965E+02    0.25416E-02   -0.10842E+01   736   0.655E+00    0.116E-01
DAV:   2    -0.530802110621E+02   -0.51290E-02   -0.49860E-02   784   0.621E-01    0.112E-01
DAV:   3    -0.530801606147E+02    0.50447E-04   -0.73054E-04   800   0.713E-02
  58 F= -.53080161E+02 E0= -.53080161E+02  d E =-.260020E-02  mag=    -0.0000
       N       E                     dE             d eps       ncg     rms          rms(c)
DAV:   1    -0.530732178875E+02    0.69932E-02   -0.16834E+01   736   0.816E+00    0.153E-01
DAV:   2    -0.530811391424E+02   -0.79213E-02   -0.76957E-02   784   0.772E-01    0.150E-01
DAV:   3    -0.530810584378E+02    0.80705E-04   -0.11174E-03   816   0.873E-02    0.118E-01
DAV:   4    -0.530807876468E+02    0.27079E-03   -0.62286E-04   784   0.536E-02    0.542E-02
DAV:   5    -0.530808000415E+02   -0.12395E-04   -0.26810E-04   608   0.365E-02
  59 F= -.53080800E+02 E0= -.53080800E+02  d E =-.323963E-02  mag=    -0.0000
       N       E                     dE             d eps       ncg     rms          rms(c)
DAV:   1    -0.530791836396E+02    0.16040E-02   -0.81969E+00   736   0.569E+00    0.881E-02
DAV:   2    -0.530831909286E+02   -0.40073E-02   -0.38374E-02   784   0.543E-01    0.801E-02
DAV:   3    -0.530831775383E+02    0.13390E-04   -0.55581E-04   768   0.628E-02
  60 F= -.53083178E+02 E0= -.53083178E+02  d E =-.237750E-02  mag=    -0.0000
       N       E                     dE             d eps       ncg     rms          rms(c)
DAV:   1    -0.530715919798E+02    0.11599E-01   -0.29275E+01   736   0.108E+01    0.169E-01
DAV:   2    -0.530854833255E+02   -0.13891E-01   -0.13419E-01   784   0.102E+00    0.174E-01
DAV:   3    -0.530853665729E+02    0.11675E-03   -0.19355E-03   816   0.116E-01    0.141E-01
DAV:   4    -0.530849122514E+02    0.45432E-03   -0.65998E-04   768   0.547E-02    0.764E-02
DAV:   5    -0.530848623116E+02    0.49940E-04   -0.76377E-04   784   0.574E-02
  61 F= -.53084862E+02 E0= -.53084862E+02  d E =-.406227E-02  mag=    -0.0000
       N       E                     dE             d eps       ncg     rms          rms(c)
DAV:   1    -0.530851504418E+02   -0.23819E-03   -0.39552E+00   736   0.394E+00    0.888E-02
DAV:   2    -0.530870794041E+02   -0.19290E-02   -0.18964E-02   784   0.379E-01    0.684E-02
DAV:   3    -0.530870688973E+02    0.10507E-04   -0.26339E-04   512   0.442E-02
  62 F= -.53087069E+02 E0= -.53087069E+02  d E =-.220659E-02  mag=    -0.0000
       N       E                     dE             d eps       ncg     rms          rms(c)
DAV:   1    -0.530871944964E+02   -0.11509E-03   -0.55003E-02   784   0.468E-01    0.226E-02
DAV:   2    -0.530872189739E+02   -0.24478E-04   -0.21655E-04   496   0.426E-02
  63 F= -.53087219E+02 E0= -.53087219E+02  d E =-.235666E-02  mag=    -0.0000
       N       E                     dE             d eps       ncg     rms          rms(c)
DAV:   1    -0.530878468125E+02   -0.65232E-03   -0.96003E-01   736   0.196E+00    0.352E-02
DAV:   2    -0.530882968274E+02   -0.45001E-03   -0.44068E-03   800   0.184E-01    0.314E-02
DAV:   3    -0.530882926020E+02    0.42253E-05   -0.57504E-05   448   0.212E-02
  64 F= -.53088293E+02 E0= -.53088293E+02  d E =-.107363E-02  mag=    -0.0000
       N       E                     dE             d eps       ncg     rms          rms(c)
DAV:   1    -0.530884796652E+02   -0.18284E-03   -0.16233E+00   736   0.255E+00    0.504E-02
DAV:   2    -0.530892308204E+02   -0.75116E-03   -0.73969E-03   800   0.239E-01    0.436E-02
DAV:   3    -0.530892209826E+02    0.98378E-05   -0.95540E-05   448   0.270E-02
  65 F= -.53089221E+02 E0= -.53089221E+02  d E =-.200201E-02  mag=    -0.0000
       N       E                     dE             d eps       ncg     rms          rms(c)
DAV:   1    -0.530896789771E+02   -0.44816E-03   -0.89680E-01   752   0.188E+00    0.417E-02
DAV:   2    -0.530900955913E+02   -0.41661E-03   -0.41800E-03   816   0.179E-01    0.362E-02
DAV:   3    -0.530900916794E+02    0.39118E-05   -0.55049E-05   448   0.203E-02
  66 F= -.53090092E+02 E0= -.53090092E+02  d E =-.870697E-03  mag=    -0.0000
       N       E                     dE             d eps       ncg     rms          rms(c)
DAV:   1    -0.530900983504E+02   -0.27592E-05   -0.12542E+00   736   0.222E+00    0.553E-02
DAV:   2    -0.530906814833E+02   -0.58313E-03   -0.58626E-03   784   0.211E-01    0.456E-02
DAV:   3    -0.530906740507E+02    0.74325E-05   -0.81186E-05   448   0.246E-02
  67 F= -.53090674E+02 E0= -.53090674E+02  d E =-.145307E-02  mag=    -0.0000
       N       E                     dE             d eps       ncg     rms          rms(c)
DAV:   1    -0.530908816608E+02   -0.20018E-03   -0.82572E-01   736   0.181E+00    0.288E-02
DAV:   2    -0.530912667198E+02   -0.38506E-03   -0.37721E-03   800   0.169E-01    0.272E-02
DAV:   3    -0.530912637268E+02    0.29930E-05   -0.46266E-05   432   0.186E-02
  68 F= -.53091264E+02 E0= -.53091264E+02  d E =-.589676E-03  mag=    -0.0000
       N       E                     dE             d eps       ncg     rms          rms(c)
DAV:   1    -0.530890347179E+02    0.22320E-02   -0.74054E+00   736   0.541E+00    0.812E-02
DAV:   2    -0.530925212274E+02   -0.34865E-02   -0.34050E-02   800   0.509E-01    0.798E-02
DAV:   3    -0.530924952569E+02    0.25971E-04   -0.47693E-04   752   0.564E-02
  69 F= -.53092495E+02 E0= -.53092495E+02  d E =-.182121E-02  mag=    -0.0000
       N       E                     dE             d eps       ncg     rms          rms(c)
DAV:   1    -0.530925521454E+02   -0.30918E-04   -0.44271E-01   768   0.133E+00    0.424E-02
DAV:   2    -0.530927313243E+02   -0.17918E-03   -0.19486E-03   816   0.125E-01    0.329E-02
DAV:   3    -0.530927232278E+02    0.80965E-05   -0.37814E-05   448   0.160E-02
  70 F= -.53092723E+02 E0= -.53092723E+02  d E =-.227971E-03  mag=     0.0000
       N       E                     dE             d eps       ncg     rms          rms(c)
DAV:   1    -0.530927611418E+02   -0.29818E-04   -0.41049E-02   784   0.407E-01    0.127E-02
DAV:   2    -0.530927780204E+02   -0.16879E-04   -0.16988E-04   464   0.380E-02
  71 F= -.53092778E+02 E0= -.53092778E+02  d E =-.282763E-03  mag=     0.0000
