<?xml version="1.0" encoding="ISO-8859-1"?>
<modeling>
 <generator>
  <i name="program" type="string">vasp </i>
  <i name="version" type="string">5.3.5  </i>
  <i name="subversion" type="string">31Mar14 (build Feb 01 2018 12:10:03) gamma-only                       parallel </i>
  <i name="platform" type="string">LinuxIFC </i>
  <i name="date" type="string">2019 03 25 </i>
  <i name="time" type="string">11:50:18 </i>
 </generator>
 <incar>
  <i type="string" name="PREC">normal</i>
  <i type="int" name="ISPIN">     2</i>
  <i type="int" name="IBRION">     2</i>
  <i type="int" name="NSW">  1000</i>
  <i type="int" name="ISIF">     2</i>
  <i name="POTIM">      0.10000000</i>
  <i type="logical" name="LPLANE"> T  </i>
  <i type="int" name="ISMEAR">     0</i>
  <i name="SIGMA">      0.00010000</i>
  <i type="logical" name="LWAVE"> F  </i>
  <i type="logical" name="LCHARG"> F  </i>
  <i type="logical" name="LVTOT"> F  </i>
  <i type="string" name="GGA"> PE</i>
 </incar>
 <kpoints>
  <varray name="kpointlist" >
   <v>       0.00000000       0.00000000       0.00000000 </v>
  </varray>
  <varray name="weights" >
   <v>       1.00000000 </v>
  </varray>
 </kpoints>
 <parameters>
  <separator name="general" >
   <i type="string" name="SYSTEM">unknown system</i>
   <i type="logical" name="LCOMPAT"> F  </i>
  </separator>
  <separator name="electronic" >
   <i type="string" name="PREC">normal</i>
   <i name="ENMAX">    249.84400000</i>
   <i name="ENAUG">    412.49600000</i>
   <i name="EDIFF">      0.00010000</i>
   <i type="int" name="IALGO">    38</i>
   <i type="int" name="IWAVPR">    11</i>
   <i type="int" name="NBANDS">   384</i>
   <i name="NELECT">    594.00000000</i>
   <i type="int" name="TURBO">     0</i>
   <i type="int" name="IRESTART">     0</i>
   <i type="int" name="NREBOOT">     0</i>
   <i type="int" name="NMIN">     0</i>
   <i name="EREF">      0.00000000</i>
   <separator name="electronic smearing" >
    <i type="int" name="ISMEAR">     0</i>
    <i name="SIGMA">      0.00010000</i>
    <i name="KSPACING">      0.50000000</i>
    <i type="logical" name="KGAMMA"> T  </i>
   </separator>
   <separator name="electronic projectors" >
    <i type="logical" name="LREAL"> F  </i>
    <v name="ROPT">      0.00000000</v>
    <i type="int" name="LMAXPAW">  -100</i>
    <i type="int" name="LMAXMIX">     2</i>
    <i type="logical" name="NLSPLINE"> F  </i>
   </separator>
   <separator name="electronic startup" >
    <i type="int" name="ISTART">     0</i>
    <i type="int" name="ICHARG">     2</i>
    <i type="int" name="INIWAV">     1</i>
   </separator>
   <separator name="electronic spin" >
    <i type="int" name="ISPIN">     2</i>
    <i type="logical" name="LNONCOLLINEAR"> F  </i>
    <v name="MAGMOM">      1.00000000      1.00000000      1.00000000      1.00000000      1.00000000      1.00000000      1.00000000      1.00000000      1.00000000      1.00000000      1.00000000      1.00000000      1.00000000      1.00000000      1.00000000      1.00000000      1.00000000      1.00000000      1.00000000      1.00000000
      1.00000000      1.00000000      1.00000000      1.00000000      1.00000000      1.00000000      1.00000000      1.00000000      1.00000000      1.00000000      1.00000000      1.00000000      1.00000000      1.00000000      1.00000000      1.00000000      1.00000000      1.00000000      1.00000000      1.00000000
      1.00000000      1.00000000      1.00000000      1.00000000      1.00000000      1.00000000      1.00000000      1.00000000      1.00000000      1.00000000      1.00000000      1.00000000      1.00000000      1.00000000</v>
    <i name="NUPDOWN">     -1.00000000</i>
    <i type="logical" name="LSORBIT"> F  </i>
    <v name="SAXIS">      0.00000000      0.00000000      1.00000000</v>
    <i type="logical" name="LSPIRAL"> F  </i>
    <v name="QSPIRAL">      0.00000000      0.00000000      0.00000000</v>
    <i type="logical" name="LZEROZ"> F  </i>
   </separator>
   <separator name="electronic exchange-correlation" >
    <i type="logical" name="LASPH"> F  </i>
    <i type="logical" name="LMETAGGA"> F  </i>
   </separator>
   <separator name="electronic convergence" >
    <i type="int" name="NELM">    60</i>
    <i type="int" name="NELMDL">    -5</i>
    <i type="int" name="NELMIN">     2</i>
    <i name="ENINI">    249.84400000</i>
    <separator name="electronic convergence detail" >
     <i type="logical" name="LDIAG"> T  </i>
     <i type="logical" name="LSUBROT"> F  </i>
     <i name="WEIMIN">      0.00100000</i>
     <i name="EBREAK">      0.00000007</i>
     <i name="DEPER">      0.30000000</i>
     <i type="int" name="NRMM">     4</i>
     <i name="TIME">      0.40000000</i>
    </separator>
   </separator>
   <separator name="electronic mixer" >
    <i name="AMIX">      0.40000000</i>
    <i name="BMIX">      1.00000000</i>
    <i name="AMIN">      0.10000000</i>
    <i name="AMIX_MAG">      1.60000000</i>
    <i name="BMIX_MAG">      1.00000000</i>
    <separator name="electronic mixer details" >
     <i type="int" name="IMIX">     4</i>
     <i type="int" name="MAXMIX">   -45</i>
     <i name="WC">    100.00000000</i>
     <i type="int" name="INIMIX">     1</i>
     <i type="int" name="MIXPRE">     1</i>
     <i type="int" name="MREMOVE">     5</i>
    </separator>
   </separator>
   <separator name="electronic dipolcorrection" >
    <i type="logical" name="LDIPOL"> F  </i>
    <i type="logical" name="LMONO"> F  </i>
    <i type="int" name="IDIPOL">     0</i>
    <i name="EPSILON">      1.00000000</i>
    <v name="DIPOL">   -100.00000000   -100.00000000   -100.00000000</v>
    <i name="EFIELD">      0.00000000</i>
   </separator>
  </separator>
  <separator name="grids" >
   <i type="int" name="NGX">   108</i>
   <i type="int" name="NGY">   108</i>
   <i type="int" name="NGZ">   108</i>
   <i type="int" name="NGXF">   216</i>
   <i type="int" name="NGYF">   216</i>
   <i type="int" name="NGZF">   216</i>
   <i type="logical" name="ADDGRID"> F  </i>
  </separator>
  <separator name="ionic" >
   <i type="int" name="NSW">  1000</i>
   <i type="int" name="IBRION">     2</i>
   <i type="int" name="ISIF">     2</i>
   <i name="PSTRESS">      0.00000000</i>
   <i name="EDIFFG">      0.00100000</i>
   <i type="int" name="NFREE">     1</i>
   <i name="POTIM">      0.10000000</i>
   <i name="SMASS">     -3.00000000</i>
   <i name="SCALEE">      1.00000000</i>
  </separator>
  <separator name="ionic md" >
   <i name="TEBEG">      0.00010000</i>
   <i name="TEEND">      0.00010000</i>
   <i type="int" name="NBLOCK">     1</i>
   <i type="int" name="KBLOCK">  1000</i>
   <i type="int" name="NPACO">   256</i>
   <i name="APACO">     16.00000000</i>
  </separator>
  <separator name="symmetry" >
   <i type="int" name="ISYM">     2</i>
   <i name="SYMPREC">      0.00001000</i>
  </separator>
  <separator name="dos" >
   <i type="logical" name="LORBIT"> F  </i>
   <v name="RWIGS">     -1.00000000</v>
   <i type="int" name="NEDOS">   301</i>
   <i name="EMIN">     10.00000000</i>
   <i name="EMAX">    -10.00000000</i>
   <i name="EFERMI">      0.00000000</i>
  </separator>
  <separator name="writing" >
   <i type="int" name="NWRITE">     2</i>
   <i type="logical" name="LWAVE"> F  </i>
   <i type="logical" name="LCHARG"> F  </i>
   <i type="logical" name="LPARD"> F  </i>
   <i type="logical" name="LVTOT"> F  </i>
   <i type="logical" name="LVHAR"> F  </i>
   <i type="logical" name="LELF"> F  </i>
   <i type="logical" name="LOPTICS"> F  </i>
   <v name="STM">      0.00000000      0.00000000      0.00000000      0.00000000      0.00000000      0.00000000      0.00000000</v>
  </separator>
  <separator name="performance" >
   <i type="int" name="NPAR">     4</i>
   <i type="int" name="NSIM">     4</i>
   <i type="int" name="NBLK">    -1</i>
   <i type="logical" name="LPLANE"> T  </i>
   <i type="logical" name="LSCALAPACK"> T  </i>
   <i type="logical" name="LSCAAWARE"> F  </i>
   <i type="logical" name="LSCALU"> F  </i>
   <i type="logical" name="LASYNC"> F  </i>
   <i type="logical" name="LORBITALREAL"> F  </i>
  </separator>
  <separator name="miscellaneous" >
   <i type="int" name="IDIOT">     3</i>
   <i type="logical" name="LMUSIC"> F  </i>
   <v name="POMASS">    107.86800000</v>
   <v name="DARWINR">      0.00000000</v>
   <v name="DARWINV">      1.00000000</v>
   <i type="logical" name="LCORR"> T  </i>
  </separator>
  <i type="logical" name="GGA_COMPAT"> T  </i>
  <i type="logical" name="LBERRY"> F  </i>
  <i type="int" name="ICORELEVEL">     0</i>
  <i type="logical" name="LDAU"> F  </i>
  <i type="int" name="I_CONSTRAINED_M">     0</i>
  <separator name="electronic exchange-correlation" >
   <i type="string" name="GGA">PE</i>
   <i type="int" name="VOSKOWN">     0</i>
   <i type="logical" name="LHFCALC"> F  </i>
   <i type="string" name="PRECFOCK"></i>
   <i type="logical" name="LSYMGRAD"> F  </i>
   <i type="logical" name="LHFONE"> F  </i>
   <i type="logical" name="LRHFCALC"> F  </i>
   <i type="logical" name="LTHOMAS"> F  </i>
   <i type="logical" name="LMODELHF"> F  </i>
   <i name="ENCUT4O">     -1.00000000</i>
   <i type="int" name="EXXOEP">     0</i>
   <i type="int" name="FOURORBIT">     0</i>
   <i name="AEXX">      0.00000000</i>
   <i name="HFALPHA">      0.00000000</i>
   <i name="MCALPHA">      0.00000000</i>
   <i name="ALDAX">      1.00000000</i>
   <i name="AGGAX">      1.00000000</i>
   <i name="ALDAC">      1.00000000</i>
   <i name="AGGAC">      1.00000000</i>
   <i type="int" name="NKREDX">     1</i>
   <i type="int" name="NKREDY">     1</i>
   <i type="int" name="NKREDZ">     1</i>
   <i type="logical" name="SHIFTRED"> F  </i>
   <i type="logical" name="ODDONLY"> F  </i>
   <i type="logical" name="EVENONLY"> F  </i>
   <i type="int" name="LMAXFOCK">     0</i>
   <i type="int" name="NMAXFOCKAE">     0</i>
   <i type="logical" name="LFOCKAEDFT"> F  </i>
   <i name="HFSCREEN">      0.00000000</i>
   <i name="HFSCREENC">      0.00000000</i>
   <i type="int" name="NBANDSGWLOW">     0</i>
  </separator>
  <separator name="vdW DFT" >
   <i type="logical" name="LUSE_VDW"> F  </i>
   <i name="Zab_VDW">     -0.84910000</i>
   <i name="PARAM1">      0.12340000</i>
   <i name="PARAM2">      1.00000000</i>
   <i name="PARAM3">      0.00000000</i>
  </separator>
  <separator name="model GW" >
   <i type="int" name="MODEL_GW">     0</i>
   <i name="MODEL_EPS0">    232.71752808</i>
   <i name="MODEL_ALPHA">      1.00000000</i>
  </separator>
  <separator name="linear response parameters" >
   <i type="logical" name="LEPSILON"> F  </i>
   <i type="logical" name="LRPA"> F  </i>
   <i type="logical" name="LNABLA"> F  </i>
   <i type="logical" name="LVEL"> F  </i>
   <i type="int" name="KINTER">     0</i>
   <i name="CSHIFT">      0.10000000</i>
   <i name="OMEGAMAX">     -1.00000000</i>
   <i name="DEG_THRESHOLD">      0.00200000</i>
  </separator>
  <separator name="orbital magnetization" >
   <i type="logical" name="NUCIND"> F  </i>
   <v name="MAGPOS">      0.00000000      0.00000000      0.00000000</v>
   <i type="logical" name="LNICSALL"> T  </i>
   <i type="logical" name="ORBITALMAG"> F  </i>
   <i type="logical" name="LMAGBLOCH"> F  </i>
   <i type="logical" name="LCHIMAG"> F  </i>
   <i type="logical" name="LGAUGE"> T  </i>
   <i type="int" name="MAGATOM">     0</i>
   <v name="MAGDIPOL">      0.00000000      0.00000000      0.00000000</v>
   <v name="AVECCONST">      0.00000000      0.00000000      0.00000000</v>
  </separator>
  <separator name="response functions" >
   <i type="logical" name="LADDER"> F  </i>
   <i type="logical" name="LFXC"> F  </i>
   <i type="logical" name="LHARTREE"> T  </i>
   <i type="int" name="IBSE">     0</i>
   <i type="logical" name="LTCTE"> F  </i>
   <i type="logical" name="LTETE"> F  </i>
   <i type="logical" name="LTRIPLET"> F  </i>
   <i type="logical" name="LFXCEPS"> F  </i>
   <i type="logical" name="LFXHEG"> F  </i>
   <i type="logical" name="L2ORDER"> F  </i>
   <i type="logical" name="LUSEW"> F  </i>
   <i name="ENCUTGW">     -2.00000000</i>
   <i name="ENCUTGWSOFT">     -2.00000000</i>
   <i name="ENCUTLF">     -1.00000000</i>
   <i type="int" name="LMAXMP2">    -1</i>
   <i name="SCISSOR">      0.00000000</i>
   <i type="int" name="NOMEGA">     0</i>
   <i type="int" name="NOMEGAR">     0</i>
   <i type="int" name="NBANDSGW">    -1</i>
   <i type="int" name="NBANDSO">    -1</i>
   <i type="int" name="NBANDSV">    -1</i>
   <i type="int" name="NELM">     1</i>
   <i type="int" name="DIM">     3</i>
   <i type="int" name="ANTIRES">     0</i>
   <i name="OMEGAMAX">    -30.00000000</i>
   <i name="OMEGAMIN">    -30.00000000</i>
   <i name="OMEGATL">   -200.00000000</i>
   <i type="int" name="OMEGAGRID">     0</i>
   <i name="CSHIFT">     -0.10000000</i>
   <i type="logical" name="SELFENERGY"> F  </i>
   <i type="logical" name="LSPECTRAL"> F  </i>
   <i type="logical" name="ODDONLYGW"> F  </i>
   <i type="logical" name="EVENONLYGW"> F  </i>
   <i type="int" name="NKREDLFX">     1</i>
   <i type="int" name="NKREDLFY">     1</i>
   <i type="int" name="NKREDLFZ">     1</i>
   <i type="int" name="MAXMEM">  1800</i>
   <i type="int" name="TELESCOPE">     0</i>
   <i type="int" name="TAUPAR">     1</i>
  </separator>
  <separator name="External order field" >
   <i name="OFIELD_KAPPA">      0.00000000</i>
   <v name="OFIELD_K">      0.00000000      0.00000000      0.00000000</v>
   <i name="OFIELD_Q6_NEAR">      0.00000000</i>
   <i name="OFIELD_Q6_FAR">      0.00000000</i>
   <i name="OFIELD_A">      0.00000000</i>
  </separator>
 </parameters>
 <atominfo>
  <atoms>      54 </atoms>
  <types>       1 </types>
  <array name="atoms" >
   <dimension dim="1">ion</dimension>
   <field type="string">element</field>
   <field type="int">atomtype</field>
   <set>
    <rc><c>Ag</c><c>   1</c></rc>
    <rc><c>Ag</c><c>   1</c></rc>
    <rc><c>Ag</c><c>   1</c></rc>
    <rc><c>Ag</c><c>   1</c></rc>
    <rc><c>Ag</c><c>   1</c></rc>
    <rc><c>Ag</c><c>   1</c></rc>
    <rc><c>Ag</c><c>   1</c></rc>
    <rc><c>Ag</c><c>   1</c></rc>
    <rc><c>Ag</c><c>   1</c></rc>
    <rc><c>Ag</c><c>   1</c></rc>
    <rc><c>Ag</c><c>   1</c></rc>
    <rc><c>Ag</c><c>   1</c></rc>
    <rc><c>Ag</c><c>   1</c></rc>
    <rc><c>Ag</c><c>   1</c></rc>
    <rc><c>Ag</c><c>   1</c></rc>
    <rc><c>Ag</c><c>   1</c></rc>
    <rc><c>Ag</c><c>   1</c></rc>
    <rc><c>Ag</c><c>   1</c></rc>
    <rc><c>Ag</c><c>   1</c></rc>
    <rc><c>Ag</c><c>   1</c></rc>
    <rc><c>Ag</c><c>   1</c></rc>
    <rc><c>Ag</c><c>   1</c></rc>
    <rc><c>Ag</c><c>   1</c></rc>
    <rc><c>Ag</c><c>   1</c></rc>
    <rc><c>Ag</c><c>   1</c></rc>
    <rc><c>Ag</c><c>   1</c></rc>
    <rc><c>Ag</c><c>   1</c></rc>
    <rc><c>Ag</c><c>   1</c></rc>
    <rc><c>Ag</c><c>   1</c></rc>
    <rc><c>Ag</c><c>   1</c></rc>
    <rc><c>Ag</c><c>   1</c></rc>
    <rc><c>Ag</c><c>   1</c></rc>
    <rc><c>Ag</c><c>   1</c></rc>
    <rc><c>Ag</c><c>   1</c></rc>
    <rc><c>Ag</c><c>   1</c></rc>
    <rc><c>Ag</c><c>   1</c></rc>
    <rc><c>Ag</c><c>   1</c></rc>
    <rc><c>Ag</c><c>   1</c></rc>
    <rc><c>Ag</c><c>   1</c></rc>
    <rc><c>Ag</c><c>   1</c></rc>
    <rc><c>Ag</c><c>   1</c></rc>
    <rc><c>Ag</c><c>   1</c></rc>
    <rc><c>Ag</c><c>   1</c></rc>
    <rc><c>Ag</c><c>   1</c></rc>
    <rc><c>Ag</c><c>   1</c></rc>
    <rc><c>Ag</c><c>   1</c></rc>
    <rc><c>Ag</c><c>   1</c></rc>
    <rc><c>Ag</c><c>   1</c></rc>
    <rc><c>Ag</c><c>   1</c></rc>
    <rc><c>Ag</c><c>   1</c></rc>
    <rc><c>Ag</c><c>   1</c></rc>
    <rc><c>Ag</c><c>   1</c></rc>
    <rc><c>Ag</c><c>   1</c></rc>
    <rc><c>Ag</c><c>   1</c></rc>
   </set>
  </array>
  <array name="atomtypes" >
   <dimension dim="1">type</dimension>
   <field type="int">atomspertype</field>
   <field type="string">element</field>
   <field>mass</field>
   <field>valence</field>
   <field type="string">pseudopotential</field>
   <set>
    <rc><c>  54</c><c>Ag</c><c>    107.86800000</c><c>     11.00000000</c><c>  PAW_PBE Ag 02Apr2005                  </c></rc>
   </set>
  </array>
 </atominfo>
 <structure name="initialpos" >
  <crystal>
   <varray name="basis" >
    <v>      27.56494952       0.00000000       0.00000000 </v>
    <v>       0.00000000      27.56494952       0.00000000 </v>
    <v>       0.00000000       0.00000000      27.56494952 </v>
   </varray>
   <i name="volume">  20944.57752701 </i>
   <varray name="rec_basis" >
    <v>       0.03627796       0.00000000       0.00000000 </v>
    <v>       0.00000000       0.03627796       0.00000000 </v>
    <v>       0.00000000       0.00000000       0.03627796 </v>
   </varray>
  </crystal>
  <varray name="positions" >
   <v>       0.54003273       0.62577843       0.32813346 </v>
   <v>       0.59896359       0.43587168       0.47602681 </v>
   <v>       0.38645084       0.57975355       0.29449241 </v>
   <v>       0.54144266       0.58118658       0.52523483 </v>
   <v>       0.40249364       0.36103626       0.46535187 </v>
   <v>       0.61827385       0.59503345       0.58958452 </v>
   <v>       0.43516044       0.38359582       0.37350189 </v>
   <v>       0.32552150       0.51204311       0.47175758 </v>
   <v>       0.50456431       0.67385973       0.49819633 </v>
   <v>       0.36011871       0.43831131       0.40983713 </v>
   <v>       0.33113409       0.41839334       0.50280427 </v>
   <v>       0.40236399       0.55955590       0.62829034 </v>
   <v>       0.70914527       0.49424243       0.70560156 </v>
   <v>       0.54469420       0.52192464       0.30826395 </v>
   <v>       0.60328605       0.65859398       0.51047127 </v>
   <v>       0.38846805       0.63336998       0.37842940 </v>
   <v>       0.64530577       0.48497959       0.63396221 </v>
   <v>       0.36204220       0.48874885       0.56298918 </v>
   <v>       0.50332773       0.40176403       0.45525425 </v>
   <v>       0.58355913       0.49568529       0.55934496 </v>
   <v>       0.57450974       0.41743787       0.62680270 </v>
   <v>       0.42199789       0.50915615       0.70832458 </v>
   <v>       0.62642527       0.39314257       0.38726680 </v>
   <v>       0.48060717       0.33226804       0.52617992 </v>
   <v>       0.46243336       0.56311029       0.35618268 </v>
   <v>       0.43827011       0.45706800       0.78682866 </v>
   <v>       0.57799404       0.65989395       0.41629619 </v>
   <v>       0.45908467       0.52793545       0.55238180 </v>
   <v>       0.48319044       0.30877815       0.42792903 </v>
   <v>       0.40442002       0.38951364       0.56148162 </v>
   <v>       0.36375875       0.53437240       0.38265705 </v>
   <v>       0.55631684       0.46764889       0.38969684 </v>
   <v>       0.72241825       0.35512495       0.54733772 </v>
   <v>       0.48078913       0.66034398       0.40307526 </v>
   <v>       0.53150303       0.36755039       0.36219280 </v>
   <v>       0.32453234       0.60803325       0.44850086 </v>
   <v>       0.68217205       0.57119512       0.65571178 </v>
   <v>       0.47596573       0.41884963       0.70825543 </v>
   <v>       0.54950604       0.56603389       0.41115494 </v>
   <v>       0.40971569       0.65691781       0.47498840 </v>
   <v>       0.65035038       0.41587263       0.56241300 </v>
   <v>       0.48126309       0.57873783       0.25985950 </v>
   <v>       0.48164778       0.36734672       0.62184608 </v>
   <v>       0.53932106       0.65606248       0.59276517 </v>
   <v>       0.49851130       0.43381698       0.55020401 </v>
   <v>       0.44599175       0.56410676       0.45707990 </v>
   <v>       0.45159255       0.47709803       0.40524378 </v>
   <v>       0.52125511       0.49846816       0.47821977 </v>
   <v>       0.67342097       0.37455272       0.46849704 </v>
   <v>       0.43191065       0.45891858       0.62697966 </v>
   <v>       0.58292122       0.42969669       0.30302698 </v>
   <v>       0.54737030       0.35388865       0.69374783 </v>
   <v>       0.44729543       0.63116193       0.57197526 </v>
   <v>       0.36861780       0.58447471       0.53438630 </v>
  </varray>
 </structure>
 <calculation>
  <scstep>
   <time name="dav">   11.68   11.69</time>
   <time name="total">   12.10   12.14</time>
   <energy>
    <i name="alphaZ">    118.42137403 </i>
    <i name="ewald"> 179507.65012621 </i>
    <i name="hartreedc">-233169.93341859 </i>
    <i name="XCdc">   -591.68401479 </i>
    <i name="pawpsdc">  54182.09761576 </i>
    <i name="pawaedc"> -51692.28887946 </i>
    <i name="eentropy">      0.00000000 </i>
    <i name="bandstr">    898.07773845 </i>
    <i name="atom">  56008.72602466 </i>
    <i name="e_fr_energy">   5261.06656627 </i>
    <i name="e_wo_entrp">   5261.06656627 </i>
    <i name="e_0_energy">   5261.06656627 </i>
   </energy>
  </scstep>
  <scstep>
   <time name="dav">   18.28   18.29</time>
   <time name="total">   18.28   18.29</time>
   <energy>
    <i name="e_fr_energy">   1253.67618672 </i>
    <i name="e_wo_entrp">   1253.67618672 </i>
    <i name="e_0_energy">   1253.67618672 </i>
   </energy>
  </scstep>
  <scstep>
   <time name="dav">   14.40   14.41</time>
   <time name="total">   14.40   14.41</time>
   <energy>
    <i name="e_fr_energy">    -31.74718689 </i>
    <i name="e_wo_entrp">    -31.74718689 </i>
    <i name="e_0_energy">    -31.74718689 </i>
   </energy>
  </scstep>
  <scstep>
   <time name="dav">   12.76   12.77</time>
   <time name="total">   12.76   13.87</time>
   <energy>
    <i name="e_fr_energy">   -111.95106243 </i>
    <i name="e_wo_entrp">   -111.95106243 </i>
    <i name="e_0_energy">   -111.95106243 </i>
   </energy>
  </scstep>
  <scstep>
   <time name="dav">   12.67   12.68</time>
   <time name="total">   12.96   13.04</time>
   <energy>
    <i name="e_fr_energy">   -113.23470555 </i>
    <i name="e_wo_entrp">   -113.23470555 </i>
    <i name="e_0_energy">   -113.23470555 </i>
   </energy>
  </scstep>
  <scstep>
   <time name="dav">   11.82   11.83</time>
   <time name="total">   12.51   12.55</time>
   <energy>
    <i name="e_fr_energy">    -36.30182376 </i>
    <i name="e_wo_entrp">    -36.30182376 </i>
    <i name="e_0_energy">    -36.30182376 </i>
   </energy>
  </scstep>
  <scstep>
   <time name="dav">   12.31   12.32</time>
   <time name="total">   13.00   13.04</time>
   <energy>
    <i name="e_fr_energy">    -24.68614556 </i>
    <i name="e_wo_entrp">    -24.68614556 </i>
    <i name="e_0_energy">    -24.68614556 </i>
   </energy>
  </scstep>
  <scstep>
   <time name="dav">   12.47   12.48</time>
   <time name="total">   13.17   13.18</time>
   <energy>
    <i name="e_fr_energy">    -20.76889979 </i>
    <i name="e_wo_entrp">    -20.76889979 </i>
    <i name="e_0_energy">    -20.76889979 </i>
   </energy>
  </scstep>
  <scstep>
   <time name="dav">   12.58   12.60</time>
   <time name="total">   13.29   13.33</time>
   <energy>
    <i name="e_fr_energy">    -29.68911251 </i>
    <i name="e_wo_entrp">    -29.68911251 </i>
    <i name="e_0_energy">    -29.68911251 </i>
   </energy>
  </scstep>
  <scstep>
   <time name="dav">   12.32   12.33</time>
   <time name="total">   13.01   13.03</time>
   <energy>
    <i name="e_fr_energy">    -49.60189518 </i>
    <i name="e_wo_entrp">    -49.60189518 </i>
    <i name="e_0_energy">    -49.60189518 </i>
   </energy>
  </scstep>
  <scstep>
   <time name="dav">   12.15   12.16</time>
   <time name="total">   12.85   12.86</time>
   <energy>
    <i name="e_fr_energy">    -63.55881531 </i>
    <i name="e_wo_entrp">    -63.55881531 </i>
    <i name="e_0_energy">    -63.55881531 </i>
   </energy>
  </scstep>
  <scstep>
   <time name="dav">   12.16   12.16</time>
   <time name="total">   12.86   12.88</time>
   <energy>
    <i name="e_fr_energy">    -74.66854728 </i>
    <i name="e_wo_entrp">    -74.66854728 </i>
    <i name="e_0_energy">    -74.66854728 </i>
   </energy>
  </scstep>
  <scstep>
   <time name="dav">   12.10   12.11</time>
   <time name="total">   12.80   13.32</time>
   <energy>
    <i name="e_fr_energy">    -84.25522897 </i>
    <i name="e_wo_entrp">    -84.25522897 </i>
    <i name="e_0_energy">    -84.25522897 </i>
   </energy>
  </scstep>
  <scstep>
   <time name="dav">   12.20   12.21</time>
   <time name="total">   12.90   13.03</time>
   <energy>
    <i name="e_fr_energy">    -90.67003401 </i>
    <i name="e_wo_entrp">    -90.67003401 </i>
    <i name="e_0_energy">    -90.67003401 </i>
   </energy>
  </scstep>
  <scstep>
   <time name="dav">   12.29   12.30</time>
   <time name="total">   12.99   13.02</time>
   <energy>
    <i name="e_fr_energy">    -94.76028289 </i>
    <i name="e_wo_entrp">    -94.76028289 </i>
    <i name="e_0_energy">    -94.76028289 </i>
   </energy>
  </scstep>
  <scstep>
   <time name="dav">   12.17   12.18</time>
   <time name="total">   12.87   12.91</time>
   <energy>
    <i name="e_fr_energy">    -99.52373231 </i>
    <i name="e_wo_entrp">    -99.52373231 </i>
    <i name="e_0_energy">    -99.52373231 </i>
   </energy>
  </scstep>
  <scstep>
   <time name="dav">   12.03   12.04</time>
   <time name="total">   12.74   13.00</time>
   <energy>
    <i name="e_fr_energy">   -103.92501497 </i>
    <i name="e_wo_entrp">   -103.92501497 </i>
    <i name="e_0_energy">   -103.92501497 </i>
   </energy>
  </scstep>
  <scstep>
   <time name="dav">   12.04   12.05</time>
   <time name="total">   12.74   12.75</time>
   <energy>
    <i name="e_fr_energy">   -106.71558746 </i>
    <i name="e_wo_entrp">   -106.71558746 </i>
    <i name="e_0_energy">   -106.71558746 </i>
   </energy>
  </scstep>
  <scstep>
   <time name="dav">   12.07   12.09</time>
   <time name="total">   12.78   12.79</time>
   <energy>
    <i name="e_fr_energy">   -109.13449444 </i>
    <i name="e_wo_entrp">   -109.13449444 </i>
    <i name="e_0_energy">   -109.13449444 </i>
   </energy>
  </scstep>
  <scstep>
   <time name="dav">   12.18   12.19</time>
   <time name="total">   12.89   12.90</time>
   <energy>
    <i name="e_fr_energy">   -110.76006183 </i>
    <i name="e_wo_entrp">   -110.76006183 </i>
    <i name="e_0_energy">   -110.76006183 </i>
   </energy>
  </scstep>
  <scstep>
   <time name="dav">   12.40   12.41</time>
   <time name="total">   13.11   13.17</time>
   <energy>
    <i name="e_fr_energy">   -111.59213254 </i>
    <i name="e_wo_entrp">   -111.59213254 </i>
    <i name="e_0_energy">   -111.59213254 </i>
   </energy>
  </scstep>
  <scstep>
   <time name="dav">   12.40   12.41</time>
   <time name="total">   13.10   13.12</time>
   <energy>
    <i name="e_fr_energy">   -111.81358674 </i>
    <i name="e_wo_entrp">   -111.81358674 </i>
    <i name="e_0_energy">   -111.81358674 </i>
   </energy>
  </scstep>
  <scstep>
   <time name="dav">   12.25   12.27</time>
   <time name="total">   12.96   15.48</time>
   <energy>
    <i name="e_fr_energy">   -112.02324752 </i>
    <i name="e_wo_entrp">   -112.02324752 </i>
    <i name="e_0_energy">   -112.02324752 </i>
   </energy>
  </scstep>
  <scstep>
   <time name="dav">   11.83   11.84</time>
   <time name="total">   12.54   13.70</time>
   <energy>
    <i name="e_fr_energy">   -112.21067529 </i>
    <i name="e_wo_entrp">   -112.21067529 </i>
    <i name="e_0_energy">   -112.21067529 </i>
   </energy>
  </scstep>
  <scstep>
   <time name="dav">    9.26    9.26</time>
   <time name="total">    9.96    9.98</time>
   <energy>
    <i name="e_fr_energy">   -112.30631430 </i>
    <i name="e_wo_entrp">   -112.30631430 </i>
    <i name="e_0_energy">   -112.30631430 </i>
   </energy>
  </scstep>
  <scstep>
   <time name="dav">    9.14    9.15</time>
   <time name="total">    9.84    9.92</time>
   <energy>
    <i name="e_fr_energy">   -112.39776748 </i>
    <i name="e_wo_entrp">   -112.39776748 </i>
    <i name="e_0_energy">   -112.39776748 </i>
   </energy>
  </scstep>
  <scstep>
   <time name="dav">    9.10    9.11</time>
   <time name="total">    9.81    9.82</time>
   <energy>
    <i name="e_fr_energy">   -112.44809909 </i>
    <i name="e_wo_entrp">   -112.44809909 </i>
    <i name="e_0_energy">   -112.44809909 </i>
   </energy>
  </scstep>
  <scstep>
   <time name="dav">    8.95    8.96</time>
   <time name="total">    9.66   10.12</time>
   <energy>
    <i name="e_fr_energy">   -112.47355840 </i>
    <i name="e_wo_entrp">   -112.47355840 </i>
    <i name="e_0_energy">   -112.47355840 </i>
   </energy>
  </scstep>
  <scstep>
   <time name="dav">    9.05    9.06</time>
   <time name="total">    9.77    9.97</time>
   <energy>
    <i name="e_fr_energy">   -112.48297579 </i>
    <i name="e_wo_entrp">   -112.48297579 </i>
    <i name="e_0_energy">   -112.48297579 </i>
   </energy>
  </scstep>
  <scstep>
   <time name="dav">    8.81    8.82</time>
   <time name="total">    9.53    9.57</time>
   <energy>
    <i name="e_fr_energy">   -112.48760067 </i>
    <i name="e_wo_entrp">   -112.48760067 </i>
    <i name="e_0_energy">   -112.48760067 </i>
   </energy>
  </scstep>
  <scstep>
   <time name="dav">    8.66    8.67</time>
   <time name="total">    9.38    9.40</time>
   <energy>
    <i name="e_fr_energy">   -112.49091516 </i>
    <i name="e_wo_entrp">   -112.49091516 </i>
    <i name="e_0_energy">   -112.49091516 </i>
   </energy>
  </scstep>
  <scstep>
   <time name="dav">    8.72    8.72</time>
   <time name="total">    9.44   10.07</time>
   <energy>
    <i name="e_fr_energy">   -112.49269773 </i>
    <i name="e_wo_entrp">   -112.49269773 </i>
    <i name="e_0_energy">   -112.49269773 </i>
   </energy>
  </scstep>
  <scstep>
   <time name="dav">    8.72    8.73</time>
   <time name="total">    9.44    9.46</time>
   <energy>
    <i name="e_fr_energy">   -112.49347043 </i>
    <i name="e_wo_entrp">   -112.49347043 </i>
    <i name="e_0_energy">   -112.49347043 </i>
   </energy>
  </scstep>
  <scstep>
   <time name="dav">    8.53    8.54</time>
   <time name="total">    9.25   10.98</time>
   <energy>
    <i name="e_fr_energy">   -112.49361080 </i>
    <i name="e_wo_entrp">   -112.49361080 </i>
    <i name="e_0_energy">   -112.49361080 </i>
   </energy>
  </scstep>
  <scstep>
   <time name="dav">    8.54    8.55</time>
   <time name="total">    8.95    8.96</time>
   <energy>
    <i name="alphaZ">    118.42137403 </i>
    <i name="ewald"> 179507.65012621 </i>
    <i name="hartreedc">-233130.92965472 </i>
    <i name="XCdc">   -611.62430091 </i>
    <i name="pawpsdc">  58752.70660302 </i>
    <i name="pawaedc"> -56369.04641555 </i>
    <i name="eentropy">      0.00000000 </i>
    <i name="bandstr">  -4388.39741597 </i>
    <i name="atom">  56008.72602466 </i>
    <i name="e_fr_energy">   -112.49365923 </i>
    <i name="e_wo_entrp">   -112.49365923 </i>
    <i name="e_0_energy">   -112.49365923 </i>
   </energy>
  </scstep>
  <structure>
   <crystal>
    <varray name="basis" >
     <v>      27.56494952       0.00000000       0.00000000 </v>
     <v>       0.00000000      27.56494952       0.00000000 </v>
     <v>       0.00000000       0.00000000      27.56494952 </v>
    </varray>
    <i name="volume">  20944.57752701 </i>
    <varray name="rec_basis" >
     <v>       0.03627796       0.00000000       0.00000000 </v>
     <v>       0.00000000       0.03627796       0.00000000 </v>
     <v>       0.00000000       0.00000000       0.03627796 </v>
    </varray>
   </crystal>
   <varray name="positions" >
    <v>       0.54003273       0.62577843       0.32813346 </v>
    <v>       0.59896359       0.43587168       0.47602681 </v>
    <v>       0.38645084       0.57975355       0.29449241 </v>
    <v>       0.54144266       0.58118658       0.52523483 </v>
    <v>       0.40249364       0.36103626       0.46535187 </v>
    <v>       0.61827385       0.59503345       0.58958452 </v>
    <v>       0.43516044       0.38359582       0.37350189 </v>
    <v>       0.32552150       0.51204311       0.47175758 </v>
    <v>       0.50456431       0.67385973       0.49819633 </v>
    <v>       0.36011871       0.43831131       0.40983713 </v>
    <v>       0.33113409       0.41839334       0.50280427 </v>
    <v>       0.40236399       0.55955590       0.62829034 </v>
    <v>       0.70914527       0.49424243       0.70560156 </v>
    <v>       0.54469420       0.52192464       0.30826395 </v>
    <v>       0.60328605       0.65859398       0.51047127 </v>
    <v>       0.38846805       0.63336998       0.37842940 </v>
    <v>       0.64530577       0.48497959       0.63396221 </v>
    <v>       0.36204220       0.48874885       0.56298918 </v>
    <v>       0.50332773       0.40176403       0.45525425 </v>
    <v>       0.58355913       0.49568529       0.55934496 </v>
    <v>       0.57450974       0.41743787       0.62680270 </v>
    <v>       0.42199789       0.50915615       0.70832458 </v>
    <v>       0.62642527       0.39314257       0.38726680 </v>
    <v>       0.48060717       0.33226804       0.52617992 </v>
    <v>       0.46243336       0.56311029       0.35618268 </v>
    <v>       0.43827011       0.45706800       0.78682866 </v>
    <v>       0.57799404       0.65989395       0.41629619 </v>
    <v>       0.45908467       0.52793545       0.55238180 </v>
    <v>       0.48319044       0.30877815       0.42792903 </v>
    <v>       0.40442002       0.38951364       0.56148162 </v>
    <v>       0.36375875       0.53437240       0.38265705 </v>
    <v>       0.55631684       0.46764889       0.38969684 </v>
    <v>       0.72241825       0.35512495       0.54733772 </v>
    <v>       0.48078913       0.66034398       0.40307526 </v>
    <v>       0.53150303       0.36755039       0.36219280 </v>
    <v>       0.32453234       0.60803325       0.44850086 </v>
    <v>       0.68217205       0.57119512       0.65571178 </v>
    <v>       0.47596573       0.41884963       0.70825543 </v>
    <v>       0.54950604       0.56603389       0.41115494 </v>
    <v>       0.40971569       0.65691781       0.47498840 </v>
    <v>       0.65035038       0.41587263       0.56241300 </v>
    <v>       0.48126309       0.57873783       0.25985950 </v>
    <v>       0.48164778       0.36734672       0.62184608 </v>
    <v>       0.53932106       0.65606248       0.59276517 </v>
    <v>       0.49851130       0.43381698       0.55020401 </v>
    <v>       0.44599175       0.56410676       0.45707990 </v>
    <v>       0.45159255       0.47709803       0.40524378 </v>
    <v>       0.52125511       0.49846816       0.47821977 </v>
    <v>       0.67342097       0.37455272       0.46849704 </v>
    <v>       0.43191065       0.45891858       0.62697966 </v>
    <v>       0.58292122       0.42969669       0.30302698 </v>
    <v>       0.54737030       0.35388865       0.69374783 </v>
    <v>       0.44729543       0.63116193       0.57197526 </v>
    <v>       0.36861780       0.58447471       0.53438630 </v>
   </varray>
  </structure>
  <varray name="forces" >
   <v>       0.09284330      -0.00653191       0.00134964 </v>
   <v>      -0.07607894       0.02554635       0.00500523 </v>
   <v>      -0.12368490       0.01159740      -0.18365942 </v>
   <v>      -0.13267687       0.28324127      -0.09519885 </v>
   <v>       0.10024118      -0.05869551      -0.08588015 </v>
   <v>      -0.06283018      -0.21589656      -0.15945722 </v>
   <v>       0.02620350      -0.14815603      -0.13012612 </v>
   <v>      -0.07912293      -0.06382661       0.05857509 </v>
   <v>       0.19192884       0.10022030       0.07241841 </v>
   <v>      -0.19328637      -0.11434663      -0.02471452 </v>
   <v>      -0.38508725      -0.13383911      -0.07979689 </v>
   <v>      -0.13745557       0.13429039      -0.10029042 </v>
   <v>       0.21305641      -0.20808887       0.24442133 </v>
   <v>       0.08483957       0.09708423      -0.05150972 </v>
   <v>       0.19452145       0.07221664       0.19527800 </v>
   <v>      -0.00551134       0.05935209      -0.07261984 </v>
   <v>       0.02555114       0.00966589       0.01454665 </v>
   <v>       0.00339555      -0.02566201       0.15877233 </v>
   <v>      -0.10366839      -0.11188337      -0.17432483 </v>
   <v>      -0.18095965       0.09190214      -0.09880761 </v>
   <v>      -0.26981984       0.04141781      -0.01804908 </v>
   <v>       0.07142474       0.01613514       0.27210453 </v>
   <v>      -0.03252758       0.03411019      -0.18718247 </v>
   <v>       0.07303514      -0.05861109       0.04675735 </v>
   <v>       0.06755942       0.15901471      -0.11101666 </v>
   <v>      -0.09114358      -0.08509118       0.46481646 </v>
   <v>       0.10500793       0.18996769      -0.03373954 </v>
   <v>      -0.04675146       0.02032188       0.13611004 </v>
   <v>      -0.05780926      -0.27955634      -0.12296714 </v>
   <v>       0.00932957      -0.00072143       0.08611558 </v>
   <v>       0.10287644       0.16477674      -0.05314629 </v>
   <v>      -0.10052917      -0.25114740       0.02296978 </v>
   <v>       0.38325628      -0.28409310       0.24537048 </v>
   <v>      -0.01988389      -0.16060172      -0.08966876 </v>
   <v>       0.11276701       0.04742087      -0.07834866 </v>
   <v>      -0.17439074       0.11300165      -0.18019499 </v>
   <v>       0.33978194       0.36864830       0.21713510 </v>
   <v>       0.07175225       0.07146705      -0.09373000 </v>
   <v>      -0.14498991       0.14598436       0.04291753 </v>
   <v>      -0.17548667       0.19375308       0.03978946 </v>
   <v>      -0.05352233       0.03325976      -0.04138778 </v>
   <v>      -0.10588165       0.03072162      -0.28322488 </v>
   <v>      -0.03977172      -0.09164408       0.11828546 </v>
   <v>       0.09335300       0.17688720       0.14318715 </v>
   <v>       0.03738133      -0.06500045       0.01906801 </v>
   <v>      -0.15227107       0.30143610       0.06158285 </v>
   <v>       0.05322609      -0.03750284       0.05786128 </v>
   <v>      -0.15225499      -0.04519065      -0.04568584 </v>
   <v>       0.21611194      -0.11896304       0.11605125 </v>
   <v>       0.14210236       0.02105487      -0.12178111 </v>
   <v>       0.09741817      -0.06303172      -0.30785880 </v>
   <v>       0.19779090      -0.33582503       0.25230661 </v>
   <v>       0.00609270       0.00369826      -0.07424932 </v>
   <v>      -0.01545191      -0.05428729       0.00582132 </v>
  </varray>
  <varray name="stress" >
   <v>      -0.62384293      -0.07459811       0.26807205 </v>
   <v>      -0.07459811      -0.54361304      -0.09159429 </v>
   <v>       0.26807205      -0.09159428      -0.18110258 </v>
  </varray>
  <energy>
   <i name="e_fr_energy">   -112.49365923 </i>
   <i name="e_wo_entrp">   -112.49365923 </i>
   <i name="e_0_energy">      0.00000000 </i>
  </energy>
  <time name="totalsc">  445.00  454.50</time>
 </calculation>
 <calculation>
  <scstep>
   <time name="dav">   12.01   12.02</time>
   <time name="total">   12.72   12.74</time>
   <energy>
    <i name="alphaZ">    118.42137403 </i>
    <i name="ewald"> 179416.69631130 </i>
    <i name="hartreedc">-233040.37409004 </i>
    <i name="XCdc">   -611.72526996 </i>
    <i name="pawpsdc">  58752.69598962 </i>
    <i name="pawaedc"> -56369.03555207 </i>
    <i name="eentropy">      0.00000000 </i>
    <i name="bandstr">  -4387.92977192 </i>
    <i name="atom">  56008.72602466 </i>
    <i name="e_fr_energy">   -112.52498438 </i>
    <i name="e_wo_entrp">   -112.52498438 </i>
    <i name="e_0_energy">   -112.52498438 </i>
   </energy>
  </scstep>
  <scstep>
   <time name="dav">   12.14   12.15</time>
   <time name="total">   12.84   12.85</time>
   <energy>
    <i name="e_fr_energy">   -112.52601469 </i>
    <i name="e_wo_entrp">   -112.52601469 </i>
    <i name="e_0_energy">   -112.52601469 </i>
   </energy>
  </scstep>
  <scstep>
   <time name="dav">    8.28    8.30</time>
   <time name="total">    8.70    8.78</time>
   <energy>
    <i name="alphaZ">    118.42137403 </i>
    <i name="ewald"> 179416.69631130 </i>
    <i name="hartreedc">-233040.87227995 </i>
    <i name="XCdc">   -611.70954646 </i>
    <i name="pawpsdc">  58744.09034615 </i>
    <i name="pawaedc"> -56360.28616463 </i>
    <i name="eentropy">      0.00000000 </i>
    <i name="bandstr">  -4387.59206573 </i>
    <i name="atom">  56008.72602466 </i>
    <i name="e_fr_energy">   -112.52600064 </i>
    <i name="e_wo_entrp">   -112.52600064 </i>
    <i name="e_0_energy">   -112.52600064 </i>
   </energy>
  </scstep>
  <structure>
   <crystal>
    <varray name="basis" >
     <v>      27.56494952       0.00000000       0.00000000 </v>
     <v>       0.00000000      27.56494952       0.00000000 </v>
     <v>       0.00000000       0.00000000      27.56494952 </v>
    </varray>
    <i name="volume">  20944.57752701 </i>
    <varray name="rec_basis" >
     <v>       0.03627796       0.00000000       0.00000000 </v>
     <v>       0.00000000       0.03627796       0.00000000 </v>
     <v>       0.00000000       0.00000000       0.03627796 </v>
    </varray>
   </crystal>
   <varray name="positions" >
    <v>       0.54006523       0.62577614       0.32813393 </v>
    <v>       0.59893696       0.43588062       0.47602856 </v>
    <v>       0.38640755       0.57975761       0.29442812 </v>
    <v>       0.54139622       0.58128572       0.52520151 </v>
    <v>       0.40252872       0.36101572       0.46532181 </v>
    <v>       0.61825185       0.59495788       0.58952870 </v>
    <v>       0.43516961       0.38354396       0.37345634 </v>
    <v>       0.32549381       0.51202077       0.47177808 </v>
    <v>       0.50463149       0.67389481       0.49822168 </v>
    <v>       0.36005105       0.43827128       0.40982848 </v>
    <v>       0.33099930       0.41834649       0.50277634 </v>
    <v>       0.40231588       0.55960291       0.62825523 </v>
    <v>       0.70921985       0.49416959       0.70568712 </v>
    <v>       0.54472389       0.52195862       0.30824592 </v>
    <v>       0.60335413       0.65861926       0.51053962 </v>
    <v>       0.38846612       0.63339076       0.37840398 </v>
    <v>       0.64531471       0.48498297       0.63396730 </v>
    <v>       0.36204338       0.48873987       0.56304476 </v>
    <v>       0.50329145       0.40172487       0.45519323 </v>
    <v>       0.58349579       0.49571745       0.55931038 </v>
    <v>       0.57441530       0.41745236       0.62679638 </v>
    <v>       0.42202289       0.50916180       0.70841982 </v>
    <v>       0.62641389       0.39315451       0.38720129 </v>
    <v>       0.48063273       0.33224752       0.52619629 </v>
    <v>       0.46245701       0.56316595       0.35614382 </v>
    <v>       0.43823821       0.45703821       0.78699136 </v>
    <v>       0.57803080       0.65996044       0.41628438 </v>
    <v>       0.45906831       0.52794256       0.55242944 </v>
    <v>       0.48317020       0.30868030       0.42788599 </v>
    <v>       0.40442329       0.38951339       0.56151176 </v>
    <v>       0.36379476       0.53443008       0.38263844 </v>
    <v>       0.55628165       0.46756098       0.38970488 </v>
    <v>       0.72255240       0.35502551       0.54742361 </v>
    <v>       0.48078217       0.66028777       0.40304387 </v>
    <v>       0.53154250       0.36756699       0.36216538 </v>
    <v>       0.32447130       0.60807280       0.44843779 </v>
    <v>       0.68229099       0.57132415       0.65578778 </v>
    <v>       0.47599085       0.41887465       0.70822262 </v>
    <v>       0.54945529       0.56608499       0.41116996 </v>
    <v>       0.40965427       0.65698563       0.47500233 </v>
    <v>       0.65033164       0.41588427       0.56239851 </v>
    <v>       0.48122603       0.57874859       0.25976036 </v>
    <v>       0.48163386       0.36731464       0.62188748 </v>
    <v>       0.53935373       0.65612440       0.59281529 </v>
    <v>       0.49852439       0.43379423       0.55021069 </v>
    <v>       0.44593845       0.56421227       0.45710146 </v>
    <v>       0.45161118       0.47708491       0.40526403 </v>
    <v>       0.52120182       0.49845234       0.47820377 </v>
    <v>       0.67349662       0.37451108       0.46853766 </v>
    <v>       0.43196039       0.45892595       0.62693704 </v>
    <v>       0.58295532       0.42967463       0.30291922 </v>
    <v>       0.54743954       0.35377110       0.69383615 </v>
    <v>       0.44729756       0.63116322       0.57194927 </v>
    <v>       0.36861239       0.58445570       0.53438834 </v>
   </varray>
  </structure>
  <varray name="forces" >
   <v>       0.08982874      -0.00687523      -0.00420818 </v>
   <v>      -0.06497819       0.01388314       0.00195307 </v>
   <v>      -0.11552875       0.01222297      -0.17384245 </v>
   <v>      -0.13389166       0.26062910      -0.09509431 </v>
   <v>       0.09200503      -0.05016402      -0.07564254 </v>
   <v>      -0.04905303      -0.21671592      -0.13992697 </v>
   <v>       0.02352991      -0.13901673      -0.12353894 </v>
   <v>      -0.07278155      -0.05619113       0.05208478 </v>
   <v>       0.17715787       0.09924602       0.06098739 </v>
   <v>      -0.17764330      -0.10477094      -0.02671062 </v>
   <v>      -0.35607890      -0.12967637      -0.06757673 </v>
   <v>      -0.13203831       0.12150359      -0.07788667 </v>
   <v>       0.19541658      -0.18877332       0.21826867 </v>
   <v>       0.08064921       0.09093595      -0.04650056 </v>
   <v>       0.18675547       0.07198095       0.18121971 </v>
   <v>      -0.00673539       0.05879377      -0.07140566 </v>
   <v>       0.03039831       0.02525861       0.01951068 </v>
   <v>      -0.00408303      -0.03391770       0.14146765 </v>
   <v>      -0.10067933      -0.11260305      -0.16129052 </v>
   <v>      -0.17120585       0.08934353      -0.08990220 </v>
   <v>      -0.25772861       0.03885823      -0.01108231 </v>
   <v>       0.07021007       0.01105998       0.25224747 </v>
   <v>      -0.01849235       0.03124562      -0.16333995 </v>
   <v>       0.06928709      -0.05473839       0.04113617 </v>
   <v>       0.05959884       0.14754807      -0.10975092 </v>
   <v>      -0.08244759      -0.08710520       0.43054081 </v>
   <v>       0.09979209       0.18244546      -0.02554821 </v>
   <v>      -0.03829530       0.01950244       0.12336891 </v>
   <v>      -0.05393711      -0.26342339      -0.11800514 </v>
   <v>       0.00100581      -0.00111256       0.07037037 </v>
   <v>       0.09839698       0.14953183      -0.04346209 </v>
   <v>      -0.09819064      -0.23207279       0.00838840 </v>
   <v>       0.35187909      -0.26249644       0.23355891 </v>
   <v>      -0.01552016      -0.15420603      -0.07569521 </v>
   <v>       0.10385342       0.04069526      -0.07634336 </v>
   <v>      -0.16481805       0.10281017      -0.16971472 </v>
   <v>       0.31828188       0.33011206       0.20488344 </v>
   <v>       0.07032961       0.07290512      -0.07509413 </v>
   <v>      -0.14037097       0.13438882       0.04350886 </v>
   <v>      -0.16195238       0.18976805       0.03645640 </v>
   <v>      -0.04080039       0.02084075      -0.04061012 </v>
   <v>      -0.09803925       0.02855926      -0.26554132 </v>
   <v>      -0.03322204      -0.09131643       0.11700524 </v>
   <v>       0.08792820       0.16792533       0.13709244 </v>
   <v>       0.03482383      -0.06576750       0.01293954 </v>
   <v>      -0.14353614       0.28454896       0.05624529 </v>
   <v>       0.03915821      -0.02961058       0.05192844 </v>
   <v>      -0.15008494      -0.03236120      -0.03977992 </v>
   <v>       0.19854724      -0.10754938       0.11090323 </v>
   <v>       0.13832046       0.03134773      -0.10130166 </v>
   <v>       0.09008635      -0.05485818      -0.29178732 </v>
   <v>       0.18214135      -0.30993379       0.23263128 </v>
   <v>       0.01210535       0.00708925      -0.07311960 </v>
   <v>      -0.01935379      -0.04972372      -0.00499482 </v>
  </varray>
  <varray name="stress" >
   <v>      -0.65357454      -0.06588515       0.26131198 </v>
   <v>      -0.06588515      -0.57926583      -0.09053827 </v>
   <v>       0.26131198      -0.09053827      -0.22872799 </v>
  </varray>
  <energy>
   <i name="e_fr_energy">   -112.52600064 </i>
   <i name="e_wo_entrp">   -112.52600064 </i>
   <i name="e_0_energy">      0.00000000 </i>
  </energy>
  <time name="totalsc">   58.60   60.53</time>
 </calculation>
 <calculation>
  <scstep>
   <time name="dav">   11.69   11.70</time>
   <time name="total">   12.39   12.55</time>
   <energy>
    <i name="alphaZ">    118.42137403 </i>
    <i name="ewald"> 179144.27419942 </i>
    <i name="hartreedc">-232769.83640746 </i>
    <i name="XCdc">   -612.00522535 </i>
    <i name="pawpsdc">  58738.97427999 </i>
    <i name="pawaedc"> -56355.07936703 </i>
    <i name="eentropy">      0.00000000 </i>
    <i name="bandstr">  -4386.07913663 </i>
    <i name="atom">  56008.72602466 </i>
    <i name="e_fr_energy">   -112.60425835 </i>
    <i name="e_wo_entrp">   -112.60425835 </i>
    <i name="e_0_energy">   -112.60425835 </i>
   </energy>
  </scstep>
  <scstep>
   <time name="dav">   11.88   11.88</time>
   <time name="total">   12.58   12.60</time>
   <energy>
    <i name="e_fr_energy">   -112.61339056 </i>
    <i name="e_wo_entrp">   -112.61339056 </i>
    <i name="e_0_energy">   -112.61339056 </i>
   </energy>
  </scstep>
  <scstep>
   <time name="dav">   12.02   12.04</time>
   <time name="total">   12.72   12.74</time>
   <energy>
    <i name="e_fr_energy">   -112.61325365 </i>
    <i name="e_wo_entrp">   -112.61325365 </i>
    <i name="e_0_energy">   -112.61325365 </i>
   </energy>
  </scstep>
  <scstep>
   <time name="dav">   12.02   12.03</time>
   <time name="total">   12.72   12.74</time>
   <energy>
    <i name="e_fr_energy">   -112.61307815 </i>
    <i name="e_wo_entrp">   -112.61307815 </i>
    <i name="e_0_energy">   -112.61307815 </i>
   </energy>
  </scstep>
  <scstep>
   <time name="dav">    8.22    8.23</time>
   <time name="total">    8.64    8.67</time>
   <energy>
    <i name="alphaZ">    118.42137403 </i>
    <i name="ewald"> 179144.27419942 </i>
    <i name="hartreedc">-232772.30711300 </i>
    <i name="XCdc">   -611.94233679 </i>
    <i name="pawpsdc">  58693.88195563 </i>
    <i name="pawaedc"> -56309.19922432 </i>
    <i name="eentropy">      0.00000000 </i>
    <i name="bandstr">  -4384.46795972 </i>
    <i name="atom">  56008.72602466 </i>
    <i name="e_fr_energy">   -112.61308009 </i>
    <i name="e_wo_entrp">   -112.61308009 </i>
    <i name="e_0_energy">   -112.61308009 </i>
   </energy>
  </scstep>
  <structure>
   <crystal>
    <varray name="basis" >
     <v>      27.56494952       0.00000000       0.00000000 </v>
     <v>       0.00000000      27.56494952       0.00000000 </v>
     <v>       0.00000000       0.00000000      27.56494952 </v>
    </varray>
    <i name="volume">  20944.57752701 </i>
    <varray name="rec_basis" >
     <v>       0.03627796       0.00000000       0.00000000 </v>
     <v>       0.00000000       0.03627796       0.00000000 </v>
     <v>       0.00000000       0.00000000       0.03627796 </v>
    </varray>
   </crystal>
   <varray name="positions" >
    <v>       0.54016272       0.62576928       0.32813535 </v>
    <v>       0.59885707       0.43590745       0.47603382 </v>
    <v>       0.38627767       0.57976979       0.29423526 </v>
    <v>       0.54125690       0.58158315       0.52510155 </v>
    <v>       0.40263398       0.36095408       0.46523163 </v>
    <v>       0.61818588       0.59473117       0.58936126 </v>
    <v>       0.43519713       0.38338838       0.37331970 </v>
    <v>       0.32541072       0.51195374       0.47183959 </v>
    <v>       0.50483303       0.67400005       0.49829773 </v>
    <v>       0.35984808       0.43815121       0.40980253 </v>
    <v>       0.33059493       0.41820595       0.50269254 </v>
    <v>       0.40217154       0.55974392       0.62814992 </v>
    <v>       0.70944357       0.49395108       0.70594378 </v>
    <v>       0.54481298       0.52206057       0.30819183 </v>
    <v>       0.60355840       0.65869509       0.51074468 </v>
    <v>       0.38846033       0.63345308       0.37832772 </v>
    <v>       0.64534154       0.48499312       0.63398257 </v>
    <v>       0.36204695       0.48871292       0.56321148 </v>
    <v>       0.50318259       0.40160738       0.45501018 </v>
    <v>       0.58330576       0.49581396       0.55920662 </v>
    <v>       0.57413196       0.41749586       0.62677743 </v>
    <v>       0.42209789       0.50917874       0.70870555 </v>
    <v>       0.62637973       0.39319033       0.38700473 </v>
    <v>       0.48070942       0.33218597       0.52624539 </v>
    <v>       0.46252795       0.56333293       0.35602724 </v>
    <v>       0.43814250       0.45694886       0.78747946 </v>
    <v>       0.57814107       0.66015992       0.41624895 </v>
    <v>       0.45901921       0.52796390       0.55257236 </v>
    <v>       0.48310950       0.30838674       0.42775686 </v>
    <v>       0.40443308       0.38951263       0.56160219 </v>
    <v>       0.36390279       0.53460311       0.38258263 </v>
    <v>       0.55617608       0.46729725       0.38972900 </v>
    <v>       0.72295486       0.35472718       0.54768127 </v>
    <v>       0.48076129       0.66011912       0.40294971 </v>
    <v>       0.53166092       0.36761678       0.36208311 </v>
    <v>       0.32428817       0.60819147       0.44824857 </v>
    <v>       0.68264779       0.57171127       0.65601579 </v>
    <v>       0.47606619       0.41894969       0.70812420 </v>
    <v>       0.54930304       0.56623829       0.41121503 </v>
    <v>       0.40946999       0.65718909       0.47504411 </v>
    <v>       0.65027544       0.41591920       0.56235505 </v>
    <v>       0.48111485       0.57878085       0.25946295 </v>
    <v>       0.48159209       0.36721841       0.62201169 </v>
    <v>       0.53945176       0.65631015       0.59296565 </v>
    <v>       0.49856364       0.43372597       0.55023071 </v>
    <v>       0.44577855       0.56452880       0.45716613 </v>
    <v>       0.45166707       0.47704552       0.40532479 </v>
    <v>       0.52104194       0.49840489       0.47815580 </v>
    <v>       0.67372355       0.37438616       0.46865952 </v>
    <v>       0.43210961       0.45894806       0.62680916 </v>
    <v>       0.58305761       0.42960844       0.30259595 </v>
    <v>       0.54764724       0.35341846       0.69410109 </v>
    <v>       0.44730396       0.63116711       0.57187131 </v>
    <v>       0.36859616       0.58439870       0.53439445 </v>
   </varray>
  </structure>
  <varray name="forces" >
   <v>       0.08880317      -0.00835942      -0.01943054 </v>
   <v>      -0.03913277      -0.01702275      -0.00472695 </v>
   <v>      -0.10143464       0.01525388      -0.15989233 </v>
   <v>      -0.14773605       0.21866217      -0.10200565 </v>
   <v>       0.07685646      -0.03147941      -0.05362859 </v>
   <v>      -0.01405254      -0.23242913      -0.09638466 </v>
   <v>       0.01828818      -0.12572692      -0.11430011 </v>
   <v>      -0.06110676      -0.03997695       0.03868221 </v>
   <v>       0.15130949       0.10376714       0.03493812 </v>
   <v>      -0.14739955      -0.08690342      -0.03250082 </v>
   <v>      -0.30377283      -0.12614321      -0.04055980 </v>
   <v>      -0.12807748       0.09753274      -0.02289466 </v>
   <v>       0.16282043      -0.14930832       0.16229799 </v>
   <v>       0.07503056       0.08103209      -0.03729379 </v>
   <v>       0.17863763       0.07633939       0.15588534 </v>
   <v>      -0.01106966       0.06194236      -0.07259490 </v>
   <v>       0.04560597       0.06764276       0.03486248 </v>
   <v>      -0.02459310      -0.05860101       0.10563425 </v>
   <v>      -0.10089716      -0.12377435      -0.13819180 </v>
   <v>      -0.15653604       0.09014457      -0.07309337 </v>
   <v>      -0.24347136       0.03380135       0.00867114 </v>
   <v>       0.07267093      -0.00266280       0.21516947 </v>
   <v>       0.01821190       0.02555659      -0.11078736 </v>
   <v>       0.06380096      -0.04800413       0.02957170 </v>
   <v>       0.04261818       0.12839216      -0.11562004 </v>
   <v>      -0.06537285      -0.09709336       0.36810453 </v>
   <v>       0.09395618       0.17480800      -0.00502307 </v>
   <v>      -0.01897004       0.01837713       0.09916093 </v>
   <v>      -0.04784343      -0.23796759      -0.11268586 </v>
   <v>      -0.02147288      -0.00298804       0.03337444 </v>
   <v>       0.09320799       0.11923938      -0.02074730 </v>
   <v>      -0.09920745      -0.20037847      -0.03055143 </v>
   <v>       0.28903448      -0.22148763       0.21463986 </v>
   <v>      -0.00447481      -0.14782149      -0.04450065 </v>
   <v>       0.08753046       0.02557976      -0.07692327 </v>
   <v>      -0.15032240       0.08309457      -0.15510525 </v>
   <v>       0.28237236       0.24867836       0.18634084 </v>
   <v>       0.07282283       0.08134163      -0.03145716 </v>
   <v>      -0.13856380       0.11468360       0.04905429 </v>
   <v>      -0.13673869       0.19056672       0.03016510 </v>
   <v>      -0.00953385      -0.01100905      -0.04074153 </v>
   <v>      -0.08459153       0.02549579      -0.23689323 </v>
   <v>      -0.01712457      -0.09759520       0.12150249 </v>
   <v>       0.07960709       0.15560716       0.12995924 </v>
   <v>       0.03129311      -0.07285938      -0.00107358 </v>
   <v>      -0.13082117       0.26090984       0.04692820 </v>
   <v>       0.00467587      -0.01175505       0.03945639 </v>
   <v>      -0.15435946       0.00008572      -0.02626197 </v>
   <v>       0.16431613      -0.08527473       0.10579249 </v>
   <v>       0.13861884       0.06052182      -0.05233391 </v>
   <v>       0.07675617      -0.03712834      -0.26946388 </v>
   <v>       0.15131376      -0.26127882       0.19625394 </v>
   <v>       0.02944082       0.01694997      -0.07447961 </v>
   <v>      -0.03092311      -0.04097771      -0.03429838 </v>
  </varray>
  <varray name="stress" >
   <v>      -0.73214676      -0.04644727       0.24482813 </v>
   <v>      -0.04644727      -0.67201933      -0.08899404 </v>
   <v>       0.24482812      -0.08899405      -0.34821879 </v>
  </varray>
  <energy>
   <i name="e_fr_energy">   -112.61308009 </i>
   <i name="e_wo_entrp">   -112.61308009 </i>
   <i name="e_0_energy">      0.00000000 </i>
  </energy>
  <time name="totalsc">   83.37   83.74</time>
 </calculation>
 <calculation>
  <scstep>
   <time name="dav">   11.70   11.71</time>
   <time name="total">   12.40   12.42</time>
   <energy>
    <i name="alphaZ">    118.42137403 </i>
    <i name="ewald"> 178601.40574969 </i>
    <i name="hartreedc">-232231.36357896 </i>
    <i name="XCdc">   -612.52714946 </i>
    <i name="pawpsdc">  58694.19104531 </i>
    <i name="pawaedc"> -56309.51078926 </i>
    <i name="eentropy">     -0.00000000 </i>
    <i name="bandstr">  -4382.05213130 </i>
    <i name="atom">  56008.72602466 </i>
    <i name="e_fr_energy">   -112.70945528 </i>
    <i name="e_wo_entrp">   -112.70945528 </i>
    <i name="e_0_energy">   -112.70945528 </i>
   </energy>
  </scstep>
  <scstep>
   <time name="dav">   11.88   11.89</time>
   <time name="total">   12.58   12.60</time>
   <energy>
    <i name="e_fr_energy">   -112.74597170 </i>
    <i name="e_wo_entrp">   -112.74597170 </i>
    <i name="e_0_energy">   -112.74597170 </i>
   </energy>
  </scstep>
  <scstep>
   <time name="dav">   12.03   12.04</time>
   <time name="total">   12.73   13.00</time>
   <energy>
    <i name="e_fr_energy">   -112.74554722 </i>
    <i name="e_wo_entrp">   -112.74554722 </i>
    <i name="e_0_energy">   -112.74554722 </i>
   </energy>
  </scstep>
  <scstep>
   <time name="dav">   11.98   11.98</time>
   <time name="total">   12.68   13.25</time>
   <energy>
    <i name="e_fr_energy">   -112.74475342 </i>
    <i name="e_wo_entrp">   -112.74475342 </i>
    <i name="e_0_energy">   -112.74475342 </i>
   </energy>
  </scstep>
  <scstep>
   <time name="dav">    9.42    9.42</time>
   <time name="total">    9.83    9.85</time>
   <energy>
    <i name="alphaZ">    118.42137403 </i>
    <i name="ewald"> 178601.40574969 </i>
    <i name="hartreedc">-232236.24008299 </i>
    <i name="XCdc">   -612.40552369 </i>
    <i name="pawpsdc">  58610.52908189 </i>
    <i name="pawaedc"> -56224.36872004 </i>
    <i name="eentropy">      0.00000000 </i>
    <i name="bandstr">  -4378.81268375 </i>
    <i name="atom">  56008.72602466 </i>
    <i name="e_fr_energy">   -112.74478018 </i>
    <i name="e_wo_entrp">   -112.74478018 </i>
    <i name="e_0_energy">   -112.74478018 </i>
   </energy>
  </scstep>
  <structure>
   <crystal>
    <varray name="basis" >
     <v>      27.56494952       0.00000000       0.00000000 </v>
     <v>       0.00000000      27.56494952       0.00000000 </v>
     <v>       0.00000000       0.00000000      27.56494952 </v>
    </varray>
    <i name="volume">  20944.57752701 </i>
    <varray name="rec_basis" >
     <v>       0.03627796       0.00000000       0.00000000 </v>
     <v>       0.00000000       0.03627796       0.00000000 </v>
     <v>       0.00000000       0.00000000       0.03627796 </v>
    </varray>
   </crystal>
   <varray name="positions" >
    <v>       0.54035771       0.62575557       0.32813818 </v>
    <v>       0.59869729       0.43596110       0.47604433 </v>
    <v>       0.38601791       0.57979414       0.29384955 </v>
    <v>       0.54097825       0.58217800       0.52490161 </v>
    <v>       0.40284451       0.36083081       0.46505126 </v>
    <v>       0.61805392       0.59427775       0.58902637 </v>
    <v>       0.43525216       0.38307723       0.37304641 </v>
    <v>       0.32524455       0.51181970       0.47196261 </v>
    <v>       0.50523611       0.67421053       0.49844982 </v>
    <v>       0.35944215       0.43791106       0.40975062 </v>
    <v>       0.32978618       0.41792486       0.50252496 </v>
    <v>       0.40188286       0.56002596       0.62793929 </v>
    <v>       0.70989103       0.49351406       0.70645711 </v>
    <v>       0.54499116       0.52226446       0.30808365 </v>
    <v>       0.60396693       0.65884676       0.51115480 </v>
    <v>       0.38844876       0.63357773       0.37817521 </v>
    <v>       0.64539520       0.48501342       0.63401312 </v>
    <v>       0.36205408       0.48865903       0.56354493 </v>
    <v>       0.50296486       0.40137241       0.45464407 </v>
    <v>       0.58292572       0.49600697       0.55899911 </v>
    <v>       0.57356529       0.41758284       0.62673952 </v>
    <v>       0.42224790       0.50921263       0.70927702 </v>
    <v>       0.62631141       0.39326196       0.38661161 </v>
    <v>       0.48086281       0.33206288       0.52634358 </v>
    <v>       0.46266984       0.56366688       0.35579409 </v>
    <v>       0.43795108       0.45677015       0.78845565 </v>
    <v>       0.57836160       0.66055889       0.41617809 </v>
    <v>       0.45892103       0.52800658       0.55285822 </v>
    <v>       0.48298809       0.30779963       0.42749861 </v>
    <v>       0.40445268       0.38951111       0.56178305 </v>
    <v>       0.36411885       0.53494917       0.38247102 </v>
    <v>       0.55596495       0.46676980       0.38977724 </v>
    <v>       0.72375976       0.35413054       0.54819659 </v>
    <v>       0.48071953       0.65978183       0.40276139 </v>
    <v>       0.53189775       0.36771637       0.36191856 </v>
    <v>       0.32392192       0.60842879       0.44787013 </v>
    <v>       0.68336139       0.57248549       0.65647181 </v>
    <v>       0.47621689       0.41909979       0.70792735 </v>
    <v>       0.54899853       0.56654488       0.41130516 </v>
    <v>       0.40910144       0.65759600       0.47512768 </v>
    <v>       0.65016303       0.41598905       0.56226813 </v>
    <v>       0.48089248       0.57884537       0.25886813 </v>
    <v>       0.48150856       0.36702594       0.62226011 </v>
    <v>       0.53964782       0.65668164       0.59326637 </v>
    <v>       0.49864215       0.43358946       0.55027076 </v>
    <v>       0.44545876       0.56516187       0.45729546 </v>
    <v>       0.45177886       0.47696676       0.40544631 </v>
    <v>       0.52072218       0.49830998       0.47805985 </v>
    <v>       0.67417743       0.37413632       0.46890325 </v>
    <v>       0.43240805       0.45899228       0.62655339 </v>
    <v>       0.58326221       0.42947606       0.30194939 </v>
    <v>       0.54806263       0.35271317       0.69463098 </v>
    <v>       0.44731675       0.63117487       0.57171537 </v>
    <v>       0.36856371       0.58428468       0.53440667 </v>
   </varray>
  </structure>
  <varray name="forces" >
   <v>       0.08475827      -0.01009201      -0.04936686 </v>
   <v>       0.01321344      -0.07783854      -0.01656366 </v>
   <v>      -0.06889885       0.02038612      -0.12501154 </v>
   <v>      -0.16688806       0.12553099      -0.11053946 </v>
   <v>       0.04446522       0.00594895      -0.00737027 </v>
   <v>       0.05511484      -0.25077672      -0.00836581 </v>
   <v>       0.00776462      -0.09274542      -0.09060051 </v>
   <v>      -0.03476020      -0.00752344       0.01072889 </v>
   <v>       0.09245194       0.11238321      -0.01782233 </v>
   <v>      -0.08005596      -0.04747256      -0.04181849 </v>
   <v>      -0.19707203      -0.11431824       0.01433630 </v>
   <v>      -0.11348681       0.04828157       0.08686848 </v>
   <v>       0.08838165      -0.06384957       0.04585777 </v>
   <v>       0.06082699       0.05767563      -0.01697007 </v>
   <v>       0.15488307       0.08056828       0.09917921 </v>
   <v>      -0.01953703       0.06683585      -0.07196446 </v>
   <v>       0.07201108       0.14310444       0.06249192 </v>
   <v>      -0.06519831      -0.10487020       0.03071502 </v>
   <v>      -0.09621428      -0.14191937      -0.08584386 </v>
   <v>      -0.12064775       0.08689772      -0.03356281 </v>
   <v>      -0.20185503       0.02133480       0.04900922 </v>
   <v>       0.07474212      -0.03164291       0.13098459 </v>
   <v>       0.09089336       0.01338556      -0.00551355 </v>
   <v>       0.05029083      -0.03244343       0.00508349 </v>
   <v>       0.00553476       0.08166925      -0.12319759 </v>
   <v>      -0.03005422      -0.10961258       0.23299289 </v>
   <v>       0.07879163       0.15152096       0.03628969 </v>
   <v>       0.02232124       0.01595271       0.04440801 </v>
   <v>      -0.03247017      -0.17394691      -0.09660456 </v>
   <v>      -0.06405602      -0.00844115      -0.04176282 </v>
   <v>       0.07956844       0.05253405       0.02542521 </v>
   <v>      -0.09679570      -0.12278774      -0.10683612 </v>
   <v>       0.15983288      -0.13030795       0.16677661 </v>
   <v>       0.01945067      -0.12701583       0.01753444 </v>
   <v>       0.05098409      -0.00843530      -0.07677062 </v>
   <v>      -0.11485019       0.03971034      -0.11768514 </v>
   <v>       0.19526998       0.07795621       0.14113978 </v>
   <v>       0.07720536       0.09186406       0.05530346 </v>
   <v>      -0.12783666       0.07090563       0.06008369 </v>
   <v>      -0.08341075       0.18453203       0.01662490 </v>
   <v>       0.04816749      -0.07006245      -0.03715000 </v>
   <v>      -0.05515116       0.01596954      -0.17053315 </v>
   <v>       0.01465257      -0.10751922       0.12431857 </v>
   <v>       0.06102139       0.12435099       0.11038669 </v>
   <v>       0.02217686      -0.08494858      -0.03132345 </v>
   <v>      -0.09877672       0.20150164       0.02664848 </v>
   <v>      -0.06659838       0.02385473       0.01107157 </v>
   <v>      -0.15509343       0.06531373       0.00196302 </v>
   <v>       0.09152470      -0.03805632       0.09299342 </v>
   <v>       0.13258316       0.11415514       0.05114630 </v>
   <v>       0.04637828       0.00073285      -0.21560967 </v>
   <v>       0.08432627      -0.15243759       0.11558814 </v>
   <v>       0.06349616       0.03629240      -0.07474918 </v>
   <v>      -0.05337564      -0.02208536      -0.09241377 </v>
  </varray>
  <varray name="stress" >
   <v>      -0.88672537      -0.00685071       0.21151551 </v>
   <v>      -0.00685071      -0.85274213      -0.08441977 </v>
   <v>       0.21151551      -0.08441978      -0.58682619 </v>
  </varray>
  <energy>
   <i name="e_fr_energy">   -112.74478018 </i>
   <i name="e_wo_entrp">   -112.74478018 </i>
   <i name="e_0_energy">      0.00000000 </i>
  </energy>
  <time name="totalsc">   84.54   85.61</time>
 </calculation>
 <calculation>
  <scstep>
   <time name="dav">   11.70   11.71</time>
   <time name="total">   12.40   12.42</time>
   <energy>
    <i name="alphaZ">    118.42137403 </i>
    <i name="ewald"> 177523.55859130 </i>
    <i name="hartreedc">-231161.79815580 </i>
    <i name="XCdc">   -613.51753049 </i>
    <i name="pawpsdc">  58610.69389192 </i>
    <i name="pawaedc"> -56224.53111389 </i>
    <i name="eentropy">      0.00000000 </i>
    <i name="bandstr">  -4374.26078307 </i>
    <i name="atom">  56008.72602466 </i>
    <i name="e_fr_energy">   -112.70770133 </i>
    <i name="e_wo_entrp">   -112.70770133 </i>
    <i name="e_0_energy">   -112.70770133 </i>
   </energy>
  </scstep>
  <scstep>
   <time name="dav">   11.84   11.85</time>
   <time name="total">   12.54   13.48</time>
   <energy>
    <i name="e_fr_energy">   -112.85513306 </i>
    <i name="e_wo_entrp">   -112.85513306 </i>
    <i name="e_0_energy">   -112.85513306 </i>
   </energy>
  </scstep>
  <scstep>
   <time name="dav">   11.93   11.94</time>
   <time name="total">   12.63   12.69</time>
   <energy>
    <i name="e_fr_energy">   -112.85427954 </i>
    <i name="e_wo_entrp">   -112.85427954 </i>
    <i name="e_0_energy">   -112.85427954 </i>
   </energy>
  </scstep>
  <scstep>
   <time name="dav">   11.91   11.92</time>
   <time name="total">   12.61   12.62</time>
   <energy>
    <i name="e_fr_energy">   -112.85088304 </i>
    <i name="e_wo_entrp">   -112.85088304 </i>
    <i name="e_0_energy">   -112.85088304 </i>
   </energy>
  </scstep>
  <scstep>
   <time name="dav">   12.31   12.33</time>
   <time name="total">   13.01   13.03</time>
   <energy>
    <i name="e_fr_energy">   -112.85096475 </i>
    <i name="e_wo_entrp">   -112.85096475 </i>
    <i name="e_0_energy">   -112.85096475 </i>
   </energy>
  </scstep>
  <scstep>
   <time name="dav">    8.79    8.80</time>
   <time name="total">    9.50    9.53</time>
   <energy>
    <i name="e_fr_energy">   -112.85086228 </i>
    <i name="e_wo_entrp">   -112.85086228 </i>
    <i name="e_0_energy">   -112.85086228 </i>
   </energy>
  </scstep>
  <scstep>
   <time name="dav">    8.66    8.67</time>
   <time name="total">    9.07    9.55</time>
   <energy>
    <i name="alphaZ">    118.42137403 </i>
    <i name="ewald"> 177523.55859130 </i>
    <i name="hartreedc">-231170.89072827 </i>
    <i name="XCdc">   -613.28233593 </i>
    <i name="pawpsdc">  58459.57249212 </i>
    <i name="pawaedc"> -56070.62993313 </i>
    <i name="eentropy">      0.00000000 </i>
    <i name="bandstr">  -4368.32636047 </i>
    <i name="atom">  56008.72602466 </i>
    <i name="e_fr_energy">   -112.85087569 </i>
    <i name="e_wo_entrp">   -112.85087569 </i>
    <i name="e_0_energy">   -112.85087569 </i>
   </energy>
  </scstep>
  <structure>
   <crystal>
    <varray name="basis" >
     <v>      27.56494952       0.00000000       0.00000000 </v>
     <v>       0.00000000      27.56494952       0.00000000 </v>
     <v>       0.00000000       0.00000000      27.56494952 </v>
    </varray>
    <i name="volume">  20944.57752701 </i>
    <varray name="rec_basis" >
     <v>       0.03627796       0.00000000       0.00000000 </v>
     <v>       0.00000000       0.03627796       0.00000000 </v>
     <v>       0.00000000       0.00000000       0.03627796 </v>
    </varray>
   </crystal>
   <varray name="positions" >
    <v>       0.54074768       0.62572813       0.32814385 </v>
    <v>       0.59837774       0.43606840       0.47606535 </v>
    <v>       0.38549839       0.57984286       0.29307811 </v>
    <v>       0.54042096       0.58336771       0.52450174 </v>
    <v>       0.40326556       0.36058427       0.46469054 </v>
    <v>       0.61779001       0.59337091       0.58835659 </v>
    <v>       0.43536222       0.38245492       0.37249983 </v>
    <v>       0.32491221       0.51155160       0.47220865 </v>
    <v>       0.50604228       0.67463149       0.49875400 </v>
    <v>       0.35863028       0.43743077       0.40964681 </v>
    <v>       0.32816868       0.41736269       0.50218978 </v>
    <v>       0.40130550       0.56059002       0.62751804 </v>
    <v>       0.71078594       0.49264001       0.70748376 </v>
    <v>       0.54534752       0.52267225       0.30786729 </v>
    <v>       0.60478399       0.65915009       0.51197503 </v>
    <v>       0.38842561       0.63382703       0.37787018 </v>
    <v>       0.64550253       0.48505402       0.63407422 </v>
    <v>       0.36206834       0.48855124       0.56421183 </v>
    <v>       0.50252942       0.40090246       0.45391184 </v>
    <v>       0.58216562       0.49639299       0.55858408 </v>
    <v>       0.57243196       0.41775681       0.62666371 </v>
    <v>       0.42254790       0.50928040       0.71041995 </v>
    <v>       0.62617479       0.39340524       0.38582538 </v>
    <v>       0.48116958       0.33181669       0.52653998 </v>
    <v>       0.46295361       0.56433480       0.35532778 </v>
    <v>       0.43756825       0.45641274       0.79040805 </v>
    <v>       0.57880267       0.66135682       0.41603637 </v>
    <v>       0.45872466       0.52809194       0.55342993 </v>
    <v>       0.48274527       0.30662539       0.42698211 </v>
    <v>       0.40449186       0.38950808       0.56214476 </v>
    <v>       0.36455097       0.53564129       0.38224779 </v>
    <v>       0.55554270       0.46571489       0.38987372 </v>
    <v>       0.72536957       0.35293725       0.54922723 </v>
    <v>       0.48063601       0.65910725       0.40238475 </v>
    <v>       0.53237141       0.36791556       0.36158947 </v>
    <v>       0.32318942       0.60890343       0.44711325 </v>
    <v>       0.68478859       0.57403394       0.65738386 </v>
    <v>       0.47651827       0.41939997       0.70753365 </v>
    <v>       0.54838953       0.56715807       0.41148543 </v>
    <v>       0.40836433       0.65840983       0.47529481 </v>
    <v>       0.64993822       0.41612875       0.56209429 </v>
    <v>       0.48044774       0.57897441       0.25767849 </v>
    <v>       0.48134151       0.36664100       0.62275695 </v>
    <v>       0.54003993       0.65742463       0.59386781 </v>
    <v>       0.49879916       0.43331643       0.55035085 </v>
    <v>       0.44481917       0.56642801       0.45755413 </v>
    <v>       0.45200243       0.47680924       0.40568935 </v>
    <v>       0.52008265       0.49812016       0.47786796 </v>
    <v>       0.67508517       0.37363663       0.46939071 </v>
    <v>       0.43300493       0.45908072       0.62604187 </v>
    <v>       0.58367140       0.42921131       0.30065627 </v>
    <v>       0.54889342       0.35130258       0.69569075 </v>
    <v>       0.44734234       0.63119041       0.57140350 </v>
    <v>       0.36849881       0.58405666       0.53443113 </v>
   </varray>
  </structure>
  <varray name="forces" >
   <v>       0.08760953      -0.00864976      -0.10490541 </v>
   <v>       0.10875208      -0.18896839      -0.03143515 </v>
   <v>      -0.00683311       0.02853220      -0.05974381 </v>
   <v>      -0.18555128      -0.05602378      -0.11491538 </v>
   <v>      -0.01497531       0.07117579       0.07882850 </v>
   <v>       0.17682314      -0.26939905       0.14440455 </v>
   <v>      -0.00933686      -0.02492765      -0.03937656 </v>
   <v>       0.01581007       0.04898089      -0.04035157 </v>
   <v>      -0.02208317       0.13873599      -0.11612012 </v>
   <v>       0.04657253       0.02380634      -0.05343126 </v>
   <v>      -0.05148114      -0.08836471       0.10717597 </v>
   <v>      -0.07969842      -0.02316348       0.28882946 </v>
   <v>      -0.05252206       0.09535780      -0.13464806 </v>
   <v>       0.03152742       0.01086756       0.01953403 </v>
   <v>       0.10346611       0.08637236      -0.00525667 </v>
   <v>      -0.03729044       0.07629392      -0.06975330 </v>
   <v>       0.11170636       0.25882825       0.10728798 </v>
   <v>      -0.14164693      -0.18595491      -0.10776363 </v>
   <v>      -0.08269871      -0.17816976       0.01612366 </v>
   <v>      -0.04841157       0.07790003       0.04037728 </v>
   <v>      -0.10371889      -0.00320844       0.12591956 </v>
   <v>       0.08032614      -0.09177894      -0.02214838 </v>
   <v>       0.22526720      -0.00743300       0.17467606 </v>
   <v>       0.02236790      -0.00130785      -0.04047671 </v>
   <v>      -0.06986942      -0.01171659      -0.13893392 </v>
   <v>       0.03370123      -0.11627578      -0.01637109 </v>
   <v>       0.04521502       0.11313550       0.11132492 </v>
   <v>       0.10386396       0.01257474      -0.06834354 </v>
   <v>      -0.00533628      -0.04793368      -0.06535685 </v>
   <v>      -0.13797571      -0.02582972      -0.18034153 </v>
   <v>       0.05352659      -0.07532513       0.11085471 </v>
   <v>      -0.08609265       0.04498895      -0.24510578 </v>
   <v>      -0.07091409       0.03548732       0.06800509 </v>
   <v>       0.06960977      -0.07216375       0.13557086 </v>
   <v>      -0.02212670      -0.08183776      -0.08460334 </v>
   <v>      -0.04194174      -0.04598457      -0.03667200 </v>
   <v>       0.03177086      -0.21451188       0.05515948 </v>
   <v>       0.09278239       0.09970783       0.20596784 </v>
   <v>      -0.09741742      -0.01053317       0.08514644 </v>
   <v>       0.00884618       0.16370830      -0.01120595 </v>
   <v>       0.13831803      -0.16537649      -0.02263788 </v>
   <v>      -0.00138738      -0.00515753      -0.03571993 </v>
   <v>       0.07161533      -0.13773064       0.12188258 </v>
   <v>       0.02651175       0.05973682       0.06492662 </v>
   <v>       0.00343401      -0.10843373      -0.09266859 </v>
   <v>      -0.03390898       0.07640875      -0.01301822 </v>
   <v>      -0.20564574       0.08561114      -0.05115650 </v>
   <v>      -0.14798618       0.18860577       0.05691095 </v>
   <v>      -0.03485882       0.04653758       0.07914287 </v>
   <v>       0.11809937       0.20248172       0.25669279 </v>
   <v>      -0.01238171       0.06766326      -0.14016232 </v>
   <v>      -0.03458256       0.04476461      -0.03446335 </v>
   <v>       0.12736931       0.07404850      -0.07474628 </v>
   <v>      -0.09621900       0.01384822      -0.20290911 </v>
  </varray>
  <varray name="stress" >
   <v>      -1.14977050       0.06879458       0.15002705 </v>
   <v>       0.06879458      -1.16104350      -0.07176572 </v>
   <v>       0.15002706      -0.07176572      -1.01223787 </v>
  </varray>
  <energy>
   <i name="e_fr_energy">   -112.85087569 </i>
   <i name="e_wo_entrp">   -112.85087569 </i>
   <i name="e_0_energy">      0.00000000 </i>
  </energy>
  <time name="totalsc">  106.09  107.85</time>
 </calculation>
 <calculation>
  <scstep>
   <time name="dav">   11.71   11.72</time>
   <time name="total">   12.41   12.44</time>
   <energy>
    <i name="alphaZ">    118.42137403 </i>
    <i name="ewald"> 177128.00117501 </i>
    <i name="hartreedc">-230777.13272048 </i>
    <i name="XCdc">   -613.65473127 </i>
    <i name="pawpsdc">  58459.67140227 </i>
    <i name="pawaedc"> -56070.72728595 </i>
    <i name="eentropy">      0.00000000 </i>
    <i name="bandstr">  -4366.20985081 </i>
    <i name="atom">  56008.72602466 </i>
    <i name="e_fr_energy">   -112.90461254 </i>
    <i name="e_wo_entrp">   -112.90461254 </i>
    <i name="e_0_energy">   -112.90461254 </i>
   </energy>
  </scstep>
  <scstep>
[...]
       <r>     0.7457     0.0000   364.0000 </r>
       <r>     0.7857     0.0000   369.0000 </r>
       <r>     0.8257     0.0000   371.0000 </r>
       <r>     0.8658     0.0000   372.0000 </r>
       <r>     0.9058     0.0000   375.0000 </r>
       <r>     0.9459     0.0000   378.0000 </r>
       <r>     0.9859     0.0000   381.0000 </r>
       <r>     1.0259     0.0000   383.0000 </r>
       <r>     1.0660     0.0000   384.0000 </r>
       <r>     1.1060     0.0000   384.0000 </r>
       <r>     1.1460     0.0000   384.0000 </r>
       <r>     1.1861     0.0000   384.0000 </r>
       <r>     1.2261     0.0000   384.0000 </r>
       <r>     1.2661     0.0000   384.0000 </r>
       <r>     1.3062     0.0000   384.0000 </r>
       <r>     1.3462     0.0000   384.0000 </r>
       <r>     1.3863     0.0000   384.0000 </r>
       <r>     1.4263     0.0000   384.0000 </r>
       <r>     1.4663     0.0000   384.0000 </r>
       <r>     1.5064     0.0000   384.0000 </r>
       <r>     1.5464     0.0000   384.0000 </r>
       <r>     1.5864     0.0000   384.0000 </r>
      </set>
      <set comment="spin 2">
       <r>   -10.4244     0.0000     0.0000 </r>
       <r>   -10.3844     0.0000     0.0000 </r>
       <r>   -10.3443     0.0000     0.0000 </r>
       <r>   -10.3043     0.0000     0.0000 </r>
       <r>   -10.2643     0.0000     0.0000 </r>
       <r>   -10.2242     0.0000     0.0000 </r>
       <r>   -10.1842     0.0000     0.0000 </r>
       <r>   -10.1442     0.0000     0.0000 </r>
       <r>   -10.1041     0.0000     0.0000 </r>
       <r>   -10.0641     0.0000     0.0000 </r>
       <r>   -10.0241     0.0000     0.0000 </r>
       <r>    -9.9840     0.0000     0.0000 </r>
       <r>    -9.9440     0.0000     0.0000 </r>
       <r>    -9.9039     0.0000     0.0000 </r>
       <r>    -9.8639     0.0000     1.0000 </r>
       <r>    -9.8239     0.0000     1.0000 </r>
       <r>    -9.7838     0.0000     1.0000 </r>
       <r>    -9.7438     0.0000     1.0000 </r>
       <r>    -9.7038     0.0000     1.0000 </r>
       <r>    -9.6637     0.0000     1.0000 </r>
       <r>    -9.6237     0.0000     1.0000 </r>
       <r>    -9.5837     0.0000     1.0000 </r>
       <r>    -9.5436     0.0000     1.0000 </r>
       <r>    -9.5036     0.0000     1.0000 </r>
       <r>    -9.4635     0.0000     2.0000 </r>
       <r>    -9.4235     0.0000     3.0000 </r>
       <r>    -9.3835     0.0000     4.0000 </r>
       <r>    -9.3434     0.0000     4.0000 </r>
       <r>    -9.3034     0.0000     5.0000 </r>
       <r>    -9.2634     0.0000     5.0000 </r>
       <r>    -9.2233     0.0000     5.0000 </r>
       <r>    -9.1833     0.0000     7.0000 </r>
       <r>    -9.1433     0.0000     9.0000 </r>
       <r>    -9.1032     0.0000    10.0000 </r>
       <r>    -9.0632     0.0000    12.0000 </r>
       <r>    -9.0232     0.0000    13.0000 </r>
       <r>    -8.9831     0.0000    15.0000 </r>
       <r>    -8.9431     0.0000    17.0000 </r>
       <r>    -8.9030     0.0000    19.0000 </r>
       <r>    -8.8630     0.0000    21.0000 </r>
       <r>    -8.8230     0.0000    23.0000 </r>
       <r>    -8.7829     0.0000    25.0000 </r>
       <r>    -8.7429     0.0000    28.0000 </r>
       <r>    -8.7029     0.0000    30.0000 </r>
       <r>    -8.6628     0.0000    34.0000 </r>
       <r>    -8.6228     0.0000    36.0000 </r>
       <r>    -8.5828     0.0000    38.0000 </r>
       <r>    -8.5427    24.9774    42.0000 </r>
       <r>    -8.5027     0.0000    44.0000 </r>
       <r>    -8.4626     0.0000    46.0000 </r>
       <r>    -8.4226     0.0000    50.0000 </r>
       <r>    -8.3826    24.9774    53.0000 </r>
       <r>    -8.3425     0.0000    55.0000 </r>
       <r>    -8.3025     0.0000    60.0000 </r>
       <r>    -8.2625     0.0000    62.0000 </r>
       <r>    -8.2224     0.0000    65.0000 </r>
       <r>    -8.1824     0.0000    68.0000 </r>
       <r>    -8.1424     0.0000    72.0000 </r>
       <r>    -8.1023     0.0000    77.0000 </r>
       <r>    -8.0623     0.0000    80.0000 </r>
       <r>    -8.0222     0.0000    84.0000 </r>
       <r>    -7.9822     0.0000    86.0000 </r>
       <r>    -7.9422     0.0000    90.0000 </r>
       <r>    -7.9021     0.0000    93.0000 </r>
       <r>    -7.8621     0.0000    96.0000 </r>
       <r>    -7.8221     0.0000    99.0000 </r>
       <r>    -7.7820     0.0000   103.0000 </r>
       <r>    -7.7420     0.0000   106.0000 </r>
       <r>    -7.7020     0.0000   110.0000 </r>
       <r>    -7.6619     0.0000   112.0000 </r>
       <r>    -7.6219     0.0000   116.0000 </r>
       <r>    -7.5818     0.0000   121.0000 </r>
       <r>    -7.5418     0.0000   124.0000 </r>
       <r>    -7.5018     0.0000   127.0000 </r>
       <r>    -7.4617     0.0000   131.0000 </r>
       <r>    -7.4217     0.0000   136.0000 </r>
       <r>    -7.3817     0.0000   139.0000 </r>
       <r>    -7.3416     0.0000   143.0000 </r>
       <r>    -7.3016     0.0000   147.0000 </r>
       <r>    -7.2616     0.0000   151.0000 </r>
       <r>    -7.2215     0.0000   154.0000 </r>
       <r>    -7.1815     0.0000   158.0000 </r>
       <r>    -7.1415     0.0000   163.0000 </r>
       <r>    -7.1014     0.0000   167.0000 </r>
       <r>    -7.0614    24.9774   173.0000 </r>
       <r>    -7.0213     0.0000   177.0000 </r>
       <r>    -6.9813    24.9774   183.0000 </r>
       <r>    -6.9413     0.0000   187.0000 </r>
       <r>    -6.9012     0.0000   192.0000 </r>
       <r>    -6.8612     0.0000   199.0000 </r>
       <r>    -6.8212     0.0000   205.0000 </r>
       <r>    -6.7811     0.0000   210.0000 </r>
       <r>    -6.7411     0.0000   216.0000 </r>
       <r>    -6.7011     0.0000   222.0000 </r>
       <r>    -6.6610     0.0000   228.0000 </r>
       <r>    -6.6210    22.9151   233.9174 </r>
       <r>    -6.5809    24.9774   239.0000 </r>
       <r>    -6.5409     0.0000   243.0000 </r>
       <r>    -6.5009     0.0000   248.0000 </r>
       <r>    -6.4608     0.0000   252.0000 </r>
       <r>    -6.4208     0.0000   256.0000 </r>
       <r>    -6.3808     0.0000   259.0000 </r>
       <r>    -6.3407     0.0000   263.0000 </r>
       <r>    -6.3007     0.0000   267.0000 </r>
       <r>    -6.2607     0.0000   270.0000 </r>
       <r>    -6.2206     0.0000   272.0000 </r>
       <r>    -6.1806     0.0000   275.0000 </r>
       <r>    -6.1405     0.0000   276.0000 </r>
       <r>    -6.1005     0.0000   276.0000 </r>
       <r>    -6.0605     0.0000   278.0000 </r>
       <r>    -6.0204     0.0000   278.0000 </r>
       <r>    -5.9804     0.0000   279.0000 </r>
       <r>    -5.9404     0.0000   279.0000 </r>
       <r>    -5.9003     0.0000   279.0000 </r>
       <r>    -5.8603     0.0000   279.0000 </r>
       <r>    -5.8203     0.0000   280.0000 </r>
       <r>    -5.7802     0.0000   280.0000 </r>
       <r>    -5.7402     0.0000   280.0000 </r>
       <r>    -5.7002     0.0000   280.0000 </r>
       <r>    -5.6601     0.0000   281.0000 </r>
       <r>    -5.6201     0.0000   281.0000 </r>
       <r>    -5.5800     0.0000   281.0000 </r>
       <r>    -5.5400     0.0000   282.0000 </r>
       <r>    -5.5000    24.9774   283.0000 </r>
       <r>    -5.4599     0.0000   283.0000 </r>
       <r>    -5.4199     0.0000   283.0000 </r>
       <r>    -5.3799     0.0000   283.0000 </r>
       <r>    -5.3398     0.0000   284.0000 </r>
       <r>    -5.2998     0.0000   284.0000 </r>
       <r>    -5.2598     0.0000   284.0000 </r>
       <r>    -5.2197     0.0000   284.0000 </r>
       <r>    -5.1797     0.0000   284.0000 </r>
       <r>    -5.1396     0.0000   284.0000 </r>
       <r>    -5.0996     0.0000   284.0000 </r>
       <r>    -5.0596     0.0000   284.0000 </r>
       <r>    -5.0195     0.0000   285.0000 </r>
       <r>    -4.9795     0.0000   286.0000 </r>
       <r>    -4.9395     0.0000   286.0000 </r>
       <r>    -4.8994     0.0000   287.0000 </r>
       <r>    -4.8594     0.0000   287.0000 </r>
       <r>    -4.8194     0.0000   287.0000 </r>
       <r>    -4.7793     0.0000   287.0000 </r>
       <r>    -4.7393     0.0000   287.0000 </r>
       <r>    -4.6992     0.0000   287.0000 </r>
       <r>    -4.6592     0.0000   287.0000 </r>
       <r>    -4.6192     0.0000   288.0000 </r>
       <r>    -4.5791     0.0000   289.0000 </r>
       <r>    -4.5391     0.0000   289.0000 </r>
       <r>    -4.4991     0.0000   289.0000 </r>
       <r>    -4.4590     0.0000   289.0000 </r>
       <r>    -4.4190     0.0000   289.0000 </r>
       <r>    -4.3790     0.0000   290.0000 </r>
       <r>    -4.3389     0.0000   290.0000 </r>
       <r>    -4.2989     0.0000   292.0000 </r>
       <r>    -4.2588     0.0000   292.0000 </r>
       <r>    -4.2188     0.0000   292.0000 </r>
       <r>    -4.1788     0.0000   292.0000 </r>
       <r>    -4.1387     0.0000   292.0000 </r>
       <r>    -4.0987     0.0000   293.0000 </r>
       <r>    -4.0587     0.0000   293.0000 </r>
       <r>    -4.0186     0.0000   293.0000 </r>
       <r>    -3.9786     0.0000   293.0000 </r>
       <r>    -3.9386     0.0000   293.0000 </r>
       <r>    -3.8985     0.0000   294.0000 </r>
       <r>    -3.8585     0.0000   294.0000 </r>
       <r>    -3.8185     0.0000   295.0000 </r>
       <r>    -3.7784     0.0000   295.0000 </r>
       <r>    -3.7384     0.0000   295.0000 </r>
       <r>    -3.6983     0.0000   296.0000 </r>
       <r>    -3.6583     0.0000   296.0000 </r>
       <r>    -3.6183     0.0000   296.0000 </r>
       <r>    -3.5782     0.0000   296.0000 </r>
       <r>    -3.5382     0.0000   297.0000 </r>
       <r>    -3.4982     0.0000   297.0000 </r>
       <r>    -3.4581     0.0000   297.0000 </r>
       <r>    -3.4181     0.0000   297.0000 </r>
       <r>    -3.3781     0.0000   297.0000 </r>
       <r>    -3.3380     0.0000   298.0000 </r>
       <r>    -3.2980     0.0000   298.0000 </r>
       <r>    -3.2579     0.0000   298.0000 </r>
       <r>    -3.2179     0.0000   299.0000 </r>
       <r>    -3.1779     0.0000   300.0000 </r>
       <r>    -3.1378     0.0000   300.0000 </r>
       <r>    -3.0978     0.0000   300.0000 </r>
       <r>    -3.0578     0.0000   300.0000 </r>
       <r>    -3.0177     0.0000   301.0000 </r>
       <r>    -2.9777     0.0000   301.0000 </r>
       <r>    -2.9377     0.0000   301.0000 </r>
       <r>    -2.8976     0.0000   302.0000 </r>
       <r>    -2.8576     0.0000   302.0000 </r>
       <r>    -2.8175     0.0000   302.0000 </r>
       <r>    -2.7775     0.0000   303.0000 </r>
       <r>    -2.7375     0.0000   304.0000 </r>
       <r>    -2.6974     0.0000   306.0000 </r>
       <r>    -2.6574     0.0000   306.0000 </r>
       <r>    -2.6174     0.0000   306.0000 </r>
       <r>    -2.5773     0.0000   306.0000 </r>
       <r>    -2.5373     0.0000   306.0000 </r>
       <r>    -2.4973     0.0000   307.0000 </r>
       <r>    -2.4572     0.0000   307.0000 </r>
       <r>    -2.4172     0.0000   308.0000 </r>
       <r>    -2.3771     0.0000   308.0000 </r>
       <r>    -2.3371     0.0000   308.0000 </r>
       <r>    -2.2971     0.0000   308.0000 </r>
       <r>    -2.2570     0.0000   308.0000 </r>
       <r>    -2.2170     0.0000   310.0000 </r>
       <r>    -2.1770     0.0000   310.0000 </r>
       <r>    -2.1369     0.0000   310.0000 </r>
       <r>    -2.0969     0.0000   312.0000 </r>
       <r>    -2.0569     0.0000   312.0000 </r>
       <r>    -2.0168     0.0000   313.0000 </r>
       <r>    -1.9768     0.0000   313.0000 </r>
       <r>    -1.9368     0.0000   314.0000 </r>
       <r>    -1.8967     0.0000   314.0000 </r>
       <r>    -1.8567     0.0000   315.0000 </r>
       <r>    -1.8166     0.0000   315.0000 </r>
       <r>    -1.7766     0.0000   315.0000 </r>
       <r>    -1.7366     0.0000   315.0000 </r>
       <r>    -1.6965     0.0000   315.0000 </r>
       <r>    -1.6565     0.0000   316.0000 </r>
       <r>    -1.6165     0.0000   317.0000 </r>
       <r>    -1.5764     0.0000   318.0000 </r>
       <r>    -1.5364     0.0000   318.0000 </r>
       <r>    -1.4964     0.0000   318.0000 </r>
       <r>    -1.4563     0.0000   319.0000 </r>
       <r>    -1.4163     0.0000   319.0000 </r>
       <r>    -1.3762     0.0000   321.0000 </r>
       <r>    -1.3362     0.0000   321.0000 </r>
       <r>    -1.2962     0.0000   321.0000 </r>
       <r>    -1.2561     0.0000   323.0000 </r>
       <r>    -1.2161     0.0000   323.0000 </r>
       <r>    -1.1761     0.0000   325.0000 </r>
       <r>    -1.1360     0.0000   325.0000 </r>
       <r>    -1.0960     0.0000   326.0000 </r>
       <r>    -1.0560     0.0000   327.0000 </r>
       <r>    -1.0159    24.9774   328.0000 </r>
       <r>    -0.9759     0.0000   328.0000 </r>
       <r>    -0.9358     0.0000   329.0000 </r>
       <r>    -0.8958     0.0000   329.0000 </r>
       <r>    -0.8558     0.0000   330.0000 </r>
       <r>    -0.8157     0.0000   330.0000 </r>
       <r>    -0.7757     0.0000   332.0000 </r>
       <r>    -0.7357     0.0000   332.0000 </r>
       <r>    -0.6956     0.0000   332.0000 </r>
       <r>    -0.6556     0.0000   334.0000 </r>
       <r>    -0.6156     0.0000   334.0000 </r>
       <r>    -0.5755     0.0000   335.0000 </r>
       <r>    -0.5355     0.0000   335.0000 </r>
       <r>    -0.4954     0.0000   336.0000 </r>
       <r>    -0.4554     0.0000   336.0000 </r>
       <r>    -0.4154     0.0000   337.0000 </r>
       <r>    -0.3753     0.0000   338.0000 </r>
       <r>    -0.3353     0.0000   339.0000 </r>
       <r>    -0.2953     0.0000   339.0000 </r>
       <r>    -0.2552     0.0000   339.0000 </r>
       <r>    -0.2152     0.0000   341.0000 </r>
       <r>    -0.1752     0.0000   341.0000 </r>
       <r>    -0.1351     0.0000   342.0000 </r>
       <r>    -0.0951     0.0000   343.0000 </r>
       <r>    -0.0551     0.0000   344.0000 </r>
       <r>    -0.0150     0.0000   345.0000 </r>
       <r>     0.0250     0.0000   345.0000 </r>
       <r>     0.0651     0.0000   345.0000 </r>
       <r>     0.1051     0.0000   345.0000 </r>
       <r>     0.1451     0.0000   346.0000 </r>
       <r>     0.1852     0.0000   347.0000 </r>
       <r>     0.2252     0.0000   347.0000 </r>
       <r>     0.2652     0.0000   348.0000 </r>
       <r>     0.3053     0.0000   349.0000 </r>
       <r>     0.3453     0.0000   349.0000 </r>
       <r>     0.3853     0.0000   351.0000 </r>
       <r>     0.4254     0.0000   352.0000 </r>
       <r>     0.4654     0.0000   353.0000 </r>
       <r>     0.5055     0.0000   354.0000 </r>
       <r>     0.5455     0.0000   355.0000 </r>
       <r>     0.5855     0.0000   357.0000 </r>
       <r>     0.6256     0.0000   359.0000 </r>
       <r>     0.6656     0.0000   361.0000 </r>
       <r>     0.7056     0.0000   363.0000 </r>
       <r>     0.7457     0.0000   364.0000 </r>
       <r>     0.7857     0.0000   369.0000 </r>
       <r>     0.8257     0.0000   371.0000 </r>
       <r>     0.8658     0.0000   372.0000 </r>
       <r>     0.9058     0.0000   375.0000 </r>
       <r>     0.9459     0.0000   378.0000 </r>
       <r>     0.9859     0.0000   381.0000 </r>
       <r>     1.0259     0.0000   383.0000 </r>
       <r>     1.0660     0.0000   384.0000 </r>
       <r>     1.1060     0.0000   384.0000 </r>
       <r>     1.1460     0.0000   384.0000 </r>
       <r>     1.1861     0.0000   384.0000 </r>
       <r>     1.2261     0.0000   384.0000 </r>
       <r>     1.2661     0.0000   384.0000 </r>
       <r>     1.3062     0.0000   384.0000 </r>
       <r>     1.3462     0.0000   384.0000 </r>
       <r>     1.3863     0.0000   384.0000 </r>
       <r>     1.4263     0.0000   384.0000 </r>
       <r>     1.4663     0.0000   384.0000 </r>
       <r>     1.5064     0.0000   384.0000 </r>
       <r>     1.5464     0.0000   384.0000 </r>
       <r>     1.5864     0.0000   384.0000 </r>
      </set>
     </set>
    </array>
   </total>
  </dos>
 </calculation>
 <structure name="finalpos" >
  <crystal>
   <varray name="basis" >
    <v>      27.56494952       0.00000000       0.00000000 </v>
    <v>       0.00000000      27.56494952       0.00000000 </v>
    <v>       0.00000000       0.00000000      27.56494952 </v>
   </varray>
   <i name="volume">  20944.57752701 </i>
   <varray name="rec_basis" >
    <v>       0.03627796       0.00000000       0.00000000 </v>
    <v>       0.00000000       0.03627796       0.00000000 </v>
    <v>       0.00000000       0.00000000       0.03627796 </v>
   </varray>
  </crystal>
  <varray name="positions" >
   <v>       0.54449671       0.62706430       0.33122035 </v>
   <v>       0.58410502       0.42897336       0.47804290 </v>
   <v>       0.38713350       0.58378149       0.28967541 </v>
   <v>       0.54565605       0.58936121       0.50723965 </v>
   <v>       0.39815805       0.35850436       0.46308711 </v>
   <v>       0.62507351       0.58548804       0.57896873 </v>
   <v>       0.43292864       0.37930639       0.36844791 </v>
   <v>       0.34344902       0.50984275       0.47143657 </v>
   <v>       0.50923506       0.68435209       0.50600791 </v>
   <v>       0.35318926       0.43337095       0.40678790 </v>
   <v>       0.32654898       0.41787044       0.50518866 </v>
   <v>       0.40870040       0.55803186       0.63257204 </v>
   <v>       0.69965825       0.49239330       0.70479886 </v>
   <v>       0.54700904       0.52284417       0.30637201 </v>
   <v>       0.61013735       0.66796574       0.52113918 </v>
   <v>       0.39247591       0.63629307       0.37742557 </v>
   <v>       0.63558226       0.49683725       0.63049297 </v>
   <v>       0.37147528       0.48597394       0.56568410 </v>
   <v>       0.49195957       0.39882335       0.44830778 </v>
   <v>       0.57015566       0.50176357       0.55486392 </v>
   <v>       0.55511364       0.43694339       0.63380337 </v>
   <v>       0.43425017       0.50487606       0.71426671 </v>
   <v>       0.62708800       0.39832022       0.39068565 </v>
   <v>       0.47870227       0.32920536       0.52272118 </v>
   <v>       0.46323922       0.56442930       0.35230151 </v>
   <v>       0.45512485       0.45415374       0.79506052 </v>
   <v>       0.58339867       0.65513355       0.42624812 </v>
   <v>       0.46633277       0.53495662       0.55369724 </v>
   <v>       0.47891242       0.30319753       0.42326469 </v>
   <v>       0.40525613       0.38953951       0.56144359 </v>
   <v>       0.36197230       0.53610490       0.37631153 </v>
   <v>       0.54603465       0.46101463       0.38511541 </v>
   <v>       0.70315356       0.35118635       0.56648577 </v>
   <v>       0.48614320       0.64875527       0.41316741 </v>
   <v>       0.53346760       0.36251415       0.35964765 </v>
   <v>       0.32954530       0.60713538       0.44797518 </v>
   <v>       0.68724233       0.57616408       0.65646902 </v>
   <v>       0.49091175       0.41835747       0.71102505 </v>
   <v>       0.55009358       0.56197092       0.40653023 </v>
   <v>       0.41118712       0.66253769       0.47944656 </v>
   <v>       0.63088431       0.41658805       0.56985086 </v>
   <v>       0.48339878       0.58268063       0.25684782 </v>
   <v>       0.48254026       0.36296240       0.62135443 </v>
   <v>       0.54508986       0.64534281       0.59560234 </v>
   <v>       0.49834764       0.42904199       0.54441612 </v>
   <v>       0.43297068       0.56579337       0.45400322 </v>
   <v>       0.44292397       0.47643155       0.39875791 </v>
   <v>       0.50986585       0.49931021       0.47185786 </v>
   <v>       0.66945181       0.38037947       0.47942379 </v>
   <v>       0.44711573       0.46089527       0.62708079 </v>
   <v>       0.58478297       0.42755255       0.29967531 </v>
   <v>       0.55987832       0.35048325       0.68268187 </v>
   <v>       0.44992730       0.63538780       0.57374977 </v>
   <v>       0.37195419       0.58411809       0.53828955 </v>
  </varray>
 </structure>
</modeling>
