14
Energy = -40.74343809 eV
Te 13.88015632984348 13.093009620656273 11.14580596272269
Te 13.101958859337936 9.370301170395669 9.660744824509736
Te 15.089045600228046 11.899215947284224 8.981748356298086
Te 11.054068624995761 9.529556442876348 12.785527571556345
Te 11.92830522159748 12.025219684739545 9.452699532862624
Te 10.75267506199926 8.071039843505085 10.422584223706687
Te 9.421466220734995 11.630145109243765 10.760210400179957
Te 8.742652580671175 8.819658027732947 14.143309937680305
Te 6.507510796299187 7.487423759580925 10.778046259375982
Te 9.11148581308527 8.062855989647298 7.077784601917027
Te 8.141982999169842 12.198164314379142 8.248477515816548
Te 6.681205192735596 9.629521979536088 12.525892672114832
Te 6.645415859445086 8.356622678094796 8.16693138590607
Te 9.949468954103516 10.825459140912182 6.80989825756237
