4
Energy = -9.72888599 eV
Te 10.13119415429071 11.045034366619387 12.565546466805568
Te 15.416855980363188 11.585022115767929 11.272784808006477
Te 13.190551041196626 11.38057893513361 9.970231381211862
Te 7.944153488424792 11.906633346874756 11.487004864369279
