7
Energy = -20.05288521 eV
Te 11.607745445826694 9.273895116777878 12.304643382303007
Te 9.537418060197817 11.952082407476908 9.59780411339132
Te 10.080934541376347 10.260934615462123 7.596430354125522
Te 8.49846402123933 12.4401638313134 13.541698687433831
Te 12.833564347125215 9.624032426461975 8.156043173589186
Te 12.993293012813965 10.827342814973266 10.587743906975433
Te 8.877450440096661 10.41585407682524 11.925238303327028
