<?xml version="1.0" encoding="ISO-8859-1"?>
<modeling>
 <generator>
  <i name="program" type="string">vasp </i>
  <i name="version" type="string">5.3.5  </i>
  <i name="subversion" type="string">31Mar14 (build Feb 01 2018 12:10:03) gamma-only                       parallel </i>
  <i name="platform" type="string">LinuxIFC </i>
  <i name="date" type="string">2019 03 21 </i>
  <i name="time" type="string">20:54:35 </i>
 </generator>
 <incar>
  <i type="string" name="PREC">normal</i>
  <i type="int" name="ISPIN">     2</i>
  <i type="int" name="IBRION">     2</i>
  <i type="int" name="NSW">  1000</i>
  <i type="int" name="ISIF">     2</i>
  <i name="POTIM">      0.10000000</i>
  <i type="logical" name="LPLANE"> T  </i>
  <i type="int" name="ISMEAR">     0</i>
  <i name="SIGMA">      0.00010000</i>
  <i type="logical" name="LWAVE"> F  </i>
  <i type="logical" name="LCHARG"> F  </i>
  <i type="logical" name="LVTOT"> F  </i>
  <i type="string" name="GGA"> PE</i>
 </incar>
 <kpoints>
  <varray name="kpointlist" >
   <v>       0.00000000       0.00000000       0.00000000 </v>
  </varray>
  <varray name="weights" >
   <v>       1.00000000 </v>
  </varray>
 </kpoints>
 <parameters>
  <separator name="general" >
   <i type="string" name="SYSTEM">unknown system</i>
   <i type="logical" name="LCOMPAT"> F  </i>
  </separator>
  <separator name="electronic" >
   <i type="string" name="PREC">normal</i>
   <i name="ENMAX">    249.84400000</i>
   <i name="ENAUG">    412.49600000</i>
   <i name="EDIFF">      0.00010000</i>
   <i type="int" name="IALGO">    38</i>
   <i type="int" name="IWAVPR">    11</i>
   <i type="int" name="NBANDS">   136</i>
   <i name="NELECT">    209.00000000</i>
   <i type="int" name="TURBO">     0</i>
   <i type="int" name="IRESTART">     0</i>
   <i type="int" name="NREBOOT">     0</i>
   <i type="int" name="NMIN">     0</i>
   <i name="EREF">      0.00000000</i>
   <separator name="electronic smearing" >
    <i type="int" name="ISMEAR">     0</i>
    <i name="SIGMA">      0.00010000</i>
    <i name="KSPACING">      0.50000000</i>
    <i type="logical" name="KGAMMA"> T  </i>
   </separator>
   <separator name="electronic projectors" >
    <i type="logical" name="LREAL"> F  </i>
    <v name="ROPT">      0.00000000</v>
    <i type="int" name="LMAXPAW">  -100</i>
    <i type="int" name="LMAXMIX">     2</i>
    <i type="logical" name="NLSPLINE"> F  </i>
   </separator>
   <separator name="electronic startup" >
    <i type="int" name="ISTART">     0</i>
    <i type="int" name="ICHARG">     2</i>
    <i type="int" name="INIWAV">     1</i>
   </separator>
   <separator name="electronic spin" >
    <i type="int" name="ISPIN">     2</i>
    <i type="logical" name="LNONCOLLINEAR"> F  </i>
    <v name="MAGMOM">      1.00000000      1.00000000      1.00000000      1.00000000      1.00000000      1.00000000      1.00000000      1.00000000      1.00000000      1.00000000      1.00000000      1.00000000      1.00000000      1.00000000      1.00000000      1.00000000      1.00000000      1.00000000      1.00000000</v>
    <i name="NUPDOWN">     -1.00000000</i>
    <i type="logical" name="LSORBIT"> F  </i>
    <v name="SAXIS">      0.00000000      0.00000000      1.00000000</v>
    <i type="logical" name="LSPIRAL"> F  </i>
    <v name="QSPIRAL">      0.00000000      0.00000000      0.00000000</v>
    <i type="logical" name="LZEROZ"> F  </i>
   </separator>
   <separator name="electronic exchange-correlation" >
    <i type="logical" name="LASPH"> F  </i>
    <i type="logical" name="LMETAGGA"> F  </i>
   </separator>
   <separator name="electronic convergence" >
    <i type="int" name="NELM">    60</i>
    <i type="int" name="NELMDL">    -5</i>
    <i type="int" name="NELMIN">     2</i>
    <i name="ENINI">    249.84400000</i>
    <separator name="electronic convergence detail" >
     <i type="logical" name="LDIAG"> T  </i>
     <i type="logical" name="LSUBROT"> F  </i>
     <i name="WEIMIN">      0.00100000</i>
     <i name="EBREAK">      0.00000018</i>
     <i name="DEPER">      0.30000000</i>
     <i type="int" name="NRMM">     4</i>
     <i name="TIME">      0.40000000</i>
    </separator>
   </separator>
   <separator name="electronic mixer" >
    <i name="AMIX">      0.40000000</i>
    <i name="BMIX">      1.00000000</i>
    <i name="AMIN">      0.10000000</i>
    <i name="AMIX_MAG">      1.60000000</i>
    <i name="BMIX_MAG">      1.00000000</i>
    <separator name="electronic mixer details" >
     <i type="int" name="IMIX">     4</i>
     <i type="int" name="MAXMIX">   -45</i>
     <i name="WC">    100.00000000</i>
     <i type="int" name="INIMIX">     1</i>
     <i type="int" name="MIXPRE">     1</i>
     <i type="int" name="MREMOVE">     5</i>
    </separator>
   </separator>
   <separator name="electronic dipolcorrection" >
    <i type="logical" name="LDIPOL"> F  </i>
    <i type="logical" name="LMONO"> F  </i>
    <i type="int" name="IDIPOL">     0</i>
    <i name="EPSILON">      1.00000000</i>
    <v name="DIPOL">   -100.00000000   -100.00000000   -100.00000000</v>
    <i name="EFIELD">      0.00000000</i>
   </separator>
  </separator>
  <separator name="grids" >
   <i type="int" name="NGX">    80</i>
   <i type="int" name="NGY">    80</i>
   <i type="int" name="NGZ">    80</i>
   <i type="int" name="NGXF">   160</i>
   <i type="int" name="NGYF">   160</i>
   <i type="int" name="NGZF">   160</i>
   <i type="logical" name="ADDGRID"> F  </i>
  </separator>
  <separator name="ionic" >
   <i type="int" name="NSW">  1000</i>
   <i type="int" name="IBRION">     2</i>
   <i type="int" name="ISIF">     2</i>
   <i name="PSTRESS">      0.00000000</i>
   <i name="EDIFFG">      0.00100000</i>
   <i type="int" name="NFREE">     1</i>
   <i name="POTIM">      0.10000000</i>
   <i name="SMASS">     -3.00000000</i>
   <i name="SCALEE">      1.00000000</i>
  </separator>
  <separator name="ionic md" >
   <i name="TEBEG">      0.00010000</i>
   <i name="TEEND">      0.00010000</i>
   <i type="int" name="NBLOCK">     1</i>
   <i type="int" name="KBLOCK">  1000</i>
   <i type="int" name="NPACO">   256</i>
   <i name="APACO">     16.00000000</i>
  </separator>
  <separator name="symmetry" >
   <i type="int" name="ISYM">     2</i>
   <i name="SYMPREC">      0.00001000</i>
  </separator>
  <separator name="dos" >
   <i type="logical" name="LORBIT"> F  </i>
   <v name="RWIGS">     -1.00000000</v>
   <i type="int" name="NEDOS">   301</i>
   <i name="EMIN">     10.00000000</i>
   <i name="EMAX">    -10.00000000</i>
   <i name="EFERMI">      0.00000000</i>
  </separator>
  <separator name="writing" >
   <i type="int" name="NWRITE">     2</i>
   <i type="logical" name="LWAVE"> F  </i>
   <i type="logical" name="LCHARG"> F  </i>
   <i type="logical" name="LPARD"> F  </i>
   <i type="logical" name="LVTOT"> F  </i>
   <i type="logical" name="LVHAR"> F  </i>
   <i type="logical" name="LELF"> F  </i>
   <i type="logical" name="LOPTICS"> F  </i>
   <v name="STM">      0.00000000      0.00000000      0.00000000      0.00000000      0.00000000      0.00000000      0.00000000</v>
  </separator>
  <separator name="performance" >
   <i type="int" name="NPAR">     4</i>
   <i type="int" name="NSIM">     4</i>
   <i type="int" name="NBLK">    -1</i>
   <i type="logical" name="LPLANE"> T  </i>
   <i type="logical" name="LSCALAPACK"> T  </i>
   <i type="logical" name="LSCAAWARE"> F  </i>
   <i type="logical" name="LSCALU"> F  </i>
   <i type="logical" name="LASYNC"> F  </i>
   <i type="logical" name="LORBITALREAL"> F  </i>
  </separator>
  <separator name="miscellaneous" >
   <i type="int" name="IDIOT">     3</i>
   <i type="logical" name="LMUSIC"> F  </i>
   <v name="POMASS">    107.86800000</v>
   <v name="DARWINR">      0.00000000</v>
   <v name="DARWINV">      1.00000000</v>
   <i type="logical" name="LCORR"> T  </i>
  </separator>
  <i type="logical" name="GGA_COMPAT"> T  </i>
  <i type="logical" name="LBERRY"> F  </i>
  <i type="int" name="ICORELEVEL">     0</i>
  <i type="logical" name="LDAU"> F  </i>
  <i type="int" name="I_CONSTRAINED_M">     0</i>
  <separator name="electronic exchange-correlation" >
   <i type="string" name="GGA">PE</i>
   <i type="int" name="VOSKOWN">     0</i>
   <i type="logical" name="LHFCALC"> F  </i>
   <i type="string" name="PRECFOCK"></i>
   <i type="logical" name="LSYMGRAD"> F  </i>
   <i type="logical" name="LHFONE"> F  </i>
   <i type="logical" name="LRHFCALC"> F  </i>
   <i type="logical" name="LTHOMAS"> F  </i>
   <i type="logical" name="LMODELHF"> F  </i>
   <i name="ENCUT4O">     -1.00000000</i>
   <i type="int" name="EXXOEP">     0</i>
   <i type="int" name="FOURORBIT">     0</i>
   <i name="AEXX">      0.00000000</i>
   <i name="HFALPHA">      0.00000000</i>
   <i name="MCALPHA">      0.00000000</i>
   <i name="ALDAX">      1.00000000</i>
   <i name="AGGAX">      1.00000000</i>
   <i name="ALDAC">      1.00000000</i>
   <i name="AGGAC">      1.00000000</i>
   <i type="int" name="NKREDX">     1</i>
   <i type="int" name="NKREDY">     1</i>
   <i type="int" name="NKREDZ">     1</i>
   <i type="logical" name="SHIFTRED"> F  </i>
   <i type="logical" name="ODDONLY"> F  </i>
   <i type="logical" name="EVENONLY"> F  </i>
   <i type="int" name="LMAXFOCK">     0</i>
   <i type="int" name="NMAXFOCKAE">     0</i>
   <i type="logical" name="LFOCKAEDFT"> F  </i>
   <i name="HFSCREEN">      0.00000000</i>
   <i name="HFSCREENC">      0.00000000</i>
   <i type="int" name="NBANDSGWLOW">     0</i>
  </separator>
  <separator name="vdW DFT" >
   <i type="logical" name="LUSE_VDW"> F  </i>
   <i name="Zab_VDW">     -0.84910000</i>
   <i name="PARAM1">      0.12340000</i>
   <i name="PARAM2">      1.00000000</i>
   <i name="PARAM3">      0.00000000</i>
  </separator>
  <separator name="model GW" >
   <i type="int" name="MODEL_GW">     0</i>
   <i name="MODEL_EPS0">    273.62787745</i>
   <i name="MODEL_ALPHA">      1.00000000</i>
  </separator>
  <separator name="linear response parameters" >
   <i type="logical" name="LEPSILON"> F  </i>
   <i type="logical" name="LRPA"> F  </i>
   <i type="logical" name="LNABLA"> F  </i>
   <i type="logical" name="LVEL"> F  </i>
   <i type="int" name="KINTER">     0</i>
   <i name="CSHIFT">      0.10000000</i>
   <i name="OMEGAMAX">     -1.00000000</i>
   <i name="DEG_THRESHOLD">      0.00200000</i>
  </separator>
  <separator name="orbital magnetization" >
   <i type="logical" name="NUCIND"> F  </i>
   <v name="MAGPOS">      0.00000000      0.00000000      0.00000000</v>
   <i type="logical" name="LNICSALL"> T  </i>
   <i type="logical" name="ORBITALMAG"> F  </i>
   <i type="logical" name="LMAGBLOCH"> F  </i>
   <i type="logical" name="LCHIMAG"> F  </i>
   <i type="logical" name="LGAUGE"> T  </i>
   <i type="int" name="MAGATOM">     0</i>
   <v name="MAGDIPOL">      0.00000000      0.00000000      0.00000000</v>
   <v name="AVECCONST">      0.00000000      0.00000000      0.00000000</v>
  </separator>
  <separator name="response functions" >
   <i type="logical" name="LADDER"> F  </i>
   <i type="logical" name="LFXC"> F  </i>
   <i type="logical" name="LHARTREE"> T  </i>
   <i type="int" name="IBSE">     0</i>
   <i type="logical" name="LTCTE"> F  </i>
   <i type="logical" name="LTETE"> F  </i>
   <i type="logical" name="LTRIPLET"> F  </i>
   <i type="logical" name="LFXCEPS"> F  </i>
   <i type="logical" name="LFXHEG"> F  </i>
   <i type="logical" name="L2ORDER"> F  </i>
   <i type="logical" name="LUSEW"> F  </i>
   <i name="ENCUTGW">     -2.00000000</i>
   <i name="ENCUTGWSOFT">     -2.00000000</i>
   <i name="ENCUTLF">     -1.00000000</i>
   <i type="int" name="LMAXMP2">    -1</i>
   <i name="SCISSOR">      0.00000000</i>
   <i type="int" name="NOMEGA">     0</i>
   <i type="int" name="NOMEGAR">     0</i>
   <i type="int" name="NBANDSGW">    -1</i>
   <i type="int" name="NBANDSO">    -1</i>
   <i type="int" name="NBANDSV">    -1</i>
   <i type="int" name="NELM">     1</i>
   <i type="int" name="DIM">     3</i>
   <i type="int" name="ANTIRES">     0</i>
   <i name="OMEGAMAX">    -30.00000000</i>
   <i name="OMEGAMIN">    -30.00000000</i>
   <i name="OMEGATL">   -200.00000000</i>
   <i type="int" name="OMEGAGRID">     0</i>
   <i name="CSHIFT">     -0.10000000</i>
   <i type="logical" name="SELFENERGY"> F  </i>
   <i type="logical" name="LSPECTRAL"> F  </i>
   <i type="logical" name="ODDONLYGW"> F  </i>
   <i type="logical" name="EVENONLYGW"> F  </i>
   <i type="int" name="NKREDLFX">     1</i>
   <i type="int" name="NKREDLFY">     1</i>
   <i type="int" name="NKREDLFZ">     1</i>
   <i type="int" name="MAXMEM">  1800</i>
   <i type="int" name="TELESCOPE">     0</i>
   <i type="int" name="TAUPAR">     1</i>
  </separator>
  <separator name="External order field" >
   <i name="OFIELD_KAPPA">      0.00000000</i>
   <v name="OFIELD_K">      0.00000000      0.00000000      0.00000000</v>
   <i name="OFIELD_Q6_NEAR">      0.00000000</i>
   <i name="OFIELD_Q6_FAR">      0.00000000</i>
   <i name="OFIELD_A">      0.00000000</i>
  </separator>
 </parameters>
 <atominfo>
  <atoms>      19 </atoms>
  <types>       1 </types>
  <array name="atoms" >
   <dimension dim="1">ion</dimension>
   <field type="string">element</field>
   <field type="int">atomtype</field>
   <set>
    <rc><c>Ag</c><c>   1</c></rc>
    <rc><c>Ag</c><c>   1</c></rc>
    <rc><c>Ag</c><c>   1</c></rc>
    <rc><c>Ag</c><c>   1</c></rc>
    <rc><c>Ag</c><c>   1</c></rc>
    <rc><c>Ag</c><c>   1</c></rc>
    <rc><c>Ag</c><c>   1</c></rc>
    <rc><c>Ag</c><c>   1</c></rc>
    <rc><c>Ag</c><c>   1</c></rc>
    <rc><c>Ag</c><c>   1</c></rc>
    <rc><c>Ag</c><c>   1</c></rc>
    <rc><c>Ag</c><c>   1</c></rc>
    <rc><c>Ag</c><c>   1</c></rc>
    <rc><c>Ag</c><c>   1</c></rc>
    <rc><c>Ag</c><c>   1</c></rc>
    <rc><c>Ag</c><c>   1</c></rc>
    <rc><c>Ag</c><c>   1</c></rc>
    <rc><c>Ag</c><c>   1</c></rc>
    <rc><c>Ag</c><c>   1</c></rc>
   </set>
  </array>
  <array name="atomtypes" >
   <dimension dim="1">type</dimension>
   <field type="int">atomspertype</field>
   <field type="string">element</field>
   <field>mass</field>
   <field>valence</field>
   <field type="string">pseudopotential</field>
   <set>
    <rc><c>  19</c><c>Ag</c><c>    107.86800000</c><c>     11.00000000</c><c>  PAW_PBE Ag 02Apr2005                  </c></rc>
   </set>
  </array>
 </atominfo>
 <structure name="initialpos" >
  <crystal>
   <varray name="basis" >
    <v>      20.53939108       0.00000000       0.00000000 </v>
    <v>       0.00000000      20.53939108       0.00000000 </v>
    <v>       0.00000000       0.00000000      20.53939108 </v>
   </varray>
   <i name="volume">   8664.88278584 </i>
   <varray name="rec_basis" >
    <v>       0.04868694       0.00000000       0.00000000 </v>
    <v>       0.00000000       0.04868694       0.00000000 </v>
    <v>       0.00000000       0.00000000       0.04868694 </v>
   </varray>
  </crystal>
  <varray name="positions" >
   <v>       0.62598216       0.43497554       0.46230407 </v>
   <v>       0.49618388       0.45633120       0.48937228 </v>
   <v>       0.59289129       0.57241940       0.48117924 </v>
   <v>       0.55292033       0.50046978       0.37527340 </v>
   <v>       0.56674439       0.36263904       0.56823457 </v>
   <v>       0.43439251       0.35004687       0.55915318 </v>
   <v>       0.55140104       0.65125482       0.38115652 </v>
   <v>       0.41334431       0.47813838       0.37407870 </v>
   <v>       0.46662170       0.57845630       0.31115578 </v>
   <v>       0.37411178       0.39216935       0.45637235 </v>
   <v>       0.60863391       0.49447735       0.58022590 </v>
   <v>       0.44819411       0.58545651       0.44890211 </v>
   <v>       0.58749511       0.42266549       0.68775433 </v>
   <v>       0.37904690       0.50202217       0.53458741 </v>
   <v>       0.46879864       0.45872899       0.62810731 </v>
   <v>       0.52023399       0.69429018       0.50430973 </v>
   <v>       0.47825080       0.57910856       0.57523464 </v>
   <v>       0.58979741       0.64524987       0.60422267 </v>
   <v>       0.55538543       0.55125117       0.68792126 </v>
  </varray>
 </structure>
 <calculation>
  <scstep>
   <time name="dav">    1.65    1.66</time>
   <time name="total">    1.90    1.98</time>
   <energy>
    <i name="alphaZ">     35.43714214 </i>
    <i name="ewald">  31588.74972657 </i>
    <i name="hartreedc"> -50452.44837234 </i>
    <i name="XCdc">   -209.47059630 </i>
    <i name="pawpsdc">  19064.07138332 </i>
    <i name="pawaedc"> -18188.02756870 </i>
    <i name="eentropy">      0.00000000 </i>
    <i name="bandstr">    321.40181803 </i>
    <i name="atom">  19706.77397164 </i>
    <i name="e_fr_energy">   1866.48750435 </i>
    <i name="e_wo_entrp">   1866.48750435 </i>
    <i name="e_0_energy">   1866.48750435 </i>
   </energy>
  </scstep>
  <scstep>
   <time name="dav">    2.76    2.76</time>
   <time name="total">    2.76    2.77</time>
   <energy>
    <i name="e_fr_energy">    515.75797862 </i>
    <i name="e_wo_entrp">    515.75797862 </i>
    <i name="e_0_energy">    515.75797862 </i>
   </energy>
  </scstep>
  <scstep>
   <time name="dav">    2.21    2.21</time>
   <time name="total">    2.21    2.22</time>
   <energy>
    <i name="e_fr_energy">     -3.36068619 </i>
    <i name="e_wo_entrp">     -3.36068619 </i>
    <i name="e_0_energy">     -3.36068619 </i>
   </energy>
  </scstep>
  <scstep>
   <time name="dav">    1.82    1.83</time>
   <time name="total">    1.82    1.84</time>
   <energy>
    <i name="e_fr_energy">    -36.64231132 </i>
    <i name="e_wo_entrp">    -36.64231132 </i>
    <i name="e_0_energy">    -36.64231132 </i>
   </energy>
  </scstep>
  <scstep>
   <time name="dav">    1.91    1.91</time>
   <time name="total">    2.00    2.00</time>
   <energy>
    <i name="e_fr_energy">    -37.09616999 </i>
    <i name="e_wo_entrp">    -37.09616999 </i>
    <i name="e_0_energy">    -37.09616999 </i>
   </energy>
  </scstep>
  <scstep>
   <time name="dav">    1.72    1.71</time>
   <time name="total">    2.04    2.04</time>
   <energy>
    <i name="e_fr_energy">    -11.06431130 </i>
    <i name="e_wo_entrp">    -11.06431130 </i>
    <i name="e_0_energy">    -11.06431130 </i>
   </energy>
  </scstep>
  <scstep>
   <time name="dav">    1.79    1.79</time>
   <time name="total">    2.11    2.47</time>
   <energy>
    <i name="e_fr_energy">     -8.84894278 </i>
    <i name="e_wo_entrp">     -8.84894278 </i>
    <i name="e_0_energy">     -8.84894278 </i>
   </energy>
  </scstep>
  <scstep>
   <time name="dav">    1.80    1.81</time>
   <time name="total">    2.13    2.27</time>
   <energy>
    <i name="e_fr_energy">    -11.33342127 </i>
    <i name="e_wo_entrp">    -11.33342127 </i>
    <i name="e_0_energy">    -11.33342127 </i>
   </energy>
  </scstep>
  <scstep>
   <time name="dav">    1.83    1.83</time>
   <time name="total">    2.15    2.17</time>
   <energy>
    <i name="e_fr_energy">    -14.84125081 </i>
    <i name="e_wo_entrp">    -14.84125081 </i>
    <i name="e_0_energy">    -14.84125081 </i>
   </energy>
  </scstep>
  <scstep>
   <time name="dav">    1.93    1.93</time>
   <time name="total">    2.25    2.25</time>
   <energy>
    <i name="e_fr_energy">    -15.02736663 </i>
    <i name="e_wo_entrp">    -15.02736663 </i>
    <i name="e_0_energy">    -15.02736663 </i>
   </energy>
  </scstep>
  <scstep>
   <time name="dav">    1.75    1.76</time>
   <time name="total">    2.08    2.08</time>
   <energy>
    <i name="e_fr_energy">    -19.35805781 </i>
    <i name="e_wo_entrp">    -19.35805781 </i>
    <i name="e_0_energy">    -19.35805781 </i>
   </energy>
  </scstep>
  <scstep>
   <time name="dav">    1.76    1.76</time>
   <time name="total">    2.08    2.09</time>
   <energy>
    <i name="e_fr_energy">    -27.04634157 </i>
    <i name="e_wo_entrp">    -27.04634157 </i>
    <i name="e_0_energy">    -27.04634157 </i>
   </energy>
  </scstep>
  <scstep>
   <time name="dav">    1.80    1.79</time>
   <time name="total">    2.12    2.23</time>
   <energy>
    <i name="e_fr_energy">    -31.09435281 </i>
    <i name="e_wo_entrp">    -31.09435281 </i>
    <i name="e_0_energy">    -31.09435281 </i>
   </energy>
  </scstep>
  <scstep>
   <time name="dav">    1.83    1.83</time>
   <time name="total">    2.16    2.16</time>
   <energy>
    <i name="e_fr_energy">    -31.11665622 </i>
    <i name="e_wo_entrp">    -31.11665622 </i>
    <i name="e_0_energy">    -31.11665622 </i>
   </energy>
  </scstep>
  <scstep>
   <time name="dav">    1.78    1.78</time>
   <time name="total">    2.10    2.11</time>
   <energy>
    <i name="e_fr_energy">    -31.45502806 </i>
    <i name="e_wo_entrp">    -31.45502806 </i>
    <i name="e_0_energy">    -31.45502806 </i>
   </energy>
  </scstep>
  <scstep>
   <time name="dav">    1.72    1.72</time>
   <time name="total">    2.04    2.05</time>
   <energy>
    <i name="e_fr_energy">    -33.39394170 </i>
    <i name="e_wo_entrp">    -33.39394170 </i>
    <i name="e_0_energy">    -33.39394170 </i>
   </energy>
  </scstep>
  <scstep>
   <time name="dav">    1.76    1.76</time>
   <time name="total">    2.08    2.09</time>
   <energy>
    <i name="e_fr_energy">    -34.80829663 </i>
    <i name="e_wo_entrp">    -34.80829663 </i>
    <i name="e_0_energy">    -34.80829663 </i>
   </energy>
  </scstep>
  <scstep>
   <time name="dav">    1.81    1.82</time>
   <time name="total">    2.14    2.15</time>
   <energy>
    <i name="e_fr_energy">    -35.62088943 </i>
    <i name="e_wo_entrp">    -35.62088943 </i>
    <i name="e_0_energy">    -35.62088943 </i>
   </energy>
  </scstep>
  <scstep>
   <time name="dav">    1.78    1.78</time>
   <time name="total">    2.10    2.12</time>
   <energy>
    <i name="e_fr_energy">    -36.02596137 </i>
    <i name="e_wo_entrp">    -36.02596137 </i>
    <i name="e_0_energy">    -36.02596137 </i>
   </energy>
  </scstep>
  <scstep>
   <time name="dav">    1.78    1.78</time>
   <time name="total">    2.10    2.11</time>
   <energy>
    <i name="e_fr_energy">    -36.45976665 </i>
    <i name="e_wo_entrp">    -36.45976665 </i>
    <i name="e_0_energy">    -36.45976665 </i>
   </energy>
  </scstep>
  <scstep>
   <time name="dav">    1.87    1.87</time>
   <time name="total">    2.20    2.23</time>
   <energy>
    <i name="e_fr_energy">    -36.51953402 </i>
    <i name="e_wo_entrp">    -36.51953402 </i>
    <i name="e_0_energy">    -36.51953402 </i>
   </energy>
  </scstep>
  <scstep>
   <time name="dav">    1.61    1.61</time>
   <time name="total">    1.95    1.98</time>
   <energy>
    <i name="e_fr_energy">    -36.58541255 </i>
    <i name="e_wo_entrp">    -36.58541255 </i>
    <i name="e_0_energy">    -36.58541255 </i>
   </energy>
  </scstep>
  <scstep>
   <time name="dav">    1.61    1.61</time>
   <time name="total">    1.94    1.96</time>
   <energy>
    <i name="e_fr_energy">    -36.61755269 </i>
    <i name="e_wo_entrp">    -36.61755269 </i>
    <i name="e_0_energy">    -36.61755269 </i>
   </energy>
  </scstep>
  <scstep>
   <time name="dav">    1.40    1.40</time>
   <time name="total">    1.73    1.73</time>
   <energy>
    <i name="e_fr_energy">    -36.61808264 </i>
    <i name="e_wo_entrp">    -36.61808264 </i>
    <i name="e_0_energy">    -36.61808264 </i>
   </energy>
  </scstep>
  <scstep>
   <time name="dav">    1.45    1.45</time>
   <time name="total">    1.78    1.79</time>
   <energy>
    <i name="e_fr_energy">    -36.62156014 </i>
    <i name="e_wo_entrp">    -36.62156014 </i>
    <i name="e_0_energy">    -36.62156014 </i>
   </energy>
  </scstep>
  <scstep>
   <time name="dav">    1.39    1.39</time>
   <time name="total">    1.73    1.74</time>
   <energy>
    <i name="e_fr_energy">    -36.62269174 </i>
    <i name="e_wo_entrp">    -36.62269174 </i>
    <i name="e_0_energy">    -36.62269174 </i>
   </energy>
  </scstep>
  <scstep>
   <time name="dav">    1.40    1.40</time>
   <time name="total">    1.73    1.75</time>
   <energy>
    <i name="e_fr_energy">    -36.62326715 </i>
    <i name="e_wo_entrp">    -36.62326715 </i>
    <i name="e_0_energy">    -36.62326715 </i>
   </energy>
  </scstep>
  <scstep>
   <time name="dav">    1.36    1.36</time>
   <time name="total">    1.69    1.82</time>
   <energy>
    <i name="e_fr_energy">    -36.62420821 </i>
    <i name="e_wo_entrp">    -36.62420821 </i>
    <i name="e_0_energy">    -36.62420821 </i>
   </energy>
  </scstep>
  <scstep>
   <time name="dav">    1.36    1.36</time>
   <time name="total">    1.70    1.71</time>
   <energy>
    <i name="e_fr_energy">    -36.62437154 </i>
    <i name="e_wo_entrp">    -36.62437154 </i>
    <i name="e_0_energy">    -36.62437154 </i>
   </energy>
  </scstep>
  <scstep>
   <time name="dav">    1.32    1.32</time>
   <time name="total">    1.56    1.56</time>
   <energy>
    <i name="alphaZ">     35.43714214 </i>
    <i name="ewald">  31588.74972657 </i>
    <i name="hartreedc"> -50438.96767370 </i>
    <i name="XCdc">   -216.06140145 </i>
    <i name="pawpsdc">  20593.28084205 </i>
    <i name="pawaedc"> -19751.54148525 </i>
    <i name="eentropy">      0.00000000 </i>
    <i name="bandstr">  -1554.29552271 </i>
    <i name="atom">  19706.77397164 </i>
    <i name="e_fr_energy">    -36.62440072 </i>
    <i name="e_wo_entrp">    -36.62440072 </i>
    <i name="e_0_energy">    -36.62440072 </i>
   </energy>
  </scstep>
  <structure>
   <crystal>
    <varray name="basis" >
     <v>      20.53939108       0.00000000       0.00000000 </v>
     <v>       0.00000000      20.53939108       0.00000000 </v>
     <v>       0.00000000       0.00000000      20.53939108 </v>
    </varray>
    <i name="volume">   8664.88278584 </i>
    <varray name="rec_basis" >
     <v>       0.04868694       0.00000000       0.00000000 </v>
     <v>       0.00000000       0.04868694       0.00000000 </v>
     <v>       0.00000000       0.00000000       0.04868694 </v>
    </varray>
   </crystal>
   <varray name="positions" >
    <v>       0.62598216       0.43497554       0.46230407 </v>
    <v>       0.49618388       0.45633120       0.48937228 </v>
    <v>       0.59289129       0.57241940       0.48117924 </v>
    <v>       0.55292033       0.50046978       0.37527340 </v>
    <v>       0.56674439       0.36263904       0.56823457 </v>
    <v>       0.43439251       0.35004687       0.55915318 </v>
    <v>       0.55140104       0.65125482       0.38115652 </v>
    <v>       0.41334431       0.47813838       0.37407870 </v>
    <v>       0.46662170       0.57845630       0.31115578 </v>
    <v>       0.37411178       0.39216935       0.45637235 </v>
    <v>       0.60863391       0.49447735       0.58022590 </v>
    <v>       0.44819411       0.58545651       0.44890211 </v>
    <v>       0.58749511       0.42266549       0.68775433 </v>
    <v>       0.37904690       0.50202217       0.53458741 </v>
    <v>       0.46879864       0.45872899       0.62810731 </v>
    <v>       0.52023399       0.69429018       0.50430973 </v>
    <v>       0.47825080       0.57910856       0.57523464 </v>
    <v>       0.58979741       0.64524987       0.60422267 </v>
    <v>       0.55538543       0.55125117       0.68792126 </v>
   </varray>
  </structure>
  <varray name="forces" >
   <v>       0.01740714      -0.00982868       0.13270786 </v>
   <v>      -0.09810103      -0.41283731       0.07295644 </v>
   <v>       0.06616149       0.56214064      -0.27216421 </v>
   <v>      -0.09485320       0.30405879      -0.42194539 </v>
   <v>       0.03683715       0.09273698      -0.09548982 </v>
   <v>       0.20672094      -0.19403395       0.36026284 </v>
   <v>       0.20309936      -0.12288248      -0.02897716 </v>
   <v>       0.07822262       0.14712907      -0.18322242 </v>
   <v>      -0.17200746       0.10411370      -0.46344788 </v>
   <v>      -0.64371216      -0.27501643      -0.06199283 </v>
   <v>       0.21741379      -0.14599490       0.43353959 </v>
   <v>      -0.01932224       0.25079672      -0.47491836 </v>
   <v>       0.12324104      -0.22303433       0.35631642 </v>
   <v>      -0.22622741      -0.27228163      -0.21915758 </v>
   <v>       0.22974291      -0.19646447       0.31807699 </v>
   <v>      -0.12000177      -0.16439443      -0.07833741 </v>
   <v>       0.21915556       0.58846852       0.38705692 </v>
   <v>       0.23541266       0.02348787      -0.05418433 </v>
   <v>      -0.25918938      -0.05616368       0.29292036 </v>
  </varray>
  <varray name="stress" >
   <v>      -0.65924142       0.19860546       0.41086260 </v>
   <v>       0.19860546      -0.59435835      -0.56638105 </v>
   <v>       0.41086261      -0.56638106       0.39548631 </v>
  </varray>
  <energy>
   <i name="e_fr_energy">    -36.62440072 </i>
   <i name="e_wo_entrp">    -36.62440072 </i>
   <i name="e_0_energy">      0.00000000 </i>
  </energy>
  <time name="totalsc">   63.39   64.45</time>
 </calculation>
 <calculation>
  <scstep>
   <time name="dav">    1.79    1.79</time>
   <time name="total">    2.12    2.13</time>
   <energy>
    <i name="alphaZ">     35.43714214 </i>
    <i name="ewald">  31542.90959487 </i>
    <i name="hartreedc"> -50393.39288469 </i>
    <i name="XCdc">   -216.12774497 </i>
    <i name="pawpsdc">  20593.29037814 </i>
    <i name="pawaedc"> -19751.55170155 </i>
    <i name="eentropy">      0.00000000 </i>
    <i name="bandstr">  -1553.99813969 </i>
    <i name="atom">  19706.77397164 </i>
    <i name="e_fr_energy">    -36.65938411 </i>
    <i name="e_wo_entrp">    -36.65938411 </i>
    <i name="e_0_energy">    -36.65938411 </i>
   </energy>
  </scstep>
  <scstep>
   <time name="dav">    1.84    1.85</time>
   <time name="total">    2.17    2.17</time>
   <energy>
    <i name="e_fr_energy">    -36.66055304 </i>
    <i name="e_wo_entrp">    -36.66055304 </i>
    <i name="e_0_energy">    -36.66055304 </i>
   </energy>
  </scstep>
  <scstep>
   <time name="dav">    1.36    1.36</time>
   <time name="total">    1.60    1.64</time>
   <energy>
    <i name="alphaZ">     35.43714214 </i>
    <i name="ewald">  31542.90959487 </i>
    <i name="hartreedc"> -50393.80504037 </i>
    <i name="XCdc">   -216.11884353 </i>
    <i name="pawpsdc">  20587.41814254 </i>
    <i name="pawaedc"> -19745.58485011 </i>
    <i name="eentropy">      0.00000000 </i>
    <i name="bandstr">  -1553.69064915 </i>
    <i name="atom">  19706.77397164 </i>
    <i name="e_fr_energy">    -36.66053196 </i>
    <i name="e_wo_entrp">    -36.66053196 </i>
    <i name="e_0_energy">    -36.66053196 </i>
   </energy>
  </scstep>
  <structure>
   <crystal>
    <varray name="basis" >
     <v>      20.53939108       0.00000000       0.00000000 </v>
     <v>       0.00000000      20.53939108       0.00000000 </v>
     <v>       0.00000000       0.00000000      20.53939108 </v>
    </varray>
    <i name="volume">   8664.88278584 </i>
    <varray name="rec_basis" >
     <v>       0.04868694       0.00000000       0.00000000 </v>
     <v>       0.00000000       0.04868694       0.00000000 </v>
     <v>       0.00000000       0.00000000       0.04868694 </v>
    </varray>
   </crystal>
   <varray name="positions" >
    <v>       0.62599033       0.43497092       0.46236641 </v>
    <v>       0.49613779       0.45613727       0.48940655 </v>
    <v>       0.59292237       0.57268347       0.48105139 </v>
    <v>       0.55287577       0.50061261       0.37507519 </v>
    <v>       0.56676169       0.36268260       0.56818971 </v>
    <v>       0.43448962       0.34995572       0.55932242 </v>
    <v>       0.55149645       0.65119710       0.38114290 </v>
    <v>       0.41338105       0.47820749       0.37399263 </v>
    <v>       0.46654090       0.57850521       0.31093808 </v>
    <v>       0.37380939       0.39204016       0.45634323 </v>
    <v>       0.60873604       0.49440877       0.58042956 </v>
    <v>       0.44818504       0.58557433       0.44867901 </v>
    <v>       0.58755301       0.42256072       0.68792171 </v>
    <v>       0.37894063       0.50189427       0.53448446 </v>
    <v>       0.46890656       0.45863670       0.62825673 </v>
    <v>       0.52017762       0.69421295       0.50427294 </v>
    <v>       0.47835375       0.57938500       0.57541646 </v>
    <v>       0.58990800       0.64526090       0.60419722 </v>
    <v>       0.55526367       0.55122479       0.68805886 </v>
   </varray>
  </structure>
  <varray name="forces" >
   <v>       0.00184518       0.01343612       0.12244126 </v>
   <v>      -0.09687556      -0.38561038       0.05892565 </v>
   <v>       0.07045598       0.49025681      -0.22520028 </v>
   <v>      -0.08457221       0.28638149      -0.37539270 </v>
   <v>       0.04276271       0.09041203      -0.08513702 </v>
   <v>       0.17900344      -0.17635910       0.31941393 </v>
   <v>       0.18904389      -0.11436187      -0.04838049 </v>
   <v>       0.06684348       0.11797625      -0.15153709 </v>
   <v>      -0.16573114       0.10842274      -0.45322607 </v>
   <v>      -0.59719230      -0.25614098      -0.05308994 </v>
   <v>       0.20151688      -0.11130585       0.38315367 </v>
   <v>      -0.01462239       0.22416150      -0.41931748 </v>
   <v>       0.11826266      -0.21343634       0.34573437 </v>
   <v>      -0.17468659      -0.24316544      -0.20200083 </v>
   <v>       0.22083221      -0.16559053       0.28659376 </v>
   <v>      -0.11617385      -0.15324330      -0.07399825 </v>
   <v>       0.17140412       0.52159179       0.33766230 </v>
   <v>       0.23503425       0.01850198      -0.04362239 </v>
   <v>      -0.24715076      -0.05192694       0.27697759 </v>
  </varray>
  <varray name="stress" >
   <v>      -0.69089703       0.19337528       0.39623566 </v>
   <v>       0.19337528      -0.65369413      -0.53658507 </v>
   <v>       0.39623567      -0.53658507       0.30522998 </v>
  </varray>
  <energy>
   <i name="e_fr_energy">    -36.66053196 </i>
   <i name="e_wo_entrp">    -36.66053196 </i>
   <i name="e_0_energy">      0.00000000 </i>
  </energy>
  <time name="totalsc">    8.86    8.97</time>
 </calculation>
 <calculation>
  <scstep>
   <time name="dav">    1.73    1.73</time>
   <time name="total">    2.05    2.07</time>
   <energy>
    <i name="alphaZ">     35.43714214 </i>
    <i name="ewald">  31406.15691627 </i>
    <i name="hartreedc"> -50258.18705873 </i>
    <i name="XCdc">   -216.30856267 </i>
    <i name="pawpsdc">  20583.69692970 </i>
    <i name="pawaedc"> -19741.80831987 </i>
    <i name="eentropy">      0.00000000 </i>
    <i name="bandstr">  -1552.50341612 </i>
    <i name="atom">  19706.77397164 </i>
    <i name="e_fr_energy">    -36.74239763 </i>
    <i name="e_wo_entrp">    -36.74239763 </i>
    <i name="e_0_energy">    -36.74239763 </i>
   </energy>
  </scstep>
  <scstep>
   <time name="dav">    1.82    1.83</time>
   <time name="total">    2.15    2.15</time>
   <energy>
    <i name="e_fr_energy">    -36.75273144 </i>
    <i name="e_wo_entrp">    -36.75273144 </i>
    <i name="e_0_energy">    -36.75273144 </i>
   </energy>
  </scstep>
  <scstep>
   <time name="dav">    1.86    1.86</time>
   <time name="total">    2.19    2.23</time>
   <energy>
    <i name="e_fr_energy">    -36.75251649 </i>
    <i name="e_wo_entrp">    -36.75251649 </i>
    <i name="e_0_energy">    -36.75251649 </i>
   </energy>
  </scstep>
  <scstep>
   <time name="dav">    1.84    1.84</time>
   <time name="total">    2.17    2.19</time>
   <energy>
    <i name="e_fr_energy">    -36.75237484 </i>
    <i name="e_wo_entrp">    -36.75237484 </i>
    <i name="e_0_energy">    -36.75237484 </i>
   </energy>
  </scstep>
  <scstep>
   <time name="dav">    1.31    1.31</time>
   <time name="total">    1.55    1.57</time>
   <energy>
    <i name="alphaZ">     35.43714214 </i>
    <i name="ewald">  31406.15691627 </i>
    <i name="hartreedc"> -50259.83338091 </i>
    <i name="XCdc">   -216.27291367 </i>
    <i name="pawpsdc">  20555.62625273 </i>
    <i name="pawaedc"> -19713.28622989 </i>
    <i name="eentropy">      0.00000000 </i>
    <i name="bandstr">  -1551.35413892 </i>
    <i name="atom">  19706.77397164 </i>
    <i name="e_fr_energy">    -36.75238061 </i>
    <i name="e_wo_entrp">    -36.75238061 </i>
    <i name="e_0_energy">    -36.75238061 </i>
   </energy>
  </scstep>
  <structure>
   <crystal>
    <varray name="basis" >
     <v>      20.53939108       0.00000000       0.00000000 </v>
     <v>       0.00000000      20.53939108       0.00000000 </v>
     <v>       0.00000000       0.00000000      20.53939108 </v>
    </varray>
    <i name="volume">   8664.88278584 </i>
    <varray name="rec_basis" >
     <v>       0.04868694       0.00000000       0.00000000 </v>
     <v>       0.00000000       0.04868694       0.00000000 </v>
     <v>       0.00000000       0.00000000       0.04868694 </v>
    </varray>
   </crystal>
   <varray name="positions" >
    <v>       0.62601487       0.43495707       0.46255343 </v>
    <v>       0.49599954       0.45555547       0.48950936 </v>
    <v>       0.59301561       0.57347568       0.48066783 </v>
    <v>       0.55274210       0.50104112       0.37448055 </v>
    <v>       0.56681361       0.36281329       0.56805514 </v>
    <v>       0.43478094       0.34968227       0.55983013 </v>
    <v>       0.55178267       0.65102392       0.38110207 </v>
    <v>       0.41349129       0.47841484       0.37373442 </v>
    <v>       0.46629849       0.57865193       0.31028495 </v>
    <v>       0.37290222       0.39165259       0.45625587 </v>
    <v>       0.60904244       0.49420302       0.58104053 </v>
    <v>       0.44815781       0.58592777       0.44800972 </v>
    <v>       0.58772669       0.42224641       0.68842385 </v>
    <v>       0.37862181       0.50151055       0.53417561 </v>
    <v>       0.46923033       0.45835983       0.62870499 </v>
    <v>       0.52000850       0.69398127       0.50416254 </v>
    <v>       0.47866260       0.58021431       0.57596193 </v>
    <v>       0.59023976       0.64529401       0.60412086 </v>
    <v>       0.55489840       0.55114564       0.68847166 </v>
   </varray>
  </structure>
  <varray name="forces" >
   <v>      -0.03793893       0.07525527       0.10440334 </v>
   <v>      -0.10097654      -0.33430362       0.02331764 </v>
   <v>       0.08913061       0.32912541      -0.11310914 </v>
   <v>      -0.06256557       0.25685750      -0.27506816 </v>
   <v>       0.06176063       0.08994694      -0.06292682 </v>
   <v>       0.11666979      -0.14163673       0.23200123 </v>
   <v>       0.16300322      -0.09736301      -0.10830284 </v>
   <v>       0.03959478       0.04793448      -0.07707876 </v>
   <v>      -0.15871856       0.12786007      -0.45285256 </v>
   <v>      -0.50834221      -0.22064002      -0.03833428 </v>
   <v>       0.17289976      -0.02954214       0.28214268 </v>
   <v>      -0.00334601       0.16893968      -0.29805557 </v>
   <v>       0.11168279      -0.20020928       0.33813343 </v>
   <v>      -0.05309226      -0.18454595      -0.17233539 </v>
   <v>       0.21244953      -0.09655523       0.22544708 </v>
   <v>      -0.11542604      -0.13346124      -0.06774099 </v>
   <v>       0.05569079       0.38044810       0.22740656 </v>
   <v>       0.25241838       0.00669424      -0.01856916 </v>
   <v>      -0.23489415      -0.04480446       0.25152173 </v>
  </varray>
  <varray name="stress" >
   <v>      -0.77308463       0.17879385       0.36422225 </v>
   <v>       0.17879385      -0.80783365      -0.46611051 </v>
   <v>       0.36422225      -0.46611051       0.07387726 </v>
  </varray>
  <energy>
   <i name="e_fr_energy">    -36.75238061 </i>
   <i name="e_wo_entrp">    -36.75238061 </i>
   <i name="e_0_energy">      0.00000000 </i>
  </energy>
  <time name="totalsc">   13.09   13.23</time>
 </calculation>
 <calculation>
  <scstep>
   <time name="dav">    1.74    1.74</time>
   <time name="total">    2.06    2.07</time>
   <energy>
    <i name="alphaZ">     35.43714214 </i>
    <i name="ewald">  31136.03928758 </i>
    <i name="hartreedc"> -49991.42113979 </i>
    <i name="XCdc">   -216.63026447 </i>
    <i name="pawpsdc">  20555.77720953 </i>
    <i name="pawaedc"> -19713.43992938 </i>
    <i name="eentropy">      0.00000000 </i>
    <i name="bandstr">  -1549.36461474 </i>
    <i name="atom">  19706.77397164 </i>
    <i name="e_fr_energy">    -36.82833749 </i>
    <i name="e_wo_entrp">    -36.82833749 </i>
    <i name="e_0_energy">    -36.82833749 </i>
   </energy>
  </scstep>
  <scstep>
   <time name="dav">    1.83    1.83</time>
   <time name="total">    2.15    2.16</time>
   <energy>
    <i name="e_fr_energy">    -36.87002902 </i>
    <i name="e_wo_entrp">    -36.87002902 </i>
    <i name="e_0_energy">    -36.87002902 </i>
   </energy>
  </scstep>
  <scstep>
   <time name="dav">    1.89    1.89</time>
   <time name="total">    2.21    2.32</time>
   <energy>
    <i name="e_fr_energy">    -36.86939037 </i>
    <i name="e_wo_entrp">    -36.86939037 </i>
    <i name="e_0_energy">    -36.86939037 </i>
   </energy>
  </scstep>
  <scstep>
   <time name="dav">    1.79    1.79</time>
   <time name="total">    2.12    2.44</time>
   <energy>
    <i name="e_fr_energy">    -36.86867320 </i>
    <i name="e_wo_entrp">    -36.86867320 </i>
    <i name="e_0_energy">    -36.86867320 </i>
   </energy>
  </scstep>
  <scstep>
   <time name="dav">    1.35    1.35</time>
   <time name="total">    1.59    1.59</time>
   <energy>
    <i name="alphaZ">     35.43714214 </i>
    <i name="ewald">  31136.03928758 </i>
    <i name="hartreedc"> -49994.61414585 </i>
    <i name="XCdc">   -216.56268035 </i>
    <i name="pawpsdc">  20506.87742813 </i>
    <i name="pawaedc"> -19663.72400573 </i>
    <i name="eentropy">      0.00000000 </i>
    <i name="bandstr">  -1547.09570571 </i>
    <i name="atom">  19706.77397164 </i>
    <i name="e_fr_energy">    -36.86870815 </i>
    <i name="e_wo_entrp">    -36.86870815 </i>
    <i name="e_0_energy">    -36.86870815 </i>
   </energy>
  </scstep>
  <structure>
   <crystal>
    <varray name="basis" >
     <v>      20.53939108       0.00000000       0.00000000 </v>
     <v>       0.00000000      20.53939108       0.00000000 </v>
     <v>       0.00000000       0.00000000      20.53939108 </v>
    </varray>
    <i name="volume">   8664.88278584 </i>
    <varray name="rec_basis" >
     <v>       0.04868694       0.00000000       0.00000000 </v>
     <v>       0.00000000       0.04868694       0.00000000 </v>
     <v>       0.00000000       0.00000000       0.04868694 </v>
    </varray>
   </crystal>
   <varray name="positions" >
    <v>       0.62606393       0.43492937       0.46292747 </v>
    <v>       0.49572304       0.45439187       0.48971500 </v>
    <v>       0.59320209       0.57506010       0.47990072 </v>
    <v>       0.55247475       0.50189812       0.37329128 </v>
    <v>       0.56691743       0.36307468       0.56778600 </v>
    <v>       0.43536359       0.34913538       0.56084554 </v>
    <v>       0.55235512       0.65067757       0.38102039 </v>
    <v>       0.41371177       0.47882953       0.37321800 </v>
    <v>       0.46581368       0.57894538       0.30897870 </v>
    <v>       0.37108789       0.39087744       0.45608114 </v>
    <v>       0.60965523       0.49379153       0.58226248 </v>
    <v>       0.44810335       0.58663465       0.44667114 </v>
    <v>       0.58807405       0.42161777       0.68942815 </v>
    <v>       0.37798418       0.50074311       0.53355790 </v>
    <v>       0.46987787       0.45780609       0.62960150 </v>
    <v>       0.51967027       0.69351792       0.50394174 </v>
    <v>       0.47928030       0.58187293       0.57705287 </v>
    <v>       0.59090328       0.64536021       0.60396813 </v>
    <v>       0.55416787       0.55098734       0.68929727 </v>
   </varray>
  </structure>
  <varray name="forces" >
   <v>      -0.11032990       0.18930755       0.06499980 </v>
   <v>      -0.11109371      -0.21799671      -0.04783405 </v>
   <v>       0.12621644       0.01258820       0.10424409 </v>
   <v>      -0.01485188       0.18540627      -0.08082242 </v>
   <v>       0.09972361       0.08075478      -0.01477035 </v>
   <v>      -0.00693610      -0.07748104       0.06382435 </v>
   <v>       0.10332461      -0.04831456      -0.24043667 </v>
   <v>      -0.01499660      -0.08682643       0.06321903 </v>
   <v>      -0.13772857       0.15988899      -0.42418215 </v>
   <v>      -0.31919380      -0.13503221      -0.01606955 </v>
   <v>       0.11434468       0.10652907       0.10982320 </v>
   <v>       0.01231159       0.06364277      -0.06974530 </v>
   <v>       0.09488700      -0.16765691       0.30571548 </v>
   <v>       0.16478942      -0.07959520      -0.11825796 </v>
   <v>       0.18246254       0.02614657       0.10637934 </v>
   <v>      -0.10873329      -0.08854284      -0.05612660 </v>
   <v>      -0.15783851       0.12459262       0.02446066 </v>
   <v>       0.27745485      -0.01448389       0.02923369 </v>
   <v>      -0.19381238      -0.03292703       0.19634540 </v>
  </varray>
  <varray name="stress" >
   <v>      -0.91538742       0.15324850       0.30659394 </v>
   <v>       0.15324850      -1.08486011      -0.34459590 </v>
   <v>       0.30659394      -0.34459590      -0.34809740 </v>
  </varray>
  <energy>
   <i name="e_fr_energy">    -36.86870815 </i>
   <i name="e_wo_entrp">    -36.86870815 </i>
   <i name="e_0_energy">      0.00000000 </i>
  </energy>
  <time name="totalsc">   13.12   13.61</time>
 </calculation>
 <calculation>
  <scstep>
   <time name="dav">    1.74    1.74</time>
   <time name="total">    2.06    2.07</time>
   <energy>
    <i name="alphaZ">     35.43714214 </i>
    <i name="ewald">  30608.79923683 </i>
    <i name="hartreedc"> -49469.99768319 </i>
    <i name="XCdc">   -217.17797307 </i>
    <i name="pawpsdc">  20507.10855650 </i>
    <i name="pawaedc"> -19663.95775320 </i>
    <i name="eentropy">      0.00000000 </i>
    <i name="bandstr">  -1543.69285532 </i>
    <i name="atom">  19706.77397164 </i>
    <i name="e_fr_energy">    -36.70735767 </i>
    <i name="e_wo_entrp">    -36.70735767 </i>
    <i name="e_0_energy">    -36.70735767 </i>
   </energy>
  </scstep>
  <scstep>
   <time name="dav">    1.81    1.81</time>
   <time name="total">    2.14    2.14</time>
   <energy>
    <i name="e_fr_energy">    -36.87895091 </i>
    <i name="e_wo_entrp">    -36.87895091 </i>
    <i name="e_0_energy">    -36.87895091 </i>
   </energy>
  </scstep>
  <scstep>
   <time name="dav">    1.87    1.87</time>
   <time name="total">    2.19    2.22</time>
   <energy>
    <i name="e_fr_energy">    -36.87793640 </i>
    <i name="e_wo_entrp">    -36.87793640 </i>
    <i name="e_0_energy">    -36.87793640 </i>
   </energy>
  </scstep>
  <scstep>
   <time name="dav">    1.81    1.81</time>
   <time name="total">    2.14    2.16</time>
   <energy>
    <i name="e_fr_energy">    -36.87445927 </i>
    <i name="e_wo_entrp">    -36.87445927 </i>
    <i name="e_0_energy">    -36.87445927 </i>
   </energy>
  </scstep>
  <scstep>
   <time name="dav">    1.85    1.85</time>
   <time name="total">    2.18    2.19</time>
   <energy>
    <i name="e_fr_energy">    -36.87469291 </i>
    <i name="e_wo_entrp">    -36.87469291 </i>
    <i name="e_0_energy">    -36.87469291 </i>
   </energy>
  </scstep>
  <scstep>
   <time name="dav">    1.40    1.41</time>
   <time name="total">    1.64    1.66</time>
   <energy>
    <i name="alphaZ">     35.43714214 </i>
    <i name="ewald">  30608.79923683 </i>
    <i name="hartreedc"> -49475.37757763 </i>
    <i name="XCdc">   -217.05515257 </i>
    <i name="pawpsdc">  20433.25877287 </i>
    <i name="pawaedc"> -19588.77237677 </i>
    <i name="eentropy">      0.00000000 </i>
    <i name="bandstr">  -1539.93868461 </i>
    <i name="atom">  19706.77397164 </i>
    <i name="e_fr_energy">    -36.87466810 </i>
    <i name="e_wo_entrp">    -36.87466810 </i>
    <i name="e_0_energy">    -36.87466810 </i>
   </energy>
  </scstep>
  <structure>
   <crystal>
    <varray name="basis" >
     <v>      20.53939108       0.00000000       0.00000000 </v>
     <v>       0.00000000      20.53939108       0.00000000 </v>
     <v>       0.00000000       0.00000000      20.53939108 </v>
    </varray>
    <i name="volume">   8664.88278584 </i>
    <varray name="rec_basis" >
     <v>       0.04868694       0.00000000       0.00000000 </v>
     <v>       0.00000000       0.04868694       0.00000000 </v>
     <v>       0.00000000       0.00000000       0.04868694 </v>
    </varray>
   </crystal>
   <varray name="positions" >
    <v>       0.62616205       0.43487396       0.46367556 </v>
    <v>       0.49517004       0.45206467       0.49012626 </v>
    <v>       0.59357505       0.57822893       0.47836651 </v>
    <v>       0.55194005       0.50361213       0.37091274 </v>
    <v>       0.56712509       0.36359744       0.56724771 </v>
    <v>       0.43652890       0.34804159       0.56287638 </v>
    <v>       0.55350001       0.64998487       0.38085705 </v>
    <v>       0.41415271       0.47965891       0.37218516 </v>
    <v>       0.46484406       0.57953228       0.30636621 </v>
    <v>       0.36745923       0.38932715       0.45573168 </v>
    <v>       0.61088081       0.49296854       0.58470639 </v>
    <v>       0.44799442       0.58804841       0.44399399 </v>
    <v>       0.58876877       0.42036051       0.69143674 </v>
    <v>       0.37670892       0.49920823       0.53232249 </v>
    <v>       0.47117296       0.45669860       0.63139453 </v>
    <v>       0.51899381       0.69259122       0.50350014 </v>
    <v>       0.48051570       0.58519018       0.57923474 </v>
    <v>       0.59223032       0.64549261       0.60366269 </v>
    <v>       0.55270679       0.55067074       0.69094849 </v>
   </varray>
  </structure>
  <varray name="forces" >
   <v>      -0.22050245       0.38602496       0.00280908 </v>
   <v>      -0.15200202       0.01394515      -0.17648147 </v>
   <v>       0.23256209      -0.53976514       0.49811568 </v>
   <v>       0.07225095       0.04740468       0.25156982 </v>
   <v>       0.18134384       0.05241444       0.08982134 </v>
   <v>      -0.21972920       0.01671609      -0.18306380 </v>
   <v>      -0.02218463       0.10094006      -0.54772766 </v>
   <v>      -0.10900704      -0.30388886       0.29814050 </v>
   <v>      -0.09319393       0.21658213      -0.38373128 </v>
   <v>      -0.07221766       0.02596031       0.02181944 </v>
   <v>       0.01553100       0.28849435      -0.16853527 </v>
   <v>       0.02908485      -0.09579011       0.25456279 </v>
   <v>       0.06613189      -0.10578997       0.23862246 </v>
   <v>       0.48277556       0.07662326      -0.05333682 </v>
   <v>       0.12430286       0.20416668      -0.05702275 </v>
   <v>      -0.10647115       0.02812745      -0.03462233 </v>
   <v>      -0.48557722      -0.35663627      -0.25582345 </v>
   <v>       0.35861324      -0.03629985       0.11644006 </v>
   <v>      -0.08171099      -0.01922936       0.08844367 </v>
  </varray>
  <varray name="stress" >
   <v>      -1.07748480       0.10884878       0.22946320 </v>
   <v>       0.10884879      -1.47764362      -0.19030965 </v>
   <v>       0.22946320      -0.19030965      -0.95908182 </v>
  </varray>
  <energy>
   <i name="e_fr_energy">    -36.87466810 </i>
   <i name="e_wo_entrp">    -36.87466810 </i>
   <i name="e_0_energy">      0.00000000 </i>
  </energy>
  <time name="totalsc">   15.34   15.45</time>
 </calculation>
 <calculation>
  <scstep>
   <time name="dav">    1.74    1.74</time>
   <time name="total">    2.06    2.08</time>
   <energy>
    <i name="alphaZ">     35.43714214 </i>
    <i name="ewald">  30842.66498101 </i>
    <i name="hartreedc"> -49708.50995683 </i>
    <i name="XCdc">   -216.78401544 </i>
    <i name="pawpsdc">  20433.45512405 </i>
    <i name="pawaedc"> -19588.96420534 </i>
    <i name="eentropy">     -0.00000000 </i>
    <i name="bandstr">  -1540.94494754 </i>
    <i name="atom">  19706.77397164 </i>
    <i name="e_fr_energy">    -36.87190629 </i>
    <i name="e_wo_entrp">    -36.87190629 </i>
    <i name="e_0_energy">    -36.87190629 </i>
   </energy>
  </scstep>
  <scstep>
   <time name="dav">    1.85    1.85</time>
   <time name="total">    2.18    2.18</time>
   <energy>
    <i name="e_fr_energy">    -36.90628000 </i>
    <i name="e_wo_entrp">    -36.90628000 </i>
    <i name="e_0_energy">    -36.90628000 </i>
   </energy>
  </scstep>
  <scstep>
   <time name="dav">    1.79    1.79</time>
   <time name="total">    2.11    3.99</time>
   <energy>
    <i name="e_fr_energy">    -36.90588327 </i>
    <i name="e_wo_entrp">    -36.90588327 </i>
    <i name="e_0_energy">    -36.90588327 </i>
   </energy>
  </scstep>
  <scstep>
   <time name="dav">    1.84    1.84</time>
   <time name="total">    2.16    2.17</time>
   <energy>
    <i name="e_fr_energy">    -36.90555205 </i>
    <i name="e_wo_entrp">    -36.90555205 </i>
    <i name="e_0_energy">    -36.90555205 </i>
   </energy>
  </scstep>
  <scstep>
   <time name="dav">    1.38    1.39</time>
   <time name="total">    1.62    1.64</time>
   <energy>
    <i name="alphaZ">     35.43714214 </i>
    <i name="ewald">  30842.66498101 </i>
    <i name="hartreedc"> -49706.25760557 </i>
    <i name="XCdc">   -216.84510696 </i>
    <i name="pawpsdc">  20463.17344951 </i>
    <i name="pawaedc"> -19619.23507762 </i>
    <i name="eentropy">      0.00000000 </i>
    <i name="bandstr">  -1542.61737420 </i>
    <i name="atom">  19706.77397164 </i>
    <i name="e_fr_energy">    -36.90562005 </i>
    <i name="e_wo_entrp">    -36.90562005 </i>
    <i name="e_0_energy">    -36.90562005 </i>
   </energy>
  </scstep>
  <structure>
   <crystal>
    <varray name="basis" >
     <v>      20.53939108       0.00000000       0.00000000 </v>
     <v>       0.00000000      20.53939108       0.00000000 </v>
     <v>       0.00000000       0.00000000      20.53939108 </v>
    </varray>
    <i name="volume">   8664.88278584 </i>
    <varray name="rec_basis" >
     <v>       0.04868694       0.00000000       0.00000000 </v>
     <v>       0.00000000       0.04868694       0.00000000 </v>
     <v>       0.00000000       0.00000000       0.04868694 </v>
    </varray>
   </crystal>
   <varray name="positions" >
    <v>       0.62611814       0.43489876       0.46334077 </v>
    <v>       0.49541752       0.45310615       0.48994221 </v>
    <v>       0.59340814       0.57681080       0.47905311 </v>
    <v>       0.55217934       0.50284506       0.37197720 </v>
    <v>       0.56703216       0.36336349       0.56748861 </v>
    <v>       0.43600740       0.34853109       0.56196753 </v>
    <v>       0.55298764       0.65029487       0.38093015 </v>
    <v>       0.41395538       0.47928774       0.37264738 </v>
    <v>       0.46527799       0.57926963       0.30753536 </v>
    <v>       0.36908315       0.39002094       0.45588807 </v>
    <v>       0.61033233       0.49333685       0.58361268 </v>
    <v>       0.44804317       0.58741572       0.44519208 </v>
    <v>       0.58845786       0.42092317       0.69053784 </v>
    <v>       0.37727963       0.49989513       0.53287537 </v>
    <v>       0.47059337       0.45719423       0.63059211 </v>
    <v>       0.51929655       0.69300594       0.50369777 </v>
    <v>       0.47996282       0.58370563       0.57825830 </v>
    <v>       0.59163644       0.64543336       0.60379939 </v>
    <v>       0.55336066       0.55081243       0.69020953 </v>
   </varray>
  </structure>
  <varray name="forces" >
   <v>      -0.17776019       0.30402355       0.02648883 </v>
   <v>      -0.13055237      -0.08288807      -0.12157678 </v>
   <v>       0.17622893      -0.30579976       0.32535517 </v>
   <v>       0.03411407       0.10416487       0.11856772 </v>
   <v>       0.14454400       0.06590345       0.04246976 </v>
   <v>      -0.13070849      -0.01738182      -0.08892047 </v>
   <v>       0.03285058       0.02656021      -0.40275693 </v>
   <v>      -0.06830847      -0.21726490       0.20295517 </v>
   <v>      -0.11135229       0.19171494      -0.39446308 </v>
   <v>      -0.15988579      -0.04314392       0.00670339 </v>
   <v>       0.05198756       0.21920771      -0.06043174 </v>
   <v>       0.02672908      -0.03500558       0.13505880 </v>
   <v>       0.07847428      -0.12984190       0.26539512 </v>
   <v>       0.36165310       0.01540193      -0.07424870 </v>
   <v>       0.15083394       0.13639992       0.00565590 </v>
   <v>      -0.10419531      -0.02673133      -0.04377754 </v>
   <v>      -0.35627052      -0.15096585      -0.15468284 </v>
   <v>       0.31319973      -0.03070276       0.07970779 </v>
   <v>      -0.13158184      -0.02365071       0.13250043 </v>
  </varray>
  <varray name="stress" >
   <v>      -0.99977209       0.12661333       0.25295396 </v>
   <v>       0.12661332      -1.31973549      -0.24134189 </v>
   <v>       0.25295396      -0.24134188      -0.71502649 </v>
  </varray>
  <energy>
   <i name="e_fr_energy">    -36.90562005 </i>
   <i name="e_wo_entrp">    -36.90562005 </i>
   <i name="e_0_energy">      0.00000000 </i>
  </energy>
  <time name="totalsc">   13.13   15.08</time>
 </calculation>
 <calculation>
  <scstep>
   <time name="dav">    1.73    1.73</time>
   <time name="total">    2.06    2.07</time>
   <energy>
    <i name="alphaZ">     35.43714214 </i>
    <i name="ewald">  30735.78742815 </i>
    <i name="hartreedc"> -49600.27300842 </i>
    <i name="XCdc">   -217.01399077 </i>
    <i name="pawpsdc">  20462.88143532 </i>
    <i name="pawaedc"> -19618.94108617 </i>
    <i name="eentropy">      0.00000000 </i>
    <i name="bandstr">  -1541.60231316 </i>
    <i name="atom">  19706.77397164 </i>
    <i name="e_fr_energy">    -36.95042127 </i>
    <i name="e_wo_entrp">    -36.95042127 </i>
    <i name="e_0_energy">    -36.95042127 </i>
   </energy>
  </scstep>
  <scstep>
   <time name="dav">    1.81    1.81</time>
   <time name="total">    2.13    2.38</time>
   <energy>
    <i name="e_fr_energy">    -36.96267694 </i>
    <i name="e_wo_entrp">    -36.96267694 </i>
    <i name="e_0_energy">    -36.96267694 </i>
   </energy>
  </scstep>
  <scstep>
   <time name="dav">    1.91    1.91</time>
   <time name="total">    2.24    2.24</time>
   <energy>
    <i name="e_fr_energy">    -36.96265080 </i>
    <i name="e_wo_entrp">    -36.96265080 </i>
    <i name="e_0_energy">    -36.96265080 </i>
   </energy>
  </scstep>
  <scstep>
   <time name="dav">    1.85    1.85</time>
   <time name="total">    2.17    2.19</time>
   <energy>
    <i name="e_fr_energy">    -36.96231678 </i>
    <i name="e_wo_entrp">    -36.96231678 </i>
    <i name="e_0_energy">    -36.96231678 </i>
   </energy>
  </scstep>
  <scstep>
   <time name="dav">    1.38    1.39</time>
   <time name="total">    1.62    1.65</time>
   <energy>
    <i name="alphaZ">     35.43714214 </i>
    <i name="ewald">  30735.78742815 </i>
    <i name="hartreedc"> -49601.72294095 </i>
    <i name="XCdc">   -216.98042911 </i>
    <i name="pawpsdc">  20438.90215050 </i>
    <i name="pawaedc"> -19594.57850018 </i>
    <i name="eentropy">      0.00000000 </i>
    <i name="bandstr">  -1540.58114219 </i>
    <i name="atom">  19706.77397164 </i>
    <i name="e_fr_energy">    -36.96232000 </i>
    <i name="e_wo_entrp">    -36.96232000 </i>
    <i name="e_0_energy">    -36.96232000 </i>
   </energy>
  </scstep>
  <structure>
   <crystal>
    <varray name="basis" >
     <v>      20.53939108       0.00000000       0.00000000 </v>
     <v>       0.00000000      20.53939108       0.00000000 </v>
     <v>       0.00000000       0.00000000      20.53939108 </v>
    </varray>
    <i name="volume">   8664.88278584 </i>
    <varray name="rec_basis" >
     <v>       0.04868694       0.00000000       0.00000000 </v>
     <v>       0.00000000       0.04868694       0.00000000 </v>
     <v>       0.00000000       0.00000000       0.04868694 </v>
    </varray>
   </crystal>
   <varray name="positions" >
    <v>       0.62578883       0.43547942       0.46350816 </v>
    <v>       0.49507870       0.45258447       0.48977037 </v>
    <v>       0.59380757       0.57670969       0.47944571 </v>
    <v>       0.55216252       0.50331285       0.37183802 </v>
    <v>       0.56734452       0.36357232       0.56748742 </v>
    <v>       0.43593483       0.34832772       0.56211023 </v>
    <v>       0.55322892       0.65023889       0.38012419 </v>
    <v>       0.41389139       0.47899530       0.37288052 </v>
    <v>       0.46491175       0.57973225       0.30636554 </v>
    <v>       0.36821034       0.38969682       0.45584685 </v>
    <v>       0.61062322       0.49363404       0.58387467 </v>
    <v>       0.44807808       0.58756719       0.44503854 </v>
    <v>       0.58871773       0.42047647       0.69136382 </v>
    <v>       0.37778275       0.49968687       0.53253981 </v>
    <v>       0.47108663       0.45728679       0.63088122 </v>
    <v>       0.51898966       0.69281037       0.50354441 </v>
    <v>       0.47946395       0.58392764       0.57829697 </v>
    <v>       0.59244935       0.64539439       0.60390649 </v>
    <v>       0.55287897       0.55071747       0.69072250 </v>
   </varray>
  </structure>
  <varray name="forces" >
   <v>      -0.15728133       0.29357615       0.01679514 </v>
   <v>      -0.10558019      -0.08349773      -0.12879596 </v>
   <v>       0.14386167      -0.23492421       0.24241260 </v>
   <v>      -0.00883801       0.12676074       0.11886549 </v>
   <v>       0.12060955       0.07572281       0.06459644 </v>
   <v>      -0.11123864       0.01943731      -0.09883367 </v>
   <v>       0.02515930      -0.03346778      -0.31881087 </v>
   <v>      -0.02360969      -0.13961383       0.16670323 </v>
   <v>      -0.10695017       0.10929483      -0.30686286 </v>
   <v>      -0.16616628      -0.04078454       0.03041132 </v>
   <v>       0.02693587       0.18955385       0.02453359 </v>
   <v>       0.05153682      -0.04746540       0.09899648 </v>
   <v>       0.06847768      -0.07642209       0.19146293 </v>
   <v>       0.31582336       0.01822489      -0.05661500 </v>
   <v>       0.14817619       0.11126819      -0.01689946 </v>
   <v>      -0.07046573      -0.06048359      -0.04067922 </v>
   <v>      -0.27192623      -0.12815438      -0.12605170 </v>
   <v>       0.22774392      -0.08150159       0.05530763 </v>
   <v>      -0.10626808      -0.01752363       0.08346389 </v>
  </varray>
  <varray name="stress" >
   <v>      -1.10451023       0.10538413       0.22472501 </v>
   <v>       0.10538413      -1.45479055      -0.18944527 </v>
   <v>       0.22472501      -0.18944527      -0.89014174 </v>
  </varray>
  <energy>
   <i name="e_fr_energy">    -36.96232000 </i>
   <i name="e_wo_entrp">    -36.96232000 </i>
   <i name="e_0_energy">      0.00000000 </i>
  </energy>
  <time name="totalsc">   13.20   13.60</time>
 </calculation>
 <calculation>
  <scstep>
   <time name="dav">    1.74    1.74</time>
   <time name="total">    2.06    2.07</time>
   <energy>
    <i name="alphaZ">     35.43714214 </i>
    <i name="ewald">  30417.38912758 </i>
    <i name="hartreedc"> -49285.57403156 </i>
    <i name="XCdc">   -217.45422357 </i>
    <i name="pawpsdc">  20438.74707873 </i>
    <i name="pawaedc"> -19594.41836785 </i>
    <i name="eentropy">      0.00000000 </i>
    <i name="bandstr">  -1537.85027520 </i>
    <i name="atom">  19706.77397164 </i>
    <i name="e_fr_energy">    -36.94957809 </i>
    <i name="e_wo_entrp">    -36.94957809 </i>
    <i name="e_0_energy">    -36.94957809 </i>
   </energy>
  </scstep>
  <scstep>
   <time name="dav">    1.83    1.83</time>
   <time name="total">    2.15    4.49</time>
   <energy>
    <i name="e_fr_energy">    -37.05955726 </i>
    <i name="e_wo_entrp">    -37.05955726 </i>
    <i name="e_0_energy">    -37.05955726 </i>
   </energy>
  </scstep>
  <scstep>
   <time name="dav">    1.90    1.90</time>
   <time name="total">    2.23    2.29</time>
   <energy>
    <i name="e_fr_energy">    -37.05976861 </i>
    <i name="e_wo_entrp">    -37.05976861 </i>
    <i name="e_0_energy">    -37.05976861 </i>
   </energy>
  </scstep>
  <scstep>
   <time name="dav">    1.81    1.81</time>
   <time name="total">    2.14    2.15</time>
   <energy>
    <i name="e_fr_energy">    -37.05692648 </i>
    <i name="e_wo_entrp">    -37.05692648 </i>
    <i name="e_0_energy">    -37.05692648 </i>
   </energy>
  </scstep>
  <scstep>
   <time name="dav">    1.83    1.83</time>
   <time name="total">    2.15    3.16</time>
   <energy>
    <i name="e_fr_energy">    -37.05676544 </i>
    <i name="e_wo_entrp">    -37.05676544 </i>
    <i name="e_0_energy">    -37.05676544 </i>
   </energy>
  </scstep>
  <scstep>
   <time name="dav">    1.37    1.37</time>
   <time name="total">    1.61    1.61</time>
   <energy>
    <i name="alphaZ">     35.43714214 </i>
    <i name="ewald">  30417.38912758 </i>
    <i name="hartreedc"> -49289.49853528 </i>
    <i name="XCdc">   -217.35616824 </i>
    <i name="pawpsdc">  20375.66021736 </i>
    <i name="pawaedc"> -19530.26808460 </i>
    <i name="eentropy">      0.00000000 </i>
    <i name="bandstr">  -1535.19445286 </i>
    <i name="atom">  19706.77397164 </i>
    <i name="e_fr_energy">    -37.05678228 </i>
    <i name="e_wo_entrp">    -37.05678228 </i>
    <i name="e_0_energy">    -37.05678228 </i>
   </energy>
  </scstep>
  <structure>
   <crystal>
    <varray name="basis" >
     <v>      20.53939108       0.00000000       0.00000000 </v>
     <v>       0.00000000      20.53939108       0.00000000 </v>
     <v>       0.00000000       0.00000000      20.53939108 </v>
    </varray>
    <i name="volume">   8664.88278584 </i>
    <varray name="rec_basis" >
     <v>       0.04868694       0.00000000       0.00000000 </v>
     <v>       0.00000000       0.04868694       0.00000000 </v>
     <v>       0.00000000       0.00000000       0.04868694 </v>
    </varray>
   </crystal>
   <varray name="positions" >
    <v>       0.62480090       0.43722140       0.46401034 </v>
    <v>       0.49406223       0.45101945       0.48925485 </v>
    <v>       0.59500583       0.57640634       0.48062350 </v>
    <v>       0.55211203       0.50471621       0.37142048 </v>
    <v>       0.56828163       0.36419881       0.56748385 </v>
    <v>       0.43571714       0.34771761       0.56253833 </v>
    <v>       0.55395275       0.65007095       0.37770631 </v>
    <v>       0.41369942       0.47811799       0.37357994 </v>
    <v>       0.46381303       0.58112013       0.30285607 </v>
    <v>       0.36559192       0.38872447       0.45572319 </v>
    <v>       0.61149588       0.49452563       0.58466066 </v>
    <v>       0.44818281       0.58802160       0.44457792 </v>
    <v>       0.58949735       0.41913637       0.69384176 </v>
    <v>       0.37929211       0.49906211       0.53153314 </v>
    <v>       0.47256638       0.45756448       0.63174857 </v>
    <v>       0.51806898       0.69222366       0.50308435 </v>
    <v>       0.47796734       0.58459366       0.57841298 </v>
    <v>       0.59488806       0.64527748       0.60422781 </v>
    <v>       0.55143391       0.55043261       0.69226139 </v>
   </varray>
  </structure>
  <varray name="forces" >
   <v>      -0.10044509       0.24777032      -0.03180282 </v>
   <v>      -0.02323218      -0.09275641      -0.16058580 </v>
   <v>       0.01934348      -0.04679651       0.01942781 </v>
   <v>      -0.12908808       0.17927346       0.12154511 </v>
   <v>       0.05514108       0.09764451       0.11958564 </v>
   <v>      -0.06483626       0.12638514      -0.14086518 </v>
   <v>      -0.02123732      -0.18031503      -0.06174127 </v>
   <v>       0.07538383       0.05601139       0.07167375 </v>
   <v>      -0.06706053      -0.06948423      -0.00342895 </v>
   <v>      -0.08469839      -0.01258180       0.08782671 </v>
   <v>      -0.04971698       0.10511240       0.24223269 </v>
   <v>       0.10985206      -0.09110286      -0.00512809 </v>
   <v>       0.01723093       0.04703708       0.02500276 </v>
   <v>       0.16581759       0.03895510      -0.01824635 </v>
   <v>       0.11692707       0.03461818      -0.10284994 </v>
   <v>       0.00490092      -0.13921015      -0.03656122 </v>
   <v>      -0.03542219      -0.09786757      -0.06397544 </v>
   <v>       0.02882685      -0.20724216      -0.01099918 </v>
   <v>      -0.01768680       0.00454915      -0.05111023 </v>
  </varray>
  <varray name="stress" >
   <v>      -1.32678991       0.05029300       0.13884409 </v>
   <v>       0.05029300      -1.78337111      -0.04256895 </v>
   <v>       0.13884409      -0.04256895      -1.34124197 </v>
  </varray>
  <energy>
   <i name="e_fr_energy">    -37.05678228 </i>
   <i name="e_wo_entrp">    -37.05678228 </i>
   <i name="e_0_energy">      0.00000000 </i>
  </energy>
  <time name="totalsc">   15.33   20.32</time>
 </calculation>
 <calculation>
  <scstep>
   <time name="dav">    1.74    1.74</time>
   <time name="total">    2.06    2.07</time>
   <energy>
    <i name="alphaZ">     35.43714214 </i>
    <i name="ewald">  30296.70353257 </i>
    <i name="hartreedc"> -49169.47580784 </i>
    <i name="XCdc">   -217.52897613 </i>
    <i name="pawpsdc">  20376.29070761 </i>
    <i name="pawaedc"> -19530.89321761 </i>
    <i name="eentropy">      0.00000000 </i>
    <i name="bandstr">  -1534.35651006 </i>
    <i name="atom">  19706.77397164 </i>
    <i name="e_fr_energy">    -37.04915767 </i>
    <i name="e_wo_entrp">    -37.04915767 </i>
    <i name="e_0_energy">    -37.04915767 </i>
   </energy>
  </scstep>
  <scstep>
   <time name="dav">    1.83    1.83</time>
   <time name="total">    2.16    2.16</time>
   <energy>
    <i name="e_fr_energy">    -37.06507628 </i>
    <i name="e_wo_entrp">    -37.06507628 </i>
    <i name="e_0_energy">    -37.06507628 </i>
   </energy>
  </scstep>
  <scstep>
   <time name="dav">    1.87    1.87</time>
   <time name="total">    2.19    2.20</time>
   <energy>
    <i name="e_fr_energy">    -37.06507486 </i>
    <i name="e_wo_entrp">    -37.06507486 </i>
    <i name="e_0_energy">    -37.06507486 </i>
   </energy>
  </scstep>
  <scstep>
   <time name="dav">    1.83    1.83</time>
   <time name="total">    2.16    2.20</time>
   <energy>
    <i name="e_fr_energy">    -37.06474681 </i>
    <i name="e_wo_entrp">    -37.06474681 </i>
    <i name="e_0_energy">    -37.06474681 </i>
   </energy>
  </scstep>
  <scstep>
   <time name="dav">    1.85    1.85</time>
   <time name="total">    2.09    2.09</time>
   <energy>
    <i name="alphaZ">     35.43714214 </i>
    <i name="ewald">  30296.70353257 </i>
    <i name="hartreedc"> -49171.21671345 </i>
    <i name="XCdc">   -217.48723620 </i>
    <i name="pawpsdc">  20355.53517652 </i>
    <i name="pawaedc"> -19509.76496229 </i>
    <i name="eentropy">      0.00000000 </i>
    <i name="bandstr">  -1533.04569914 </i>
    <i name="atom">  19706.77397164 </i>
    <i name="e_fr_energy">    -37.06478822 </i>
    <i name="e_wo_entrp">    -37.06478822 </i>
    <i name="e_0_energy">    -37.06478822 </i>
   </energy>
  </scstep>
  <structure>
   <crystal>
    <varray name="basis" >
     <v>      20.53939108       0.00000000       0.00000000 </v>
     <v>       0.00000000      20.53939108       0.00000000 </v>
     <v>       0.00000000       0.00000000      20.53939108 </v>
    </varray>
    <i name="volume">   8664.88278584 </i>
    <varray name="rec_basis" >
     <v>       0.04868694       0.00000000       0.00000000 </v>
     <v>       0.00000000       0.04868694       0.00000000 </v>
     <v>       0.00000000       0.00000000       0.04868694 </v>
    </varray>
   </crystal>
   <varray name="positions" >
    <v>       0.62442366       0.43788657       0.46420209 </v>
    <v>       0.49367409       0.45042186       0.48905800 </v>
    <v>       0.59546339       0.57629051       0.48107323 </v>
    <v>       0.55209275       0.50525208       0.37126105 </v>
    <v>       0.56863945       0.36443804       0.56748248 </v>
    <v>       0.43563402       0.34748464       0.56270179 </v>
    <v>       0.55422915       0.65000682       0.37678305 </v>
    <v>       0.41362611       0.47778299       0.37384701 </v>
    <v>       0.46339349       0.58165009       0.30151600 </v>
    <v>       0.36459209       0.38835318       0.45567597 </v>
    <v>       0.61182910       0.49486608       0.58496079 </v>
    <v>       0.44822280       0.58819512       0.44440204 </v>
    <v>       0.58979504       0.41862466       0.69478795 </v>
    <v>       0.37986845       0.49882355       0.53114874 </v>
    <v>       0.47313142       0.45767052       0.63207976 </v>
    <v>       0.51771743       0.69199962       0.50290868 </v>
    <v>       0.47739586       0.58484797       0.57845728 </v>
    <v>       0.59581928       0.64523285       0.60435050 </v>
    <v>       0.55088212       0.55032384       0.69284901 </v>
   </varray>
  </structure>
  <varray name="forces" >
   <v>      -0.07869281       0.22786077      -0.05123273 </v>
   <v>       0.01254143      -0.10492771      -0.17445526 </v>
   <v>      -0.02948394       0.02166807      -0.05482675 </v>
   <v>      -0.17042163       0.20042559       0.12159581 </v>
   <v>       0.03485492       0.10437116       0.13794994 </v>
   <v>      -0.04832739       0.16283735      -0.15678689 </v>
   <v>      -0.03860049      -0.22664912       0.02635246 </v>
   <v>       0.10336581       0.11663116       0.04107922 </v>
   <v>      -0.05075419      -0.10587625       0.10904395 </v>
   <v>      -0.04515516      -0.00403233       0.10642545 </v>
   <v>      -0.07432947       0.07284393       0.31707576 </v>
   <v>       0.12811935      -0.10903691      -0.04478217 </v>
   <v>       0.00032936       0.07826379      -0.02609857 </v>
   <v>       0.10542499       0.05071396      -0.01133499 </v>
   <v>       0.10063996       0.00259305      -0.14166234 </v>
   <v>       0.04107561      -0.16184127      -0.03615963 </v>
   <v>       0.04634897      -0.09495721      -0.04516339 </v>
   <v>      -0.05501860      -0.24534414      -0.03388173 </v>
   <v>       0.01808329       0.01445612      -0.08313812 </v>
  </varray>
  <varray name="stress" >
   <v>      -1.38560934       0.03279157       0.10681523 </v>
   <v>       0.03279156      -1.87583216       0.00793160 </v>
   <v>       0.10681523       0.00793160      -1.48116920 </v>
  </varray>
  <energy>
   <i name="e_fr_energy">    -37.06478822 </i>
   <i name="e_wo_entrp">    -37.06478822 </i>
   <i name="e_0_energy">      0.00000000 </i>
  </energy>
  <time name="totalsc">   13.63   13.73</time>
 </calculation>
 <calculation>
  <scstep>
   <time name="dav">    1.74    1.74</time>
   <time name="total">    2.06    2.09</time>
   <energy>
    <i name="alphaZ">     35.43714214 </i>
    <i name="ewald">  30383.40002733 </i>
    <i name="hartreedc"> -49257.44676913 </i>
    <i name="XCdc">   -217.33722127 </i>
    <i name="pawpsdc">  20355.29653362 </i>
    <i name="pawaedc"> -19509.51833101 </i>
    <i name="eentropy">      0.00000000 </i>
    <i name="bandstr">  -1533.69713877 </i>
    <i name="atom">  19706.77397164 </i>
    <i name="e_fr_energy">    -37.09178546 </i>
    <i name="e_wo_entrp">    -37.09178546 </i>
    <i name="e_0_energy">    -37.09178546 </i>
   </energy>
  </scstep>
  <scstep>
   <time name="dav">    1.85    1.85</time>
   <time name="total">    2.18    2.18</time>
   <energy>
    <i name="e_fr_energy">    -37.11028357 </i>
    <i name="e_wo_entrp">    -37.11028357 </i>
    <i name="e_0_energy">    -37.11028357 </i>
   </energy>
  </scstep>
  <scstep>
   <time name="dav">    1.89    1.89</time>
   <time name="total">    2.21    2.22</time>
   <energy>
    <i name="e_fr_energy">    -37.11009652 </i>
    <i name="e_wo_entrp">    -37.11009652 </i>
    <i name="e_0_energy">    -37.11009652 </i>
   </energy>
  </scstep>
  <scstep>
   <time name="dav">    1.85    1.85</time>
   <time name="total">    2.18    2.18</time>
   <energy>
    <i name="e_fr_energy">    -37.10974577 </i>
    <i name="e_wo_entrp">    -37.10974577 </i>
    <i name="e_0_energy">    -37.10974577 </i>
   </energy>
  </scstep>
  <scstep>
   <time name="dav">    1.42    1.43</time>
   <time name="total">    1.66    1.67</time>
   <energy>
    <i name="alphaZ">     35.43714214 </i>
    <i name="ewald">  30383.40002733 </i>
    <i name="hartreedc"> -49256.81256770 </i>
    <i name="XCdc">   -217.36669676 </i>
    <i name="pawpsdc">  20373.94433853 </i>
    <i name="pawaedc"> -19528.47732712 </i>
    <i name="eentropy">      0.00000000 </i>
    <i name="bandstr">  -1534.00867322 </i>
    <i name="atom">  19706.77397164 </i>
    <i name="e_fr_energy">    -37.10978515 </i>
    <i name="e_wo_entrp">    -37.10978515 </i>
    <i name="e_0_energy">    -37.10978515 </i>
   </energy>
  </scstep>
  <structure>
   <crystal>
    <varray name="basis" >
     <v>      20.53939108       0.00000000       0.00000000 </v>
     <v>       0.00000000      20.53939108       0.00000000 </v>
     <v>       0.00000000       0.00000000      20.53939108 </v>
    </varray>
    <i name="volume">   8664.88278584 </i>
    <varray name="rec_basis" >
     <v>       0.04868694       0.00000000       0.00000000 </v>
     <v>       0.00000000       0.04868694       0.00000000 </v>
     <v>       0.00000000       0.00000000       0.04868694 </v>
    </varray>
   </crystal>
   <varray name="positions" >
    <v>       0.62391080       0.43910676       0.46413934 </v>
    <v>       0.49347792       0.44967938       0.48831749 </v>
    <v>       0.59564253       0.57629552       0.48115769 </v>
    <v>       0.55147663       0.50629484       0.37159328 </v>
    <v>       0.56898486       0.36495636       0.56797069 </v>
    <v>       0.43541115       0.34791750       0.56224731 </v>
    <v>       0.55426366       0.64916356       0.37630408 </v>
    <v>       0.41394712       0.47798877       0.37415822 </v>
    <v>       0.46295345       0.58160330       0.30107176 </v>
    <v>       0.36381214       0.38810869       0.45602399 </v>
    <v>       0.61177218       0.49533539       0.58627094 </v>
    <v>       0.44870179       0.58791614       0.44413424 </v>
    <v>       0.58998077       0.41858487       0.69528204 </v>
    <v>       0.38059952       0.49885543       0.53087024 </v>
    <v>       0.47383851       0.45774545       0.63178288 </v>
    <v>       0.51764510       0.69128697       0.50267158 </v>
    <v>       0.47720587       0.58466900       0.57832463 </v>
    <v>       0.59620155       0.64433539       0.60430645 </v>
    <v>       0.55060413       0.55030765       0.69291859 </v>
   </varray>
  </structure>
  <varray name="forces" >
   <v>      -0.03364266       0.19744218       0.00265580 </v>
   <v>       0.02214643      -0.12066297      -0.14954200 </v>
   <v>      -0.01500518       0.01997361      -0.02099298 </v>
   <v>      -0.14080090       0.16763804       0.08180955 </v>
   <v>       0.01874999       0.10292622       0.11724532 </v>
   <v>      -0.01458820       0.14631391      -0.12578519 </v>
   <v>      -0.02434352      -0.17608994       0.02729510 </v>
   <v>       0.03873370       0.05158747       0.03688567 </v>
   <v>      -0.05998656      -0.09529727       0.09365706 </v>
   <v>      -0.03303449       0.03930414       0.06625695 </v>
   <v>      -0.03944508       0.05792026       0.18149036 </v>
   <v>       0.10026643      -0.08860404      -0.03504187 </v>
   <v>      -0.00071651       0.06637907      -0.00178993 </v>
   <v>       0.05170345       0.04463629      -0.00630785 </v>
   <v>       0.06762731      -0.02532268      -0.14826433 </v>
   <v>       0.05891375      -0.13040876      -0.02467065 </v>
   <v>       0.06694930      -0.07518491      -0.02993441 </v>
   <v>      -0.06766841      -0.22299910      -0.04587457 </v>
   <v>       0.00414115       0.04044851      -0.01909201 </v>
  </varray>
  <varray name="stress" >
   <v>      -1.28582088       0.03021515       0.10100564 </v>
   <v>       0.03021515      -1.76963854       0.03081997 </v>
[...]
       <r>    -1.0274     0.0000   117.0000 </r>
       <r>    -0.9904     0.0000   117.0000 </r>
       <r>    -0.9534     0.0000   117.0000 </r>
       <r>    -0.9163     0.0000   118.0000 </r>
       <r>    -0.8793     0.0000   118.0000 </r>
       <r>    -0.8422     0.0000   118.0000 </r>
       <r>    -0.8052     0.0000   119.0000 </r>
       <r>    -0.7681     0.0000   119.0000 </r>
       <r>    -0.7311     0.0000   119.0000 </r>
       <r>    -0.6940     0.0000   120.0000 </r>
       <r>    -0.6570     0.0000   120.0000 </r>
       <r>    -0.6199     0.0000   120.0000 </r>
       <r>    -0.5829     0.0000   120.0000 </r>
       <r>    -0.5458     0.0000   120.0000 </r>
       <r>    -0.5088     0.0000   121.0000 </r>
       <r>    -0.4717     0.0000   121.0000 </r>
       <r>    -0.4347     0.0000   121.0000 </r>
       <r>    -0.3976     0.0000   122.0000 </r>
       <r>    -0.3606     0.0000   122.0000 </r>
       <r>    -0.3235     0.0000   122.0000 </r>
       <r>    -0.2865     0.0000   123.0000 </r>
       <r>    -0.2495     0.0000   123.0000 </r>
       <r>    -0.2124     0.0000   123.0000 </r>
       <r>    -0.1754     0.0000   123.0000 </r>
       <r>    -0.1383     0.0000   123.0000 </r>
       <r>    -0.1013     0.0000   123.0000 </r>
       <r>    -0.0642     0.0000   123.0000 </r>
       <r>    -0.0272     0.0000   124.0000 </r>
       <r>     0.0099     0.0000   124.0000 </r>
       <r>     0.0469     0.0000   124.0000 </r>
       <r>     0.0840     0.0000   124.0000 </r>
       <r>     0.1210     0.0000   124.0000 </r>
       <r>     0.1581     0.0000   124.0000 </r>
       <r>     0.1951     0.0000   124.0000 </r>
       <r>     0.2322     0.0000   125.0000 </r>
       <r>     0.2692     0.0000   125.0000 </r>
       <r>     0.3063     0.0000   126.0000 </r>
       <r>     0.3433     0.0000   126.0000 </r>
       <r>     0.3804     0.0000   126.0000 </r>
       <r>     0.4174     0.0000   127.0000 </r>
       <r>     0.4544     0.0000   127.0000 </r>
       <r>     0.4915     0.0000   127.0000 </r>
       <r>     0.5285     0.0000   128.0000 </r>
       <r>     0.5656    26.9925   130.0000 </r>
       <r>     0.6026     0.0000   130.0000 </r>
       <r>     0.6397     0.0000   131.0000 </r>
       <r>     0.6767     0.0000   132.0000 </r>
       <r>     0.7138     0.0000   133.0000 </r>
       <r>     0.7508     0.0000   134.0000 </r>
       <r>     0.7879     0.0000   135.0000 </r>
       <r>     0.8249     0.0000   135.0000 </r>
       <r>     0.8620     0.0000   136.0000 </r>
       <r>     0.8990     0.0000   136.0000 </r>
       <r>     0.9361     0.0000   136.0000 </r>
       <r>     0.9731     0.0000   136.0000 </r>
       <r>     1.0102     0.0000   136.0000 </r>
       <r>     1.0472     0.0000   136.0000 </r>
       <r>     1.0843     0.0000   136.0000 </r>
       <r>     1.1213     0.0000   136.0000 </r>
       <r>     1.1583     0.0000   136.0000 </r>
       <r>     1.1954     0.0000   136.0000 </r>
       <r>     1.2324     0.0000   136.0000 </r>
       <r>     1.2695     0.0000   136.0000 </r>
       <r>     1.3065     0.0000   136.0000 </r>
       <r>     1.3436     0.0000   136.0000 </r>
       <r>     1.3806     0.0000   136.0000 </r>
       <r>     1.4177     0.0000   136.0000 </r>
      </set>
      <set comment="spin 2">
       <r>    -9.6965     0.0000     0.0000 </r>
       <r>    -9.6595     0.0000     0.0000 </r>
       <r>    -9.6224     0.0000     0.0000 </r>
       <r>    -9.5854     0.0000     0.0000 </r>
       <r>    -9.5483     0.0000     0.0000 </r>
       <r>    -9.5113     0.0000     0.0000 </r>
       <r>    -9.4742     0.0000     0.0000 </r>
       <r>    -9.4372     0.0000     0.0000 </r>
       <r>    -9.4001     0.0000     0.0000 </r>
       <r>    -9.3631     0.0000     0.0000 </r>
       <r>    -9.3261     0.0000     0.0000 </r>
       <r>    -9.2890     0.0000     0.0000 </r>
       <r>    -9.2520     0.0000     0.0000 </r>
       <r>    -9.2149     0.0000     0.0000 </r>
       <r>    -9.1779     0.0000     0.0000 </r>
       <r>    -9.1408     0.0000     1.0000 </r>
       <r>    -9.1038     0.0000     1.0000 </r>
       <r>    -9.0667     0.0000     1.0000 </r>
       <r>    -9.0297     0.0000     1.0000 </r>
       <r>    -8.9926     0.0000     2.0000 </r>
       <r>    -8.9556     0.0000     2.0000 </r>
       <r>    -8.9185     0.0000     3.0000 </r>
       <r>    -8.8815     0.0000     4.0000 </r>
       <r>    -8.8444     0.0000     5.0000 </r>
       <r>    -8.8074     0.0000     6.0000 </r>
       <r>    -8.7703     0.0000     7.0000 </r>
       <r>    -8.7333     0.0000     8.0000 </r>
       <r>    -8.6962     0.0000     9.0000 </r>
       <r>    -8.6592     0.0000    10.0000 </r>
       <r>    -8.6222     0.0000    12.0000 </r>
       <r>    -8.5851     0.0000    13.0000 </r>
       <r>    -8.5481     0.0000    14.0000 </r>
       <r>    -8.5110     0.0000    15.0000 </r>
       <r>    -8.4740     0.0000    17.0000 </r>
       <r>    -8.4369     0.0000    18.0000 </r>
       <r>    -8.3999     0.0000    19.0000 </r>
       <r>    -8.3628     0.0000    20.0000 </r>
       <r>    -8.3258     0.0000    21.0000 </r>
       <r>    -8.2887     0.0000    23.0000 </r>
       <r>    -8.2517     0.0000    24.0000 </r>
       <r>    -8.2146     0.0000    24.0000 </r>
       <r>    -8.1776     0.0000    25.0000 </r>
       <r>    -8.1405     0.0000    26.0000 </r>
       <r>    -8.1035     0.0000    28.0000 </r>
       <r>    -8.0664     0.0000    28.0000 </r>
       <r>    -8.0294     0.0000    29.0000 </r>
       <r>    -7.9923     0.0000    31.0000 </r>
       <r>    -7.9553     0.0000    32.0000 </r>
       <r>    -7.9183     0.0000    33.0000 </r>
       <r>    -7.8812     0.0000    35.0000 </r>
       <r>    -7.8442     0.0000    35.0000 </r>
       <r>    -7.8071     0.0000    37.0000 </r>
       <r>    -7.7701     0.0000    37.0000 </r>
       <r>    -7.7330     0.0000    39.0000 </r>
       <r>    -7.6960     0.0000    40.0000 </r>
       <r>    -7.6589     0.0000    41.0000 </r>
       <r>    -7.6219     0.0000    42.0000 </r>
       <r>    -7.5848     0.0000    43.0000 </r>
       <r>    -7.5478     0.0000    44.0000 </r>
       <r>    -7.5107     0.0000    45.0000 </r>
       <r>    -7.4737     0.0000    45.0000 </r>
       <r>    -7.4366     0.0000    46.0000 </r>
       <r>    -7.3996     0.0000    47.0000 </r>
       <r>    -7.3625     0.0000    48.0000 </r>
       <r>    -7.3255     0.0000    50.0000 </r>
       <r>    -7.2884     0.0000    50.0000 </r>
       <r>    -7.2514     0.0000    52.0000 </r>
       <r>    -7.2144     0.0000    53.0000 </r>
       <r>    -7.1773     0.0000    55.0000 </r>
       <r>    -7.1403     0.0000    57.0000 </r>
       <r>    -7.1032     0.0000    59.0000 </r>
       <r>    -7.0662     0.0000    60.0000 </r>
       <r>    -7.0291     0.0000    64.0000 </r>
       <r>    -6.9921     0.0000    65.0000 </r>
       <r>    -6.9550     0.0000    68.0000 </r>
       <r>    -6.9180     0.0000    70.0000 </r>
       <r>    -6.8809     0.0000    71.0000 </r>
       <r>    -6.8439     0.0000    73.0000 </r>
       <r>    -6.8068     0.0000    75.0000 </r>
       <r>    -6.7698     0.0000    77.0000 </r>
       <r>    -6.7327     0.0000    80.0000 </r>
       <r>    -6.6957     0.0000    82.0000 </r>
       <r>    -6.6586     0.0000    83.0000 </r>
       <r>    -6.6216     0.0000    84.0000 </r>
       <r>    -6.5845     0.0000    86.0000 </r>
       <r>    -6.5475     0.0000    87.0000 </r>
       <r>    -6.5105     0.0000    87.0000 </r>
       <r>    -6.4734     0.0000    90.0000 </r>
       <r>    -6.4364     0.0000    91.0000 </r>
       <r>    -6.3993     0.0000    92.0000 </r>
       <r>    -6.3623     0.0000    94.0000 </r>
       <r>    -6.3252     0.0000    95.0000 </r>
       <r>    -6.2882     0.0000    96.0000 </r>
       <r>    -6.2511     0.0000    97.0000 </r>
       <r>    -6.2141     0.0000    98.0000 </r>
       <r>    -6.1770     0.0000    98.0000 </r>
       <r>    -6.1400     0.0000    98.0000 </r>
       <r>    -6.1029     0.0000    98.0000 </r>
       <r>    -6.0659     0.0000    98.0000 </r>
       <r>    -6.0288     0.0000    98.0000 </r>
       <r>    -5.9918     0.0000    98.0000 </r>
       <r>    -5.9547     0.0000    98.0000 </r>
       <r>    -5.9177     0.0000    98.0000 </r>
       <r>    -5.8806     0.0000    98.0000 </r>
       <r>    -5.8436     0.0000    98.0000 </r>
       <r>    -5.8066     0.0000    98.0000 </r>
       <r>    -5.7695     0.0000    98.0000 </r>
       <r>    -5.7325     0.0000    98.0000 </r>
       <r>    -5.6954     0.0000    98.0000 </r>
       <r>    -5.6584     0.0000    98.0000 </r>
       <r>    -5.6213     0.0000    98.0000 </r>
       <r>    -5.5843     0.0000    99.0000 </r>
       <r>    -5.5472     0.0000    99.0000 </r>
       <r>    -5.5102     0.0000    99.0000 </r>
       <r>    -5.4731     0.0000    99.0000 </r>
       <r>    -5.4361     0.0000    99.0000 </r>
       <r>    -5.3990     0.0000    99.0000 </r>
       <r>    -5.3620     0.0000    99.0000 </r>
       <r>    -5.3249     0.0000   100.0000 </r>
       <r>    -5.2879     0.0000   100.0000 </r>
       <r>    -5.2508     0.0000   100.0000 </r>
       <r>    -5.2138     0.0000   100.0000 </r>
       <r>    -5.1767     0.0000   100.0000 </r>
       <r>    -5.1397     0.0000   100.0000 </r>
       <r>    -5.1027     0.0000   100.0000 </r>
       <r>    -5.0656     0.0000   100.0000 </r>
       <r>    -5.0286     0.0000   100.0000 </r>
       <r>    -4.9915     0.0000   100.0000 </r>
       <r>    -4.9545     0.0000   100.0000 </r>
       <r>    -4.9174     0.0000   101.0000 </r>
       <r>    -4.8804     0.0000   101.0000 </r>
       <r>    -4.8433     0.0000   101.0000 </r>
       <r>    -4.8063     0.0000   101.0000 </r>
       <r>    -4.7692     0.0000   101.0000 </r>
       <r>    -4.7322     0.0000   101.0000 </r>
       <r>    -4.6951     0.0000   101.0000 </r>
       <r>    -4.6581     0.0000   101.0000 </r>
       <r>    -4.6210     0.0000   101.0000 </r>
       <r>    -4.5840     0.0000   101.0000 </r>
       <r>    -4.5469     0.0000   102.0000 </r>
       <r>    -4.5099     0.0000   102.0000 </r>
       <r>    -4.4728     0.0000   102.0000 </r>
       <r>    -4.4358     0.0000   102.0000 </r>
       <r>    -4.3988     0.0000   102.0000 </r>
       <r>    -4.3617     0.0000   102.0000 </r>
       <r>    -4.3247     0.0000   102.0000 </r>
       <r>    -4.2876     0.0000   102.0000 </r>
       <r>    -4.2506     0.0000   102.0000 </r>
       <r>    -4.2135     0.0000   102.0000 </r>
       <r>    -4.1765     0.0000   102.0000 </r>
       <r>    -4.1394     0.0000   102.0000 </r>
       <r>    -4.1024     0.0000   102.0000 </r>
       <r>    -4.0653     0.0000   103.0000 </r>
       <r>    -4.0283     0.0000   103.0000 </r>
       <r>    -3.9912     0.0000   103.0000 </r>
       <r>    -3.9542     0.0000   103.0000 </r>
       <r>    -3.9171     0.0000   103.0000 </r>
       <r>    -3.8801     0.0000   104.0000 </r>
       <r>    -3.8430     0.0000   104.0000 </r>
       <r>    -3.8060     0.0000   104.0000 </r>
       <r>    -3.7689     0.0000   104.0000 </r>
       <r>    -3.7319     0.0000   104.0000 </r>
       <r>    -3.6949     0.0000   104.0000 </r>
       <r>    -3.6578     0.0000   104.0000 </r>
       <r>    -3.6208     0.0000   104.0000 </r>
       <r>    -3.5837     0.0000   104.0000 </r>
       <r>    -3.5467     0.0000   105.0000 </r>
       <r>    -3.5096     0.0000   105.0000 </r>
       <r>    -3.4726     0.0000   105.0000 </r>
       <r>    -3.4355     0.0000   105.0000 </r>
       <r>    -3.3985     0.0000   105.0000 </r>
       <r>    -3.3614     0.0000   105.0000 </r>
       <r>    -3.3244     0.0000   105.0000 </r>
       <r>    -3.2873     0.0000   105.0000 </r>
       <r>    -3.2503     0.0000   105.0000 </r>
       <r>    -3.2132     0.0000   105.0000 </r>
       <r>    -3.1762     0.0000   105.0000 </r>
       <r>    -3.1391     0.0000   105.0000 </r>
       <r>    -3.1021     0.0000   105.0000 </r>
       <r>    -3.0650     0.0000   106.0000 </r>
       <r>    -3.0280     0.0000   106.0000 </r>
       <r>    -2.9910     0.0000   106.0000 </r>
       <r>    -2.9539     0.0000   106.0000 </r>
       <r>    -2.9169     0.0000   106.0000 </r>
       <r>    -2.8798     0.0000   106.0000 </r>
       <r>    -2.8428     0.0000   106.0000 </r>
       <r>    -2.8057     0.0000   106.0000 </r>
       <r>    -2.7687     0.0000   107.0000 </r>
       <r>    -2.7316     0.0000   107.0000 </r>
       <r>    -2.6946     0.0000   107.0000 </r>
       <r>    -2.6575     0.0000   107.0000 </r>
       <r>    -2.6205     0.0000   107.0000 </r>
       <r>    -2.5834     0.0000   108.0000 </r>
       <r>    -2.5464     0.0000   108.0000 </r>
       <r>    -2.5093     0.0000   109.0000 </r>
       <r>    -2.4723     0.0000   109.0000 </r>
       <r>    -2.4352     0.0000   109.0000 </r>
       <r>    -2.3982     0.0000   109.0000 </r>
       <r>    -2.3611     0.0000   109.0000 </r>
       <r>    -2.3241     0.0000   109.0000 </r>
       <r>    -2.2871     0.0000   110.0000 </r>
       <r>    -2.2500     0.0000   110.0000 </r>
       <r>    -2.2130     0.0000   110.0000 </r>
       <r>    -2.1759     0.0000   110.0000 </r>
       <r>    -2.1389     0.0000   111.0000 </r>
       <r>    -2.1018     0.0000   111.0000 </r>
       <r>    -2.0648     0.0000   111.0000 </r>
       <r>    -2.0277     0.0000   111.0000 </r>
       <r>    -1.9907     0.0000   111.0000 </r>
       <r>    -1.9536     0.0000   111.0000 </r>
       <r>    -1.9166     0.0000   111.0000 </r>
       <r>    -1.8795     0.0000   111.0000 </r>
       <r>    -1.8425     0.0000   111.0000 </r>
       <r>    -1.8054     0.0000   112.0000 </r>
       <r>    -1.7684     0.0000   112.0000 </r>
       <r>    -1.7313     0.0000   112.0000 </r>
       <r>    -1.6943     0.0000   112.0000 </r>
       <r>    -1.6572     0.0000   112.0000 </r>
       <r>    -1.6202     0.0000   112.0000 </r>
       <r>    -1.5832     0.0000   112.0000 </r>
       <r>    -1.5461     0.0000   112.0000 </r>
       <r>    -1.5091     0.0000   113.0000 </r>
       <r>    -1.4720     0.0000   113.0000 </r>
       <r>    -1.4350     0.0000   113.0000 </r>
       <r>    -1.3979     0.0000   113.0000 </r>
       <r>    -1.3609     0.0000   113.0000 </r>
       <r>    -1.3238     0.0000   114.0000 </r>
       <r>    -1.2868     0.0000   114.0000 </r>
       <r>    -1.2497     0.0000   115.0000 </r>
       <r>    -1.2127     0.0000   115.0000 </r>
       <r>    -1.1756     0.0000   115.0000 </r>
       <r>    -1.1386     0.0000   115.0000 </r>
       <r>    -1.1015     0.0000   116.0000 </r>
       <r>    -1.0645     0.0000   116.0000 </r>
       <r>    -1.0274     0.0000   116.0000 </r>
       <r>    -0.9904     0.0000   117.0000 </r>
       <r>    -0.9534     0.0000   117.0000 </r>
       <r>    -0.9163     0.0000   117.0000 </r>
       <r>    -0.8793     0.0000   117.0000 </r>
       <r>    -0.8422     0.0000   118.0000 </r>
       <r>    -0.8052     0.0000   118.0000 </r>
       <r>    -0.7681     0.0000   119.0000 </r>
       <r>    -0.7311     0.0000   119.0000 </r>
       <r>    -0.6940     0.0000   119.0000 </r>
       <r>    -0.6570     0.0000   120.0000 </r>
       <r>    -0.6199     0.0000   120.0000 </r>
       <r>    -0.5829     0.0000   120.0000 </r>
       <r>    -0.5458     0.0000   120.0000 </r>
       <r>    -0.5088     0.0000   120.0000 </r>
       <r>    -0.4717     0.0000   121.0000 </r>
       <r>    -0.4347     0.0000   121.0000 </r>
       <r>    -0.3976     0.0000   121.0000 </r>
       <r>    -0.3606     0.0000   121.0000 </r>
       <r>    -0.3235     0.0000   121.0000 </r>
       <r>    -0.2865     0.0000   122.0000 </r>
       <r>    -0.2495     0.0000   123.0000 </r>
       <r>    -0.2124     0.0000   123.0000 </r>
       <r>    -0.1754     0.0000   123.0000 </r>
       <r>    -0.1383     0.0000   123.0000 </r>
       <r>    -0.1013     0.0000   123.0000 </r>
       <r>    -0.0642     0.0000   123.0000 </r>
       <r>    -0.0272     0.0000   123.0000 </r>
       <r>     0.0099     0.0000   124.0000 </r>
       <r>     0.0469     0.0000   124.0000 </r>
       <r>     0.0840     0.0000   124.0000 </r>
       <r>     0.1210     0.0000   124.0000 </r>
       <r>     0.1581     0.0000   124.0000 </r>
       <r>     0.1951     0.0000   124.0000 </r>
       <r>     0.2322     1.5480   124.0573 </r>
       <r>     0.2692     0.0000   125.0000 </r>
       <r>     0.3063     0.0000   125.0000 </r>
       <r>     0.3433     0.0000   126.0000 </r>
       <r>     0.3804     0.0000   126.0000 </r>
       <r>     0.4174     0.0000   126.0000 </r>
       <r>     0.4544     0.0000   127.0000 </r>
       <r>     0.4915     0.0000   127.0000 </r>
       <r>     0.5285     0.0000   127.0000 </r>
       <r>     0.5656     0.0000   128.0000 </r>
       <r>     0.6026     0.0000   129.0000 </r>
       <r>     0.6397     0.0000   130.0000 </r>
       <r>     0.6767     0.0000   130.0000 </r>
       <r>     0.7138     0.0000   132.0000 </r>
       <r>     0.7508     0.0000   133.0000 </r>
       <r>     0.7879     0.0000   134.0000 </r>
       <r>     0.8249     0.0000   135.0000 </r>
       <r>     0.8620     0.0000   135.0000 </r>
       <r>     0.8990     0.0000   135.0000 </r>
       <r>     0.9361     0.0000   136.0000 </r>
       <r>     0.9731     0.0000   136.0000 </r>
       <r>     1.0102     0.0000   136.0000 </r>
       <r>     1.0472     0.0000   136.0000 </r>
       <r>     1.0843     0.0000   136.0000 </r>
       <r>     1.1213     0.0000   136.0000 </r>
       <r>     1.1583     0.0000   136.0000 </r>
       <r>     1.1954     0.0000   136.0000 </r>
       <r>     1.2324     0.0000   136.0000 </r>
       <r>     1.2695     0.0000   136.0000 </r>
       <r>     1.3065     0.0000   136.0000 </r>
       <r>     1.3436     0.0000   136.0000 </r>
       <r>     1.3806     0.0000   136.0000 </r>
       <r>     1.4177     0.0000   136.0000 </r>
      </set>
     </set>
    </array>
   </total>
  </dos>
 </calculation>
 <structure name="finalpos" >
  <crystal>
   <varray name="basis" >
    <v>      20.53939108       0.00000000       0.00000000 </v>
    <v>       0.00000000      20.53939108       0.00000000 </v>
    <v>       0.00000000       0.00000000      20.53939108 </v>
   </varray>
   <i name="volume">   8664.88278584 </i>
   <varray name="rec_basis" >
    <v>       0.04868694       0.00000000       0.00000000 </v>
    <v>       0.00000000       0.04868694       0.00000000 </v>
    <v>       0.00000000       0.00000000       0.04868694 </v>
   </varray>
  </crystal>
  <varray name="positions" >
   <v>       0.62046046       0.44929391       0.47421924 </v>
   <v>       0.49612669       0.39891067       0.45256240 </v>
   <v>       0.60061801       0.58081086       0.48433953 </v>
   <v>       0.54664835       0.50454492       0.37873366 </v>
   <v>       0.56597731       0.37578596       0.57301014 </v>
   <v>       0.43199268       0.35555971       0.56202500 </v>
   <v>       0.56055192       0.64052620       0.37217076 </v>
   <v>       0.40611681       0.47845700       0.38068865 </v>
   <v>       0.46038337       0.57562265       0.30364104 </v>
   <v>       0.35230851       0.38381499       0.45742871 </v>
   <v>       0.61343934       0.50730635       0.59617887 </v>
   <v>       0.45220685       0.59028496       0.44294924 </v>
   <v>       0.58876542       0.42739963       0.69920811 </v>
   <v>       0.40260690       0.48949371       0.52109982 </v>
   <v>       0.47655396       0.46360530       0.63035699 </v>
   <v>       0.52413542       0.69229185       0.49906550 </v>
   <v>       0.47713903       0.58864762       0.57643115 </v>
   <v>       0.59489465       0.64651684       0.60760978 </v>
   <v>       0.53950402       0.56127782       0.69782684 </v>
  </varray>
 </structure>
</modeling>
