14
Energy = -63.13379369 eV
As 15.633896411903557 11.94666492115825 11.284864017750554
As 16.22497754890061 12.47690449649494 13.463383615368665
As 14.152055912855868 12.953409593623242 14.690218867339818
As 14.27441494880529 10.515990366927875 14.558090221233343
As 13.62739589909145 9.952084460875342 12.199578255418952
As 13.187227612809476 12.102465146348772 11.123625201079394
As 12.441844668515303 13.457439256653661 13.01775464156833
As 8.896763049268767 14.266569046842088 8.030287016595281
As 11.196193340160113 9.6457308561853 12.976102555108055
As 11.829123150015944 10.197208807490707 15.280526165391352
As 9.44732687210578 11.9272086900769 8.540976389889021
As 8.498834318835465 13.374963734935372 10.285815716420403
As 10.674766974456684 11.88550217229062 13.884294550626054
As 7.097480740931638 12.63577809406617 8.406920980320757
