12
Energy = -53.73054984 eV
As 7.437723853725415 13.188600536332707 11.288386749585822
As 9.103286459633898 13.021787599219007 9.465186721662043
As 9.857415497659934 13.281873763250346 11.806821567368914
As 7.6292314355645185 11.101218224443278 9.970760217861425
As 8.880967662104657 9.565158150218165 11.453804962987318
As 12.718818868865348 11.129944544464713 11.739433247250513
As 10.405927109586356 11.025762905487527 12.663611298119793
As 9.910722371055689 8.339140247834537 9.540694936127746
As 13.357981298351357 10.69513621347704 9.416663142723166
As 13.714025924187876 8.971233179149323 11.203714788595097
As 11.797366997997454 9.11746858363154 8.190532381537437
As 12.11084532401508 7.380566652614815 9.972456327793592
