13
Energy = -58.10859764 eV
As 14.781754573760185 10.594316541605526 14.231490225366752
As 13.550544697984368 9.722207483187209 12.286973541753184
As 15.148114053441915 13.013670838466115 13.64075705228242
As 15.85599041589597 12.678539580388195 11.322375070653996
As 12.289967620911643 10.939896423978276 14.014359418684817
As 12.68829245440561 13.35379554874761 13.420368468827586
As 14.381580424110327 14.39848788370859 10.272079266751323
As 13.942913957339407 11.37487719713843 10.449891529228667
As 12.331710738645176 13.169212053334363 11.00563535576023
As 8.686549977210035 10.66283275609212 11.251856963745848
As 7.958456665927365 12.609561688290974 12.56510216079311
As 7.732758021027006 12.622750175122937 10.120070332033857
As 6.29134720045737 11.166874470242634 11.479670268063806
