10
Energy = -44.72801199 eV
As 9.90584073859169 7.5958748815282595 8.387510120163864
As 9.692840953378669 9.637682679847869 10.198422918767276
As 8.610867355316715 7.434554131003825 10.478445911477865
As 8.366379801111469 7.237245931485467 5.1136270568345745
As 8.625739997054557 9.219097070953213 6.968084224446312
As 6.335752856366035 8.496320038901981 7.4987399555432726
As 7.719033529354254 10.635543655418626 9.260126676541187
As 6.615994320327534 6.193608132878544 6.52628707494706
As 8.986901014397947 5.696633918240576 6.854036026126972
As 6.453216836789585 8.624689803980619 9.94826848555625
