19
Energy = -86.20838628 eV
As 15.882876287358199 13.065246895814049 9.822798687135746
As 15.110490053421833 13.838448205451714 12.047611928114637
As 15.943914594499079 11.485350942481324 11.742555437822068
As 13.823026255656828 12.52277761154159 8.56266023098221
As 12.198145149304166 13.756129441402262 9.951797610909765
As 13.582062383534456 10.615782215392631 11.855131491138254
As 12.768655533373748 12.931442281390487 12.196943552090376
As 13.569943923799796 10.233564842985405 9.412927507999779
As 9.862277793903472 8.547536798147396 9.525605746994934
As 11.29987068730474 10.262686257359755 8.412991880381137
As 10.308836541782496 10.767030619118248 12.620329335583321
As 10.273311757327756 12.44912865883491 9.047913222619988
As 10.097700841225887 8.391939342346756 12.040181139461312
As 8.753346586960884 11.849001635538585 11.046002250550842
As 7.784800331458799 9.921922115865426 9.826961147014703
As 7.647269440988371 8.261488802348476 11.665401975279446
As 8.60788377637218 10.849908517371276 14.501911202546925
As 6.825821466000834 11.845163985387847 13.117092980739
As 6.7283011353366025 9.473985370832466 13.671717212246
