21
Energy = -94.90598938 eV
As 11.25677227795827 12.73981109838459 19.332295045050834
As 10.07165542743386 11.984732719667198 17.28869704785871
As 10.68323713333337 16.613868150492234 8.470366521130009
As 11.755027090534632 16.31917689557229 10.723614930977526
As 11.50980377616802 10.410680104322909 18.551904094555198
As 11.379353837962922 12.957116309429514 15.44786325963173
As 12.694439764374746 17.981835502529943 8.089703315875797
As 13.468464023319445 11.927025696983865 18.556878949744704
As 11.758806366745883 10.831618603372211 14.169730975566907
As 11.465358106824734 14.360412538512987 9.231887913390572
As 13.71388414748752 12.893432645493661 16.31035896288386
As 14.053880010672922 16.72668493607254 9.705562140739431
As 11.969000985066 11.9580726393587 11.972523367608643
As 13.854034551258112 14.510279892296957 8.534104419210564
As 14.118149977776298 10.744835407207574 15.08409281942028
As 13.872356985969162 13.443623276636345 12.4311526951925
As 13.01678101605573 10.025671131635411 10.860016258840314
As 15.149935056502313 13.381631923539256 10.326104993044664
As 15.48332550446216 11.827915256878518 13.346863475941364
As 14.893925256415383 11.017319845170237 9.595103174522805
As 15.316253499024914 9.907096200153 11.773656857503635
