22
Energy = -98.84337353 eV
As 8.684457511403428 13.365951859392514 17.207274804712988
As 9.09118186359119 13.511407650414903 14.773285438104818
As 11.524319502911451 13.995677299920784 14.820243579403348
As 12.49612956019677 12.377072816677385 16.425021996254205
As 8.779058723796737 11.282886482657684 15.73244632019635
As 10.448218817391096 11.635633773635677 17.54436884959942
As 12.192328469100278 13.310090056536257 12.540904065841906
As 14.426735279325058 16.108121410207584 12.612274948305362
As 14.552328598309613 13.712824993304071 13.209419124938298
As 14.408542003551197 16.26120615732639 10.1309561856507
As 12.923885574818899 10.217801605406395 15.147421120054979
As 16.52375542162145 16.579743728140294 11.369218012087135
As 10.772882005342924 9.58561270300977 14.080778855381483
As 12.369726971898519 10.829606933016818 12.851356836413022
As 16.272845615486553 14.653834640629851 9.838461446338233
As 15.912859382832737 12.750080790863242 11.36793575740601
As 13.61785100682848 9.671137289913773 10.970689984667727
As 14.619858217723069 11.467030851907491 9.653491505753564
As 11.548645850146343 9.409586624916749 9.640828642558382
As 10.56246863245256 11.699683297228592 9.555911333465396
As 12.663961802443495 12.7592427745375 8.809069511540558
As 11.737911854066596 10.81110228167495 7.577849620602796
