33
Energy = -143.22694114 eV
As 10.929947759612547 13.513636990474545 11.114496588810606
As 15.948136037100399 12.598353471169348 12.611605556120702
As 18.431561942940466 12.413197776446486 12.852580527498118
As 16.97823017085291 12.414168180801983 14.85529599884502
As 16.839890889137013 19.87650453531437 14.688953453478522
As 10.98121820609909 16.915453850003374 13.13439503640531
As 8.75282673646722 16.55363620392433 12.136692249708695
As 17.602867237972767 17.97304285327173 13.187934016204725
As 12.737183996941365 8.014464080611674 11.552007153162299
As 11.280699358044837 14.800927064698316 14.411431552584256
As 11.816200925401409 12.388204171372353 17.15448752521091
As 13.051226378374942 15.859849827924737 15.789518824449074
As 16.67387985226618 18.445004168730904 16.702749762723816
As 14.209433398688754 9.391442431179245 12.868000154549843
As 14.464117629838544 9.36507986166922 15.518772055382666
As 10.134569231504624 14.145999150746693 17.768954737324616
As 14.940209952939457 7.361226586709646 14.16431113803196
As 18.368065119326335 17.068155364143717 15.438272682550814
As 16.849394385713076 9.920428212499623 15.199163132764532
As 9.576369304055582 14.650370657943423 9.358935733811805
As 13.689584458677261 14.08040205442327 17.393901602751075
As 9.621551346181077 17.055864924003437 9.898272411594776
As 16.525880584411343 15.016659843273958 12.49868306798642
As 11.17293978391612 12.758385934329715 19.46905423369379
As 12.006603150649198 15.83355735264156 18.047560001968865
As 15.362386533040066 16.991742019671715 12.900044719685882
As 10.438336322252605 8.952255318285609 9.110316035523402
As 12.435017109072287 15.140436547811664 12.223059843112122
As 12.039293568782792 9.97350928972709 10.307108891064598
As 18.81973317044021 14.90742913250024 12.951804910311173
As 18.82245193841811 19.458658803496434 16.123382330277412
As 8.616342831344557 14.094370437500256 11.649083493381324
As 16.6806978056012 8.697038155823263 13.029110432007084
