36
Energy = -156.53850556 eV
As 16.380262405937312 18.191839346698615 17.961803132784585
As 11.17056824814799 13.153556194377334 13.438164801145637
As 10.252750942314815 10.931086716404247 12.499400435670385
As 15.049768514080315 20.214769459209045 17.545446771909692
As 11.54914179018461 16.511168205547985 10.233272656872767
As 15.867969063804946 12.55310552114156 10.294920580605373
As 18.038812289734185 10.389447809289335 12.992053823140798
As 12.201294532400974 17.131902945562622 8.307526364094928
As 16.41763470977331 9.225362681096792 16.719839691332705
As 15.164276024757612 8.70724626771445 14.791904703154215
As 16.92241768361638 8.308938524901937 12.729292358731259
As 11.232570943485209 14.710708474910586 18.30914029616463
As 14.217227283988944 12.365937934563737 16.142058099461064
As 12.10542312842018 11.526352151011103 15.031013669388397
As 12.26210035462188 9.692681941882583 13.338674074079714
As 19.205790776105008 19.14761093866519 13.475862275101136
As 14.778110173461753 14.302583441621234 14.69997100160145
As 16.780908079574086 19.39673489583638 15.947915546594816
As 9.181261497356811 13.39690539700814 17.970330941970687
As 18.044594213392703 11.33707326656352 10.749871829249834
As 12.281033390597548 10.713297511629202 11.06431407911437
As 13.38394161123738 16.991423997101972 13.179753101356654
As 11.262238478836824 12.269919667684588 18.622366509351423
As 16.476687820467877 10.043001719566092 9.394899785760167
As 14.689139836713457 15.997859908301374 16.63870132910658
As 14.747751374222497 17.931506016438 15.097774891772863
As 10.081263174844311 13.700532729050913 20.239872992498153
As 12.680266331184368 13.135392710945249 11.423046100977148
As 14.793283618021123 12.339583402065637 12.370708286161294
As 12.646148272758404 15.522580361355658 15.074510652682052
As 11.963465564663451 20.303169575075504 14.766356008349494
As 13.029377535168818 18.97265901881472 16.528347732428696
As 15.751570095488248 8.208705011929972 10.648642211089312
As 20.499897505583693 20.814729263196178 13.270201665423125
As 11.902107946425904 18.96442210085054 12.910712660466892
As 16.053401524842798 10.981582467936578 15.092594895509677
