36
Energy = -154.77111272 eV
As 17.351642030740795 10.875269778263323 14.37899951722549
As 12.032804473741779 16.48281934438618 16.553565347471082
As 18.481629924435293 12.390992317508225 17.6548230217393
As 14.292342528375956 16.591280009699194 13.421932285230733
As 15.783785830049755 17.731021104846203 16.37788650670094
As 11.763111724187924 10.044867778816073 14.704845576339011
As 10.674158042098105 17.77723264977352 14.984560887885086
As 11.883781571896042 16.69460203904406 12.011266910072132
As 14.104675274272061 9.318713638575748 14.344168755214028
As 16.702873429895178 21.343494441942326 16.465418848515156
As 14.830622795375112 8.64573432315983 16.604543608344596
As 21.769574060199925 17.013235229450512 10.962385595621294
As 20.549100005593708 17.174746153478164 12.69464142266144
As 12.998914903623415 9.496274176609377 18.067903634029662
As 18.591544625455764 12.867039050285399 15.223274747669336
As 13.420273856542277 20.89003432872046 15.69085211625387
As 13.643116395173525 6.5695005853365585 16.317106673584476
As 15.380415918638128 16.162458720492232 18.278830458866558
As 13.267159496227048 14.962823859986285 15.023378286037843
As 16.166197016404784 11.667604664200802 12.358476129942419
As 11.805885620598419 11.284434008756087 16.861292805994797
As 16.835300616237515 14.014742615199717 11.726258200528495
As 16.889083206662704 15.767405795607559 13.341292890651966
As 15.011548253622635 11.652257454879678 14.566514140328923
As 15.393802597963031 20.280422767440157 14.676006485616938
As 12.034663238600272 19.53011051069094 14.173963210915415
As 17.049489694197042 19.435166412683905 17.692848321216513
As 10.943847748399055 8.957247662227457 16.76557651383232
As 18.24366177962565 14.559153235848475 18.314770141326985
As 11.789202959005587 14.387829164945028 11.297162763856903
As 17.160388624860627 14.832341854334356 15.690999929756451
As 11.370340615783482 20.890289715094696 12.467914956887563
As 12.900480108347915 16.033780835039654 9.845083717280312
As 14.933591007890502 14.213612624083344 16.73278400750792
As 13.698960617001337 17.9421909187352 17.678598658012778
As 14.295718258972594 14.854806230808267 11.553947968323277
