31
Energy = -136.23878156 eV
As 17.048250922782636 13.073630176442036 11.67665669304496
As 15.334446352162706 14.792514478582945 10.947791831918389
As 16.821208225001477 12.588902681786143 14.11053007327104
As 16.939817384441348 10.674551416040464 11.049031216237024
As 15.168592353635434 9.999722265011698 9.43613304668704
As 17.410066531456142 15.310204499676498 17.186663398944567
As 13.264948137662477 11.475459878237665 9.568768591158605
As 16.56578370135914 15.010191154190169 14.882968857113871
As 14.317045666311307 9.807870649182641 14.790127949445639
As 14.007207599158253 13.804632060955553 9.091775878175824
As 15.894243599898134 17.563115063853925 14.575222175358595
As 16.506137527434287 17.7387226914814 16.715784908104904
As 15.081422735591559 9.296584044254807 12.005353451568247
As 14.386923750631713 12.209121387066263 14.410507671013471
As 13.519427555552356 11.206709962257799 12.173067238041352
As 15.364568874021556 14.142148917141984 16.798893532886307
As 13.713500122770782 15.138624761668673 12.80141531394194
As 13.21597180819833 17.417112075551398 11.948145049651538
As 11.701420169124916 14.567316821907156 9.644594687154893
As 11.944083808233117 17.035989398375545 9.85396978488374
As 11.78805357592005 13.837153273048743 11.974394529262652
As 10.781842847273321 15.712843860460737 15.086340816797842
As 12.045571106451224 9.950238027114114 13.827368448524483
As 11.76471781586663 13.73207724619638 16.24027122483725
As 10.877718464791442 11.527377125709785 15.437152122005305
As 10.752066905909714 17.500454208596413 11.970619005759271
As 9.948091661178013 15.216814226824551 12.796661573142721
As 8.365624038915255 6.169567550004376 13.479969483253301
As 8.982706847329453 7.8472852744172785 14.617241070137608
As 9.274799766838434 14.175772022324168 16.35989450488886
As 9.000703026177293 12.653661286252229 14.393001034115109
