38
Energy = -168.31567791 eV
As 7.300783922280058 7.054503023975993 2.6370639332760937
As 9.610139385059648 6.024952851585083 2.425517302481482
As 11.083443185185665 7.978967783412584 2.6885055638412148
As 6.895621730423188 5.537189049606319 4.585094922233337
As 8.925170287409637 10.746580773296767 5.367351686034792
As 5.636197326075881 9.30107069268151 4.2925568029964065
As 7.680140558816183 7.898508658117803 4.932650459782827
As 12.959874209567339 11.203890636614405 6.882129120986978
As 6.724601363234411 11.531033506954794 4.5050399078394125
As 4.520640402215086 5.305494325745132 5.269918228894047
As 10.511988779234903 6.849675892936022 4.596959727842045
As 7.750317223491675 5.054573381925861 7.769617509395041
As 13.755114782120145 8.975462980175555 7.661160032112838
As 11.494463500326562 9.2249230751545 6.649259761855625
As 4.7900568296496715 6.975789794730355 7.141950452204081
As 6.2337853346152166 9.702934728542603 8.035170613387699
As 5.268230519888294 4.621993531453014 7.60483826572589
As 9.110325483571845 12.192170805093243 7.169877469990059
As 5.014301026466303 10.8138334371661 6.171629119049228
As 8.334151364533456 7.2904320336790684 8.950336742353961
As 2.840626950557134 7.351007970741124 8.72049656735602
As 10.974914060385087 10.975587232288285 8.355192920802699
As 4.08195533539335 9.548104110407566 9.298393151253219
As 6.913504718575035 11.804802208302206 9.257511326117625
As 5.406475947819346 5.5766304683172025 10.327075697088187
As 12.121963240160754 6.428234405517248 9.308309539319742
As 10.982599964643182 8.353256216765859 10.298006660357789
As 8.24755137087854 3.4000442649690905 9.604863688856918
As 8.975281176849057 5.555930298370249 10.696297955775796
As 13.477916210259503 8.368509359442637 10.111227076022372
As 3.0410004223884775 5.89803135249039 10.65584484848413
As 7.512072498946993 8.35508194563181 11.112466555449528
As 5.962994763238712 11.34773868343466 11.5627067039924
As 5.133898199859078 8.97110107106577 11.436686129930507
As 8.334586329940066 10.76125051143426 10.989919991588323
As 11.274735912765324 6.239995072179793 11.632845411235236
As 7.097131770065756 5.620300282816734 12.359119177021574
As 6.326339386076098 3.465309055944362 11.241304450031013
