33
Energy = -144.83483366 eV
As 11.584513496510208 10.916355397759189 13.918215417839788
As 15.959582635167123 12.476670771650337 16.79066841441903
As 12.803341094055774 13.670005505681866 12.01365135322454
As 11.165217995807064 13.514357446635675 8.222301247591846
As 13.461223396978474 17.68288216015999 11.939133362962577
As 15.752816937233748 14.77951471067498 17.41839009582354
As 16.750325365548456 15.196771705174069 15.285368826189073
As 11.861762582797581 15.883594662285152 11.1982513876153
As 14.061571469857927 10.540299919746206 13.965292847910552
As 15.36971615322814 13.118295343098627 14.441780616068057
As 9.778687406328498 9.24245174011538 13.891431242170976
As 13.609853759632891 16.42453397175208 14.082919366642022
As 10.976696300349733 12.597023793987198 10.664548410638046
As 11.244726120630673 10.196012253254178 11.103749520160848
As 14.210914913838403 12.55235202224909 10.221881253024074
As 18.632276345063744 12.443098644599107 16.236547686650432
As 8.85773526233636 10.178892853695725 16.021453898711346
As 11.102452810958301 11.066857180941636 16.54220855908814
As 11.808391505425035 15.853633545242085 8.649577910586425
As 8.795356305841938 12.732710976249296 11.91135375809378
As 15.896375627113914 17.340619002397084 14.228841736291134
As 13.513456164703054 14.166716932509948 8.192671041880546
As 16.781543680954215 10.523600726113548 11.5800842856129
As 8.77511327502013 15.544590022213693 13.777179303302542
As 17.325408968480897 12.434739361081988 13.041968029156536
As 15.210258621498108 15.951947164721693 12.27280050722286
As 10.227064395492434 13.393914528604379 13.859466522935287
As 9.72436391087499 16.87909104247624 12.247946790216913
As 8.835891006756192 10.217008911394794 11.783797122769446
As 14.304535175912951 10.159320479735442 11.646620710116855
As 19.626565848909834 10.777261842665121 17.20391520792765
As 9.268961403701475 12.627848842654217 16.040661800190264
As 16.65830582661133 12.910078806821277 10.690390627805733
