44
Energy = -196.48497816 eV
As 14.009444137422772 11.504037423610066 11.192604235030487
As 12.447137729146633 6.485359509089621 12.919947087511906
As 10.013680714910349 13.009306719382247 4.75496135663574
As 12.145902265001878 9.89423449756511 11.473339689864881
As 6.272868393569409 6.380784158136366 10.290372511545266
As 9.836084883218026 10.95453104012629 11.65569382385985
As 8.773282381565723 7.003143718851528 5.14938407707112
As 9.520314905750329 11.252219009005625 14.10978939200815
As 11.817465229591804 11.768481182247744 6.026350950300914
As 7.911782260590456 9.790155763380055 7.707391652063996
As 7.781037009447385 13.035894411913723 14.092841015084868
As 14.821003193786224 10.009647166424477 9.350232003413616
As 12.851346322806076 8.86575961084579 13.596623870021455
As 6.745031967800733 8.177736863143668 6.0661605126128055
As 14.222027372626457 7.170283224937592 7.273483362776205
As 8.235918205291112 6.896889688498531 8.836283197525837
As 7.303438426203289 5.846616114133806 6.786930769107512
As 12.889771890492458 8.391565657320164 9.175380175528511
As 8.814061733374237 7.238439694759839 14.180841659503685
As 6.41376413146688 6.679730009036892 14.377067004250486
As 8.020557182440271 13.605355181300693 6.109212202575551
As 8.510501565831124 5.46594596407638 10.86587324366504
As 10.671728150488958 13.817431405823474 9.013985351305859
As 11.192954339513559 11.431768442025412 8.428480460756559
As 6.948591965998867 11.32152801255415 5.963905027628229
As 8.674195574891804 10.900574517568838 4.157910555797836
As 10.81989825293619 9.810472444565413 4.8393216209380885
As 14.724309920191684 7.403299511923531 12.809267495485145
As 9.191749010541827 7.73642293485738 11.756808572373863
As 10.44587200308003 13.393417627701401 11.495101778635405
As 7.8814431746160665 9.428761166947874 14.891356849686558
As 6.189692097125482 14.062094537680101 11.099696365685087
As 12.801745363996115 5.236436469887845 7.436649182823051
As 5.794565697721803 8.873514316134248 13.645850722287118
As 7.35873637012745 11.982297390467364 10.46379511424352
As 6.023804646550698 12.07065376335215 12.63564430908741
As 8.407590851738979 14.64264649007477 12.247317739528063
As 10.495776711337468 8.085943235221938 6.613822988716455
As 12.413876299089255 6.792465559091335 5.592441264286959
As 13.589732440485697 12.116182097924446 8.818287999519098
As 13.648664023616671 6.555415507588688 10.715711293485095
As 8.304231883017168 14.028833936262743 8.490966417063113
As 6.045617230352105 10.10454004462329 9.400884993839968
As 6.829537703174821 8.589919592863236 11.302765717795465
