40
Energy = -177.78885597 eV
As 11.971296767050367 12.395615937118203 6.702267655842487
As 14.281952895606322 11.367997073495756 7.379638044483358
As 11.636660543046556 14.4538418983312 8.159654084752603
As 14.86706162707328 13.372725551479654 8.652295694895937
As 9.173082057754817 14.279968205995278 8.525326986393605
As 11.164819788016196 10.899869466095735 8.499995023760627
As 16.310957481520976 12.677114467421596 10.44075488162424
As 14.26392226900687 9.430808652991594 9.097119603990453
As 9.006991196025725 11.915207551684606 9.33924675485062
As 12.295497620944182 12.71195835523997 9.901940029496753
As 16.378207005683546 10.194040879692984 10.148333560774383
As 9.774880543962281 14.981427629165546 10.92956125245151
As 14.428189941044566 13.729854564569093 11.8584836369067
As 10.86639704972641 8.586327293074119 10.9687735226101
As 13.929906495485957 8.630411561851842 12.855350435957304
As 6.754730151661669 12.843517780631206 12.591464296810086
As 11.530999860678557 6.71329309567415 12.488734897166488
As 14.370535382583101 17.446265729874074 12.539757121965746
As 10.27677752105552 12.6187451654345 11.392029483351847
As 7.941124700820216 14.982369224454445 12.678431574224673
As 14.713867046976608 15.834553328645459 10.73958221726909
As 12.898660476525414 10.062205520453894 11.109936430758623
As 11.431694243737008 11.24255202331888 13.97334883798171
As 16.314383356822315 9.29086082124103 12.507921242335568
As 9.771865860003018 9.592344196828098 13.026358979720314
As 9.579467089774466 14.721101135350628 14.574458854351711
As 15.70019717113611 16.48225939968934 14.421804933270462
As 10.460506610936193 7.608300590078817 14.397176787509041
As 15.37158668913879 14.012349552122352 14.178009448255809
As 9.558925540716624 12.335436174452385 15.321091244070537
As 14.788040554207377 10.887448294380508 13.687883512717365
As 12.223965138216313 17.084123556522336 13.808993804002064
As 7.651625831044979 11.333480538621226 14.081736751827615
As 11.751004789166714 14.666452520248487 13.320981568940589
As 13.603338274187882 16.54515695057584 15.85325424704417
As 13.633936881867884 11.955547187571298 17.360913338375042
As 13.163002829481243 14.065163631396993 15.371871315273443
As 12.198099034740883 9.496078943021727 15.656606197950715
As 11.642527117265365 10.770884785252807 17.718749125218174
As 14.612425489858946 10.075451690503913 16.033273545369354
