4
Energy = -15.2574885 eV
As 8.486501302615963 8.74758320787519 7.795416781294203
As 9.181748433701705 9.328689645670227 5.876530954351407
As 9.97383073537186 8.666510937296238 12.345796317891253
As 9.303725363350077 10.209922519112292 11.051864565217251
