44
Energy = -197.39435455 eV
As 10.519888369123322 9.889107970473507 14.651815751987783
As 12.686724293209512 11.027091461941499 14.094448962557232
As 12.89495848993606 10.572639086404655 11.651932749145299
As 11.868988774418721 13.32125447239217 13.313129020739824
As 11.363119218735305 7.507298128873781 14.4448774931232
As 14.25183648663978 8.607990433438413 12.443682055528969
As 14.83262529406158 12.08756910583639 11.244281308099726
As 15.245146497305377 7.70251811204476 10.338611264107458
As 13.976204901100786 13.046584968309226 9.061326280176623
As 14.01450043403008 14.216416911811406 12.32703789587149
As 15.55452798466358 5.459907863595072 11.359650693687163
As 13.098350460767577 5.17378135261313 11.841869008310749
As 12.599008897443575 14.762244282101953 10.30419396671516
As 6.931800646808341 10.192581147279904 13.336685494870672
As 9.283498533633933 10.61642447481878 12.589911378442007
As 12.113024501489889 7.4562158304100015 12.059360091139771
As 8.11022189740196 12.193203521319862 14.159884008611396
As 12.767243852252212 11.832196218731752 6.052675787722965
As 10.724375336769722 13.254397210538537 11.137567456235017
As 9.097815723676318 6.455137081794457 14.041366734747646
As 10.502899438140073 14.984973354390533 14.344552024047386
As 13.90311850296618 5.7296910429233785 9.560250642650303
As 7.210228708229338 14.011222042065349 12.7551890824772
As 9.404774655984008 15.169727075331174 12.139157800590649
As 6.21477173088495 10.76417952626155 11.02039495413624
As 9.740898778296291 5.104458273598983 12.02719618995634
As 13.116408443523474 9.789456705705806 7.472648124658587
As 9.775385271278486 6.795074564404123 8.915143382445075
As 8.70738127843494 7.322843266184367 11.729605168800978
As 11.44124409784738 8.732590538621658 5.908314918873915
As 7.981730686795969 9.646526677888197 7.695466280717522
As 11.923091169808735 11.760417938310813 8.380829750258417
As 6.520675632207237 12.993056813115945 10.661600194151228
As 5.453320212602165 13.075489133084517 6.205308123261622
As 7.520001774996421 12.463670422055003 4.979776508520072
As 7.3721639825498775 5.268875474392411 11.233083308477596
As 7.765341580671952 5.6433626033657855 8.807105953689183
As 9.284285799659688 7.7705498998204865 6.668534347212104
As 10.629770519519884 10.891051637814096 5.022316228825281
As 4.484937378965047 10.935498260934843 6.971737712967859
As 9.042254450784904 11.7093456387188 6.778792866523606
As 6.066721977974657 9.191875233298607 6.196863713391836
As 6.556415224602349 10.378302315207277 4.075971300138653
As 4.333065699301765 11.565155423557924 4.553752239217363
