40
Energy = -177.41797283 eV
As 9.271589446731992 11.779045663714864 8.867321909863536
As 14.87793202786621 11.806722693520694 8.848305436766005
As 11.46143792684588 12.773141676825334 8.19086754175903
As 16.304518366604107 10.306271637785704 10.225830885592817
As 16.34132603758565 13.889940220084545 9.27908531331732
As 10.893862443261154 15.094339945175083 8.984911061892113
As 9.525861530703652 12.384530243666847 11.252403195762591
As 9.923724981833018 9.439363409858853 9.433775837903053
As 18.002949467445198 13.144937274060142 11.086004352273592
As 12.343184551293296 9.570724293540811 10.187803687738546
As 12.877312344218362 16.610077974584087 9.480250348587344
As 15.297456823441738 16.104591962911808 9.82178819888607
As 12.783078014736315 12.049908478296475 10.173564372458808
As 9.423386334900291 14.887189962204951 11.012478762940713
As 16.129465196722382 9.539962083331652 12.637155106362837
As 13.83403837394475 16.563611770468658 11.788951601921402
As 13.127375475674825 14.251151470867805 12.39735581690725
As 16.038319577920348 11.963013712941434 12.07006196564376
As 7.2062640667015305 11.556015347380137 11.711854119359034
As 8.020066809083668 9.232918393822679 11.101026568766136
As 7.312307841957129 10.822646021921821 14.133855860116666
As 12.145740773231775 10.393086043590417 12.584063704181546
As 10.775932633526201 14.581266661649858 13.079170637014006
As 8.50530730713589 8.720848203965472 13.528660174999764
As 14.047625740767947 9.561562032099706 14.033582564036498
As 18.516749130832373 14.869935544734245 12.893499656578946
As 11.189328754722881 11.34594399747042 15.028998834713127
As 10.85437917206028 8.977350822228466 14.244560433207637
As 13.27422784262955 13.699148596353268 14.933967061087742
As 16.22337499049339 15.09944197981576 13.841630037139474
As 11.0848036973321 16.582221161734218 14.469166292435878
As 9.091587192521203 12.618774940173552 14.543437390281241
As 14.768155067553613 11.707493106412661 15.17713806034057
As 17.539589712113596 13.129193290671406 14.46427284300278
As 11.367478532439254 15.288448496554173 16.399649608451917
As 11.34799041912999 11.661459020740528 17.504088812640216
As 9.716016529910856 13.500108833870044 16.871980562817722
As 13.924209110456726 12.086819483611073 17.516136006204338
As 17.006044975868477 14.855246198510052 16.206353126099433
As 14.57470141884838 14.500247989896609 16.943692890995184
