4
Energy = -15.23154407 eV
As 11.073716804641053 10.482327502158304 7.312958320169435
As 6.700851261368458 8.353743060569306 9.554334628566721
As 6.508646617700633 6.344213715619978 8.911323961025957
As 10.846925690170577 9.949856095533134 9.351523464118607
