4
Energy = -13.03645455 eV
As 8.04435919611312 7.914254653029771 7.800432545406848
As 5.951589026313107 7.15720812374226 8.4844843041904
As 9.668643697605653 7.162048381433028 9.266573524254294
As 7.845284920110935 9.155225087401293 5.854892410404558
