42
Energy = -188.29565754 eV
As 11.919861075486786 11.465234877931943 8.073957723352214
As 14.387752548747038 11.615294986896055 7.882266981537723
As 14.399335828537474 18.322813338132356 9.253726978569397
As 16.208853893424774 11.675403454747906 12.334923991364157
As 12.186751490376368 12.763229886364623 10.183788153637634
As 11.59154585874772 9.120200042633591 8.707305191711498
As 9.793136986786804 13.45001690687497 10.528439144804935
As 12.489590474324963 17.75457918912586 10.733738558609055
As 14.623969808289305 13.503712687437746 12.92213844070503
As 16.503510635787443 14.662551073168913 11.746340340007807
As 18.110747868232007 13.245797242376051 12.979019981152478
As 13.185614537888608 10.482595017528926 13.417872893327342
As 15.33891903541889 10.16292773371845 9.385033318794433
As 10.058033123776552 16.862584486632674 12.897346334465515
As 13.720018253529972 8.414180409646294 9.778268964594876
As 15.587395322115459 19.62152750852081 11.005314996596743
As 10.801643988641393 14.499682474029724 12.58434266870164
As 10.451686239669167 9.23645641636328 10.941993284656878
As 10.780342667834555 11.536540788519403 11.79648228731546
As 15.536306996360727 9.750820028030741 13.94785167466418
As 13.227358720770642 20.123875038914843 10.464500011857462
As 11.389005891362249 12.66763077302823 15.73508544952214
As 17.771314080203247 14.095116652946873 15.36667067627268
As 12.594305081685246 8.422265583153402 12.078990251020587
As 15.448630369731275 13.398858681591964 15.324822786381915
As 11.80473538569286 9.12625803923749 15.017391666929923
As 16.087392923126252 10.993237220963213 15.972819072279254
As 13.655900434042351 16.737738910078313 12.68516038554714
As 9.936067808474801 10.60267213459143 15.838819572138085
As 8.829358022651117 15.027967858370125 13.981898245086205
As 17.284448497731056 16.81044296919848 12.969384892336416
As 15.383230517381852 18.4240929437668 13.15456937255024
As 11.961206088474098 17.51957230618261 14.37852269506289
As 14.6123322247043 10.680466043425461 17.940817684665436
As 16.687310898949157 16.306762339169268 15.221114481246994
As 12.915904556048858 9.038669305428812 17.257266712005855
As 9.900123238072869 14.598436333415806 16.179566039197475
As 10.823784601498971 10.083196655817359 18.1841625737264
As 14.176518318202325 14.795824802852879 16.973325548467706
As 11.281658914517527 12.537443695664818 18.214216571356545
As 11.957524481952852 16.020178529615002 16.404003039121513
As 13.675578958052773 12.921851281209182 18.635447011961173
