48
Energy = -214.9598351 eV
As 9.455596406382346 17.129493475443546 7.255847818439143
As 10.560727572525359 14.993912122349887 6.669809378360597
As 9.841728474229967 16.595993704499087 9.73821550341195
As 8.113323287413142 15.031563013150695 7.02208209230302
As 14.723128244312178 10.327381026151768 9.450442370939513
As 16.58156530017574 11.460044558366885 10.613926353174337
As 13.229949740976178 16.419732280639764 8.613874292423992
As 15.313139539062322 15.040184278032067 8.801668913251843
As 14.869820572254843 13.375116798200104 10.757623793688248
As 7.747193799703503 15.24782855184917 9.496438998268475
As 13.60191791196588 8.517404118699202 10.299213085943919
As 8.05753255450888 8.598638988668473 9.923333736718828
As 11.414286139154434 14.765751921077843 9.055726024941348
As 10.020901674731284 10.085294655783699 9.962335161455629
As 10.346763108648009 7.650915528314274 10.37578599343302
As 8.813065614543223 13.164681331221288 10.311955177265265
As 16.38293482696411 9.99636977040285 12.673426779262305
As 16.016391817395533 16.960752540057225 10.267260810130066
As 13.745675116669739 18.040811541522874 10.48899294468661
As 14.478623235699718 7.0986493799453125 12.162437962903846
As 11.995357832668915 15.37736908873041 12.15938596856349
As 8.51965255113734 9.962355349106792 11.93392675719547
As 7.001915883884907 11.903304511629191 11.451196499552848
As 16.194890629969365 15.121305104715905 11.993256034749084
As 18.07096934575514 11.049794879499514 14.26382071795414
As 12.44580854616171 17.74681426131748 12.666503271623705
As 16.411460777471415 12.875043733488244 14.001391208319884
As 14.488024547725855 11.299747529829382 13.691877979310041
As 10.464160708324322 7.3790729506513655 12.865020661804607
As 13.478420710510909 7.506225694129264 14.399231816094185
As 12.437436748915426 5.814865100753071 12.783424312319537
As 8.273818809400682 13.65868811661786 12.68589863081427
As 10.593139154283234 15.133721904025615 14.19764827485771
As 14.173319717070983 14.887062620969866 13.383432994104448
As 11.87884967764381 9.307996711774653 13.674074062318953
As 17.11351267913343 10.13521551474938 16.336772642255436
As 14.67007085567829 9.976946072594867 15.800526908559053
As 15.941125733784775 13.903146262989603 16.173748459520795
As 10.41904764523669 12.663552682239484 13.595730724542792
As 13.926414295732334 16.99726668928995 14.641479550561687
As 12.26327953249393 15.640005601068028 16.045058493778935
As 13.056935017417738 13.241562408536288 15.740984783587443
As 9.376936703851669 11.691850667654888 15.63060104894712
As 10.515605859950444 9.42786598163745 15.794620306991021
As 16.62561775751727 12.18730313798565 17.677158411972346
As 13.922791260609442 11.662270903253571 17.572671864129266
As 11.670188690439602 10.424236394159996 17.830427008128925
As 10.955319043534251 12.723226195848316 17.268069070061618
