44
Energy = -191.17244443 eV
As 18.71645254647769 17.767907599746454 7.354669684247347
As 13.936902759740335 18.502271669904424 21.71407898362258
As 16.144685991351096 16.793461603358395 14.234432165960206
As 19.08806200938089 14.515353902683367 12.538269302706773
As 17.19886804394096 19.621027860765675 12.014169327500491
As 16.78588412376763 18.690628000488164 8.38179423973485
As 13.443335158502432 22.758429716628388 21.692042624071355
As 18.49858834074451 17.39753493450851 14.736847192079326
As 15.572510170409576 15.522547643063847 23.24464235184839
As 18.903571096363446 19.721295420783374 13.87502315171893
As 21.829736229963036 16.450620749410287 21.015988804213226
As 14.596639467353736 21.51642507386941 23.483026867167347
As 9.086606029027598 20.2664665991206 16.62541387510411
As 9.087823537794291 20.54848112002668 14.136152328606705
As 16.132280242027377 17.359587429950643 11.831462670873671
As 17.10091691938268 15.060171179674304 11.173843475204576
As 21.131845543623673 18.694904453674546 13.207887360118441
As 13.46149491378918 19.30503551365361 23.937203033673704
As 15.9897922254795 18.767996048976066 25.067089761735005
As 18.67235693289648 18.272067103859683 24.899884494990008
As 23.946621303054073 18.398761282176036 15.303771072624464
As 18.479384992074365 20.85955277386215 22.68329428317313
As 15.479720626199546 23.079394706039416 20.64758704394347
As 19.927207333892312 18.08760484008676 9.36683758789529
As 17.72714994671882 20.57880873036126 25.038861099438748
As 21.847749606683525 12.732777133558018 19.924715829087866
As 13.358004919383227 16.04369662557949 22.199270654658186
As 24.523217336421382 16.542026574271006 18.771054218847347
As 9.997812910948605 22.136913500932213 15.577087995789071
As 21.677148624344497 18.53714439733972 15.641228151829667
As 22.960664793868258 14.266323109421608 21.483065417382868
As 22.384913384094947 18.945668122989414 18.88001941175791
As 16.180047694385994 20.954202185816396 21.66020084131117
As 16.853349408620172 14.427458926154198 13.590109058172928
As 19.338521452988232 17.024870378315555 12.48056231361375
As 13.681535370672735 16.20607753121339 24.609429704786997
As 24.57545271350375 18.81048681111258 17.641501386539634
As 21.381806183230125 11.341630099628455 21.786156786466748
As 18.756263852148034 18.38716944128341 22.4535365984196
As 21.445964338414363 13.26734699046037 23.152590716841342
As 18.342913092564356 19.927134630524723 9.828288415662898
As 22.00869533595365 16.46161510377766 18.485068267272748
As 16.233845620975824 17.937864005080634 22.766068883519434
As 23.82921919999273 17.958347224035858 20.736709585591438
