49
Energy = -218.29489737 eV
As 10.282347806917647 13.918156415182619 7.270469069746687
As 9.168394484000213 11.927859872538152 8.217800603412355
As 12.655463313321869 13.733560202286553 7.995049279414898
As 9.36439920536648 16.030972290048666 8.207722633877761
As 15.564114233185236 9.205278203299084 8.489473455027909
As 7.367694495542785 15.365856652349313 9.581784031446409
As 10.52105802997889 11.063829226187568 10.206239687711847
As 12.36023632743211 12.76667211155546 10.283415995042798
As 7.133550282714987 12.898603718987719 9.271726457918167
As 13.144651393404722 16.125134167949824 8.627966047732023
As 13.172045874985107 9.462365543781395 9.303586804293612
As 11.113877318666862 17.04581796382437 9.695098799664866
As 8.665886882829454 13.832921488890367 11.027355136759619
As 16.262718754467603 11.021393470727654 10.082011156596636
As 14.62547733301497 15.544881512655627 10.560306348113404
As 14.542840090772993 7.413979654331425 9.874991470699221
As 13.947771501675046 10.953199254737664 11.183289643047273
As 9.87219344523381 11.469218753268564 12.69374784297269
As 7.687789975761536 12.720077041954099 13.068935026366532
As 13.125858247067066 14.553095828922089 12.164379541621127
As 10.914068541971501 15.70044284190333 11.772814554143839
As 17.339320351577122 9.377881954379886 11.64646162691455
As 12.01184839824904 9.127344902584046 12.899829959188521
As 15.054785716777468 8.514572085145307 12.032711395465698
As 14.937862754650665 17.380033769372304 12.598565596865777
As 14.975429325765427 7.284793452111792 14.207206743453009
As 17.132214513612567 10.559955882984555 13.851513746337544
As 16.246824693897743 18.909128173930558 14.474125187777018
As 9.493523465121783 8.992134720730736 12.9427208216276
As 16.029494189334514 15.315547407401755 13.540229724329683
As 12.039631319159122 9.842521469881017 15.334948827037046
As 12.480823028780932 6.8324687714928825 13.80157738717188
As 15.060964445595381 9.665488979624117 15.07768783788896
As 17.372662618260957 16.7998533007227 15.189642235193066
As 11.915115470601492 12.41603678287716 14.937948563914095
As 8.358846571142593 14.136628281499986 15.040343137469792
As 18.46537179501417 9.059504561724445 15.25415537662634
As 13.175017108708662 16.61186780069863 14.213310387560247
As 10.865455596164617 17.43077178639873 13.568950298993643
As 11.283084347203408 7.185377988534698 15.946954783856595
As 14.247475366460357 18.390297742583634 15.781871425275305
As 10.608552137319041 15.107460133038785 14.5776280370567
As 15.197190443575144 14.545806895041045 15.839170687463028
As 9.660815308080304 9.017311979905566 15.43911438901433
As 9.92074623778155 12.730168284949487 16.46760793784655
As 13.148599399252909 13.508143916573992 16.86247471606929
As 16.724046799047088 8.850459017117894 16.762925946476855
As 15.63080107601432 16.677202525019155 17.000698167411148
As 11.057962543191397 14.90482377694174 17.058364028754205
