54
Energy = -241.95887562 eV
As 11.306547079315234 14.497410101910184 6.647797333230738
As 14.967512193833345 15.012888878481899 7.40483380506264
As 13.250853196701874 13.142885292877857 7.372783397858612
As 12.403185374710125 7.714711561189584 9.73330944973748
As 14.2554534956233 9.096304501920425 8.761431109001656
As 11.392497348270442 16.41128697207961 8.229585897187404
As 16.210922918083565 8.918438156552597 10.272776484904755
As 8.982362636041143 16.786965686823354 11.059693762777536
As 13.61034717911154 15.993360308570857 9.255018626342919
As 9.22089890403245 13.958305110134447 8.202995715256963
As 6.770243178728755 12.821546386057744 9.289137618596092
As 15.886258913651963 13.630685861447672 9.33209449951007
As 13.241650189700655 6.702897968350606 11.839290563298396
As 15.681729397325006 10.877709764172172 11.680389766600456
As 13.3867257908005 13.564115192556132 9.851067707051925
As 8.93405832251246 11.703755343740944 9.100113868976548
As 15.638323835407101 6.705854272263782 11.171119955419705
As 12.391598072212334 10.173346758960784 10.045295544942764
As 10.396089758626275 17.766655728861508 12.876936444263425
As 12.76284887251695 16.904360963736604 12.37633868012782
As 10.488447918425697 15.011788135248159 10.113086443514302
As 13.285881219226576 10.602367288518932 12.325859358133265
As 7.263013669030467 15.365189938341961 12.0835915648008
As 15.622638841917322 17.051232976720073 11.314247155251637
As 16.527505734186374 14.92273965371996 11.372413106867125
As 7.88642865177209 12.80090542604231 11.396907355361588
As 16.830292473252147 6.368911546214243 13.309063299128308
As 9.724860126038116 16.78364858289248 15.051092432821555
As 13.289933275941596 8.458752088428186 13.573784457349518
As 7.658365917687131 15.488727384457755 14.525241420062194
As 13.426142043089538 15.164031174515744 14.032492588672518
As 11.086173215115709 14.722893106574952 14.747892111597366
As 6.559801669784597 11.866191086408678 13.807214648325514
As 16.136785630395114 17.819983785370876 13.693516840823403
As 15.510374807383812 10.253479419973475 15.573682372041931
As 9.698226978032583 9.857016550324674 12.738251566577281
As 10.55531580324838 12.162981113846783 13.271156231065067
As 17.148873051636706 10.577054478584122 13.69183263535278
As 17.65543862574883 16.12853954437698 14.75200643560813
As 8.477114462917202 13.095720016123577 14.595735834793585
As 17.754516867394386 8.22591474646182 14.27255286173961
As 12.041750309383238 11.680765620373288 15.245490092578768
As 13.824811513563455 17.541302304594875 14.589087681885614
As 10.8892953583177 8.276358802937883 14.22804071431355
As 7.75988431454698 9.791700625416112 14.291304702239689
As 17.998550742062527 13.397620829088408 16.446543597771427
As 11.2431071323036 13.337634171213963 16.894194658461867
As 11.142241376193033 9.647816002573276 16.301887020026985
As 17.25919265151805 9.541438965754264 17.1648253239956
As 8.742305748116056 10.17018982601229 16.62955272413262
As 16.315649470627424 15.234096232474688 16.651435582949897
As 16.475301908046234 13.940880972637453 14.556465235005932
As 8.81142330085949 12.65269652605354 16.97024056568594
As 16.3191957014584 11.774893433461708 17.38624831734216
