54
Energy = -241.45787647 eV
As 6.575415518885072 15.117557664182211 8.127127046270186
As 17.650207417370332 12.550263886179916 8.715396407407097
As 15.717379045704787 11.023631735539563 8.234343809470829
As 8.749913637551328 18.164931429624094 8.351361517848504
As 8.874792358246035 15.789611065989765 7.61416381148441
As 15.642578594961094 8.035349015217987 8.085983849450962
As 13.709943107522179 12.467375949173762 8.855191726152368
As 16.354704489614534 14.406863359195802 10.039024619971508
As 13.136167137127103 8.515399820788147 9.4792672782162
As 13.369786903169572 15.138233765857695 11.263415598123608
As 6.089593807810299 16.326117683267967 10.228282791750061
As 6.3665009336265275 12.913745115344145 9.390210197487134
As 16.905130171990827 10.993647778586844 10.378114502045074
As 16.91888430414361 7.54579033558044 9.839561500205075
As 11.941944130558229 10.771548467921658 9.474526668001088
As 8.662080929543094 11.949173881273184 9.680438950517258
As 8.139682343274943 17.581468435641305 10.689893566365292
As 14.71200631502401 12.869156676549377 11.101059776976674
As 7.8399479556364495 10.961944777211759 11.791572873301746
As 14.650931536196149 16.289322348816427 9.549086248738115
As 10.092333952677064 16.48266923387193 9.647986131156342
As 13.088271357620203 7.0463779654454575 11.532445117964269
As 14.934018648185496 8.676219522798409 11.251926213535253
As 17.29850503455332 15.728321533490313 12.0448867852966
As 5.947252244883713 14.183993552169552 11.545306058392761
As 17.469672622544795 12.355256550596042 13.413595496639788
As 10.184252001647964 13.72712776028339 11.064323133949964
As 15.069142173158214 16.861504502736196 11.95357431093298
As 12.965696291042548 8.95414007124891 13.088695620840346
As 11.70131437827047 11.85142117779591 11.752997196121816
As 16.21209726137337 9.429283850082987 13.958969030798162
As 8.129540273583421 13.33394573806056 12.460985456679065
As 10.046918457327237 10.37063855726218 12.874093457785477
As 15.116713681293907 11.676833213601485 14.034052964528344
As 17.956366415829894 10.752163215676282 15.330705408775
As 14.904019501010461 14.723002285284302 15.101489446300304
As 14.086904160365332 17.103929288874877 15.178192715456342
As 14.297112361647685 8.152361987973078 15.048513254320293
As 17.322719348008302 14.726814362746879 14.342828478527194
As 12.079176523732043 16.569207621471406 16.53938672886921
As 16.08931811151688 12.032529829941693 16.382859341183593
As 12.215779083013945 12.941485474464304 14.8573521123309
As 14.246337309677212 17.150880049670953 17.672287577213137
As 10.019269350417902 11.597818751307877 15.107312139809968
As 15.483572873183952 14.951819911873127 17.528032038617024
As 10.972817702978615 14.81373167243667 13.669402977591373
As 8.98577397270365 13.890062349468591 14.77840863733335
As 13.222987622053308 10.076180502003353 16.247392253827794
As 11.468143337052215 9.268103774010518 17.77098606652642
As 15.10020533498077 10.244348224110167 17.80836099287232
As 11.66490172896856 14.147056394824464 17.027333726414916
As 13.49152021545913 14.047151031841423 18.69743778845473
As 14.016288900796447 11.699549752544677 19.49488323666844
As 11.762972182697162 10.67244215030065 19.55448041671584
