5
Energy = -19.94669032 eV
As 10.295989627408744 7.840474531440433 6.371704676731485
As 8.312485750859352 9.018536646685401 7.243001814097719
As 7.326977760519981 6.9630421754938014 8.237861320330701
As 8.772006705466179 8.395281164694499 9.606250821919856
As 6.350149370891273 8.820887940443606 9.522924451748754
