8
Energy = -34.28326074 eV
As 9.953739114936136 6.2775945678295635 8.290041293464359
As 8.573758253451613 6.167634508424525 10.328261459961775
As 9.560152975729302 8.291709431337093 9.608070273719225
As 7.470901524560114 6.340689375991531 8.05451516113875
As 7.342596617781815 7.804154505894589 5.2955035093619145
As 6.745732565829635 8.769106017669122 8.349837037116075
As 7.490062374380561 10.012758719636112 6.31981767583885
As 5.330864581984346 8.828018621367724 6.247910157001693
