9
Energy = -39.42790017 eV
As 10.267721245934515 15.59633750930689 11.434580554400833
As 10.720793235964267 15.025579091933572 13.784460847446576
As 12.337811578929973 14.422010442071787 12.037522805576907
As 10.179001241429352 13.250573489211817 12.173540320588119
As 11.412476653020526 10.342751172574465 10.111249458779074
As 12.035502682290506 7.4920285520511385 11.555075316554982
As 11.003457394320426 9.572013082586919 12.41803800599987
As 13.400073270452575 8.815741649283384 9.919033018362564
As 11.21823600647312 7.987368803767674 9.238857683481626
