  37  37   0   0
  0.3614566E+03  0.2373664E-08  0.2373664E-08  0.2373664E-08  0.1000000E-15
  1.000000000000000E-004
  CAR 
 unknown system                          
      1.71914817    -10.34620478  301     -3.45889914      1.00000000
    -10.346  0.0000E+00  0.0000E+00  0.0000E+00  0.0000E+00
    -10.306  0.0000E+00  0.0000E+00  0.0000E+00  0.0000E+00
    -10.266  0.0000E+00  0.0000E+00  0.0000E+00  0.0000E+00
    -10.226  0.0000E+00  0.0000E+00  0.0000E+00  0.0000E+00
    -10.185  0.0000E+00  0.0000E+00  0.0000E+00  0.0000E+00
    -10.145  0.0000E+00  0.0000E+00  0.0000E+00  0.0000E+00
    -10.105  0.0000E+00  0.0000E+00  0.0000E+00  0.0000E+00
    -10.065  0.0000E+00  0.0000E+00  0.0000E+00  0.0000E+00
    -10.024  0.0000E+00  0.0000E+00  0.0000E+00  0.0000E+00
     -9.984  0.0000E+00  0.0000E+00  0.0000E+00  0.0000E+00
     -9.944  0.0000E+00  0.0000E+00  0.0000E+00  0.0000E+00
     -9.904  0.0000E+00  0.0000E+00  0.0000E+00  0.0000E+00
     -9.864  0.0000E+00  0.0000E+00  0.0000E+00  0.0000E+00
     -9.823  0.0000E+00  0.0000E+00  0.0000E+00  0.0000E+00
     -9.783  0.0000E+00  0.0000E+00  0.1000E-02  0.0000E+00
     -9.743  0.0000E+00  0.0000E+00  0.1000E-02  0.1000E-02
     -9.703  0.0000E+00  0.0000E+00  0.1000E-02  0.1000E-02
     -9.663  0.0000E+00  0.0000E+00  0.1000E-02  0.1000E-02
     -9.622  0.0000E+00  0.0000E+00  0.1000E-02  0.1000E-02
     -9.582  0.0000E+00  0.0000E+00  0.1000E-02  0.1000E-02
     -9.542  0.0000E+00  0.0000E+00  0.1000E-02  0.1000E-02
     -9.502  0.0000E+00  0.0000E+00  0.1000E-02  0.1000E-02
     -9.461  0.0000E+00  0.0000E+00  0.1000E-02  0.1000E-02
     -9.421  0.0000E+00  0.0000E+00  0.1000E-02  0.1000E-02
     -9.381  0.0000E+00  0.0000E+00  0.1000E-02  0.1000E-02
     -9.341  0.0000E+00  0.0000E+00  0.1000E-02  0.1000E-02
     -9.301  0.0000E+00  0.0000E+00  0.1000E-02  0.1000E-02
     -9.260  0.0000E+00  0.0000E+00  0.1000E-02  0.1000E-02
     -9.220  0.0000E+00  0.0000E+00  0.2000E-02  0.1000E-02
     -9.180  0.0000E+00  0.0000E+00  0.3000E-02  0.2000E-02
     -9.140  0.0000E+00  0.0000E+00  0.5000E-02  0.5000E-02
     -9.099  0.0000E+00  0.0000E+00  0.7000E-02  0.6000E-02
     -9.059  0.0000E+00  0.2486E-01  0.8000E-02  0.8000E-02
     -9.019  0.0000E+00  0.0000E+00  0.1000E-01  0.1000E-01
     -8.979  0.0000E+00  0.0000E+00  0.1200E-01  0.1200E-01
     -8.939  0.3395E-11  0.0000E+00  0.1200E-01  0.1200E-01
     -8.898  0.0000E+00  0.0000E+00  0.1400E-01  0.1400E-01
     -8.858  0.0000E+00  0.0000E+00  0.1600E-01  0.1500E-01
     -8.818  0.0000E+00  0.0000E+00  0.1700E-01  0.1600E-01
     -8.778  0.0000E+00  0.0000E+00  0.2000E-01  0.2000E-01
     -8.737  0.2055E-04  0.0000E+00  0.2200E-01  0.2200E-01
     -8.697  0.0000E+00  0.0000E+00  0.2400E-01  0.2400E-01
     -8.657  0.0000E+00  0.0000E+00  0.2600E-01  0.2600E-01
     -8.617  0.7077E-12  0.0000E+00  0.2800E-01  0.2800E-01
     -8.577  0.0000E+00  0.0000E+00  0.3100E-01  0.3100E-01
     -8.536  0.0000E+00  0.0000E+00  0.3300E-01  0.3300E-01
     -8.496  0.0000E+00  0.0000E+00  0.3500E-01  0.3400E-01
     -8.456  0.0000E+00  0.0000E+00  0.3600E-01  0.3600E-01
     -8.416  0.0000E+00  0.0000E+00  0.3800E-01  0.3800E-01
     -8.376  0.0000E+00  0.0000E+00  0.4100E-01  0.4100E-01
     -8.335  0.0000E+00  0.0000E+00  0.4300E-01  0.4200E-01
     -8.295  0.0000E+00  0.0000E+00  0.4500E-01  0.4400E-01
     -8.255  0.0000E+00  0.0000E+00  0.4800E-01  0.4700E-01
     -8.215  0.0000E+00  0.0000E+00  0.5000E-01  0.4900E-01
     -8.174  0.0000E+00  0.0000E+00  0.5200E-01  0.5200E-01
     -8.134  0.0000E+00  0.0000E+00  0.5400E-01  0.5300E-01
     -8.094  0.0000E+00  0.0000E+00  0.5600E-01  0.5600E-01
     -8.054  0.2486E-01  0.0000E+00  0.6000E-01  0.5900E-01
     -8.014  0.0000E+00  0.0000E+00  0.6100E-01  0.6100E-01
     -7.973  0.0000E+00  0.0000E+00  0.6400E-01  0.6300E-01
     -7.933  0.0000E+00  0.0000E+00  0.6700E-01  0.6600E-01
     -7.893  0.0000E+00  0.0000E+00  0.6900E-01  0.6900E-01
     -7.853  0.0000E+00  0.0000E+00  0.7200E-01  0.7200E-01
     -7.812  0.0000E+00  0.0000E+00  0.7400E-01  0.7400E-01
     -7.772  0.0000E+00  0.0000E+00  0.7600E-01  0.7600E-01
     -7.732  0.0000E+00  0.2327E-01  0.8000E-01  0.7994E-01
     -7.692  0.0000E+00  0.0000E+00  0.8100E-01  0.8100E-01
     -7.652  0.0000E+00  0.0000E+00  0.8400E-01  0.8300E-01
     -7.611  0.0000E+00  0.0000E+00  0.8600E-01  0.8600E-01
     -7.571  0.0000E+00  0.0000E+00  0.8900E-01  0.8900E-01
     -7.531  0.0000E+00  0.0000E+00  0.9000E-01  0.9000E-01
     -7.491  0.0000E+00  0.0000E+00  0.9300E-01  0.9300E-01
     -7.451  0.0000E+00  0.2486E-01  0.9700E-01  0.9700E-01
     -7.410  0.0000E+00  0.0000E+00  0.9800E-01  0.9800E-01
     -7.370  0.2587E-04  0.0000E+00  0.1020E+00  0.1020E+00
     -7.330  0.0000E+00  0.0000E+00  0.1040E+00  0.1030E+00
     -7.290  0.0000E+00  0.0000E+00  0.1060E+00  0.1060E+00
     -7.249  0.0000E+00  0.0000E+00  0.1080E+00  0.1080E+00
     -7.209  0.0000E+00  0.0000E+00  0.1110E+00  0.1110E+00
     -7.169  0.0000E+00  0.0000E+00  0.1130E+00  0.1130E+00
     -7.129  0.0000E+00  0.0000E+00  0.1170E+00  0.1160E+00
     -7.089  0.0000E+00  0.0000E+00  0.1190E+00  0.1190E+00
     -7.048  0.0000E+00  0.0000E+00  0.1230E+00  0.1220E+00
     -7.008  0.0000E+00  0.0000E+00  0.1260E+00  0.1250E+00
     -6.968  0.0000E+00  0.0000E+00  0.1300E+00  0.1300E+00
     -6.928  0.0000E+00  0.0000E+00  0.1340E+00  0.1330E+00
     -6.887  0.0000E+00  0.0000E+00  0.1370E+00  0.1370E+00
     -6.847  0.0000E+00  0.0000E+00  0.1410E+00  0.1400E+00
     -6.807  0.0000E+00  0.0000E+00  0.1440E+00  0.1440E+00
     -6.767  0.0000E+00  0.0000E+00  0.1480E+00  0.1460E+00
     -6.727  0.1225E-02  0.0000E+00  0.1510E+00  0.1510E+00
     -6.686  0.2486E-01  0.0000E+00  0.1560E+00  0.1550E+00
     -6.646  0.2495E-07  0.0000E+00  0.1590E+00  0.1590E+00
     -6.606  0.0000E+00  0.0000E+00  0.1630E+00  0.1620E+00
     -6.566  0.0000E+00  0.2486E-01  0.1670E+00  0.1670E+00
     -6.526  0.0000E+00  0.0000E+00  0.1700E+00  0.1700E+00
     -6.485  0.0000E+00  0.0000E+00  0.1720E+00  0.1720E+00
     -6.445  0.0000E+00  0.0000E+00  0.1760E+00  0.1760E+00
     -6.405  0.2220E-01  0.0000E+00  0.1799E+00  0.1790E+00
     -6.365  0.0000E+00  0.0000E+00  0.1820E+00  0.1820E+00
     -6.324  0.0000E+00  0.0000E+00  0.1850E+00  0.1840E+00
     -6.284  0.0000E+00  0.0000E+00  0.1860E+00  0.1860E+00
     -6.244  0.0000E+00  0.0000E+00  0.1880E+00  0.1880E+00
     -6.204  0.0000E+00  0.0000E+00  0.1900E+00  0.1900E+00
     -6.164  0.0000E+00  0.0000E+00  0.1900E+00  0.1900E+00
     -6.123  0.0000E+00  0.0000E+00  0.1900E+00  0.1900E+00
     -6.083  0.0000E+00  0.0000E+00  0.1900E+00  0.1900E+00
     -6.043  0.0000E+00  0.0000E+00  0.1900E+00  0.1900E+00
     -6.003  0.0000E+00  0.0000E+00  0.1900E+00  0.1900E+00
     -5.962  0.0000E+00  0.0000E+00  0.1900E+00  0.1900E+00
     -5.922  0.0000E+00  0.0000E+00  0.1900E+00  0.1900E+00
     -5.882  0.0000E+00  0.2482E-01  0.1910E+00  0.1910E+00
     -5.842  0.0000E+00  0.0000E+00  0.1920E+00  0.1920E+00
     -5.802  0.0000E+00  0.0000E+00  0.1920E+00  0.1920E+00
     -5.761  0.0000E+00  0.0000E+00  0.1920E+00  0.1920E+00
     -5.721  0.0000E+00  0.0000E+00  0.1930E+00  0.1920E+00
     -5.681  0.0000E+00  0.0000E+00  0.1930E+00  0.1930E+00
     -5.641  0.0000E+00  0.0000E+00  0.1930E+00  0.1930E+00
     -5.600  0.0000E+00  0.0000E+00  0.1930E+00  0.1930E+00
     -5.560  0.0000E+00  0.0000E+00  0.1930E+00  0.1930E+00
     -5.520  0.0000E+00  0.0000E+00  0.1940E+00  0.1940E+00
     -5.480  0.0000E+00  0.0000E+00  0.1940E+00  0.1940E+00
     -5.440  0.0000E+00  0.0000E+00  0.1940E+00  0.1940E+00
     -5.399  0.0000E+00  0.0000E+00  0.1940E+00  0.1940E+00
     -5.359  0.0000E+00  0.0000E+00  0.1940E+00  0.1940E+00
     -5.319  0.0000E+00  0.0000E+00  0.1940E+00  0.1940E+00
     -5.279  0.0000E+00  0.0000E+00  0.1940E+00  0.1940E+00
     -5.239  0.0000E+00  0.0000E+00  0.1940E+00  0.1940E+00
     -5.198  0.0000E+00  0.0000E+00  0.1940E+00  0.1940E+00
     -5.158  0.0000E+00  0.0000E+00  0.1940E+00  0.1940E+00
     -5.118  0.0000E+00  0.0000E+00  0.1940E+00  0.1940E+00
     -5.078  0.0000E+00  0.0000E+00  0.1940E+00  0.1940E+00
     -5.037  0.0000E+00  0.0000E+00  0.1950E+00  0.1950E+00
     -4.997  0.0000E+00  0.0000E+00  0.1960E+00  0.1950E+00
     -4.957  0.0000E+00  0.0000E+00  0.1960E+00  0.1960E+00
     -4.917  0.0000E+00  0.0000E+00  0.1960E+00  0.1960E+00
     -4.877  0.0000E+00  0.0000E+00  0.1960E+00  0.1960E+00
     -4.836  0.0000E+00  0.0000E+00  0.1960E+00  0.1960E+00
     -4.796  0.0000E+00  0.0000E+00  0.1960E+00  0.1960E+00
     -4.756  0.0000E+00  0.0000E+00  0.1970E+00  0.1970E+00
     -4.716  0.0000E+00  0.0000E+00  0.1970E+00  0.1970E+00
     -4.675  0.0000E+00  0.0000E+00  0.1970E+00  0.1970E+00
     -4.635  0.0000E+00  0.0000E+00  0.1970E+00  0.1970E+00
     -4.595  0.0000E+00  0.0000E+00  0.1970E+00  0.1970E+00
     -4.555  0.0000E+00  0.0000E+00  0.1970E+00  0.1970E+00
     -4.515  0.0000E+00  0.0000E+00  0.1970E+00  0.1970E+00
     -4.474  0.0000E+00  0.0000E+00  0.1970E+00  0.1970E+00
     -4.434  0.0000E+00  0.0000E+00  0.1970E+00  0.1970E+00
     -4.394  0.0000E+00  0.0000E+00  0.1970E+00  0.1970E+00
     -4.354  0.0000E+00  0.0000E+00  0.1970E+00  0.1970E+00
     -4.314  0.0000E+00  0.0000E+00  0.1980E+00  0.1970E+00
     -4.273  0.0000E+00  0.0000E+00  0.1990E+00  0.1980E+00
     -4.233  0.0000E+00  0.0000E+00  0.1990E+00  0.1990E+00
     -4.193  0.0000E+00  0.0000E+00  0.1990E+00  0.1990E+00
     -4.153  0.0000E+00  0.0000E+00  0.1990E+00  0.1990E+00
     -4.112  0.0000E+00  0.0000E+00  0.2000E+00  0.2000E+00
     -4.072  0.0000E+00  0.0000E+00  0.2010E+00  0.2010E+00
     -4.032  0.0000E+00  0.0000E+00  0.2010E+00  0.2010E+00
     -3.992  0.0000E+00  0.0000E+00  0.2010E+00  0.2010E+00
     -3.952  0.0000E+00  0.0000E+00  0.2020E+00  0.2020E+00
     -3.911  0.0000E+00  0.0000E+00  0.2020E+00  0.2020E+00
     -3.871  0.0000E+00  0.0000E+00  0.2020E+00  0.2020E+00
     -3.831  0.0000E+00  0.0000E+00  0.2020E+00  0.2020E+00
     -3.791  0.0000E+00  0.0000E+00  0.2020E+00  0.2020E+00
     -3.750  0.0000E+00  0.0000E+00  0.2020E+00  0.2020E+00
     -3.710  0.0000E+00  0.0000E+00  0.2020E+00  0.2020E+00
     -3.670  0.0000E+00  0.0000E+00  0.2020E+00  0.2020E+00
     -3.630  0.0000E+00  0.0000E+00  0.2020E+00  0.2020E+00
     -3.590  0.0000E+00  0.0000E+00  0.2020E+00  0.2020E+00
     -3.549  0.0000E+00  0.0000E+00  0.2030E+00  0.2030E+00
     -3.509  0.0000E+00  0.0000E+00  0.2030E+00  0.2030E+00
     -3.469  0.0000E+00  0.0000E+00  0.2040E+00  0.2030E+00
     -3.429  0.0000E+00  0.0000E+00  0.2040E+00  0.2030E+00
     -3.389  0.0000E+00  0.0000E+00  0.2040E+00  0.2040E+00
     -3.348  0.0000E+00  0.0000E+00  0.2040E+00  0.2040E+00
     -3.308  0.0000E+00  0.0000E+00  0.2040E+00  0.2040E+00
     -3.268  0.0000E+00  0.0000E+00  0.2050E+00  0.2050E+00
     -3.228  0.0000E+00  0.0000E+00  0.2050E+00  0.2050E+00
     -3.187  0.0000E+00  0.0000E+00  0.2050E+00  0.2050E+00
     -3.147  0.0000E+00  0.0000E+00  0.2050E+00  0.2050E+00
     -3.107  0.0000E+00  0.0000E+00  0.2050E+00  0.2050E+00
     -3.067  0.0000E+00  0.0000E+00  0.2060E+00  0.2060E+00
     -3.027  0.0000E+00  0.0000E+00  0.2060E+00  0.2060E+00
     -2.986  0.0000E+00  0.0000E+00  0.2060E+00  0.2060E+00
     -2.946  0.0000E+00  0.0000E+00  0.2060E+00  0.2060E+00
     -2.906  0.0000E+00  0.0000E+00  0.2070E+00  0.2060E+00
     -2.866  0.0000E+00  0.0000E+00  0.2070E+00  0.2070E+00
     -2.825  0.0000E+00  0.0000E+00  0.2070E+00  0.2070E+00
     -2.785  0.0000E+00  0.0000E+00  0.2070E+00  0.2070E+00
     -2.745  0.0000E+00  0.0000E+00  0.2070E+00  0.2070E+00
     -2.705  0.0000E+00  0.0000E+00  0.2080E+00  0.2080E+00
     -2.665  0.0000E+00  0.0000E+00  0.2090E+00  0.2080E+00
     -2.624  0.0000E+00  0.0000E+00  0.2090E+00  0.2090E+00
     -2.584  0.0000E+00  0.0000E+00  0.2090E+00  0.2090E+00
     -2.544  0.0000E+00  0.0000E+00  0.2100E+00  0.2090E+00
     -2.504  0.0000E+00  0.0000E+00  0.2100E+00  0.2100E+00
     -2.464  0.0000E+00  0.0000E+00  0.2100E+00  0.2100E+00
     -2.423  0.0000E+00  0.0000E+00  0.2110E+00  0.2100E+00
     -2.383  0.0000E+00  0.0000E+00  0.2110E+00  0.2110E+00
     -2.343  0.0000E+00  0.0000E+00  0.2120E+00  0.2110E+00
     -2.303  0.0000E+00  0.0000E+00  0.2120E+00  0.2120E+00
     -2.262  0.2486E-01  0.0000E+00  0.2130E+00  0.2120E+00
     -2.222  0.0000E+00  0.0000E+00  0.2130E+00  0.2130E+00
     -2.182  0.0000E+00  0.0000E+00  0.2130E+00  0.2130E+00
     -2.142  0.0000E+00  0.0000E+00  0.2130E+00  0.2130E+00
     -2.102  0.0000E+00  0.0000E+00  0.2140E+00  0.2130E+00
     -2.061  0.0000E+00  0.0000E+00  0.2140E+00  0.2140E+00
     -2.021  0.0000E+00  0.0000E+00  0.2140E+00  0.2140E+00
     -1.981  0.0000E+00  0.0000E+00  0.2150E+00  0.2140E+00
     -1.941  0.0000E+00  0.0000E+00  0.2150E+00  0.2150E+00
     -1.900  0.0000E+00  0.0000E+00  0.2160E+00  0.2150E+00
     -1.860  0.0000E+00  0.0000E+00  0.2160E+00  0.2160E+00
     -1.820  0.0000E+00  0.0000E+00  0.2160E+00  0.2160E+00
     -1.780  0.0000E+00  0.0000E+00  0.2170E+00  0.2160E+00
     -1.740  0.0000E+00  0.0000E+00  0.2170E+00  0.2170E+00
     -1.699  0.0000E+00  0.0000E+00  0.2180E+00  0.2170E+00
     -1.659  0.0000E+00  0.0000E+00  0.2180E+00  0.2180E+00
     -1.619  0.0000E+00  0.0000E+00  0.2180E+00  0.2180E+00
     -1.579  0.0000E+00  0.0000E+00  0.2190E+00  0.2180E+00
     -1.538  0.0000E+00  0.0000E+00  0.2200E+00  0.2190E+00
     -1.498  0.0000E+00  0.0000E+00  0.2200E+00  0.2200E+00
     -1.458  0.0000E+00  0.0000E+00  0.2200E+00  0.2200E+00
     -1.418  0.0000E+00  0.0000E+00  0.2200E+00  0.2200E+00
     -1.378  0.0000E+00  0.0000E+00  0.2210E+00  0.2210E+00
     -1.337  0.0000E+00  0.0000E+00  0.2210E+00  0.2210E+00
     -1.297  0.0000E+00  0.0000E+00  0.2210E+00  0.2210E+00
     -1.257  0.0000E+00  0.0000E+00  0.2210E+00  0.2210E+00
     -1.217  0.0000E+00  0.0000E+00  0.2210E+00  0.2210E+00
     -1.177  0.0000E+00  0.0000E+00  0.2220E+00  0.2220E+00
     -1.136  0.0000E+00  0.0000E+00  0.2230E+00  0.2230E+00
     -1.096  0.0000E+00  0.0000E+00  0.2230E+00  0.2230E+00
     -1.056  0.0000E+00  0.0000E+00  0.2230E+00  0.2230E+00
     -1.016  0.0000E+00  0.0000E+00  0.2240E+00  0.2240E+00
     -0.975  0.0000E+00  0.0000E+00  0.2240E+00  0.2240E+00
     -0.935  0.0000E+00  0.0000E+00  0.2240E+00  0.2240E+00
     -0.895  0.0000E+00  0.0000E+00  0.2250E+00  0.2240E+00
     -0.855  0.0000E+00  0.0000E+00  0.2260E+00  0.2250E+00
     -0.815  0.0000E+00  0.0000E+00  0.2260E+00  0.2260E+00
     -0.774  0.0000E+00  0.0000E+00  0.2270E+00  0.2270E+00
     -0.734  0.0000E+00  0.0000E+00  0.2270E+00  0.2270E+00
     -0.694  0.0000E+00  0.0000E+00  0.2270E+00  0.2270E+00
     -0.654  0.0000E+00  0.0000E+00  0.2270E+00  0.2270E+00
     -0.613  0.0000E+00  0.0000E+00  0.2280E+00  0.2280E+00
     -0.573  0.0000E+00  0.0000E+00  0.2280E+00  0.2280E+00
     -0.533  0.0000E+00  0.0000E+00  0.2290E+00  0.2280E+00
     -0.493  0.0000E+00  0.0000E+00  0.2290E+00  0.2290E+00
     -0.453  0.0000E+00  0.0000E+00  0.2300E+00  0.2290E+00
     -0.412  0.0000E+00  0.0000E+00  0.2300E+00  0.2300E+00
     -0.372  0.0000E+00  0.0000E+00  0.2310E+00  0.2300E+00
     -0.332  0.0000E+00  0.0000E+00  0.2310E+00  0.2310E+00
     -0.292  0.0000E+00  0.2480E-01  0.2320E+00  0.2320E+00
     -0.252  0.0000E+00  0.0000E+00  0.2320E+00  0.2320E+00
     -0.211  0.0000E+00  0.0000E+00  0.2330E+00  0.2320E+00
     -0.171  0.0000E+00  0.0000E+00  0.2330E+00  0.2330E+00
     -0.131  0.0000E+00  0.2486E-01  0.2340E+00  0.2340E+00
     -0.091  0.0000E+00  0.0000E+00  0.2340E+00  0.2340E+00
     -0.050  0.0000E+00  0.0000E+00  0.2350E+00  0.2350E+00
     -0.010  0.0000E+00  0.0000E+00  0.2360E+00  0.2360E+00
      0.030  0.0000E+00  0.0000E+00  0.2370E+00  0.2360E+00
      0.070  0.0000E+00  0.0000E+00  0.2370E+00  0.2370E+00
      0.110  0.0000E+00  0.0000E+00  0.2380E+00  0.2370E+00
      0.151  0.0000E+00  0.0000E+00  0.2380E+00  0.2380E+00
      0.191  0.0000E+00  0.0000E+00  0.2390E+00  0.2380E+00
      0.231  0.0000E+00  0.0000E+00  0.2390E+00  0.2390E+00
      0.271  0.0000E+00  0.0000E+00  0.2390E+00  0.2390E+00
      0.312  0.0000E+00  0.0000E+00  0.2390E+00  0.2390E+00
      0.352  0.0000E+00  0.0000E+00  0.2390E+00  0.2390E+00
      0.392  0.0000E+00  0.0000E+00  0.2390E+00  0.2390E+00
      0.432  0.0000E+00  0.0000E+00  0.2390E+00  0.2390E+00
      0.472  0.0000E+00  0.0000E+00  0.2400E+00  0.2400E+00
      0.513  0.0000E+00  0.0000E+00  0.2410E+00  0.2400E+00
      0.553  0.0000E+00  0.0000E+00  0.2410E+00  0.2410E+00
      0.593  0.2486E-01  0.0000E+00  0.2420E+00  0.2410E+00
      0.633  0.0000E+00  0.0000E+00  0.2440E+00  0.2430E+00
      0.673  0.0000E+00  0.0000E+00  0.2450E+00  0.2440E+00
      0.714  0.0000E+00  0.0000E+00  0.2470E+00  0.2460E+00
      0.754  0.0000E+00  0.0000E+00  0.2470E+00  0.2470E+00
      0.794  0.0000E+00  0.0000E+00  0.2490E+00  0.2480E+00
      0.834  0.0000E+00  0.0000E+00  0.2500E+00  0.2500E+00
      0.875  0.0000E+00  0.0000E+00  0.2510E+00  0.2510E+00
      0.915  0.0000E+00  0.0000E+00  0.2530E+00  0.2530E+00
      0.955  0.0000E+00  0.0000E+00  0.2560E+00  0.2550E+00
      0.995  0.0000E+00  0.0000E+00  0.2580E+00  0.2560E+00
      1.035  0.0000E+00  0.0000E+00  0.2600E+00  0.2590E+00
      1.076  0.0000E+00  0.0000E+00  0.2610E+00  0.2610E+00
      1.116  0.0000E+00  0.0000E+00  0.2620E+00  0.2620E+00
      1.156  0.0000E+00  0.2486E-01  0.2630E+00  0.2630E+00
      1.196  0.0000E+00  0.0000E+00  0.2640E+00  0.2640E+00
      1.237  0.0000E+00  0.0000E+00  0.2640E+00  0.2640E+00
      1.277  0.0000E+00  0.0000E+00  0.2640E+00  0.2640E+00
      1.317  0.0000E+00  0.0000E+00  0.2640E+00  0.2640E+00
      1.357  0.0000E+00  0.0000E+00  0.2640E+00  0.2640E+00
      1.397  0.0000E+00  0.0000E+00  0.2640E+00  0.2640E+00
      1.438  0.0000E+00  0.0000E+00  0.2640E+00  0.2640E+00
      1.478  0.0000E+00  0.0000E+00  0.2640E+00  0.2640E+00
      1.518  0.0000E+00  0.0000E+00  0.2640E+00  0.2640E+00
      1.558  0.0000E+00  0.0000E+00  0.2640E+00  0.2640E+00
      1.598  0.0000E+00  0.0000E+00  0.2640E+00  0.2640E+00
      1.639  0.0000E+00  0.0000E+00  0.2640E+00  0.2640E+00
      1.679  0.0000E+00  0.0000E+00  0.2640E+00  0.2640E+00
      1.719  0.0000E+00  0.0000E+00  0.2640E+00  0.2640E+00
