  28  28   0   0
  0.3563567E+03  0.2152853E-08  0.2152853E-08  0.2152853E-08  0.1000000E-15
  1.000000000000000E-004
  CAR 
 unknown system                          
      1.62826573    -10.30539560  301     -3.48331921      1.00000000
    -10.305  0.0000E+00  0.0000E+00  0.0000E+00  0.0000E+00
    -10.266  0.0000E+00  0.0000E+00  0.0000E+00  0.0000E+00
    -10.226  0.0000E+00  0.0000E+00  0.0000E+00  0.0000E+00
    -10.186  0.0000E+00  0.0000E+00  0.0000E+00  0.0000E+00
    -10.146  0.0000E+00  0.0000E+00  0.0000E+00  0.0000E+00
    -10.107  0.0000E+00  0.0000E+00  0.0000E+00  0.0000E+00
    -10.067  0.0000E+00  0.0000E+00  0.0000E+00  0.0000E+00
    -10.027  0.0000E+00  0.0000E+00  0.0000E+00  0.0000E+00
     -9.987  0.0000E+00  0.0000E+00  0.0000E+00  0.0000E+00
     -9.947  0.0000E+00  0.0000E+00  0.0000E+00  0.0000E+00
     -9.908  0.0000E+00  0.0000E+00  0.0000E+00  0.0000E+00
     -9.868  0.0000E+00  0.0000E+00  0.0000E+00  0.0000E+00
     -9.828  0.0000E+00  0.0000E+00  0.0000E+00  0.0000E+00
     -9.788  0.0000E+00  0.0000E+00  0.0000E+00  0.0000E+00
     -9.748  0.0000E+00  0.0000E+00  0.1000E-02  0.0000E+00
     -9.709  0.0000E+00  0.0000E+00  0.1000E-02  0.1000E-02
     -9.669  0.0000E+00  0.0000E+00  0.1000E-02  0.1000E-02
     -9.629  0.0000E+00  0.0000E+00  0.1000E-02  0.1000E-02
     -9.589  0.0000E+00  0.0000E+00  0.1000E-02  0.1000E-02
     -9.550  0.0000E+00  0.0000E+00  0.1000E-02  0.1000E-02
     -9.510  0.0000E+00  0.0000E+00  0.1000E-02  0.1000E-02
     -9.470  0.0000E+00  0.0000E+00  0.1000E-02  0.1000E-02
     -9.430  0.0000E+00  0.0000E+00  0.1000E-02  0.1000E-02
     -9.390  0.0000E+00  0.0000E+00  0.1000E-02  0.1000E-02
     -9.351  0.0000E+00  0.0000E+00  0.1000E-02  0.1000E-02
     -9.311  0.0000E+00  0.0000E+00  0.2000E-02  0.1000E-02
     -9.271  0.0000E+00  0.0000E+00  0.3000E-02  0.3000E-02
     -9.231  0.0000E+00  0.0000E+00  0.3000E-02  0.3000E-02
     -9.192  0.0000E+00  0.0000E+00  0.4000E-02  0.4000E-02
     -9.152  0.0000E+00  0.0000E+00  0.6000E-02  0.5000E-02
     -9.112  0.0000E+00  0.0000E+00  0.7000E-02  0.7000E-02
     -9.072  0.0000E+00  0.0000E+00  0.8000E-02  0.8000E-02
     -9.032  0.0000E+00  0.0000E+00  0.1000E-01  0.9000E-02
     -8.993  0.0000E+00  0.0000E+00  0.1000E-01  0.1000E-01
     -8.953  0.0000E+00  0.0000E+00  0.1100E-01  0.1000E-01
     -8.913  0.0000E+00  0.0000E+00  0.1200E-01  0.1200E-01
     -8.873  0.0000E+00  0.0000E+00  0.1200E-01  0.1200E-01
     -8.834  0.0000E+00  0.0000E+00  0.1400E-01  0.1300E-01
     -8.794  0.0000E+00  0.0000E+00  0.1500E-01  0.1500E-01
     -8.754  0.0000E+00  0.0000E+00  0.1500E-01  0.1500E-01
     -8.714  0.0000E+00  0.0000E+00  0.1500E-01  0.1500E-01
     -8.674  0.0000E+00  0.0000E+00  0.1600E-01  0.1600E-01
     -8.635  0.2514E-01  0.5081E-04  0.1800E-01  0.1600E-01
     -8.595  0.0000E+00  0.0000E+00  0.2000E-01  0.1800E-01
     -8.555  0.0000E+00  0.0000E+00  0.2200E-01  0.2100E-01
     -8.515  0.0000E+00  0.0000E+00  0.2300E-01  0.2200E-01
     -8.476  0.0000E+00  0.0000E+00  0.2400E-01  0.2400E-01
     -8.436  0.0000E+00  0.0000E+00  0.2600E-01  0.2400E-01
     -8.396  0.0000E+00  0.0000E+00  0.2800E-01  0.2700E-01
     -8.356  0.0000E+00  0.2514E-01  0.3000E-01  0.3000E-01
     -8.316  0.0000E+00  0.2514E-01  0.3400E-01  0.3100E-01
     -8.277  0.0000E+00  0.0000E+00  0.3600E-01  0.3400E-01
     -8.237  0.0000E+00  0.0000E+00  0.3700E-01  0.3700E-01
     -8.197  0.0000E+00  0.0000E+00  0.3900E-01  0.3800E-01
     -8.157  0.0000E+00  0.0000E+00  0.4000E-01  0.3900E-01
     -8.118  0.0000E+00  0.0000E+00  0.4200E-01  0.4100E-01
     -8.078  0.0000E+00  0.0000E+00  0.4400E-01  0.4200E-01
     -8.038  0.0000E+00  0.0000E+00  0.4600E-01  0.4400E-01
     -7.998  0.0000E+00  0.0000E+00  0.4800E-01  0.4600E-01
     -7.958  0.0000E+00  0.0000E+00  0.5100E-01  0.4900E-01
     -7.919  0.0000E+00  0.0000E+00  0.5200E-01  0.5100E-01
     -7.879  0.0000E+00  0.0000E+00  0.5400E-01  0.5300E-01
     -7.839  0.0000E+00  0.0000E+00  0.5500E-01  0.5500E-01
     -7.799  0.0000E+00  0.0000E+00  0.5800E-01  0.5600E-01
     -7.760  0.0000E+00  0.0000E+00  0.6000E-01  0.5900E-01
     -7.720  0.0000E+00  0.0000E+00  0.6100E-01  0.6100E-01
     -7.680  0.4178E-02  0.0000E+00  0.6217E-01  0.6100E-01
     -7.640  0.2514E-01  0.0000E+00  0.6500E-01  0.6400E-01
     -7.600  0.0000E+00  0.0000E+00  0.6600E-01  0.6500E-01
     -7.561  0.0000E+00  0.0000E+00  0.7000E-01  0.6800E-01
     -7.521  0.0000E+00  0.0000E+00  0.7000E-01  0.7000E-01
     -7.481  0.0000E+00  0.0000E+00  0.7300E-01  0.7200E-01
     -7.441  0.0000E+00  0.0000E+00  0.7600E-01  0.7400E-01
     -7.402  0.0000E+00  0.0000E+00  0.7700E-01  0.7600E-01
     -7.362  0.0000E+00  0.0000E+00  0.7900E-01  0.7800E-01
     -7.322  0.0000E+00  0.0000E+00  0.7900E-01  0.7900E-01
     -7.282  0.0000E+00  0.0000E+00  0.8000E-01  0.8000E-01
     -7.242  0.0000E+00  0.0000E+00  0.8100E-01  0.8100E-01
     -7.203  0.0000E+00  0.0000E+00  0.8200E-01  0.8200E-01
     -7.163  0.0000E+00  0.0000E+00  0.8300E-01  0.8200E-01
     -7.123  0.0000E+00  0.0000E+00  0.8600E-01  0.8500E-01
     -7.083  0.0000E+00  0.0000E+00  0.8900E-01  0.8800E-01
     -7.044  0.0000E+00  0.0000E+00  0.9100E-01  0.9100E-01
     -7.004  0.0000E+00  0.0000E+00  0.9400E-01  0.9300E-01
     -6.964  0.0000E+00  0.0000E+00  0.9600E-01  0.9500E-01
     -6.924  0.0000E+00  0.0000E+00  0.9900E-01  0.9800E-01
     -6.884  0.0000E+00  0.0000E+00  0.1020E+00  0.1010E+00
     -6.845  0.0000E+00  0.0000E+00  0.1060E+00  0.1040E+00
     -6.805  0.0000E+00  0.0000E+00  0.1080E+00  0.1070E+00
     -6.765  0.2514E-01  0.0000E+00  0.1120E+00  0.1110E+00
     -6.725  0.0000E+00  0.0000E+00  0.1140E+00  0.1120E+00
     -6.686  0.0000E+00  0.0000E+00  0.1180E+00  0.1170E+00
     -6.646  0.0000E+00  0.2514E-01  0.1210E+00  0.1210E+00
     -6.606  0.0000E+00  0.0000E+00  0.1240E+00  0.1220E+00
     -6.566  0.0000E+00  0.0000E+00  0.1260E+00  0.1250E+00
     -6.526  0.0000E+00  0.0000E+00  0.1280E+00  0.1280E+00
     -6.487  0.0000E+00  0.0000E+00  0.1310E+00  0.1290E+00
     -6.447  0.2066E-08  0.0000E+00  0.1350E+00  0.1330E+00
     -6.407  0.0000E+00  0.0000E+00  0.1370E+00  0.1370E+00
     -6.367  0.0000E+00  0.0000E+00  0.1400E+00  0.1390E+00
     -6.328  0.0000E+00  0.0000E+00  0.1420E+00  0.1410E+00
     -6.288  0.0000E+00  0.0000E+00  0.1430E+00  0.1430E+00
     -6.248  0.0000E+00  0.0000E+00  0.1440E+00  0.1430E+00
     -6.208  0.0000E+00  0.0000E+00  0.1440E+00  0.1440E+00
     -6.168  0.0000E+00  0.0000E+00  0.1440E+00  0.1440E+00
     -6.129  0.0000E+00  0.0000E+00  0.1440E+00  0.1440E+00
     -6.089  0.0000E+00  0.0000E+00  0.1440E+00  0.1440E+00
     -6.049  0.0000E+00  0.0000E+00  0.1440E+00  0.1440E+00
     -6.009  0.0000E+00  0.0000E+00  0.1440E+00  0.1440E+00
     -5.969  0.0000E+00  0.0000E+00  0.1440E+00  0.1440E+00
     -5.930  0.0000E+00  0.0000E+00  0.1440E+00  0.1440E+00
     -5.890  0.0000E+00  0.0000E+00  0.1450E+00  0.1440E+00
     -5.850  0.0000E+00  0.0000E+00  0.1450E+00  0.1450E+00
     -5.810  0.0000E+00  0.0000E+00  0.1450E+00  0.1450E+00
     -5.771  0.0000E+00  0.0000E+00  0.1450E+00  0.1450E+00
     -5.731  0.0000E+00  0.0000E+00  0.1450E+00  0.1450E+00
     -5.691  0.0000E+00  0.0000E+00  0.1450E+00  0.1450E+00
     -5.651  0.0000E+00  0.0000E+00  0.1450E+00  0.1450E+00
     -5.611  0.0000E+00  0.0000E+00  0.1450E+00  0.1450E+00
     -5.572  0.0000E+00  0.0000E+00  0.1450E+00  0.1450E+00
     -5.532  0.0000E+00  0.0000E+00  0.1460E+00  0.1450E+00
     -5.492  0.0000E+00  0.0000E+00  0.1470E+00  0.1450E+00
     -5.452  0.0000E+00  0.0000E+00  0.1470E+00  0.1460E+00
     -5.413  0.0000E+00  0.0000E+00  0.1470E+00  0.1470E+00
     -5.373  0.0000E+00  0.0000E+00  0.1470E+00  0.1470E+00
     -5.333  0.0000E+00  0.0000E+00  0.1470E+00  0.1470E+00
     -5.293  0.0000E+00  0.0000E+00  0.1470E+00  0.1470E+00
     -5.253  0.0000E+00  0.0000E+00  0.1470E+00  0.1470E+00
     -5.214  0.0000E+00  0.0000E+00  0.1470E+00  0.1470E+00
     -5.174  0.0000E+00  0.0000E+00  0.1470E+00  0.1470E+00
     -5.134  0.0000E+00  0.0000E+00  0.1470E+00  0.1470E+00
     -5.094  0.0000E+00  0.0000E+00  0.1470E+00  0.1470E+00
     -5.055  0.0000E+00  0.0000E+00  0.1470E+00  0.1470E+00
     -5.015  0.0000E+00  0.0000E+00  0.1480E+00  0.1470E+00
     -4.975  0.0000E+00  0.0000E+00  0.1480E+00  0.1480E+00
     -4.935  0.0000E+00  0.0000E+00  0.1480E+00  0.1480E+00
     -4.895  0.0000E+00  0.0000E+00  0.1480E+00  0.1480E+00
     -4.856  0.0000E+00  0.0000E+00  0.1480E+00  0.1480E+00
     -4.816  0.0000E+00  0.0000E+00  0.1480E+00  0.1480E+00
     -4.776  0.0000E+00  0.0000E+00  0.1480E+00  0.1480E+00
     -4.736  0.0000E+00  0.0000E+00  0.1490E+00  0.1480E+00
     -4.697  0.0000E+00  0.0000E+00  0.1490E+00  0.1490E+00
     -4.657  0.0000E+00  0.0000E+00  0.1490E+00  0.1490E+00
     -4.617  0.2514E-01  0.0000E+00  0.1500E+00  0.1490E+00
     -4.577  0.0000E+00  0.0000E+00  0.1500E+00  0.1490E+00
     -4.537  0.0000E+00  0.0000E+00  0.1500E+00  0.1500E+00
     -4.498  0.0000E+00  0.0000E+00  0.1500E+00  0.1500E+00
     -4.458  0.0000E+00  0.0000E+00  0.1500E+00  0.1500E+00
     -4.418  0.0000E+00  0.0000E+00  0.1500E+00  0.1500E+00
     -4.378  0.0000E+00  0.0000E+00  0.1500E+00  0.1500E+00
     -4.339  0.0000E+00  0.0000E+00  0.1500E+00  0.1500E+00
     -4.299  0.0000E+00  0.0000E+00  0.1500E+00  0.1500E+00
     -4.259  0.0000E+00  0.0000E+00  0.1500E+00  0.1500E+00
     -4.219  0.0000E+00  0.0000E+00  0.1500E+00  0.1500E+00
     -4.179  0.0000E+00  0.0000E+00  0.1500E+00  0.1500E+00
     -4.140  0.0000E+00  0.0000E+00  0.1510E+00  0.1500E+00
     -4.100  0.0000E+00  0.2928E-02  0.1510E+00  0.1501E+00
     -4.060  0.0000E+00  0.0000E+00  0.1510E+00  0.1510E+00
     -4.020  0.0000E+00  0.0000E+00  0.1510E+00  0.1510E+00
     -3.981  0.0000E+00  0.0000E+00  0.1510E+00  0.1510E+00
     -3.941  0.0000E+00  0.0000E+00  0.1510E+00  0.1510E+00
     -3.901  0.0000E+00  0.0000E+00  0.1510E+00  0.1510E+00
     -3.861  0.0000E+00  0.0000E+00  0.1520E+00  0.1510E+00
     -3.821  0.0000E+00  0.0000E+00  0.1520E+00  0.1510E+00
     -3.782  0.0000E+00  0.0000E+00  0.1530E+00  0.1520E+00
     -3.742  0.0000E+00  0.0000E+00  0.1530E+00  0.1520E+00
     -3.702  0.0000E+00  0.0000E+00  0.1530E+00  0.1530E+00
     -3.662  0.0000E+00  0.0000E+00  0.1530E+00  0.1530E+00
     -3.623  0.0000E+00  0.0000E+00  0.1530E+00  0.1530E+00
     -3.583  0.0000E+00  0.0000E+00  0.1530E+00  0.1530E+00
     -3.543  0.0000E+00  0.0000E+00  0.1530E+00  0.1530E+00
     -3.503  0.0000E+00  0.0000E+00  0.1540E+00  0.1530E+00
     -3.463  0.0000E+00  0.0000E+00  0.1550E+00  0.1530E+00
     -3.424  0.0000E+00  0.0000E+00  0.1550E+00  0.1530E+00
     -3.384  0.0000E+00  0.0000E+00  0.1550E+00  0.1530E+00
     -3.344  0.0000E+00  0.0000E+00  0.1550E+00  0.1550E+00
     -3.304  0.0000E+00  0.0000E+00  0.1550E+00  0.1550E+00
     -3.265  0.0000E+00  0.0000E+00  0.1550E+00  0.1550E+00
     -3.225  0.0000E+00  0.0000E+00  0.1550E+00  0.1550E+00
     -3.185  0.0000E+00  0.0000E+00  0.1550E+00  0.1550E+00
     -3.145  0.0000E+00  0.0000E+00  0.1550E+00  0.1550E+00
     -3.105  0.0000E+00  0.0000E+00  0.1550E+00  0.1550E+00
     -3.066  0.0000E+00  0.0000E+00  0.1550E+00  0.1550E+00
     -3.026  0.0000E+00  0.0000E+00  0.1550E+00  0.1550E+00
     -2.986  0.0000E+00  0.0000E+00  0.1550E+00  0.1550E+00
     -2.946  0.0000E+00  0.0000E+00  0.1560E+00  0.1550E+00
     -2.907  0.0000E+00  0.0000E+00  0.1560E+00  0.1560E+00
     -2.867  0.0000E+00  0.0000E+00  0.1560E+00  0.1560E+00
     -2.827  0.0000E+00  0.0000E+00  0.1570E+00  0.1560E+00
     -2.787  0.0000E+00  0.0000E+00  0.1580E+00  0.1560E+00
     -2.747  0.0000E+00  0.0000E+00  0.1580E+00  0.1570E+00
     -2.708  0.0000E+00  0.0000E+00  0.1580E+00  0.1580E+00
     -2.668  0.0000E+00  0.0000E+00  0.1590E+00  0.1580E+00
     -2.628  0.0000E+00  0.0000E+00  0.1590E+00  0.1590E+00
     -2.588  0.0000E+00  0.0000E+00  0.1590E+00  0.1590E+00
     -2.549  0.0000E+00  0.0000E+00  0.1590E+00  0.1590E+00
     -2.509  0.0000E+00  0.0000E+00  0.1590E+00  0.1590E+00
     -2.469  0.0000E+00  0.0000E+00  0.1590E+00  0.1590E+00
     -2.429  0.0000E+00  0.0000E+00  0.1610E+00  0.1590E+00
     -2.389  0.0000E+00  0.0000E+00  0.1610E+00  0.1610E+00
     -2.350  0.0000E+00  0.0000E+00  0.1610E+00  0.1610E+00
     -2.310  0.0000E+00  0.0000E+00  0.1610E+00  0.1610E+00
     -2.270  0.0000E+00  0.0000E+00  0.1610E+00  0.1610E+00
     -2.230  0.0000E+00  0.0000E+00  0.1610E+00  0.1610E+00
     -2.191  0.0000E+00  0.0000E+00  0.1610E+00  0.1610E+00
     -2.151  0.0000E+00  0.0000E+00  0.1620E+00  0.1610E+00
     -2.111  0.0000E+00  0.0000E+00  0.1620E+00  0.1620E+00
     -2.071  0.0000E+00  0.0000E+00  0.1620E+00  0.1620E+00
     -2.031  0.0000E+00  0.0000E+00  0.1620E+00  0.1620E+00
     -1.992  0.0000E+00  0.0000E+00  0.1620E+00  0.1620E+00
     -1.952  0.0000E+00  0.0000E+00  0.1620E+00  0.1620E+00
     -1.912  0.0000E+00  0.0000E+00  0.1630E+00  0.1620E+00
     -1.872  0.0000E+00  0.0000E+00  0.1630E+00  0.1620E+00
     -1.832  0.0000E+00  0.0000E+00  0.1630E+00  0.1630E+00
     -1.793  0.0000E+00  0.0000E+00  0.1640E+00  0.1630E+00
     -1.753  0.0000E+00  0.0000E+00  0.1650E+00  0.1630E+00
     -1.713  0.0000E+00  0.2898E-14  0.1650E+00  0.1630E+00
     -1.673  0.0000E+00  0.0000E+00  0.1650E+00  0.1640E+00
     -1.634  0.0000E+00  0.0000E+00  0.1650E+00  0.1650E+00
     -1.594  0.0000E+00  0.0000E+00  0.1650E+00  0.1650E+00
     -1.554  0.0000E+00  0.0000E+00  0.1660E+00  0.1650E+00
     -1.514  0.0000E+00  0.0000E+00  0.1670E+00  0.1660E+00
     -1.474  0.0000E+00  0.0000E+00  0.1670E+00  0.1660E+00
     -1.435  0.0000E+00  0.0000E+00  0.1680E+00  0.1660E+00
     -1.395  0.0000E+00  0.0000E+00  0.1680E+00  0.1670E+00
     -1.355  0.0000E+00  0.0000E+00  0.1680E+00  0.1670E+00
     -1.315  0.0000E+00  0.0000E+00  0.1690E+00  0.1680E+00
     -1.276  0.0000E+00  0.0000E+00  0.1690E+00  0.1690E+00
     -1.236  0.0000E+00  0.0000E+00  0.1690E+00  0.1690E+00
     -1.196  0.0000E+00  0.0000E+00  0.1690E+00  0.1690E+00
     -1.156  0.0000E+00  0.0000E+00  0.1690E+00  0.1690E+00
     -1.116  0.0000E+00  0.0000E+00  0.1690E+00  0.1690E+00
     -1.077  0.0000E+00  0.0000E+00  0.1690E+00  0.1690E+00
     -1.037  0.0000E+00  0.0000E+00  0.1700E+00  0.1690E+00
     -0.997  0.0000E+00  0.0000E+00  0.1710E+00  0.1700E+00
     -0.957  0.0000E+00  0.0000E+00  0.1710E+00  0.1700E+00
     -0.918  0.0000E+00  0.0000E+00  0.1720E+00  0.1710E+00
     -0.878  0.0000E+00  0.0000E+00  0.1720E+00  0.1710E+00
     -0.838  0.0000E+00  0.0000E+00  0.1720E+00  0.1720E+00
     -0.798  0.0000E+00  0.0000E+00  0.1730E+00  0.1720E+00
     -0.758  0.0000E+00  0.0000E+00  0.1730E+00  0.1720E+00
     -0.719  0.0000E+00  0.0000E+00  0.1730E+00  0.1730E+00
     -0.679  0.0000E+00  0.0000E+00  0.1740E+00  0.1730E+00
     -0.639  0.0000E+00  0.0000E+00  0.1750E+00  0.1730E+00
     -0.599  0.0000E+00  0.0000E+00  0.1750E+00  0.1750E+00
     -0.560  0.0000E+00  0.0000E+00  0.1750E+00  0.1750E+00
     -0.520  0.0000E+00  0.0000E+00  0.1750E+00  0.1750E+00
     -0.480  0.0000E+00  0.0000E+00  0.1750E+00  0.1750E+00
     -0.440  0.0000E+00  0.0000E+00  0.1750E+00  0.1750E+00
     -0.400  0.0000E+00  0.0000E+00  0.1750E+00  0.1750E+00
     -0.361  0.0000E+00  0.0000E+00  0.1760E+00  0.1750E+00
     -0.321  0.0000E+00  0.0000E+00  0.1770E+00  0.1750E+00
     -0.281  0.0000E+00  0.1716E-15  0.1770E+00  0.1760E+00
     -0.241  0.0000E+00  0.0000E+00  0.1770E+00  0.1770E+00
     -0.202  0.0000E+00  0.0000E+00  0.1770E+00  0.1770E+00
     -0.162  0.0000E+00  0.0000E+00  0.1780E+00  0.1770E+00
     -0.122  0.0000E+00  0.0000E+00  0.1780E+00  0.1770E+00
     -0.082  0.0000E+00  0.0000E+00  0.1780E+00  0.1780E+00
     -0.042  0.0000E+00  0.0000E+00  0.1780E+00  0.1780E+00
     -0.003  0.0000E+00  0.0000E+00  0.1790E+00  0.1780E+00
      0.037  0.0000E+00  0.0000E+00  0.1790E+00  0.1780E+00
      0.077  0.0000E+00  0.0000E+00  0.1790E+00  0.1790E+00
      0.117  0.0000E+00  0.0000E+00  0.1790E+00  0.1790E+00
      0.156  0.0000E+00  0.0000E+00  0.1790E+00  0.1790E+00
      0.196  0.0000E+00  0.0000E+00  0.1800E+00  0.1790E+00
      0.236  0.0000E+00  0.0000E+00  0.1810E+00  0.1800E+00
      0.276  0.0000E+00  0.0000E+00  0.1810E+00  0.1800E+00
      0.316  0.0000E+00  0.0000E+00  0.1810E+00  0.1810E+00
      0.355  0.0000E+00  0.0000E+00  0.1810E+00  0.1810E+00
      0.395  0.0000E+00  0.0000E+00  0.1810E+00  0.1810E+00
      0.435  0.0000E+00  0.0000E+00  0.1830E+00  0.1810E+00
      0.475  0.0000E+00  0.0000E+00  0.1830E+00  0.1810E+00
      0.514  0.0000E+00  0.0000E+00  0.1840E+00  0.1820E+00
      0.554  0.0000E+00  0.0000E+00  0.1840E+00  0.1830E+00
      0.594  0.0000E+00  0.0000E+00  0.1850E+00  0.1840E+00
      0.634  0.0000E+00  0.0000E+00  0.1860E+00  0.1850E+00
      0.674  0.0000E+00  0.0000E+00  0.1870E+00  0.1850E+00
      0.713  0.0000E+00  0.0000E+00  0.1890E+00  0.1870E+00
      0.753  0.0000E+00  0.0000E+00  0.1900E+00  0.1890E+00
      0.793  0.0000E+00  0.0000E+00  0.1920E+00  0.1900E+00
      0.833  0.0000E+00  0.0000E+00  0.1930E+00  0.1920E+00
      0.872  0.0000E+00  0.0000E+00  0.1940E+00  0.1930E+00
      0.912  0.0000E+00  0.0000E+00  0.1950E+00  0.1940E+00
      0.952  0.0000E+00  0.0000E+00  0.1950E+00  0.1950E+00
      0.992  0.0000E+00  0.0000E+00  0.1960E+00  0.1950E+00
      1.032  0.0000E+00  0.0000E+00  0.1990E+00  0.1970E+00
      1.071  0.0000E+00  0.2945E-02  0.2000E+00  0.1981E+00
      1.111  0.0000E+00  0.0000E+00  0.2000E+00  0.2000E+00
      1.151  0.0000E+00  0.0000E+00  0.2000E+00  0.2000E+00
      1.191  0.0000E+00  0.0000E+00  0.2000E+00  0.2000E+00
      1.230  0.0000E+00  0.0000E+00  0.2000E+00  0.2000E+00
      1.270  0.0000E+00  0.0000E+00  0.2000E+00  0.2000E+00
      1.310  0.0000E+00  0.0000E+00  0.2000E+00  0.2000E+00
      1.350  0.0000E+00  0.0000E+00  0.2000E+00  0.2000E+00
      1.390  0.0000E+00  0.0000E+00  0.2000E+00  0.2000E+00
      1.429  0.0000E+00  0.0000E+00  0.2000E+00  0.2000E+00
      1.469  0.0000E+00  0.0000E+00  0.2000E+00  0.2000E+00
      1.509  0.0000E+00  0.0000E+00  0.2000E+00  0.2000E+00
      1.549  0.0000E+00  0.0000E+00  0.2000E+00  0.2000E+00
      1.588  0.0000E+00  0.0000E+00  0.2000E+00  0.2000E+00
      1.628  0.0000E+00  0.0000E+00  0.2000E+00  0.2000E+00
