   17   17 1000    2
  0.4487605E+03  0.1968587E-08  0.1968587E-08  0.1968587E-08  0.1000000E-15
  1.000000000000000E-004
  CAR 
 unknown system                          
    187      1    124
 
  0.0000000E+00  0.0000000E+00  0.0000000E+00  0.1000000E+01
    1       -9.568798     -9.555361
    2       -9.235558     -9.216465
    3       -9.202636     -9.188126
    4       -9.191334     -9.177781
    5       -9.187387     -9.152616
    6       -9.116108     -9.106096
    7       -8.943930     -8.937561
    8       -8.651428     -8.637460
    9       -8.644141     -8.630713
   10       -8.516064     -8.501712
   11       -8.493533     -8.475776
   12       -8.450668     -8.433377
   13       -8.446132     -8.428994
   14       -8.413471     -8.399091
   15       -8.398761     -8.381479
   16       -8.374024     -8.347989
   17       -8.363888     -8.340363
   18       -8.343587     -8.327580
   19       -8.305868     -8.272766
   20       -8.288872     -8.266594
   21       -8.261722     -8.247401
   22       -8.227365     -8.207874
   23       -8.190554     -8.177378
   24       -8.149044     -8.137541
   25       -8.138230     -8.120071
   26       -8.089651     -8.069784
   27       -8.054764     -8.033315
   28       -8.010463     -7.992733
   29       -7.998535     -7.979719
   30       -7.953302     -7.924174
   31       -7.913836     -7.893241
   32       -7.879095     -7.856300
   33       -7.852095     -7.836915
   34       -7.846047     -7.822202
   35       -7.784745     -7.765919
   36       -7.707314     -7.694089
   37       -7.700297     -7.688738
   38       -7.651368     -7.642958
   39       -7.628121     -7.605471
   40       -7.593774     -7.577251
   41       -7.568425     -7.551264
   42       -7.558150     -7.537025
   43       -7.480729     -7.468094
   44       -7.475283     -7.463985
   45       -7.460621     -7.440998
   46       -7.348670     -7.328441
   47       -7.286298     -7.270273
   48       -7.251173     -7.235328
   49       -7.241146     -7.225390
   50       -7.161790     -7.148016
   51       -7.142660     -7.129951
   52       -7.111399     -7.092929
   53       -7.092180     -7.078446
   54       -7.087016     -7.074032
   55       -7.079145     -7.063069
   56       -7.044519     -7.031283
   57       -7.041203     -7.026882
   58       -7.008876     -6.999019
   59       -6.966436     -6.957288
   60       -6.947601     -6.936033
   61       -6.935963     -6.926325
   62       -6.907098     -6.889405
   63       -6.905174     -6.887990
   64       -6.894724     -6.879752
   65       -6.882664     -6.867557
   66       -6.834440     -6.820698
   67       -6.818042     -6.803088
   68       -6.807525     -6.790558
   69       -6.780190     -6.765720
   70       -6.738105     -6.721392
   71       -6.732485     -6.715934
   72       -6.718763     -6.694364
   73       -6.690004     -6.675527
   74       -6.675897     -6.663438
   75       -6.618878     -6.601805
   76       -6.589938     -6.580777
   77       -6.584690     -6.571723
   78       -6.581389     -6.568877
   79       -6.577117     -6.564802
   80       -6.508192     -6.498476
   81       -6.507528     -6.488254
   82       -6.476696     -6.462156
   83       -6.431522     -6.419325
   84       -6.423733     -6.408416
   85       -6.389350     -6.377535
   86       -6.354348     -6.339602
   87       -6.297414     -6.282047
   88       -6.119227     -6.069095
   89       -5.678268     -5.622801
   90       -4.922172     -4.891944
   91       -4.265186     -4.223652
   92       -4.188433     -4.157348
   93       -4.073174     -4.031959
   94       -3.734907     -3.564489
   95       -3.059880     -2.979379
   96       -2.699360     -2.676858
   97       -2.660084     -2.622780
   98       -2.460059     -2.426573
   99       -2.079150     -2.055794
  100       -1.969249     -1.931137
  101       -1.801574     -1.701189
  102       -1.631369     -1.501139
  103       -1.543227     -1.478380
  104       -1.304938     -1.161853
  105       -0.857729     -0.800231
  106       -0.811224     -0.795198
  107       -0.761046     -0.722319
  108       -0.672542     -0.644122
  109       -0.366761     -0.329853
  110       -0.251040     -0.223116
  111       -0.097644     -0.052964
  112        0.067170      0.115142
  113        0.085860      0.137726
  114        0.347894      0.386984
  115        0.423666      0.502710
  116        0.572129      0.610062
  117        0.618726      0.661232
  118        0.690950      0.717534
  119        0.714297      0.745805
  120        0.730937      0.760574
  121        0.775689      0.817012
  122        0.804513      0.818514
  123        0.876823      0.888155
  124        0.886955      0.940132
