11
Energy = -23.31272006 eV
Be 7.043807656451267 8.432600848092894 6.144348103109571
Be 8.93349313919174 7.957767313139326 6.790040051261597
Be 7.772000612072679 8.864669594289438 8.151151533784855
Be 9.950986635290183 9.308292954762285 8.054227764883949
Be 8.525895927664052 10.743057137827515 8.534333565274034
Be 9.350385262104199 7.4282139270723775 8.77940677976171
Be 10.915696590865679 8.451421214952466 9.682702515500159
Be 7.747926576672868 9.625447949202949 10.11644412705116
Be 7.519560789916397 7.583526392845956 9.747312040205047
Be 9.790237782645036 10.122153375512344 9.996949425818473
Be 9.179532570492794 8.212372835668845 10.732607636715843
