15
Energy = -35.12017084 eV
Be 9.571622810935928 8.821489467345879 10.71763255331762
Be 11.656443400386344 8.74663237343791 10.331066202845022
Be 7.4867997073406665 8.746693538954553 10.331035164255221
Be 10.671501477405629 10.643222170968762 10.41631820564232
Be 8.471792514532563 10.643246246259203 10.416289078863633
Be 9.571663771849327 12.454023678631756 10.17273411102331
Be 10.582867408084736 6.932145577822053 10.385159839154582
Be 8.560294453000944 6.9321696190861095 10.385206957162303
Be 9.57166073302131 9.916817869530043 8.367920077092233
Be 11.65154802413236 9.976425536633961 8.733772968566106
Be 7.491773292034343 9.976454724227866 8.733724662907036
Be 10.595783195448634 11.790951342752821 8.58110334538871
Be 8.547570708482366 11.79096656121567 8.58107681264611
Be 10.667716003668566 8.101688861100115 8.710782014078521
Be 8.47558509353595 8.101694838173225 8.710800413197612
