12
Energy = -27.13971183 eV
Be 9.354767213133366 9.22742754701256 7.414824607709227
Be 7.832172536491025 7.7608014042913425 6.793647921994991
Be 9.581601755328078 7.225925281433307 7.883194843680307
Be 7.36304286552937 9.700608112512848 6.907629812852785
Be 6.487545603367312 8.489401965733796 8.243661413609408
Be 10.030601516761466 10.482433191910205 8.969852539604254
Be 7.992735330711168 9.965663289397636 8.895922032123314
Be 7.696621728777695 6.845793108992933 8.66217008057743
Be 10.721341075634232 8.60673241199507 9.033632489436869
Be 9.348527328171485 7.3338642798030715 9.943843816925032
Be 9.378493076856692 9.34240702349533 10.485623072522671
Be 7.537286059724326 8.343678473907989 10.090733459449561
