12
Energy = -27.29511629 eV
Be 6.231700380989767 6.378120421756863 8.123074993172379
Be 7.783169846489223 5.808356651132795 6.8171007508355785
Be 6.34187064122665 7.215960594598568 6.198875779835437
Be 8.376865529186732 7.512289548365911 5.73792992241098
Be 9.152619276716962 8.906691736674873 7.106139696841499
Be 7.601123761286943 9.476396925194965 8.411848599659873
Be 7.007628748036193 7.772358922344323 9.49113530065392
Be 9.042417162558696 8.068467945237465 9.030023956218816
Be 7.18970672140892 9.131452948697696 6.3773083298288356
Be 5.85632956934831 8.434180463061649 7.852140874581444
Be 9.52836539614942 6.850550002922252 7.376565713971788
Be 8.194831353620195 6.1530622606991905 8.851310520965711
