11
Energy = -23.11680138 eV
Be 5.848157597969939 11.251492516496803 9.575428297545079
Be 7.789647507438751 10.490588044068591 9.155273907600419
Be 9.366329325565674 9.955453959689555 10.45457619687131
Be 8.37002352274947 9.028511744161282 7.742410152757826
Be 9.035632645695408 7.280533648912648 8.571029007304798
Be 10.378295587900638 8.709394176351788 7.5843089199863565
Be 9.75358986576346 7.948929231189434 10.524709655448483
Be 9.771349447158261 10.467639997445918 8.431071214621396
Be 11.100553311000747 9.380304096069164 9.545586165675063
Be 11.05125164334421 7.3811420150873905 9.01596615294825
Be 7.9233459670822395 8.494186992196353 9.787816750909814
