12
Energy = -25.0224524 eV
Be 10.731485353705743 8.848922942058099 8.731255779950615
Be 9.237019562862939 10.527102698531433 11.2674197135418
Be 8.067326916678752 10.712074117462741 7.899271824378454
Be 9.347665567367427 8.583269448851874 10.262388487340061
Be 9.492853384286223 11.36764952286947 9.291337271509787
Be 10.502558096688674 8.986925128309649 11.986311199487
Be 9.90308592028127 10.134139082269893 7.279985427481106
Be 7.910857452571517 10.044117302925544 9.79415962963312
Be 11.333048435439443 10.866348635820101 8.455383203181006
Be 8.698656950454115 8.749613861432575 8.326854614777538
Be 10.988498160051206 10.236592742128765 10.340473660067616
Be 11.284337668503952 8.44063798623139 13.862552657543297
