23
Energy = -58.72061462 eV
Be 10.296806175008252 6.877124234181624 12.168833570409221
Be 8.333897599786606 7.3571447385004625 11.87307018361483
Be 9.665969870610361 12.55191647899358 8.03495313139059
Be 7.256419310636601 11.473056989374372 11.40638553938388
Be 8.36817659008579 12.36819951394053 9.869999961298014
Be 10.097855024390187 11.266923465215763 9.562280794318134
Be 8.075148537148419 8.102445293180189 9.909264358490969
Be 8.940041580497006 9.505225064173432 8.284375051837246
Be 8.082537640450425 11.379276520818369 8.03289493470792
Be 9.394538333198776 6.4637464113255065 10.380401907767741
Be 9.680627015145346 9.369369081722786 10.341018731198401
Be 11.097737450867285 7.861529448438694 10.514554977822767
Be 9.174749478899008 10.978798755405194 11.532652675545549
Be 9.77353856062339 10.743759174086833 6.768444501237359
Be 7.906079798006423 9.382903653178928 11.736794615468748
Be 10.014664064574292 8.531746793305501 6.769376781423425
Be 11.17362385702301 9.5403704664191 8.91961985344387
Be 7.793970586033751 10.294275714919886 9.811088570090979
Be 11.64890422270126 7.844273239021738 7.804098244403198
Be 11.36696742188503 11.380008282934606 7.928867564255564
Be 9.877442948259459 7.720414874883104 8.818081945705108
Be 9.883083015886369 8.889660045563032 12.30157878989637
Be 11.632814639232603 9.653425481366696 6.76695703723936
