24
Energy = -63.90086555 eV
Be 8.69093668640409 4.788566355831393 4.801925141215278
Be 6.561586353553382 4.826067455986423 4.912101117191469
Be 6.417078716431036 8.411258674880731 5.1206158322404365
Be 7.679438653842489 6.7085292293683265 4.747646719721431
Be 5.63758440495849 6.6401521324761 4.316064438740201
Be 9.616038400573043 6.5148398729075785 5.554314532061351
Be 4.362837323750238 7.526750838406217 5.768956263299365
Be 8.418800760025647 8.244862613391046 5.934989129692245
Be 4.98562998880771 9.344242907014701 6.4398820976149524
Be 7.700036026293754 3.7571242348271796 6.317582313323115
Be 4.668463881409893 5.460800865875395 5.5618202235582945
Be 6.9988436693015545 9.623573642949102 6.670466902941415
Be 5.97858988804979 8.797522233520525 8.31321341100382
Be 5.8743826720945185 4.574842404997893 6.966182128771043
Be 6.446077323780228 6.907064285540914 6.783492552270097
Be 9.438328665774174 4.782308614741083 6.6668842346181005
Be 4.4534377317939615 6.079815386170794 7.546893380637963
Be 7.735592195196766 4.9463171126115 8.03589299594191
Be 8.77028072494871 6.687450542173325 7.436896316046246
Be 4.029110311470103 8.16246354187271 7.745602678793944
Be 8.045603831768654 8.507611879539734 7.964923276291308
Be 7.157811694921571 6.8740677925576685 8.913398448411641
Be 5.8704413727401645 5.290589624631466 8.895174627566693
Be 5.076612988906471 7.156722024524122 9.198625504844442
