27
Energy = -72.92775901 eV
Be 12.33488642445959 8.352732281134978 8.01499612843581
Be 12.931134660400737 8.169951865218694 10.028172406529833
Be 10.1591053818882 8.357549172579743 8.08782472002472
Be 11.16518796226986 9.031969595129246 9.683509657245152
Be 11.379195028864483 10.143745586987157 7.662287834925298
Be 13.146404476513775 9.925492196090852 8.906120411679522
Be 10.1120936005943 10.221706522176358 11.172041395267877
Be 11.297303770830244 8.476242940250122 11.672938614945934
Be 8.187706116533624 8.921465953405537 8.20803298114424
Be 9.14916800152652 8.503125920350033 10.136600287026779
Be 12.591736449944126 9.973925306765512 11.016636173069429
Be 9.479305590966435 9.915308915222562 6.854857352939064
Be 9.615824927499588 9.034401349278106 12.88302536582257
Be 7.96534695082676 9.412141404708871 11.585872089551403
Be 11.644358126581702 11.285720628124961 9.392639040335062
Be 11.482427991700833 10.240613984031885 12.823338238356367
Be 9.635343935849344 10.335914423887553 9.150508579029072
Be 11.757666938686059 11.768914224452892 11.438616849048763
Be 8.339291165799636 10.698623414132365 13.075784815545017
Be 9.995754266837093 10.642242912152287 14.183995877136958
Be 7.537164876577316 10.263400181812477 9.724963418631921
Be 7.954332471070851 10.939422139594276 7.6802150484452
Be 9.953179816453355 11.820239863645249 7.815327897730589
Be 9.955120053776078 11.916379694465505 12.521345380161785
Be 8.279110442794163 11.57681101508545 11.202196395850693
Be 10.054301891252994 12.296272815257275 10.299300262579695
Be 8.321583835673751 12.19972085023145 9.20288793471281
