25
Energy = -67.54861627 eV
Be 7.028926110513214 6.83629146130823 5.275652734916594
Be 7.361964720966145 8.932494520175364 5.437361747146803
Be 9.05199353858573 7.975073214242027 5.967374490400965
Be 5.5490174590063495 8.157778399168915 5.823156227606732
Be 8.795819164368302 5.986884797667453 6.114735605779221
Be 8.660087809187281 9.942081293209316 6.796675806121218
Be 6.98937393157785 5.199322669207847 6.517086185015774
Be 10.142172631203213 6.896087072454962 7.501957609796735
Be 5.192335258586128 6.309596206311972 6.817715953359651
Be 7.020575166432208 7.364499010467853 7.511025713873349
Be 9.958131809933775 10.19278754028654 8.554553249663226
Be 6.614121074139751 9.576745414365796 7.234979709984876
Be 10.564323338255647 8.955079278606565 7.024147420192211
Be 4.81260879419168 8.224629834325519 7.652499085771767
Be 8.717534875879254 8.304749986796834 8.125165255261665
Be 6.254215641242361 5.265628405520584 8.344520394147986
Be 8.478457990554755 5.733596526042669 8.14183588481027
Be 7.810216269523212 10.018294912749209 8.948484518729064
Be 5.891529405095342 9.0751096892347 9.114382646146971
Be 7.458262851449464 8.120212090805984 9.927130645956137
Be 10.842789983866316 8.369306818258032 8.977766217633816
Be 9.303712314997245 9.07276960879436 10.160819136697262
Be 5.48595060255822 6.989144412276471 9.156751348419194
Be 7.328327605467797 6.11805947914754 9.808232934977273
Be 9.28006671784016 6.976292423996825 9.658504543012189
