27
Energy = -71.58351817 eV
Be 10.653433321065231 10.266813500659959 10.61376825318938
Be 11.025366932406506 8.516754800880765 9.074029812220678
Be 7.636760901656059 11.20136141498642 9.011437431341749
Be 9.710965433950596 10.250825300769387 6.472049186634352
Be 8.464382650986298 11.818293630233354 7.2611610038528855
Be 12.056275736401759 9.654170872987528 12.146553195119344
Be 9.426593216676798 9.351212557531861 12.074113574600508
Be 12.383448125179372 11.48973501663002 11.152963444998925
Be 11.523455125690587 11.670789741893993 9.208822084477251
Be 11.367197982632305 11.529783732719345 14.389477099088323
Be 10.004231172189815 9.915764249119293 14.123260183598328
Be 10.215615069665539 11.239509057838317 12.565794078162513
Be 9.63900150335879 10.445891127593436 8.775359815185432
Be 11.70619003551212 12.732787381708917 12.69850721558948
Be 9.571681916014306 8.634909726526425 7.692065897956938
Be 10.54959383519251 12.453241894744462 10.88874383429831
Be 12.968464933775543 11.180178352171552 13.231306834199419
Be 7.91283177900134 9.823765577084783 7.498389659454232
Be 9.121975138295657 8.858679826596356 9.949253384061375
Be 11.520044104529186 10.030676219325088 7.813570197754501
Be 8.847395200641088 11.156911992539632 10.794864293434813
Be 9.37660044930458 12.491474163141667 9.138923333419786
Be 12.457427952933502 9.706428028303918 9.880275714344283
Be 10.47124474700162 11.90568436695635 7.36488289653815
Be 10.917792553556918 8.20759799652319 11.061534952065879
Be 12.043210106725166 9.572452842190806 14.282943860915163
Be 10.806920978520468 8.272407531205651 13.214049666361213
