26
Energy = -70.4210602 eV
Be 9.107645430457552 7.5543804718588365 10.523409785418462
Be 8.488268477719613 6.733505904455973 8.728724006666193
Be 10.580476983089504 7.06906725024304 8.857587671451757
Be 11.018609170538335 7.968145517474265 6.875440287163205
Be 9.420142781155121 8.852579376739019 8.456727233835224
Be 9.039628753829527 9.827626399348398 10.203437123010405
Be 10.914226887371814 8.537080769260234 10.441883232974954
Be 9.640959808300067 9.08946172282066 12.154533922395387
Be 9.37842163449961 6.824682231481298 6.936504170318315
Be 9.385349061686313 8.632214146280365 5.930144099388207
Be 11.741371643681509 8.873815537564044 8.510387687990526
Be 7.376186547799113 8.252140215289026 9.513242230181188
Be 7.721218252922691 8.217665078003483 7.303786835823136
Be 6.6737039607250495 9.956767429759942 10.42295647017113
Be 9.707242471059136 11.180554800214919 12.628757620554511
Be 10.592556691866227 10.128062816005768 7.155291466785109
Be 8.501920966518538 10.207361897369001 6.795628988618107
Be 12.51428323545777 9.79300580621299 10.167419786866514
Be 7.688408830707929 8.643813416664186 11.614020203607698
Be 7.386794841249656 10.07759796131702 8.49818681125521
Be 11.00113198680202 10.455262397601269 11.34201006629847
Be 10.924396925528507 10.698289021017091 9.236846051433089
Be 9.123069465386772 11.296944092951799 8.441421504716532
Be 7.88773296774576 10.769937604815349 11.891100409199483
Be 9.654344911267474 11.874179187168666 10.601890680603537
Be 7.701722535626185 11.65567417107562 9.93847687626544
