29
Energy = -79.882993 eV
Be 9.951816653884315 8.856904394638065 5.542298826508431
Be 8.107516563225419 8.347007756780872 4.85444740425474
Be 7.160529564277784 6.799873913247102 5.879713109311789
Be 9.382127399514701 6.800613195705555 5.58944119473049
Be 6.51369867694929 8.948788141462789 6.058806142996843
Be 8.333748918389135 10.212018595945475 5.873668442475277
Be 5.813825725166295 7.465758945682348 7.241461689949244
Be 10.63642194786098 7.761194093151382 7.1757436471412985
Be 9.967388180688163 9.902097440825274 7.346658303947121
Be 10.148570152665908 5.787601956157064 7.329798146232756
Be 8.283209010511031 5.273947196290756 6.636821865962438
Be 8.411201538300038 8.215710864743347 7.136329823116265
Be 6.781893856678661 5.859903143309 7.896343173991444
Be 6.615932751275655 10.717588598500342 7.069937645972054
Be 5.727036088256652 7.281393567259524 9.280138738864453
Be 5.740748332726396 9.22816412725396 8.162278186431715
Be 10.378259026765077 8.7275213093751 8.937874037466546
Be 8.482926468889346 11.234809654122612 7.7641610537904375
Be 10.086729684040115 6.770721254017235 9.123544686855285
Be 7.7793217819997045 7.959092264427731 9.05835773508561
Be 8.639790253686963 5.221901332325967 8.766873675368354
Be 9.063214491890482 10.14901308501748 9.397109392728263
Be 6.977960182202616 10.658223833750474 9.196989786227947
Be 6.925985615465581 5.7593780353390045 9.960753032756823
Be 5.904294351437055 9.09841841728531 10.22825626145747
Be 9.276119827904532 8.262304828447538 10.599385792497495
Be 8.776092649388083 6.269623608545311 10.648387776623382
Be 7.7529294088698215 9.610618780986428 10.915492773427914
Be 7.132892201840636 7.571988970156621 11.08110895857871
