33
Energy = -92.67300101 eV
Be 11.459836228834734 8.101099471971644 9.173296959276556
Be 10.060461585816258 10.164287950580759 10.122189349399893
Be 10.154961040934609 9.6016435588832 8.089956998389416
Be 10.965330313889098 7.77916159021474 7.086306981932974
Be 10.899814163891264 8.55701912326709 11.167424659990655
Be 9.628717192852841 9.334509653202007 6.0780648391867125
Be 9.169236538344553 11.223298932030103 7.002151033709629
Be 10.64547994778441 6.691544713108312 10.583566603548954
Be 7.965486956531195 10.483788023386483 5.557568541244903
Be 9.766491059418414 7.416605279124712 5.266749639796979
Be 10.28940506388276 6.320794848795642 8.557918184606594
Be 9.326078912101151 9.627606113000812 12.01862045221318
Be 9.415445724264666 8.05049572126729 9.39659922503715
Be 8.55888835380253 11.169628694470633 8.97698892856965
Be 7.998759636644489 9.392260264531222 7.725426400235913
Be 9.990364589064484 5.885606946813584 6.565981699265201
Be 7.847456563876369 8.395428497275388 5.33905052442126
Be 7.993141100956926 10.90101829680727 11.086847040069541
Be 8.117691060020025 6.329909476097171 5.8002216436895955
Be 8.926833217921622 7.688501430446878 7.345558495236249
Be 7.045084290212368 11.244426350823833 7.344356076507761
Be 9.090261983946416 7.557374047538484 11.73936483667873
Be 7.932186495045852 9.301586129420974 9.822391094089067
Be 6.584033748164194 10.857809495126046 9.371678835542873
Be 8.255781838427737 5.8459959142766 7.932837632748473
Be 6.326259822376574 9.500021265836226 6.2620741851986415
Be 8.686185576623668 6.175542743509609 10.035348844685274
Be 7.398493370083771 9.06871193362215 12.091116185636654
Be 6.757771134421297 7.532709574625796 6.945889812459542
Be 6.003048221456128 9.233222751839197 8.32793120924308
Be 7.159477657969748 7.393927356123725 11.029128281292317
Be 7.293809030621791 7.498704051122845 8.936081105834505
Be 6.014893461405203 9.121270232353723 10.48043183932648
