37
Energy = -104.52579092 eV
Be 6.105876846490619 10.611782772371068 11.241470273216931
Be 5.597211458833951 8.843024085324737 10.382888764571103
Be 6.309455321053439 10.526065383101859 9.174394319236905
Be 7.742387366684614 11.689210727021846 10.399332854597565
Be 7.677364154653393 11.799692482230805 8.25505898332226
Be 6.550639851108103 8.77273467386284 12.137615708784596
Be 6.860605197840238 8.573085859294348 8.788538808452214
Be 7.977370948059536 10.438816991840332 12.28165272350244
Be 9.56154862587477 12.198541123014197 9.430475703673176
Be 7.127914405331165 9.954924275508905 7.223746271475681
Be 7.853900843221998 9.515635946664455 10.424688773330512
Be 9.246691335041044 12.915426297529129 7.527466094499791
Be 7.383362264067334 7.445824974103935 10.58221387263444
Be 8.883640998995125 11.070940511495653 6.628383111545216
Be 7.821801460948111 7.801641605902223 7.203658892065816
Be 9.658695017969556 11.173743705447292 11.258286596929127
Be 8.964495862698652 10.02390051358172 8.653798703128217
Be 8.580065996192896 8.302041933174172 12.173916697376859
Be 9.884805916130375 9.116182191317664 10.565690153916442
Be 10.645343825485448 11.430242934843337 7.804321959785531
Be 8.738558523426464 9.131553632384737 6.04788071105679
Be 8.882551360109863 7.842282495827491 9.07181996259668
Be 9.663043361404023 6.964526466303305 10.894942387115465
Be 10.693806458562596 9.773226501266624 6.585931791366348
Be 11.22121880428201 10.835500609807546 9.775477555342764
Be 10.660248036124543 7.96496894455285 12.425323547576824
Be 10.837642180213399 8.93616520914945 8.704509863222098
Be 9.870844837642363 9.778603135003932 12.805359686506227
Be 9.902573039704508 7.817230786990504 7.139162079644296
Be 11.669157013560895 9.579060144481826 11.63451641415714
Be 11.746371381525178 7.555188813165414 10.742817455805623
Be 10.779996824704716 6.834106324701268 8.962346269018076
Be 12.338461592408668 10.167030195273492 7.902469282688974
Be 12.032330988386075 8.127812072871725 7.196061855693706
Be 12.687507921962096 9.2066533276698 9.768487980198005
Be 12.781003494919254 7.270580755191066 8.925042637921456
Be 13.803954672673516 8.754499786020142 8.02269944233689
