33
Energy = -93.2168624 eV
Be 7.200773879398537 10.63920254387518 7.7593345856094444
Be 7.979116974860538 9.978005025823627 11.989580270287856
Be 7.224037921859376 10.818517395029597 10.012967819837264
Be 8.94381174763658 9.223756723532274 6.988893671644719
Be 9.272861646083207 8.80138924738261 13.378105231996148
Be 7.004918649988197 8.747434463709373 10.646818614386497
Be 7.856054388704471 7.805803228556964 12.253706147104355
Be 8.390250471901048 9.255118378754664 9.122164925448688
Be 6.051302341966271 9.41806746328516 8.906733611587612
Be 12.628834921800278 10.639663771038657 9.505171993496036
Be 9.732668050051894 7.1281857878242105 12.327525144297947
Be 12.164524981836253 11.431075009310284 7.731034016218025
Be 8.53643325147413 7.144737292262512 10.278640409651697
Be 9.601557869592053 8.94655980469946 10.829064040479642
Be 10.029765371945164 7.874632279754354 9.011173317832737
Be 10.36254123585025 12.269333919685412 7.505805279737198
Be 8.564719091372105 7.320414942972894 7.743693224537453
Be 10.69718204779131 8.190726051874025 7.1091900990959624
Be 8.889866108958568 11.200481668335595 6.65478912289558
Be 6.898568922386295 7.503372312192976 8.950197319279154
Be 6.933906038096688 8.615882021285952 7.208187159757346
Be 8.755849225466825 11.737225056720217 8.734067318354914
Be 10.7931319297112 10.277744388722589 6.6150252553869375
Be 10.914178758713868 12.007508406406417 9.507546538869791
Be 11.983582807674019 8.753422229692323 10.101644513703746
Be 9.248774625148412 11.03964130110886 10.583543273477742
Be 10.903334644152912 7.131114066204089 10.705467428232895
Be 11.926728546196106 7.3871992220568785 8.639457558891708
Be 11.20362096767384 8.723651859106905 12.222598079449929
Be 11.24889607265397 10.48616374493034 10.98499795965706
Be 9.955214619257829 10.459091345878658 12.548388122911154
Be 10.346850481688595 10.008456749214002 8.851109115058245
Be 12.307560858877236 9.310816468924603 7.891584452012311
