35
Energy = -98.82937675 eV
Be 10.043223323781456 13.086311863127182 11.385250486795899
Be 7.754572607600475 10.393367612026513 11.43745905908918
Be 10.28960063680368 12.293400478865786 13.440653394647128
Be 8.4021256182968 12.179922658557325 12.399975256678836
Be 10.070957318928485 10.923796588979952 11.808258752000905
Be 10.953057714099051 9.25083140389101 12.891781196786283
Be 12.478832013284867 11.39485398540254 8.407111818441711
Be 13.185369805722573 11.636685684316252 10.348937377558594
Be 8.900179709456456 9.73477869702761 7.605618611110525
Be 10.879574121943689 11.452939260779873 10.02482615453049
Be 10.865608787017898 10.835839385896836 6.975126549878262
Be 9.108166836660361 8.899455311333686 11.935490434113566
Be 12.509949834046525 10.194176545321543 11.712249443546824
Be 7.43512354750473 8.543443300418161 8.310767732970417
Be 9.257383728868854 11.6160418048622 8.35445784283331
Be 12.279594678402463 8.065830008869089 10.987021712953378
Be 12.011681715058353 11.061904283233075 13.475275365687317
Be 8.74937952287682 10.338152537925767 13.353581771917225
Be 11.022212066273461 12.729037438652053 7.934231602551919
Be 10.901998011417124 9.372755953008273 10.755514748028444
Be 9.192203100100437 10.033989928117805 9.95608137501768
Be 9.391473984090231 7.954438311813261 8.703283056232626
Be 10.041618665418282 7.499191937917134 10.60774485789508
Be 8.484703056357715 12.058346833138085 10.321524548067927
Be 12.437109926436081 9.382418494896784 7.613457020768852
Be 10.591971814896635 8.587963253165181 7.116273495182471
Be 9.781789235605594 13.420329039370134 9.36859139207305
Be 10.758229686275302 9.85380679033024 8.72827737256489
Be 11.52986532269064 7.920986529304237 9.039986226074525
Be 7.405899495853945 10.390467990900628 9.182348108436543
Be 10.417050896417061 10.530062041653789 14.541761124087467
Be 12.80152801246306 9.653883290466702 9.647637464050328
Be 7.928745209097781 8.394076282627301 10.309173083589204
Be 11.866688674842623 13.266928186947837 9.8215085368448
Be 11.870984278310114 12.30475606617201 11.8321539112466
