43
Energy = -125.7416153 eV
Be 11.167465824100066 11.14540249341644 7.69963019015019
Be 10.732845793992679 9.072884019839703 8.952435178007145
Be 10.033111745321401 12.646668591979234 8.754807235338953
Be 12.551207571847263 9.830569414573961 8.269636686235758
Be 13.171058595541563 14.04564673257013 8.20237800804534
Be 9.352375176763031 10.660886240213218 8.53597050881378
Be 13.139799316940909 11.914162987964719 7.925375718173617
Be 14.17621127312697 12.904184644954368 9.58864068035017
Be 11.524899741983361 13.243523808658889 7.453256370090806
Be 11.2915207662948 14.537675148724151 9.255884299830532
Be 13.201707648460884 10.89323916837449 10.015308791125802
Be 9.104500560863347 9.628094280487506 10.323230702747784
Be 10.642426961583853 8.546042807310885 11.112100114855254
Be 13.20968364747116 14.732075757528252 10.119648831316654
Be 12.037480279486955 12.686442480814955 9.657994513649111
Be 12.520152494463131 8.843898705549137 10.128797600888461
Be 8.765362826963445 11.760552049019362 10.187977894030286
Be 11.82596904616104 14.25201607126443 11.537352191760233
Be 14.752743847499811 11.607222730997075 11.189202140176713
Be 10.17162208514559 13.196789331176637 10.746736942328495
Be 10.95241656775806 10.91893463543828 10.061305533915757
Be 13.783629713573355 13.370808505622739 11.6467614119873
Be 7.691410354564937 10.56494308424558 11.445872262978266
Be 11.921574093104505 12.107321189806882 11.621544790178179
Be 14.01076974159303 9.639836707969481 11.673044453195626
Be 10.477278069890547 13.171045113057506 12.858257918994045
Be 8.918028265076906 9.05424312443184 12.432197810222245
Be 9.959581729875252 10.934436024977028 12.017477639734215
Be 11.999437182323101 10.105954661108052 11.777179684138474
Be 10.934397824723742 8.851067969672114 13.227243517725766
Be 12.570476682491144 8.160356869840864 12.13018727722014
Be 12.583396741266519 13.16138344249813 13.386379911311758
Be 8.492770790905288 12.475285426061038 12.195214914207904
Be 13.006683557395112 9.544876350477121 13.636226526993617
Be 11.436471720518218 11.150378858034617 13.462454234568325
Be 11.589439387910595 9.555314958953764 15.0978958956657
Be 9.58790194501477 9.924423950533479 14.340293588372342
Be 13.594178545823702 11.384314102776651 12.893099166053277
Be 7.9767126994615065 10.778968564456001 13.412777093922315
Be 12.723784825726087 11.459328426086653 15.027524064794218
Be 9.365441945771245 12.044888513861421 14.183107999951657
Be 11.156250849798973 12.966978475417955 14.83190784682622
Be 10.59569961874228 11.226811636575395 15.685559916446874
