42
Energy = -120.51294409 eV
Be 8.777738146106815 8.150943372482534 4.498457518876845
Be 6.5335783871252 8.731325303038075 4.656334049999632
Be 5.60199973370247 5.139770939427484 3.8870302138767614
Be 7.122162593075688 6.700419705337852 4.492414606084033
Be 4.905153022646419 7.071711498955776 4.570689404392982
Be 8.059510871157421 9.981031985062453 5.427493274187308
Be 9.076238649650985 6.075022515300834 5.112574210052279
Be 10.289201662341398 7.542161535523973 5.934278576942308
Be 7.398643180508256 4.582273976198576 5.008800500461201
Be 8.090922524495719 8.06383136020548 6.429941628220486
Be 4.502314232281137 8.743385506111805 5.852826756321376
Be 3.9644121294903694 5.21177147081396 5.133850628641771
Be 6.084416704109959 7.632242704241031 6.336332274891113
Be 5.442937449769506 3.725692862774888 5.405419156177917
Be 6.266046559692738 9.724247118935867 6.544806913527111
Be 5.83514119026355 5.688286399304868 5.847767135213113
Be 7.654814774504551 5.999092992217567 6.618595098393769
Be 4.091576962531186 6.785431753277402 6.657918220981923
Be 8.879802179225674 4.402345461343246 6.514275293855977
Be 9.619886569101928 6.255042632516802 7.441207176097465
Be 9.810881619186205 9.4316359525738 6.5156313992364945
Be 4.613235792233882 4.70447527239056 7.226845273289608
Be 8.134188999084536 10.324580164842617 7.509016504300494
Be 6.747999946025145 4.122665862404108 7.1463571799287955
Be 6.894641941714362 8.497062990291209 8.202962703215933
Be 8.344865239582246 4.790887890243609 8.554131321894738
Be 7.739000666715465 6.718199080289983 8.527996872994127
Be 6.268190054994366 10.436331724109593 8.53576810073309
Be 8.918900794141917 8.336702670633526 8.298367057657668
Be 4.855032373231744 8.36072139484771 8.143217925631301
Be 10.84254306618451 8.091546085312006 7.995433180808449
Be 9.990923376978333 10.105545103844198 8.493960073288784
Be 5.908213363037936 6.319245047445272 7.777880223644952
Be 4.192389504864004 6.335345350378653 8.742444299850773
Be 9.538459732025308 6.657700128123563 9.525833367873306
Be 6.224887061140511 4.885522718258475 9.119845508004351
Be 8.08041978536366 9.943755496270095 9.618797844675113
Be 7.686977087643188 5.829019134545245 10.361508375558971
Be 6.10933574729674 9.066540706678186 10.082261756297221
Be 7.915904933668561 7.943280436667482 10.296569893860708
Be 9.873210273848406 8.718212451196326 10.052761021611353
Be 5.959016666706363 7.020708793032381 9.747113025897466
