44
Energy = -126.70584192 eV
Be 16.71518836610801 17.021725457385337 12.021959330678838
Be 13.235410399851759 18.233527056312504 16.459803911987912
Be 16.823637537899554 15.378360502828395 13.364143214719205
Be 17.791508315579485 13.502335181381438 14.473624164173597
Be 14.911755355429229 14.579463199703152 12.646870491039316
Be 15.166405862407347 15.956278239997566 11.108159855051197
Be 14.700354425944399 18.257382048310642 18.09577642543584
Be 15.72227480164589 16.29929278991022 14.988944880757616
Be 13.61679049469773 14.862842939851781 18.141953838393476
Be 16.754050959020983 14.748087064248178 11.2868227968423
Be 16.378759195147094 15.888993996597243 16.947252196895914
Be 15.556066984184453 18.25162636208642 16.134358114800666
Be 12.434076073082217 16.79917977649998 15.012051844968036
Be 12.586866308937765 15.211734754712106 16.36109643744172
Be 13.869552593434886 15.337475097921901 14.537781246115774
Be 15.72548119604566 14.046373341470561 14.590352991531116
Be 17.53099490753572 15.438163078647518 15.237536312776296
Be 14.202121610238759 17.7369352436832 14.67406452999184
Be 14.626323884349064 14.848212078878328 20.07807647201877
Be 16.64238922054194 14.551059776626095 20.046843904594095
Be 18.450977469603473 15.827037480584913 12.040698860208561
Be 16.03078089254127 17.925840727991485 19.713862969140095
Be 15.13908916009326 16.20533172749586 18.536239924735625
Be 16.282276945598667 17.98987912684204 13.929278973176057
Be 17.274358608125407 16.33317642208131 19.148439289105756
Be 16.811526495887808 13.652649194011634 16.42856746475168
Be 13.06351179876056 16.90389714164511 18.183171867481043
Be 19.35391955228341 16.49062613780648 15.447836402503006
Be 11.56487703233559 16.946222654751438 16.819935498487766
Be 19.145794917000156 15.116916591692423 13.922561191332605
Be 16.82450020659487 17.902614718622196 17.779662355322635
Be 17.546401399653014 17.597510373303365 15.726878039416762
Be 14.686648382701126 14.339899593521627 16.40320264418542
Be 16.47466469315573 13.236895923289918 12.774604036811972
Be 18.35974356304014 13.838961152817502 12.480758103589622
Be 14.314523135741526 16.443048205579807 16.56026709757243
Be 18.18588116901419 17.067014272669237 13.72880476763403
Be 17.71904102740129 14.503686748575397 18.13293693672183
Be 15.898632887983755 16.25643947667548 20.859608162483266
Be 15.622950513703135 14.018810830012725 18.263001558706463
Be 14.83054701397668 16.625452492870856 13.026058122713971
Be 18.891144862934244 14.452948991959312 16.29690803152987
Be 14.165459568234397 17.138642094340995 20.063763716149413
Be 18.412729863140623 16.357590896660717 17.29033530594881
