48
Energy = -141.04094912 eV
Be 10.927957713912678 11.388700757854284 7.43524080325476
Be 10.86843592127896 13.469022655369056 7.687209294009085
Be 12.834912558069638 10.88684983330613 8.497249778058787
Be 11.03085884918906 9.53170501324917 8.709064298067032
Be 12.726913502257265 12.581067225338993 7.399444320509424
Be 9.256391302766911 10.54993460767942 8.613005943833969
Be 12.381570299033639 9.834776019064764 10.221007116283417
Be 12.284768490242689 13.578385812311481 9.184170176339075
Be 10.13013121925965 13.661918864219093 9.654262678190756
Be 10.95046183865578 8.320413873288327 10.436781269291957
Be 11.040877276220765 11.690925726155358 9.615121723100193
Be 9.074126591751401 8.70949272985618 9.701217067019975
Be 9.164324105100878 12.532422192719588 8.110529382824529
Be 7.728107850004414 10.316981612798777 9.976925447639697
Be 13.042920388065683 11.909586577311996 10.427249612533089
Be 14.213640919348705 12.617359766632667 8.964945578967326
Be 13.581918796843995 10.222901382215301 11.824080945756569
Be 11.756910511213814 13.49232493998606 11.199989922798126
Be 13.72676909150212 13.957297564066971 10.780059336941717
Be 9.75842697908566 8.466995247064748 12.20825678298365
Be 9.930393482476951 10.329305413919377 10.91550499813275
Be 14.611851479396574 10.676472119142739 9.99856580483651
Be 8.606713825110713 12.13128661165058 10.03099374795464
Be 15.154008257063944 12.461675459512666 11.04844513151236
Be 11.693902575308607 9.187708941993465 12.188694856914688
Be 15.613281219981523 10.681120709813689 11.904446635419559
Be 13.3049274490257 12.313877166731174 12.573069686020531
Be 10.02562071611451 12.405454557083589 11.391457797644346
Be 14.911530920841573 14.052974884532748 12.477635287783672
Be 7.944238133414383 9.058702619275914 11.517581499228235
Be 11.136669856488922 12.936487591064461 13.13621666042783
Be 12.865624945807237 14.409040173743541 12.908085587470604
Be 11.691743668338738 11.254017260513136 11.718108908180463
Be 8.086060187232828 11.231159791672576 11.97925387541803
Be 8.9020321153335 13.020331497614784 12.958344129204132
Be 8.567315249429384 9.583188406257175 13.51015315880871
Be 15.428532784652079 12.19357219523954 13.379211734601176
Be 10.13655149506493 11.026349960635482 13.041113413723414
Be 14.233148342210056 13.692785007494182 14.347489786067204
Be 14.563739295037946 10.34283827291283 13.640054139941736
Be 12.468879407095047 10.483818331353318 13.603110440526653
Be 11.42768937269105 11.348715750056403 15.092837458917609
Be 9.869646747264074 12.651218232121703 14.819372365886869
Be 12.223227595648986 13.33007319108479 14.788419463758482
Be 10.715314162326468 9.260242586417455 14.078919023440564
Be 13.636065070702493 11.799519967679942 14.843016036565064
Be 8.097199558528114 11.617968679795217 14.096314842453557
Be 9.47011095818687 10.59747529477778 15.164215125334552
