42
Energy = -95.64404671 eV
Be 8.248664168084938 14.641697917599874 11.829760476204157
Be 8.2314358073456 14.637115066421519 13.934890006602929
Be 10.795774707525265 14.614289169218662 17.169493170029394
Be 12.875111051755045 14.610259280877548 17.637459421121104
Be 14.960112471656668 14.610311460734962 17.16087936951249
Be 16.610108903298386 14.621334042056754 15.833081393100395
Be 17.51788269059197 14.631884447579212 13.929875813183056
Be 17.520812965720687 14.631969870270794 11.824794835361116
Be 14.963156618503602 14.616458713287521 8.591601466912673
Be 12.881524103738043 14.61219309852334 8.116681297838491
Be 9.145497167562935 14.631204261183322 9.92214720845206
Be 7.871518926398213 12.882795802696622 12.877628706759705
Be 11.752976432409207 12.875042071092011 17.736473768553388
Be 13.993251429721447 12.877290910372228 17.727657465903302
Be 16.01366993985176 12.870161690814543 16.762452100436672
Be 17.391355247658325 12.876506326644872 15.028793382033825
Be 17.883928644368613 12.872651768069915 12.87781886400698
Be 17.397923494424443 12.87681188157697 10.724947113338267
Be 14.00247113835733 12.880405499674525 8.018973802213296
Be 11.76219614104509 12.878156660394602 8.027790104863378
Be 8.364092323108208 12.878941244121956 10.726654188733004
Be 10.801038211806906 14.620757240853969 8.59858162441008
Be 9.741777630915069 12.885285879952287 8.99299547033001
Be 9.13967333447845 11.132122663632972 15.837587926820179
Be 9.145338667468296 11.134113528710074 9.92236617766614
Be 10.792290952262935 11.138988857479161 17.163846103853864
Be 9.74735528711128 12.881166541161148 16.769851471906428
Be 12.873923467028641 11.143254472243342 17.63876627292819
Be 14.954409358959921 11.134690329912715 17.156865946356454
Be 12.880336519011783 11.145188289889136 8.117988149645576
Be 10.795335099110162 11.145136110031576 8.594568201254196
Be 17.52401176342123 11.118332504345165 11.820557564163753
Be 16.609950403203893 11.12424330958336 15.833300362314771
Be 8.237564880174709 11.12356312318747 11.825571757583626
Be 14.959672863241272 11.141158401548168 8.585954400737435
Be 17.506783402681894 11.113749653166954 13.92568709456267
Be 8.23463460504614 11.123477700495744 13.930652735405713
Be 8.357524076342386 12.87863568918986 15.03050045742856
Be 9.144135240241313 14.629217214164626 15.836090028270318
Be 16.611312330525514 11.126230356602203 9.91935754249622
Be 16.008092283655404 12.874281029605534 8.985596098860256
Be 16.61577423628823 14.623324907133858 9.91785964394665
