47
Energy = -137.30958348 eV
Be 13.493482735914979 12.910087248023551 8.761281977730365
Be 11.266145243839542 11.720260158906845 8.750295409224368
Be 9.892250620075785 13.056749671623646 9.692282503311905
Be 11.536253483387705 13.856088251194697 8.664082220853656
Be 9.420676494815211 10.818266190330295 9.380102872158021
Be 11.274851069183912 9.622881458475725 8.979956999210547
Be 13.174344402947252 8.773312428836997 9.398064249088888
Be 12.945854857755684 14.728179864962701 9.770901790312283
Be 13.255667358655705 10.869388171364292 9.136340528118739
Be 8.315432874120367 12.252431037029272 10.843595571548594
Be 15.987890989731783 12.660381992916477 11.432100209743659
Be 13.439040612101252 8.434072026606145 11.581049428199853
Be 11.038452250749504 14.771018925429951 10.521404932283822
Be 10.16339667234754 9.193061940345329 10.70850705832914
Be 10.425634261020939 11.429263931819753 10.997671796277743
Be 11.719338594819174 7.932820433589884 10.351810345335203
Be 14.364705247049564 13.54674388725787 10.588175689510317
Be 12.24218763199659 10.229826022954386 11.002903493948333
Be 14.655316260950084 9.856028292376042 12.658260279038005
Be 7.567585659753414 13.354116474301925 12.49125121243684
Be 12.171813159174214 12.573685903666748 10.494344080338237
Be 15.106188666929171 11.705764627208575 9.707174644152078
Be 14.575057572036073 9.78063796758402 10.430824737882933
Be 16.138567776601985 10.654904304637228 11.39280241399759
Be 10.621285955410757 13.383302376767164 11.873543761991206
Be 8.886374019256328 14.251869686941452 11.185316841317356
Be 7.352210088604071 11.371731866453619 12.707217735676439
Be 12.742512287136794 14.147757867496463 11.863601669545064
Be 13.836538186637407 11.619705808512785 11.557451020902226
Be 9.535221761878551 11.995689169136332 12.840794953405647
Be 11.413351154246543 8.393225251873918 12.30365255072035
Be 10.495223947064384 10.160186927706615 12.634762951112776
Be 8.63042688170113 10.307966591921481 11.602214057467975
Be 11.897085054478572 11.857000937142894 12.556208514719042
Be 14.498446155453376 13.371534336248034 12.800594961402444
Be 9.163279613679338 14.22606741865105 13.300049224756044
Be 11.217285191196359 14.768638666516027 13.23645523433692
Be 12.659148435920297 13.385047301299167 13.97241161414085
Be 12.615600132655194 9.844814738987788 13.249695074135783
Be 8.229541311082107 12.489706022906917 14.362540251761464
Be 13.757169361043601 11.574764970523518 13.807361329211968
Be 8.640086106812022 10.17570204156837 13.757924441251276
Be 15.709625077477293 11.627769002802692 13.150414486584664
Be 9.82639252678169 11.24526016841747 15.022760385912807
Be 10.525894976421704 13.169798401698781 14.436342793908805
Be 10.897288848851451 9.605752697687091 14.517191399168725
Be 11.856892603048752 11.473750710092158 14.703324476333696
