42
Energy = -121.92307374 eV
Be 5.634638048747463 6.0883486008661425 9.719708676679893
Be 5.877087187300337 8.050218712613978 10.538174231203827
Be 7.171300611498489 6.171744019322532 11.156271234272147
Be 5.199004447513835 7.726003307974962 8.541405062034586
Be 6.497956925090945 6.041388862520022 7.696072332559472
Be 7.31001787554988 4.91727454832737 9.383787283835616
Be 5.266556711998994 9.765345378103307 9.257084702242164
Be 6.868416622055227 10.203216238410109 10.531579572679886
Be 7.608189483814216 6.963960641890357 9.378306609759544
Be 6.43361273172073 7.920031697078096 6.903340245461241
Be 7.859060294743528 8.384904965477926 11.10656885650489
Be 8.583921954068883 5.53923443685379 7.748828433643039
Be 9.185949830866294 6.832028037952013 11.453642762628377
Be 7.834929903410858 6.774979735913716 5.9839031106228795
Be 8.0769758408828 9.720160469021971 7.40197748682922
Be 8.604335394829524 7.73246867200724 7.647938949877666
Be 7.056894598573874 8.84469869348729 8.894090945512351
Be 6.926882280626602 11.087358552844107 8.656067036798836
Be 9.286641515778573 5.647541925116082 9.79437574714533
Be 5.913411923907558 9.810368044822228 7.2624038796114085
Be 8.846515747865103 9.858081041646292 9.504250755263248
Be 8.513093130560147 10.284808942818115 11.770991007219955
Be 9.996742581287135 8.759947076986034 11.478555040646896
Be 11.038352438794966 7.061625003192736 10.45335104208021
Be 10.581957452482024 6.322218280599185 8.284311246753056
Be 9.896213480679599 6.514457048802813 6.35223941501526
Be 7.389727791198533 9.174561373411436 5.581737390210811
Be 7.207226787823466 11.255847450959365 6.5128437404175035
Be 8.858667970191146 11.664079893212593 7.842655534059129
Be 9.508172053091556 7.889922951966027 9.503424753837047
Be 10.056356109050943 9.33953234561597 7.812945467162428
Be 9.418102162153394 8.498098790573277 5.774575905411948
Be 8.486229387754365 11.78483529674413 10.064617161798012
Be 11.831519643778668 7.8965058477110235 8.679316564860235
Be 10.260979926441586 10.849555917058172 11.02687691048097
Be 9.172323112491176 10.617754777380748 5.853462564693509
Be 11.156730659321623 9.367831609945021 9.858930253186404
Be 11.345225262493086 7.904750631609799 6.733336596669424
Be 10.761112824011033 11.434610451065986 6.957113888561491
Be 12.031072391014956 9.894207328891738 7.835376346714403
Be 10.559172344693923 11.20624765697733 8.982621930982912
Be 11.130429645114843 9.791704344070327 5.863076247048244
