6
Energy = -8.15585331 eV
Be 10.269176736158107 6.509938634467108 9.097749017649589
Be 9.448337708828305 8.388171587276382 9.431778504490298
Be 9.072062767963526 10.400394148093916 9.037538865348035
Be 8.66540085496477 7.174750001762904 8.02897296236238
Be 7.2510133389981775 10.992284111073559 8.340916121461477
Be 7.742201988837605 8.98265491307674 8.511237924438708
