6
Energy = -8.13597312 eV
Be 10.27958535777939 12.746871144503373 10.833594238438907
Be 10.395759070869214 9.497799734693054 9.347806455873183
Be 8.96431663962602 8.820804372438873 10.584881909817598
Be 9.600720389052997 10.795983136221974 10.660293603824055
Be 9.650734981181603 7.56460115116742 9.148427552580682
Be 11.103085397688286 11.45015794635772 9.506950835427379
