8
Energy = -13.46719135 eV
Be 10.381714119330988 6.671852183092854 9.132142070500665
Be 9.365724119430297 8.375427787268888 6.202942863133663
Be 9.115909548140852 7.860159798083288 8.138224724387273
Be 8.846667533830887 7.636419243902731 10.103295931342
Be 7.134820883795899 8.133955265242172 8.930044181268425
Be 8.430612566594785 9.561988918017414 9.281316600558414
Be 7.80431685074153 9.308400921398968 7.22798216274905
Be 6.5508201569390785 10.082381661797521 8.61463724486435
