9
Energy = -18.49924524 eV
Be 7.747933250858798 6.314999160861836 7.724625458552387
Be 5.871213695184681 5.693349047664301 8.242249440444331
Be 7.7870025157237555 6.519390695361853 5.463243634376804
Be 6.629481990022858 5.039968962921365 6.446795282284641
Be 6.172361773463779 7.6703117657024835 7.819775030658961
Be 4.988007915061028 6.450437666848242 6.547466949551531
Be 7.90334340278866 8.162333588324788 6.753156524610983
Be 6.208805434760795 7.876007836515511 5.5606055294268115
Be 5.931306590529093 6.0097193329910805 4.774118198941668
