 vasp.5.3.5 31Mar14 (build Feb 01 2018 12:10:03) gamma-only                     
  
 executed on             LinuxIFC date 2019.04.21  01:46:35
 running on   32 total cores
 distrk:  each k-point on   32 cores,    1 groups
 distr:  one band on NCORES_PER_BAND=   8 cores,    4 groups


--------------------------------------------------------------------------------------------------------


 INCAR:
 POTCAR:    PAW_PBE Ni 02Aug2007                  
 POTCAR:    PAW_PBE Ni 02Aug2007                  
   VRHFIN =Ni:                                                                  
   LEXCH  = PE                                                                  
   EATOM  =  1077.6739 eV,   79.2068 Ry                                         
                                                                                
   TITEL  = PAW_PBE Ni 02Aug2007                                                
   LULTRA =        F    use ultrasoft PP ?                                      
   IUNSCR =        1    unscreen: 0-lin 1-nonlin 2-no                           
   RPACOR =    2.000    partial core radius                                     
   POMASS =   58.690; ZVAL   =   10.000    mass and valenz                      
   RCORE  =    2.300    outmost cutoff radius                                   
   RWIGS  =    2.430; RWIGS  =    1.286    wigner-seitz radius (au A)           
   ENMAX  =  269.532; ENMIN  =  202.149 eV                                      
   RCLOC  =    1.201    cutoff for local pot                                    
   LCOR   =        T    correct aug charges                                     
   LPAW   =        T    paw PP                                                  
   EAUG   =  544.565                                                            
   DEXC   =    0.000                                                            
   RMAX   =    2.357    core radius for proj-oper                               
   RAUG   =    1.300    factor for augmentation sphere                          
   RDEP   =    2.390    radius for radial grids                                 
   RDEPT  =    1.838    core radius for aug-charge                              
                                                                                
   Atomic configuration                                                         
    9 entries                                                                   
     n  l   j            E        occ.                                          
     1  0  0.50     -8206.4253   2.0000                                         
     2  0  0.50      -976.1748   2.0000                                         
     2  1  1.50      -839.0571   6.0000                                         
     3  0  0.50      -105.9991   2.0000                                         
     3  1  1.50       -66.4603   6.0000                                         
     3  2  2.50        -4.6458   9.0000                                         
     4  0  0.50        -4.4926   1.0000                                         
     4  1  1.50        -4.0817   0.0000                                         
     4  3  2.50        -1.3606   0.0000                                         
   Description                                                                  
     l       E           TYP  RCUT    TYP  RCUT                                 
     2     -4.6457903     23  2.300                                             
     2     -6.0063729     23  2.300                                             
     0     -4.4925590     23  2.300                                             
     0      5.0102601     23  2.300                                             
     1     -2.7211652     23  2.300                                             
     1     16.5183231     23  2.300                                             
  local pseudopotential read in
  partial core-charges read in
  partial kinetic energy density read in
  atomic valenz-charges read in
  non local Contribution for L=           2  read in
    real space projection operators read in
  non local Contribution for L=           2  read in
    real space projection operators read in
  non local Contribution for L=           0  read in
    real space projection operators read in
  non local Contribution for L=           0  read in
    real space projection operators read in
  non local Contribution for L=           1  read in
    real space projection operators read in
  non local Contribution for L=           1  read in
    real space projection operators read in
    PAW grid and wavefunctions read in
 
   number of l-projection  operators is LMAX  =           6
   number of lm-projection operators is LMMAX =          18
 
  PAW_PBE Ni 02Aug2007                  :
 energy of atom  1       EATOM=-1077.6739
 kinetic energy error for atom=    0.0382 (will be added to EATOM!!)
 
 
 POSCAR: Ni12, -990.0 <s> Ni </s>                
  positions in direct lattice
  velocities in cartesian coordinates
 exchange correlation table for  LEXCH =        8
   RHO(1)=    0.500       N(1)  =     2000
   RHO(2)=  100.500       N(2)  =     4000
 


--------------------------------------------------------------------------------------------------------


 ion  position               nearest neighbor table
   1  0.496  0.325  0.489-  12 2.84   6 2.87   3 2.92
   2  0.417  0.575  0.634-  12 2.81   4 2.90   9 2.91
   3  0.409  0.432  0.398-   8 2.91  11 2.91   1 2.92   4 2.92   6 2.92  12 3.07
   4  0.367  0.572  0.477-  11 2.86   8 2.88   2 2.90   3 2.92   9 2.93  12 3.07
   5  0.646  0.411  0.535-  12 2.82   6 2.88  10 2.91
   6  0.574  0.427  0.388-   8 2.87   1 2.87   5 2.88   3 2.92  10 2.93  12 3.08
   7  0.601  0.570  0.626-  12 2.83   9 2.87  10 2.89
   8  0.497  0.570  0.377-   6 2.87   4 2.88   9 2.88  10 2.89   3 2.91
   9  0.508  0.651  0.519-   7 2.87   8 2.88  10 2.91   2 2.91   4 2.93  12 3.06
  10  0.635  0.561  0.466-   7 2.89   8 2.89   9 2.91   5 2.91   6 2.93  12 3.06
  11  0.348  0.429  0.552-  12 2.83   4 2.86   3 2.91
  12  0.501  0.478  0.539-   2 2.81   5 2.82   7 2.83  11 2.83   1 2.84  10 3.06   9 3.06   3 3.07
                             4 3.07   6 3.08
 
  LATTYP: Found a simple cubic cell.
 ALAT       =    17.6011500000
  
  Lattice vectors:
  
 A1 = (  17.6011500000,   0.0000000000,   0.0000000000)
 A2 = (   0.0000000000,  17.6011500000,   0.0000000000)
 A3 = (   0.0000000000,   0.0000000000,  17.6011500000)


Analysis of symmetry for initial positions (statically):
=====================================================================
 Subroutine PRICEL returns:
 Original cell was already a primitive cell.
 

 Routine SETGRP: Setting up the symmetry group for a 
 simple cubic supercell.


 Subroutine GETGRP returns: Found  1 space group operations
 (whereof  1 operations were pure point group operations)
 out of a pool of 48 trial point group operations.


The static configuration has the point symmetry C_1 .


Analysis of symmetry for dynamics (positions and initial velocities):
=====================================================================
 Subroutine PRICEL returns:
 Original cell was already a primitive cell.
 

 Routine SETGRP: Setting up the symmetry group for a 
 simple cubic supercell.


 Subroutine GETGRP returns: Found  1 space group operations
 (whereof  1 operations were pure point group operations)
 out of a pool of 48 trial point group operations.


The dynamic configuration has the point symmetry C_1 .


Analysis of magnetic symmetry:
=====================================================================
 Subroutine PRICEL returns:
 Original cell was already a primitive cell.
 

 Subroutine MAGSYM returns: Found  1 space group operations
 (whereof  1 operations were pure point group operations)
 out of a pool of  1 trial space group operations
 (whereof  1 operations were pure point group operations)
 and found also     1 'primitive' translations


The magnetic configuration has the point symmetry C_1 .
 
 
 KPOINTS: Gamma-point only                        
  k-points in reciprocal lattice
Space group operators:
 irot       det(A)        alpha          n_x          n_y          n_z        tau_x        tau_y        tau_z
    1     1.000000     0.000000     1.000000     0.000000     0.000000     0.000000     0.000000     0.000000


--------------------------------------------------------------------------------------------------------




 Dimension of arrays:
   k-points           NKPTS =      1   k-points in BZ     NKDIM =      1   number of bands    NBANDS=     80
   number of dos      NEDOS =    301   number of ions     NIONS =     12
   non local maximal  LDIM  =      6   non local SUM 2l+1 LMDIM =     18
   total plane-waves  NPLWV = 373248
   max r-space proj   IRMAX =      1   max aug-charges    IRDMAX=   2418
   dimension x,y,z NGX =    72 NGY =   72 NGZ =   72
   dimension x,y,z NGXF=   144 NGYF=  144 NGZF=  144
   support grid    NGXF=   144 NGYF=  144 NGZF=  144
   ions per type =              12
 NGX,Y,Z   is equivalent  to a cutoff of   6.80,  6.80,  6.80 a.u.
 NGXF,Y,Z  is equivalent  to a cutoff of  13.60, 13.60, 13.60 a.u.


 I would recommend the setting:
   dimension x,y,z NGX =    71 NGY =   71 NGZ =   71
 SYSTEM =  unknown system                          
 POSCAR =  Ni12, -990.0 <s> Ni </s>                

 Startparameter for this run:
   NWRITE =      2    write-flag & timer
   PREC   = normal    normal or accurate (medium, high low for compatibility)
   ISTART =      0    job   : 0-new  1-cont  2-samecut
   ICHARG =      2    charge: 1-file 2-atom 10-const
   ISPIN  =      2    spin polarized calculation?
   LNONCOLLINEAR =      F non collinear calculations
   LSORBIT =      F    spin-orbit coupling
   INIWAV =      1    electr: 0-lowe 1-rand  2-diag
   LASPH  =      F    aspherical Exc in radial PAW
   METAGGA=      F    non-selfconsistent MetaGGA calc.

 Electronic Relaxation 1
   ENCUT  =  269.5 eV  19.81 Ry    4.45 a.u.  23.56 23.56 23.56*2*pi/ulx,y,z
   ENINI  =  269.5     initial cutoff
   ENAUG  =  544.6 eV  augmentation charge cutoff
   NELM   =     60;   NELMIN=  2; NELMDL=  0     # of ELM steps 
   EDIFF  = 0.1E-03   stopping-criterion for ELM
   LREAL  =      F    real-space projection
   NLSPLINE    = F    spline interpolate recip. space projectors
   LCOMPAT=      F    compatible to vasp.4.4
   GGA_COMPAT  = T    GGA compatible to vasp.4.4-vasp.4.6
   LMAXPAW     = -100 max onsite density
   LMAXMIX     =    2 max onsite mixed and CHGCAR
   VOSKOWN=      0    Vosko Wilk Nusair interpolation
   ROPT   =    0.00000
 Ionic relaxation
   EDIFFG = 0.1E-02   stopping-criterion for IOM
   NSW    =   1000    number of steps for IOM
   NBLOCK =      1;   KBLOCK =   1000    inner block; outer block 
   IBRION =      2    ionic relax: 0-MD 1-quasi-New 2-CG
   NFREE  =      1    steps in history (QN), initial steepest desc. (CG)
   ISIF   =      2    stress and relaxation
   IWAVPR =     11    prediction:  0-non 1-charg 2-wave 3-comb
   ISYM   =      2    0-nonsym 1-usesym 2-fastsym
   LCORR  =      T    Harris-Foulkes like correction to forces

   POTIM  = 0.1000    time-step for ionic-motion
   TEIN   =    0.0    initial temperature
   TEBEG  =    0.0;   TEEND  =   0.0 temperature during run
   SMASS  =  -3.00    Nose mass-parameter (am)
   estimated Nose-frequenzy (Omega)   =  0.10E-29 period in steps =****** mass=  -0.708E-26a.u.
   SCALEE = 1.0000    scale energy and forces
   NPACO  =    256;   APACO  = 16.0  distance and # of slots for P.C.
   PSTRESS=    0.0 pullay stress

  Mass of Ions in am
   POMASS =  58.69
  Ionic Valenz
   ZVAL   =  10.00
  Atomic Wigner-Seitz radii
   RWIGS  =  -1.00
  virtual crystal weights 
   VCA    =   1.00
   NELECT =     120.0000    total number of electrons
   NUPDOWN=      -1.0000    fix difference up-down

 DOS related values:
   EMIN   =  10.00;   EMAX   =-10.00  energy-range for DOS
   EFERMI =   0.00
   ISMEAR =     0;   SIGMA  =   0.00  broadening in eV -4-tet -1-fermi 0-gaus

 Electronic relaxation 2 (details)
   IALGO  =     38    algorithm
   LDIAG  =      T    sub-space diagonalisation (order eigenvalues)
   LSUBROT=      F    optimize rotation matrix (better conditioning)
   TURBO    =      0    0=normal 1=particle mesh
   IRESTART =      0    0=no restart 2=restart with 2 vectors
   NREBOOT  =      0    no. of reboots
   NMIN     =      0    reboot dimension
   EREF     =   0.00    reference energy to select bands
   IMIX   =      4    mixing-type and parameters
     AMIX     =   0.40;   BMIX     =  1.00
     AMIX_MAG =   1.60;   BMIX_MAG =  1.00
     AMIN     =   0.10
     WC   =   100.;   INIMIX=   1;  MIXPRE=   1;  MAXMIX= -45

 Intra band minimization:
   WEIMIN = 0.0010     energy-eigenvalue tresh-hold
   EBREAK =  0.31E-06  absolut break condition
   DEPER  =   0.30     relativ break condition  

   TIME   =   0.40     timestep for ELM

  volume/ion in A,a.u.               =     454.40      3066.47
  Fermi-wavevector in a.u.,A,eV,Ry     =   0.458769  0.866948  2.863606  0.210469
  Thomas-Fermi vector in A             =   1.444279
 
 Write flags
   LWAVE  =      F    write WAVECAR
   LCHARG =      F    write CHGCAR
   LVTOT  =      F    write LOCPOT, total local potential
   LVHAR  =      F    write LOCPOT, Hartree potential only
   LELF   =      F    write electronic localiz. function (ELF)
   LORBIT =      0    0 simple, 1 ext, 2 COOP (PROOUT)


 Dipole corrections
   LMONO  =      F    monopole corrections only (constant potential shift)
   LDIPOL =      F    correct potential (dipole corrections)
   IDIPOL =      0    1-x, 2-y, 3-z, 4-all directions 
   EPSILON=  1.0000000 bulk dielectric constant

 Exchange correlation treatment:
   GGA     =    PE    GGA type
   LEXCH   =     8    internal setting for exchange type
   VOSKOWN=      0    Vosko Wilk Nusair interpolation
   LHFCALC =     F    Hartree Fock is set to
   LHFONE  =     F    Hartree Fock one center treatment
   AEXX    =    0.0000 exact exchange contribution

 Linear response parameters
   LEPSILON=     F    determine dielectric tensor
   LRPA    =     F    only Hartree local field effects (RPA)
   LNABLA  =     F    use nabla operator in PAW spheres
   LVEL    =     F    velocity operator in full k-point grid
   LINTERFAST=   F  fast interpolation
   KINTER  =     0    interpolate to denser k-point grid
   CSHIFT  =0.1000    complex shift for real part using Kramers Kronig
   OMEGAMAX=  -1.0    maximum frequency
   DEG_THRESHOLD= 0.2000000E-02 threshold for treating states as degnerate
   RTIME   =    0.100 relaxation time in fs

 Orbital magnetization related:
   ORBITALMAG=     F  switch on orbital magnetization
   LCHIMAG   =     F  perturbation theory with respect to B field
   DQ        =  0.001000  dq finite difference perturbation B field



--------------------------------------------------------------------------------------------------------


 conjugate gradient relaxation of ions
 charge density and potential will be updated during run
 spin polarized calculation
 Variant of blocked Davidson
 Davidson routine will perform the subspace rotation
 perform sub-space diagonalisation
    after iterative eigenvector-optimisation
 modified Broyden-mixing scheme, WC =      100.0
 initial mixing is a Kerker type mixing with AMIX =  0.4000 and BMIX =      1.0000
 Hartree-type preconditioning will be used
 using additional bands           20
 reciprocal scheme for non local part
 use partial core corrections
 calculate Harris-corrections to forces 
   (improved forces if not selfconsistent)
 use gradient corrections 
 use of overlap-Matrix (Vanderbilt PP)
 Gauss-broadening in eV      SIGMA  =   0.00


--------------------------------------------------------------------------------------------------------


  energy-cutoff  :      269.53
  volume of cell :     5452.84
      direct lattice vectors                 reciprocal lattice vectors
    17.601150000  0.000000000  0.000000000     0.056814470  0.000000000  0.000000000
     0.000000000 17.601150000  0.000000000     0.000000000  0.056814470  0.000000000
     0.000000000  0.000000000 17.601150000     0.000000000  0.000000000  0.056814470

  length of vectors
    17.601150000 17.601150000 17.601150000     0.056814470  0.056814470  0.056814470


 
 k-points in units of 2pi/SCALE and weight: Gamma-point only                        
   0.00000000  0.00000000  0.00000000       1.000
 
 k-points in reciprocal lattice and weights: Gamma-point only                        
   0.00000000  0.00000000  0.00000000       1.000
 
 position of ions in fractional coordinates (direct lattice) 
   0.49604773  0.32493917  0.48936746
   0.41656529  0.57470035  0.63401899
   0.40865263  0.43220082  0.39814409
   0.36745991  0.57214783  0.47702048
   0.64627729  0.41062245  0.53455666
   0.57426762  0.42659980  0.38839794
   0.60076675  0.56967409  0.62578792
   0.49717646  0.57000773  0.37747757
   0.50795242  0.65116968  0.51933720
   0.63542089  0.56077729  0.46556384
   0.34835069  0.42886892  0.55179442
   0.50106231  0.47829188  0.53853344
 
 position of ions in cartesian coordinates  (Angst):
   8.73101056  5.71930303  8.61343007
   7.33202823 10.11538709 11.15946332
   7.19275622  7.60723144  7.00779377
   6.46771697 10.07045978  8.39610895
  11.37522356  7.22742731  9.40881192
  10.10777061  7.50864708  6.83625044
  10.57418564 10.02691910 11.01458708
   8.75087752 10.03279154  6.64403940
   8.94054676 11.46133514  9.14093188
  11.18413841  9.87032523  8.19445897
   6.13137268  7.54858619  9.71221633
   8.81927285  8.41848706  9.47880787
 


--------------------------------------------------------------------------------------------------------


 use parallel FFT for wavefunctions z direction half grid
 k-point  1 :   0.0000 0.0000 0.0000  plane waves:   27446

 maximum and minimum number of plane-waves per node :      3436     3421

 maximum number of plane-waves:     27446
 maximum index in each direction: 
   IXMAX=   23   IYMAX=   23   IZMAX=   23
   IXMIN=  -23   IYMIN=  -23   IZMIN=    0

 WARNING: aliasing errors must be expected set NGX to  94 to avoid them
 WARNING: aliasing errors must be expected set NGY to  94 to avoid them
 WARNING: aliasing errors must be expected set NGZ to  94 to avoid them
 aliasing errors are usually negligible using standard VASP settings
 and one can safely disregard these warnings

 parallel 3D FFT for wavefunctions:
    minimum data exchange during FFTs selected (reduces bandwidth)
 parallel 3D FFT for charge:
    minimum data exchange during FFTs selected (reduces bandwidth)


 total amount of memory used by VASP on root node    49159. kBytes
========================================================================

   base      :      30000. kBytes
   nonl-proj :       1150. kBytes
   fftplans  :       4478. kBytes
   grid      :      11298. kBytes
   one-center:         31. kBytes
   wavefun   :       2202. kBytes
 
     INWAV:  cpu time    0.00: real time    0.00
 Broyden mixing: mesh for mixing (old mesh)
   NGX = 47   NGY = 47   NGZ = 47
  (NGX  =144   NGY  =144   NGZ  =144)
  gives a total of 103823 points

 initial charge density was supplied:
 charge density of overlapping atoms calculated
 number of electron     120.0000000 magnetization      12.0000000
 keeping initial charge density in first step


--------------------------------------------------------------------------------------------------------


 Maximum index for augmentation-charges          177 (set IRDMAX)


--------------------------------------------------------------------------------------------------------


 First call to EWALD:  gamma=   0.101
 Maximum number of real-space cells 3x 3x 3
 Maximum number of reciprocal cells 3x 3x 3

 FEWALD executed in parallel
    FEWALD:  cpu time    0.00: real time    0.00


----------------------------------------- Iteration    1(   1)  ---------------------------------------


    POTLOK:  cpu time    0.18: real time    0.18
    SETDIJ:  cpu time    0.00: real time    0.01
     EDDAV:  cpu time    0.56: real time    0.57
       DOS:  cpu time    0.00: real time    0.00
    --------------------------------------------
      LOOP:  cpu time    0.75: real time    1.10

 eigenvalue-minimisations  :   320
 total energy-change (2. order) : 0.5964756E+03  (-0.2178450E+04)
 number of electron     120.0000000 magnetization      12.0000000
 augmentation part      120.0000000 magnetization      12.0000000

 Free energy of the ion-electron system (eV)
  ---------------------------------------------------
  alpha Z        PSCENC =        13.46804116
  Ewald energy   TEWEN  =      9989.05913646
  -Hartree energ DENC   =    -21932.58664550
  -exchange      EXHF   =         0.00000000
  -V(xc)+E(xc)   XCENC  =       359.34012043
  PAW double counting   =     11553.99808323   -12356.04854730
  entropy T*S    EENTRO =         0.00000000
  eigenvalues    EBANDS =        37.61764056
  atomic energy  EATOM  =     12931.62781481
  ---------------------------------------------------
  free energy    TOTEN  =       596.47564386 eV

  energy without entropy =      596.47564386  energy(sigma->0) =      596.47564386


--------------------------------------------------------------------------------------------------------




----------------------------------------- Iteration    1(   2)  ---------------------------------------


     EDDAV:  cpu time    0.73: real time    0.73
       DOS:  cpu time    0.00: real time    0.00
    --------------------------------------------
      LOOP:  cpu time    0.73: real time    0.74

 eigenvalue-minimisations  :   440
 total energy-change (2. order) :-0.5418382E+03  (-0.4897405E+03)
 number of electron     120.0000000 magnetization      12.0000000
 augmentation part      120.0000000 magnetization      12.0000000

 Free energy of the ion-electron system (eV)
  ---------------------------------------------------
  alpha Z        PSCENC =        13.46804116
  Ewald energy   TEWEN  =      9989.05913646
  -Hartree energ DENC   =    -21932.58664550
  -exchange      EXHF   =         0.00000000
  -V(xc)+E(xc)   XCENC  =       359.34012043
  PAW double counting   =     11553.99808323   -12356.04854730
  entropy T*S    EENTRO =         0.00000000
  eigenvalues    EBANDS =      -504.22060103
  atomic energy  EATOM  =     12931.62781481
  ---------------------------------------------------
  free energy    TOTEN  =        54.63740227 eV

  energy without entropy =       54.63740227  energy(sigma->0) =       54.63740227


--------------------------------------------------------------------------------------------------------




----------------------------------------- Iteration    1(   3)  ---------------------------------------


     EDDAV:  cpu time    0.69: real time    0.69
       DOS:  cpu time    0.00: real time    0.00
    --------------------------------------------
      LOOP:  cpu time    0.70: real time    0.71

 eigenvalue-minimisations  :   400
 total energy-change (2. order) :-0.8743723E+02  (-0.7961109E+02)
 number of electron     120.0000000 magnetization      12.0000000
 augmentation part      120.0000000 magnetization      12.0000000

 Free energy of the ion-electron system (eV)
  ---------------------------------------------------
  alpha Z        PSCENC =        13.46804116
  Ewald energy   TEWEN  =      9989.05913646
  -Hartree energ DENC   =    -21932.58664550
  -exchange      EXHF   =         0.00000000
  -V(xc)+E(xc)   XCENC  =       359.34012043
  PAW double counting   =     11553.99808323   -12356.04854730
  entropy T*S    EENTRO =        -0.00000000
  eigenvalues    EBANDS =      -591.65783587
  atomic energy  EATOM  =     12931.62781481
  ---------------------------------------------------
  free energy    TOTEN  =       -32.79983257 eV

  energy without entropy =      -32.79983257  energy(sigma->0) =      -32.79983257


--------------------------------------------------------------------------------------------------------




----------------------------------------- Iteration    1(   4)  ---------------------------------------


     EDDAV:  cpu time    0.64: real time    0.64
       DOS:  cpu time    0.00: real time    0.00
    --------------------------------------------
      LOOP:  cpu time    0.64: real time    0.65

 eigenvalue-minimisations  :   360
 total energy-change (2. order) :-0.5305602E+01  (-0.4594688E+01)
 number of electron     120.0000000 magnetization      12.0000000
 augmentation part      120.0000000 magnetization      12.0000000

 Free energy of the ion-electron system (eV)
  ---------------------------------------------------
  alpha Z        PSCENC =        13.46804116
  Ewald energy   TEWEN  =      9989.05913646
  -Hartree energ DENC   =    -21932.58664550
  -exchange      EXHF   =         0.00000000
  -V(xc)+E(xc)   XCENC  =       359.34012043
  PAW double counting   =     11553.99808323   -12356.04854730
  entropy T*S    EENTRO =         0.00000000
  eigenvalues    EBANDS =      -596.96343756
  atomic energy  EATOM  =     12931.62781481
  ---------------------------------------------------
  free energy    TOTEN  =       -38.10543426 eV

  energy without entropy =      -38.10543426  energy(sigma->0) =      -38.10543426


--------------------------------------------------------------------------------------------------------




----------------------------------------- Iteration    1(   5)  ---------------------------------------


     EDDAV:  cpu time    0.66: real time    0.66
       DOS:  cpu time    0.00: real time    0.00
    CHARGE:  cpu time    0.04: real time    0.04
    MIXING:  cpu time    0.00: real time    0.00
    --------------------------------------------
      LOOP:  cpu time    0.70: real time    0.72

 eigenvalue-minimisations  :   376
 total energy-change (2. order) :-0.1119665E+00  (-0.1112933E+00)
 number of electron     119.9999849 magnetization      11.9999996
 augmentation part       72.3867339 magnetization       9.0863708

 Broyden mixing:
  rms(total) = 0.15135E+01    rms(broyden)= 0.15082E+01
  rms(prec ) = 0.16920E+01
  weight for this iteration     100.00

 Free energy of the ion-electron system (eV)
  ---------------------------------------------------
  alpha Z        PSCENC =        13.46804116
  Ewald energy   TEWEN  =      9989.05913646
  -Hartree energ DENC   =    -21932.58664550
  -exchange      EXHF   =         0.00000000
  -V(xc)+E(xc)   XCENC  =       359.34012043
  PAW double counting   =     11553.99808323   -12356.04854730
  entropy T*S    EENTRO =        -0.00000000
  eigenvalues    EBANDS =      -597.07540404
  atomic energy  EATOM  =     12931.62781481
  ---------------------------------------------------
  free energy    TOTEN  =       -38.21740074 eV

  energy without entropy =      -38.21740074  energy(sigma->0) =      -38.21740074


--------------------------------------------------------------------------------------------------------




----------------------------------------- Iteration    1(   6)  ---------------------------------------


    POTLOK:  cpu time    0.17: real time    0.17
    SETDIJ:  cpu time    0.00: real time    0.01
     EDDAV:  cpu time    0.60: real time    0.61
       DOS:  cpu time    0.00: real time    0.00
    CHARGE:  cpu time    0.04: real time    0.04
    MIXING:  cpu time    0.00: real time    0.00
    --------------------------------------------
      LOOP:  cpu time    0.83: real time    0.85

 eigenvalue-minimisations  :   336
 total energy-change (2. order) :-0.7148796E+00  (-0.5138193E+01)
 number of electron     119.9999843 magnetization      11.7694696
 augmentation part       80.3268817 magnetization      10.6893666

 Broyden mixing:
  rms(total) = 0.28220E+01    rms(broyden)= 0.28163E+01
  rms(prec ) = 0.30418E+01
  weight for this iteration     100.00

 eigenvalues of (default mixing * dielectric matrix)
  average eigenvalue GAMMA=   0.2770
  0.2770

 Free energy of the ion-electron system (eV)
  ---------------------------------------------------
  alpha Z        PSCENC =        13.46804116
  Ewald energy   TEWEN  =      9989.05913646
  -Hartree energ DENC   =    -21790.33212874
  -exchange      EXHF   =         0.00000000
  -V(xc)+E(xc)   XCENC  =       352.07526475
  PAW double counting   =     11441.60281383   -12211.35306575
  entropy T*S    EENTRO =         0.00000000
  eigenvalues    EBANDS =      -765.08015686
  atomic energy  EATOM  =     12931.62781481
  ---------------------------------------------------
  free energy    TOTEN  =       -38.93228032 eV

  energy without entropy =      -38.93228032  energy(sigma->0) =      -38.93228032


--------------------------------------------------------------------------------------------------------




----------------------------------------- Iteration    1(   7)  ---------------------------------------


    POTLOK:  cpu time    0.17: real time    0.17
    SETDIJ:  cpu time    0.01: real time    0.01
     EDDAV:  cpu time    0.63: real time    0.63
       DOS:  cpu time    0.00: real time    0.00
    CHARGE:  cpu time    0.04: real time    0.04
    MIXING:  cpu time    0.00: real time    0.00
    --------------------------------------------
      LOOP:  cpu time    0.85: real time    0.86

 eigenvalue-minimisations  :   352
 total energy-change (2. order) : 0.3709616E+00  (-0.1339871E+01)
 number of electron     119.9999825 magnetization      11.6610797
 augmentation part       77.7935374 magnetization      10.7655671

 Broyden mixing:
  rms(total) = 0.40175E+01    rms(broyden)= 0.40115E+01
  rms(prec ) = 0.44528E+01
  weight for this iteration     100.00

 eigenvalues of (default mixing * dielectric matrix)
  average eigenvalue GAMMA=   0.2134
  0.3202  0.1066

 Free energy of the ion-electron system (eV)
  ---------------------------------------------------
  alpha Z        PSCENC =        13.46804116
  Ewald energy   TEWEN  =      9989.05913646
  -Hartree energ DENC   =    -21867.57507688
  -exchange      EXHF   =         0.00000000
  -V(xc)+E(xc)   XCENC  =       354.61677977
  PAW double counting   =     11576.51697713   -12363.37057264
  entropy T*S    EENTRO =         0.00000000
  eigenvalues    EBANDS =      -672.90441854
  atomic energy  EATOM  =     12931.62781481
  ---------------------------------------------------
  free energy    TOTEN  =       -38.56131872 eV

  energy without entropy =      -38.56131872  energy(sigma->0) =      -38.56131872


--------------------------------------------------------------------------------------------------------




----------------------------------------- Iteration    1(   8)  ---------------------------------------


    POTLOK:  cpu time    0.17: real time    0.17
    SETDIJ:  cpu time    0.01: real time    0.01
     EDDAV:  cpu time    0.68: real time    0.68
       DOS:  cpu time    0.00: real time    0.00
    CHARGE:  cpu time    0.04: real time    0.04
    MIXING:  cpu time    0.00: real time    0.00
    --------------------------------------------
      LOOP:  cpu time    0.90: real time    0.91

 eigenvalue-minimisations  :   392
 total energy-change (2. order) : 0.1894521E+01  (-0.6162088E+00)
 number of electron     119.9999835 magnetization      11.6239569
 augmentation part       76.7058195 magnetization       9.4897060

 Broyden mixing:
  rms(total) = 0.37290E+01    rms(broyden)= 0.37248E+01
  rms(prec ) = 0.41403E+01
  weight for this iteration     100.00

 eigenvalues of (default mixing * dielectric matrix)
  average eigenvalue GAMMA=   0.1751
  0.3338  0.1168  0.0748

 Free energy of the ion-electron system (eV)
  ---------------------------------------------------
  alpha Z        PSCENC =        13.46804116
  Ewald energy   TEWEN  =      9989.05913646
  -Hartree energ DENC   =    -21887.17380973
  -exchange      EXHF   =         0.00000000
  -V(xc)+E(xc)   XCENC  =       355.50896029
  PAW double counting   =     11616.51964930   -12408.37346964
  entropy T*S    EENTRO =         0.00000000
  eigenvalues    EBANDS =      -647.30312001
  atomic energy  EATOM  =     12931.62781481
  ---------------------------------------------------
  free energy    TOTEN  =       -36.66679735 eV

  energy without entropy =      -36.66679735  energy(sigma->0) =      -36.66679735


--------------------------------------------------------------------------------------------------------




----------------------------------------- Iteration    1(   9)  ---------------------------------------


    POTLOK:  cpu time    0.17: real time    0.17
    SETDIJ:  cpu time    0.01: real time    0.01
     EDDAV:  cpu time    0.76: real time    0.77
       DOS:  cpu time    0.00: real time    0.00
    CHARGE:  cpu time    0.04: real time    0.04
    MIXING:  cpu time    0.00: real time    0.00
    --------------------------------------------
      LOOP:  cpu time    0.99: real time    1.01

 eigenvalue-minimisations  :   456
 total energy-change (2. order) : 0.1537097E+01  (-0.4704791E+00)
 number of electron     119.9999842 magnetization      11.5587102
 augmentation part       77.0773106 magnetization      10.5599949

 Broyden mixing:
  rms(total) = 0.28049E+01    rms(broyden)= 0.27978E+01
  rms(prec ) = 0.31213E+01
  weight for this iteration     100.00

 eigenvalues of (default mixing * dielectric matrix)
  average eigenvalue GAMMA=   0.1550
  0.2928  0.1916  0.0677  0.0677

 Free energy of the ion-electron system (eV)
  ---------------------------------------------------
  alpha Z        PSCENC =        13.46804116
  Ewald energy   TEWEN  =      9989.05913646
  -Hartree energ DENC   =    -21894.44442371
  -exchange      EXHF   =         0.00000000
  -V(xc)+E(xc)   XCENC  =       355.73736383
  PAW double counting   =     11631.31997163   -12424.92734545
  entropy T*S    EENTRO =         0.00000000
  eigenvalues    EBANDS =      -636.97025946
  atomic energy  EATOM  =     12931.62781481
  ---------------------------------------------------
  free energy    TOTEN  =       -35.12970073 eV

  energy without entropy =      -35.12970073  energy(sigma->0) =      -35.12970073


--------------------------------------------------------------------------------------------------------




----------------------------------------- Iteration    1(  10)  ---------------------------------------


    POTLOK:  cpu time    0.17: real time    0.17
    SETDIJ:  cpu time    0.01: real time    0.01
     EDDAV:  cpu time    0.73: real time    0.73
       DOS:  cpu time    0.00: real time    0.00
    CHARGE:  cpu time    0.04: real time    0.04
    MIXING:  cpu time    0.00: real time    0.01
    --------------------------------------------
      LOOP:  cpu time    0.96: real time    0.96

 eigenvalue-minimisations  :   432
 total energy-change (2. order) : 0.7910803E+00  (-0.1461059E+00)
 number of electron     119.9999843 magnetization      11.4291477
 augmentation part       76.9987258 magnetization      10.3974089

 Broyden mixing:
  rms(total) = 0.26145E+01    rms(broyden)= 0.26037E+01
  rms(prec ) = 0.28963E+01
  weight for this iteration     100.00

 eigenvalues of (default mixing * dielectric matrix)
  average eigenvalue GAMMA=   0.1725
  0.3310  0.3310  0.0753  0.0753  0.0501

 Free energy of the ion-electron system (eV)
  ---------------------------------------------------
  alpha Z        PSCENC =        13.46804116
  Ewald energy   TEWEN  =      9989.05913646
  -Hartree energ DENC   =    -21900.63653998
  -exchange      EXHF   =         0.00000000
  -V(xc)+E(xc)   XCENC  =       355.82407146
  PAW double counting   =     11642.78401594   -12437.51132800
  entropy T*S    EENTRO =        -0.00000000
  eigenvalues    EBANDS =      -628.95383231
  atomic energy  EATOM  =     12931.62781481
  ---------------------------------------------------
  free energy    TOTEN  =       -34.33862046 eV

  energy without entropy =      -34.33862046  energy(sigma->0) =      -34.33862046


--------------------------------------------------------------------------------------------------------




----------------------------------------- Iteration    1(  11)  ---------------------------------------


    POTLOK:  cpu time    0.17: real time    0.17
    SETDIJ:  cpu time    0.00: real time    0.01
     EDDAV:  cpu time    0.74: real time    0.74
       DOS:  cpu time    0.00: real time    0.00
    CHARGE:  cpu time    0.04: real time    0.04
    MIXING:  cpu time    0.00: real time    0.01
    --------------------------------------------
      LOOP:  cpu time    0.96: real time    1.01

 eigenvalue-minimisations  :   440
 total energy-change (2. order) :-0.4667486E+00  (-0.1592061E+00)
 number of electron     119.9999862 magnetization      11.1769445
 augmentation part       76.2317154 magnetization       8.9001797

 Broyden mixing:
  rms(total) = 0.33818E+01    rms(broyden)= 0.33734E+01
  rms(prec ) = 0.37440E+01
  weight for this iteration     100.00

 eigenvalues of (default mixing * dielectric matrix)
  average eigenvalue GAMMA=   0.2179
  0.5171  0.5171  0.0823  0.0823  0.0542  0.0542

 Free energy of the ion-electron system (eV)
  ---------------------------------------------------
  alpha Z        PSCENC =        13.46804116
  Ewald energy   TEWEN  =      9989.05913646
  -Hartree energ DENC   =    -21909.85137877
  -exchange      EXHF   =         0.00000000
  -V(xc)+E(xc)   XCENC  =       355.94918786
  PAW double counting   =     11661.33562552   -12457.70645202
  entropy T*S    EENTRO =        -0.00000000
  eigenvalues    EBANDS =      -618.68734411
  atomic energy  EATOM  =     12931.62781481
  ---------------------------------------------------
  free energy    TOTEN  =       -34.80536908 eV

  energy without entropy =      -34.80536908  energy(sigma->0) =      -34.80536908


--------------------------------------------------------------------------------------------------------




----------------------------------------- Iteration    1(  12)  ---------------------------------------


    POTLOK:  cpu time    0.17: real time    0.17
    SETDIJ:  cpu time    0.01: real time    0.01
     EDDAV:  cpu time    0.65: real time    0.65
       DOS:  cpu time    0.00: real time    0.00
    CHARGE:  cpu time    0.04: real time    0.04
    MIXING:  cpu time    0.00: real time    0.01
    --------------------------------------------
      LOOP:  cpu time    0.88: real time    0.87

 eigenvalue-minimisations  :   368
 total energy-change (2. order) : 0.3940180E+00  (-0.3868697E+00)
 number of electron     119.9999840 magnetization      11.1028325
 augmentation part       75.3833273 magnetization       7.7397918

 Broyden mixing:
  rms(total) = 0.35018E+01    rms(broyden)= 0.34965E+01
  rms(prec ) = 0.39161E+01
  weight for this iteration     100.00

 eigenvalues of (default mixing * dielectric matrix)
  average eigenvalue GAMMA=   0.2083
  0.5657  0.5657  0.0802  0.0802  0.0702  0.0479  0.0479

 Free energy of the ion-electron system (eV)
  ---------------------------------------------------
  alpha Z        PSCENC =        13.46804116
  Ewald energy   TEWEN  =      9989.05913646
  -Hartree energ DENC   =    -21925.57202355
  -exchange      EXHF   =         0.00000000
  -V(xc)+E(xc)   XCENC  =       356.50827214
  PAW double counting   =     11697.16181409   -12496.59028448
  entropy T*S    EENTRO =         0.00000000
  eigenvalues    EBANDS =      -600.07412167
  atomic energy  EATOM  =     12931.62781481
  ---------------------------------------------------
  free energy    TOTEN  =       -34.41135105 eV

  energy without entropy =      -34.41135105  energy(sigma->0) =      -34.41135105


--------------------------------------------------------------------------------------------------------




----------------------------------------- Iteration    1(  13)  ---------------------------------------


    POTLOK:  cpu time    0.17: real time    0.17
    SETDIJ:  cpu time    0.01: real time    0.01
     EDDAV:  cpu time    0.64: real time    0.65
       DOS:  cpu time    0.00: real time    0.00
    CHARGE:  cpu time    0.04: real time    0.04
    MIXING:  cpu time    0.00: real time    0.01
    --------------------------------------------
      LOOP:  cpu time    0.87: real time    0.89

 eigenvalue-minimisations  :   368
 total energy-change (2. order) : 0.1067959E+01  (-0.3956269E+00)
 number of electron     119.9999825 magnetization      11.0520737
 augmentation part       76.3880801 magnetization       9.9143366

 Broyden mixing:
  rms(total) = 0.20451E+01    rms(broyden)= 0.20355E+01
  rms(prec ) = 0.22790E+01
  weight for this iteration     100.00

 eigenvalues of (default mixing * dielectric matrix)
  average eigenvalue GAMMA=   0.1976
  0.5771  0.5771  0.1205  0.0742  0.0742  0.0681  0.0448  0.0448

 Free energy of the ion-electron system (eV)
  ---------------------------------------------------
  alpha Z        PSCENC =        13.46804116
  Ewald energy   TEWEN  =      9989.05913646
  -Hartree energ DENC   =    -21930.21794300
  -exchange      EXHF   =         0.00000000
  -V(xc)+E(xc)   XCENC  =       356.58803980
  PAW double counting   =     11708.05999768   -12508.30293975
  entropy T*S    EENTRO =        -0.00000000
  eigenvalues    EBANDS =      -593.62553951
  atomic energy  EATOM  =     12931.62781481
  ---------------------------------------------------
  free energy    TOTEN  =       -33.34339235 eV

  energy without entropy =      -33.34339235  energy(sigma->0) =      -33.34339235


--------------------------------------------------------------------------------------------------------




----------------------------------------- Iteration    1(  14)  ---------------------------------------


    POTLOK:  cpu time    0.17: real time    0.17
    SETDIJ:  cpu time    0.01: real time    0.01
     EDDAV:  cpu time    0.71: real time    0.71
       DOS:  cpu time    0.00: real time    0.00
    CHARGE:  cpu time    0.04: real time    0.04
    MIXING:  cpu time    0.01: real time    0.01
    --------------------------------------------
      LOOP:  cpu time    0.94: real time    0.94

 eigenvalue-minimisations  :   416
 total energy-change (2. order) :-0.3195562E+00  (-0.5533493E-01)
 number of electron     119.9999839 magnetization      10.8927563
 augmentation part       76.2459461 magnetization       9.7470162

 Broyden mixing:
  rms(total) = 0.20694E+01    rms(broyden)= 0.20636E+01
  rms(prec ) = 0.22883E+01
  weight for this iteration     100.00

 eigenvalues of (default mixing * dielectric matrix)
  average eigenvalue GAMMA=   0.2215
  0.6541  0.6541  0.3304  0.0759  0.0759  0.0726  0.0457  0.0457  0.0386

 Free energy of the ion-electron system (eV)
  ---------------------------------------------------
  alpha Z        PSCENC =        13.46804116
  Ewald energy   TEWEN  =      9989.05913646
  -Hartree energ DENC   =    -21932.32780495
  -exchange      EXHF   =         0.00000000
  -V(xc)+E(xc)   XCENC  =       356.40651907
  PAW double counting   =     11711.32060473   -12511.68683985
  entropy T*S    EENTRO =         0.00000000
  eigenvalues    EBANDS =      -591.53041994
  atomic energy  EATOM  =     12931.62781481
  ---------------------------------------------------
  free energy    TOTEN  =       -33.66294851 eV

  energy without entropy =      -33.66294851  energy(sigma->0) =      -33.66294851


--------------------------------------------------------------------------------------------------------




----------------------------------------- Iteration    1(  15)  ---------------------------------------


    POTLOK:  cpu time    0.17: real time    0.17
    SETDIJ:  cpu time    0.01: real time    0.01
     EDDAV:  cpu time    0.59: real time    0.59
       DOS:  cpu time    0.00: real time    0.00
    CHARGE:  cpu time    0.04: real time    0.04
    MIXING:  cpu time    0.01: real time    0.01
    --------------------------------------------
      LOOP:  cpu time    0.82: real time    0.82

 eigenvalue-minimisations  :   328
 total energy-change (2. order) : 0.3402248E+00  (-0.3728929E-01)
 number of electron     119.9999844 magnetization      10.7985111
 augmentation part       76.2326753 magnetization       9.6172266

 Broyden mixing:
  rms(total) = 0.19317E+01    rms(broyden)= 0.19243E+01
  rms(prec ) = 0.21262E+01
  weight for this iteration     100.00

 eigenvalues of (default mixing * dielectric matrix)
  average eigenvalue GAMMA=   0.2220
  0.7098  0.7098  0.3653  0.0782  0.0782  0.0920  0.0546  0.0473  0.0473  0.0370

 Free energy of the ion-electron system (eV)
  ---------------------------------------------------
  alpha Z        PSCENC =        13.46804116
  Ewald energy   TEWEN  =      9989.05913646
  -Hartree energ DENC   =    -21938.21933831
  -exchange      EXHF   =         0.00000000
  -V(xc)+E(xc)   XCENC  =       356.51344681
  PAW double counting   =     11721.46878606   -12522.25104065
  entropy T*S    EENTRO =         0.00000000
  eigenvalues    EBANDS =      -584.98957009
  atomic energy  EATOM  =     12931.62781481
  ---------------------------------------------------
  free energy    TOTEN  =       -33.32272375 eV

  energy without entropy =      -33.32272375  energy(sigma->0) =      -33.32272375


--------------------------------------------------------------------------------------------------------




----------------------------------------- Iteration    1(  16)  ---------------------------------------


    POTLOK:  cpu time    0.17: real time    0.17
    SETDIJ:  cpu time    0.00: real time    0.01
     EDDAV:  cpu time    0.62: real time    0.61
       DOS:  cpu time    0.00: real time    0.00
    CHARGE:  cpu time    0.04: real time    0.04
    MIXING:  cpu time    0.00: real time    0.01
    --------------------------------------------
      LOOP:  cpu time    0.84: real time    0.84

 eigenvalue-minimisations  :   344
 total energy-change (2. order) : 0.2899410E+00  (-0.3215998E-01)
 number of electron     119.9999834 magnetization      10.7312736
 augmentation part       76.3414094 magnetization       9.5670638

 Broyden mixing:
  rms(total) = 0.14946E+01    rms(broyden)= 0.14856E+01
  rms(prec ) = 0.16373E+01
  weight for this iteration     100.00

 eigenvalues of (default mixing * dielectric matrix)
  average eigenvalue GAMMA=   0.2191
  0.7438  0.7438  0.3305  0.1976  0.0796  0.0796  0.0628  0.0434  0.0434  0.0446
  0.0411

 Free energy of the ion-electron system (eV)
  ---------------------------------------------------
  alpha Z        PSCENC =        13.46804116
  Ewald energy   TEWEN  =      9989.05913646
  -Hartree energ DENC   =    -21941.11945598
  -exchange      EXHF   =         0.00000000
  -V(xc)+E(xc)   XCENC  =       356.56357330
  PAW double counting   =     11726.63275322   -12527.61135500
  entropy T*S    EENTRO =        -0.00000000
  eigenvalues    EBANDS =      -581.65329069
  atomic energy  EATOM  =     12931.62781481
  ---------------------------------------------------
  free energy    TOTEN  =       -33.03278272 eV

  energy without entropy =      -33.03278272  energy(sigma->0) =      -33.03278272


--------------------------------------------------------------------------------------------------------




----------------------------------------- Iteration    1(  17)  ---------------------------------------


    POTLOK:  cpu time    0.17: real time    0.17
    SETDIJ:  cpu time    0.01: real time    0.01
     EDDAV:  cpu time    0.67: real time    0.67
       DOS:  cpu time    0.00: real time    0.00
    CHARGE:  cpu time    0.04: real time    0.04
    MIXING:  cpu time    0.00: real time    0.01
    --------------------------------------------
      LOOP:  cpu time    0.90: real time    0.90

 eigenvalue-minimisations  :   384
 total energy-change (2. order) : 0.1687544E+00  (-0.2145244E-01)
 number of electron     119.9999841 magnetization      10.6251607
 augmentation part       76.3553726 magnetization       9.4656034

 Broyden mixing:
  rms(total) = 0.11884E+01    rms(broyden)= 0.11829E+01
  rms(prec ) = 0.13120E+01
  weight for this iteration     100.00

 eigenvalues of (default mixing * dielectric matrix)
  average eigenvalue GAMMA=   0.2299
  0.7828  0.7828  0.3701  0.3701  0.0783  0.0783  0.0685  0.0464  0.0464  0.0536
  0.0449  0.0369

 Free energy of the ion-electron system (eV)
  ---------------------------------------------------
  alpha Z        PSCENC =        13.46804116
  Ewald energy   TEWEN  =      9989.05913646
  -Hartree energ DENC   =    -21943.36025674
  -exchange      EXHF   =         0.00000000
  -V(xc)+E(xc)   XCENC  =       356.68871751
  PAW double counting   =     11729.40977639   -12530.47583249
  entropy T*S    EENTRO =        -0.00000000
  eigenvalues    EBANDS =      -579.28142543
  atomic energy  EATOM  =     12931.62781481
  ---------------------------------------------------
  free energy    TOTEN  =       -32.86402832 eV

  energy without entropy =      -32.86402832  energy(sigma->0) =      -32.86402832


--------------------------------------------------------------------------------------------------------




----------------------------------------- Iteration    1(  18)  ---------------------------------------


    POTLOK:  cpu time    0.17: real time    0.17
    SETDIJ:  cpu time    0.00: real time    0.01
     EDDAV:  cpu time    0.62: real time    0.61
       DOS:  cpu time    0.00: real time    0.00
    CHARGE:  cpu time    0.04: real time    0.04
    MIXING:  cpu time    0.01: real time    0.01
    --------------------------------------------
      LOOP:  cpu time    0.84: real time    0.85

 eigenvalue-minimisations  :   344
 total energy-change (2. order) :-0.2470947E-01  (-0.1298627E-01)
 number of electron     119.9999839 magnetization      10.5523194
 augmentation part       75.7402551 magnetization       8.2839292

 Broyden mixing:
  rms(total) = 0.14705E+01    rms(broyden)= 0.14650E+01
  rms(prec ) = 0.16202E+01
  weight for this iteration     100.00

 eigenvalues of (default mixing * dielectric matrix)
  average eigenvalue GAMMA=   0.2270
  0.7908  0.7908  0.4315  0.4315  0.0775  0.0775  0.0672  0.0672  0.0475  0.0475
  0.0505  0.0354  0.0354

 Free energy of the ion-electron system (eV)
  ---------------------------------------------------
  alpha Z        PSCENC =        13.46804116
  Ewald energy   TEWEN  =      9989.05913646
  -Hartree energ DENC   =    -21947.34822075
  -exchange      EXHF   =         0.00000000
  -V(xc)+E(xc)   XCENC  =       356.74476685
  PAW double counting   =     11733.29716653   -12534.45755221
  entropy T*S    EENTRO =        -0.00000000
  eigenvalues    EBANDS =      -575.27989064
  atomic energy  EATOM  =     12931.62781481
  ---------------------------------------------------
  free energy    TOTEN  =       -32.88873779 eV

  energy without entropy =      -32.88873779  energy(sigma->0) =      -32.88873779


--------------------------------------------------------------------------------------------------------




----------------------------------------- Iteration    1(  19)  ---------------------------------------


    POTLOK:  cpu time    0.18: real time    0.17
    SETDIJ:  cpu time    0.00: real time    0.01
     EDDAV:  cpu time    0.60: real time    0.60
       DOS:  cpu time    0.00: real time    0.00
    CHARGE:  cpu time    0.04: real time    0.04
    MIXING:  cpu time    0.01: real time    0.01
    --------------------------------------------
      LOOP:  cpu time    0.83: real time    0.84

 eigenvalue-minimisations  :   336
 total energy-change (2. order) : 0.1770672E+00  (-0.2236161E-01)
 number of electron     119.9999838 magnetization      10.5221038
 augmentation part       76.2470260 magnetization       9.3022452

 Broyden mixing:
  rms(total) = 0.10217E+01    rms(broyden)= 0.10169E+01
  rms(prec ) = 0.11227E+01
  weight for this iteration     100.00

 eigenvalues of (default mixing * dielectric matrix)
  average eigenvalue GAMMA=   0.2203
  0.7695  0.7695  0.4314  0.4314  0.1712  0.0779  0.0779  0.0867  0.0567  0.0448
  0.0448  0.0474  0.0362  0.0386

 Free energy of the ion-electron system (eV)
  ---------------------------------------------------
  alpha Z        PSCENC =        13.46804116
  Ewald energy   TEWEN  =      9989.05913646
  -Hartree energ DENC   =    -21950.02332628
  -exchange      EXHF   =         0.00000000
  -V(xc)+E(xc)   XCENC  =       356.82736081
  PAW double counting   =     11735.68978862   -12536.88867051
  entropy T*S    EENTRO =         0.00000000
  eigenvalues    EBANDS =      -572.47181568
  atomic energy  EATOM  =     12931.62781481
  ---------------------------------------------------
  free energy    TOTEN  =       -32.71167060 eV

  energy without entropy =      -32.71167060  energy(sigma->0) =      -32.71167060


--------------------------------------------------------------------------------------------------------




----------------------------------------- Iteration    1(  20)  ---------------------------------------


    POTLOK:  cpu time    0.18: real time    0.17
    SETDIJ:  cpu time    0.00: real time    0.01
     EDDAV:  cpu time    0.68: real time    0.68
       DOS:  cpu time    0.00: real time    0.00
    CHARGE:  cpu time    0.04: real time    0.04
    MIXING:  cpu time    0.01: real time    0.01
    --------------------------------------------
      LOOP:  cpu time    0.90: real time    0.91

 eigenvalue-minimisations  :   392
 total energy-change (2. order) :-0.1162291E+00  (-0.7292903E-02)
 number of electron     119.9999842 magnetization      10.3525325
 augmentation part       76.2294688 magnetization       9.1473789

 Broyden mixing:
  rms(total) = 0.13146E+01    rms(broyden)= 0.13093E+01
  rms(prec ) = 0.14579E+01
  weight for this iteration     100.00

 eigenvalues of (default mixing * dielectric matrix)
  average eigenvalue GAMMA=   0.2535
  0.7156  0.7156  0.6990  0.6990  0.4303  0.0780  0.0780  0.0812  0.0571  0.0451
  0.0451  0.0460  0.0435  0.0359  0.0336

 Free energy of the ion-electron system (eV)
  ---------------------------------------------------
  alpha Z        PSCENC =        13.46804116
  Ewald energy   TEWEN  =      9989.05913646
  -Hartree energ DENC   =    -21950.94702892
  -exchange      EXHF   =         0.00000000
  -V(xc)+E(xc)   XCENC  =       356.80302934
  PAW double counting   =     11736.48535283   -12537.68243865
  entropy T*S    EENTRO =        -0.00000000
  eigenvalues    EBANDS =      -571.64180670
  atomic energy  EATOM  =     12931.62781481
  ---------------------------------------------------
  free energy    TOTEN  =       -32.82789967 eV

  energy without entropy =      -32.82789967  energy(sigma->0) =      -32.82789967


--------------------------------------------------------------------------------------------------------




----------------------------------------- Iteration    1(  21)  ---------------------------------------


    POTLOK:  cpu time    0.17: real time    0.17
    SETDIJ:  cpu time    0.01: real time    0.01
     EDDAV:  cpu time    0.59: real time    0.59
       DOS:  cpu time    0.00: real time    0.00
    CHARGE:  cpu time    0.04: real time    0.04
    MIXING:  cpu time    0.01: real time    0.01
    --------------------------------------------
      LOOP:  cpu time    0.82: real time    0.85

 eigenvalue-minimisations  :   328
 total energy-change (2. order) : 0.1852821E+00  (-0.9615107E-02)
 number of electron     119.9999849 magnetization      10.3368472
 augmentation part       75.6790099 magnetization       8.0605018

 Broyden mixing:
  rms(total) = 0.10338E+01    rms(broyden)= 0.10254E+01
  rms(prec ) = 0.11301E+01
  weight for this iteration     100.00

 eigenvalues of (default mixing * dielectric matrix)
  average eigenvalue GAMMA=   0.2461
  0.7406  0.7406  0.6695  0.6695  0.4502  0.1298  0.0781  0.0781  0.0729  0.0624
  0.0460  0.0460  0.0426  0.0421  0.0356  0.0327

 Free energy of the ion-electron system (eV)
  ---------------------------------------------------
  alpha Z        PSCENC =        13.46804116
  Ewald energy   TEWEN  =      9989.05913646
  -Hartree energ DENC   =    -21955.73096899
  -exchange      EXHF   =         0.00000000
  -V(xc)+E(xc)   XCENC  =       356.95463967
  PAW double counting   =     11741.46141059   -12542.68171998
  entropy T*S    EENTRO =        -0.00000000
  eigenvalues    EBANDS =      -566.80097124
  atomic energy  EATOM  =     12931.62781481
  ---------------------------------------------------
  free energy    TOTEN  =       -32.64261752 eV

  energy without entropy =      -32.64261752  energy(sigma->0) =      -32.64261752


--------------------------------------------------------------------------------------------------------




----------------------------------------- Iteration    1(  22)  ---------------------------------------


    POTLOK:  cpu time    0.17: real time    0.17
    SETDIJ:  cpu time    0.01: real time    0.01
     EDDAV:  cpu time    0.60: real time    0.60
       DOS:  cpu time    0.00: real time    0.00
    CHARGE:  cpu time    0.04: real time    0.04
    MIXING:  cpu time    0.01: real time    0.01
    --------------------------------------------
      LOOP:  cpu time    0.84: real time    0.86

 eigenvalue-minimisations  :   336
 total energy-change (2. order) :-0.2271471E+00  (-0.3602479E-01)
 number of electron     119.9999841 magnetization      10.2550058
 augmentation part       76.2182372 magnetization       9.0807583

 Broyden mixing:
  rms(total) = 0.11095E+01    rms(broyden)= 0.11037E+01
  rms(prec ) = 0.12254E+01
  weight for this iteration     100.00

 eigenvalues of (default mixing * dielectric matrix)
  average eigenvalue GAMMA=   0.2718
  1.0326  0.7930  0.7930  0.4799  0.4799  0.4577  0.0780  0.0780  0.0776  0.0561
  0.0521  0.0458  0.0458  0.0416  0.0416  0.0344  0.0338

 Free energy of the ion-electron system (eV)
  ---------------------------------------------------
  alpha Z        PSCENC =        13.46804116
  Ewald energy   TEWEN  =      9989.05913646
  -Hartree energ DENC   =    -21955.96459169
  -exchange      EXHF   =         0.00000000
  -V(xc)+E(xc)   XCENC  =       356.84822217
  PAW double counting   =     11741.77414858   -12543.01219372
  entropy T*S    EENTRO =        -0.00000000
  eigenvalues    EBANDS =      -566.67034237
  atomic energy  EATOM  =     12931.62781481
  ---------------------------------------------------
  free energy    TOTEN  =       -32.86976460 eV

  energy without entropy =      -32.86976460  energy(sigma->0) =      -32.86976460


--------------------------------------------------------------------------------------------------------




----------------------------------------- Iteration    1(  23)  ---------------------------------------


    POTLOK:  cpu time    0.18: real time    0.17
    SETDIJ:  cpu time    0.00: real time    0.01
     EDDAV:  cpu time    0.60: real time    0.60
       DOS:  cpu time    0.00: real time    0.00
    CHARGE:  cpu time    0.04: real time    0.04
    MIXING:  cpu time    0.01: real time    0.01
    --------------------------------------------
      LOOP:  cpu time    0.83: real time    0.84

 eigenvalue-minimisations  :   336
 total energy-change (2. order) :-0.1086981E+00  (-0.9474689E-02)
 number of electron     119.9999852 magnetization      10.1943625
 augmentation part       75.6605565 magnetization       8.0162491

 Broyden mixing:
  rms(total) = 0.81569E+00    rms(broyden)= 0.81150E+00
  rms(prec ) = 0.88960E+00
  weight for this iteration     100.00

 eigenvalues of (default mixing * dielectric matrix)
  average eigenvalue GAMMA=   0.2829
  1.0928  0.8457  0.8457  0.4440  0.4440  0.4177  0.4177  0.0780  0.0780  0.0785
  0.0569  0.0514  0.0458  0.0458  0.0409  0.0409  0.0341  0.0341

 Free energy of the ion-electron system (eV)
  ---------------------------------------------------
  alpha Z        PSCENC =        13.46804116
  Ewald energy   TEWEN  =      9989.05913646
  -Hartree energ DENC   =    -21957.77659500
  -exchange      EXHF   =         0.00000000
  -V(xc)+E(xc)   XCENC  =       356.75607174
  PAW double counting   =     11743.59883575   -12544.91936061
  entropy T*S    EENTRO =        -0.00000000
  eigenvalues    EBANDS =      -564.79240704
  atomic energy  EATOM  =     12931.62781481
  ---------------------------------------------------
  free energy    TOTEN  =       -32.97846273 eV

  energy without entropy =      -32.97846273  energy(sigma->0) =      -32.97846273


--------------------------------------------------------------------------------------------------------




----------------------------------------- Iteration    1(  24)  ---------------------------------------


    POTLOK:  cpu time    0.18: real time    0.17
    SETDIJ:  cpu time    0.00: real time    0.01
     EDDAV:  cpu time    0.66: real time    0.66
       DOS:  cpu time    0.00: real time    0.00
    CHARGE:  cpu time    0.04: real time    0.04
    MIXING:  cpu time    0.01: real time    0.01
    --------------------------------------------
      LOOP:  cpu time    0.89: real time    0.89

 eigenvalue-minimisations  :   376
 total energy-change (2. order) :-0.1553640E+00  (-0.6946555E-02)
 number of electron     119.9999855 magnetization      10.1696356
 augmentation part       75.7023504 magnetization       8.0293620

 Broyden mixing:
  rms(total) = 0.70180E+00    rms(broyden)= 0.70035E+00
  rms(prec ) = 0.76941E+00
  weight for this iteration     100.00

 eigenvalues of (default mixing * dielectric matrix)
  average eigenvalue GAMMA=   0.3031
  1.1340  0.8686  0.8686  0.4706  0.4706  0.4634  0.4634  0.4360  0.0780  0.0780
  0.0783  0.0568  0.0514  0.0458  0.0458  0.0409  0.0409  0.0341  0.0341

 Free energy of the ion-electron system (eV)
  ---------------------------------------------------
  alpha Z        PSCENC =        13.46804116
  Ewald energy   TEWEN  =      9989.05913646
  -Hartree energ DENC   =    -21958.22996190
  -exchange      EXHF   =         0.00000000
  -V(xc)+E(xc)   XCENC  =       356.62662579
  PAW double counting   =     11742.00275271   -12543.08022778
  entropy T*S    EENTRO =         0.00000000
  eigenvalues    EBANDS =      -564.60800795
  atomic energy  EATOM  =     12931.62781481
  ---------------------------------------------------
  free energy    TOTEN  =       -33.13382670 eV

  energy without entropy =      -33.13382670  energy(sigma->0) =      -33.13382670


--------------------------------------------------------------------------------------------------------




----------------------------------------- Iteration    1(  25)  ---------------------------------------


    POTLOK:  cpu time    0.18: real time    0.17
    SETDIJ:  cpu time    0.00: real time    0.01
     EDDAV:  cpu time    0.69: real time    0.69
       DOS:  cpu time    0.00: real time    0.00
    CHARGE:  cpu time    0.04: real time    0.04
    MIXING:  cpu time    0.01: real time    0.01
    --------------------------------------------
      LOOP:  cpu time    0.92: real time    0.93

 eigenvalue-minimisations  :   400
 total energy-change (2. order) :-0.6375402E-01  (-0.7222710E-02)
 number of electron     119.9999855 magnetization      10.1807732
 augmentation part       75.7001298 magnetization       8.0739743

 Broyden mixing:
  rms(total) = 0.65179E+00    rms(broyden)= 0.65006E+00
  rms(prec ) = 0.71286E+00
  weight for this iteration     100.00

 eigenvalues of (default mixing * dielectric matrix)
  average eigenvalue GAMMA=   0.2915
  1.1453  0.8677  0.8677  0.4564  0.4564  0.4528  0.4528  0.4183  0.1289  0.0780
  0.0780  0.0783  0.0568  0.0514  0.0458  0.0458  0.0409  0.0409  0.0341  0.0341

 Free energy of the ion-electron system (eV)
  ---------------------------------------------------
  alpha Z        PSCENC =        13.46804116
  Ewald energy   TEWEN  =      9989.05913646
  -Hartree energ DENC   =    -21958.88138939
  -exchange      EXHF   =         0.00000000
  -V(xc)+E(xc)   XCENC  =       356.58726006
  PAW double counting   =     11741.53510518   -12542.65500011
  entropy T*S    EENTRO =         0.00000000
  eigenvalues    EBANDS =      -563.93854888
  atomic energy  EATOM  =     12931.62781481
  ---------------------------------------------------
  free energy    TOTEN  =       -33.19758071 eV

  energy without entropy =      -33.19758071  energy(sigma->0) =      -33.19758071


--------------------------------------------------------------------------------------------------------




----------------------------------------- Iteration    1(  26)  ---------------------------------------


    POTLOK:  cpu time    0.17: real time    0.17
    SETDIJ:  cpu time    0.01: real time    0.01
     EDDAV:  cpu time    0.64: real time    0.65
       DOS:  cpu time    0.00: real time    0.00
    CHARGE:  cpu time    0.04: real time    0.04
    MIXING:  cpu time    0.01: real time    0.01
    --------------------------------------------
      LOOP:  cpu time    0.88: real time    0.90

 eigenvalue-minimisations  :   368
 total energy-change (2. order) :-0.9417450E-02  (-0.1298826E-02)
 number of electron     119.9999855 magnetization      10.1792160
 augmentation part       75.7118591 magnetization       8.0899293

 Broyden mixing:
  rms(total) = 0.65163E+00    rms(broyden)= 0.65134E+00
  rms(prec ) = 0.71454E+00
  weight for this iteration     100.00

 eigenvalues of (default mixing * dielectric matrix)
  average eigenvalue GAMMA=   0.3185
  1.1648  0.8686  0.8686  0.5375  0.5375  0.4779  0.4779  0.4102  0.4102  0.3505
  0.0780  0.0780  0.0783  0.0568  0.0514  0.0458  0.0458  0.0409  0.0409  0.0341
  0.0341

 Free energy of the ion-electron system (eV)
  ---------------------------------------------------
  alpha Z        PSCENC =        13.46804116
  Ewald energy   TEWEN  =      9989.05913646
  -Hartree energ DENC   =    -21958.46349397
  -exchange      EXHF   =         0.00000000
  -V(xc)+E(xc)   XCENC  =       356.56692382
  PAW double counting   =     11741.09759507   -12542.22891263
  entropy T*S    EENTRO =         0.00000000
  eigenvalues    EBANDS =      -564.33410289
  atomic energy  EATOM  =     12931.62781481
  ---------------------------------------------------
  free energy    TOTEN  =       -33.20699816 eV

  energy without entropy =      -33.20699816  energy(sigma->0) =      -33.20699816


--------------------------------------------------------------------------------------------------------




----------------------------------------- Iteration    1(  27)  ---------------------------------------


    POTLOK:  cpu time    0.18: real time    0.17
    SETDIJ:  cpu time    0.00: real time    0.01
     EDDAV:  cpu time    0.63: real time    0.63
       DOS:  cpu time    0.00: real time    0.00
    CHARGE:  cpu time    0.04: real time    0.04
    MIXING:  cpu time    0.01: real time    0.01
    --------------------------------------------
      LOOP:  cpu time    0.86: real time    0.86

 eigenvalue-minimisations  :   352
 total energy-change (2. order) : 0.4768242E-01  (-0.4170607E-03)
 number of electron     119.9999855 magnetization      10.1899318
 augmentation part       75.7180282 magnetization       8.1014384

 Broyden mixing:
  rms(total) = 0.65967E+00    rms(broyden)= 0.65965E+00
  rms(prec ) = 0.72408E+00
  weight for this iteration     100.00

 eigenvalues of (default mixing * dielectric matrix)
  average eigenvalue GAMMA=   0.3489
  1.1522  0.8606  0.8606  0.6174  0.6174  0.5640  0.5640  0.5012  0.5012  0.4264
  0.4264  0.0780  0.0780  0.0783  0.0568  0.0514  0.0458  0.0458  0.0409  0.0409
  0.0341  0.0341

 Free energy of the ion-electron system (eV)
  ---------------------------------------------------
  alpha Z        PSCENC =        13.46804116
  Ewald energy   TEWEN  =      9989.05913646
  -Hartree energ DENC   =    -21958.46914254
  -exchange      EXHF   =         0.00000000
  -V(xc)+E(xc)   XCENC  =       356.59565961
  PAW double counting   =     11741.21170169   -12542.30211254
  entropy T*S    EENTRO =         0.00000000
  eigenvalues    EBANDS =      -564.35041440
  atomic energy  EATOM  =     12931.62781481
  ---------------------------------------------------
  free energy    TOTEN  =       -33.15931575 eV

  energy without entropy =      -33.15931575  energy(sigma->0) =      -33.15931575


--------------------------------------------------------------------------------------------------------




----------------------------------------- Iteration    1(  28)  ---------------------------------------


    POTLOK:  cpu time    0.18: real time    0.17
    SETDIJ:  cpu time    0.00: real time    0.01
     EDDAV:  cpu time    0.62: real time    0.62
       DOS:  cpu time    0.00: real time    0.00
    CHARGE:  cpu time    0.04: real time    0.04
    MIXING:  cpu time    0.01: real time    0.01
    --------------------------------------------
      LOOP:  cpu time    0.85: real time    0.85

 eigenvalue-minimisations  :   344
 total energy-change (2. order) :-0.2799974E-01  (-0.1728622E-03)
 number of electron     119.9999855 magnetization      10.2116857
 augmentation part       75.7237145 magnetization       8.1318999

 Broyden mixing:
  rms(total) = 0.65029E+00    rms(broyden)= 0.65027E+00
  rms(prec ) = 0.71387E+00
  weight for this iteration     100.00

 eigenvalues of (default mixing * dielectric matrix)
  average eigenvalue GAMMA=   0.3872
  1.1745  0.9505  0.9505  0.8672  0.8672  0.6185  0.6185  0.4984  0.4984  0.4296
  0.4296  0.4177  0.0780  0.0780  0.0783  0.0568  0.0514  0.0458  0.0458  0.0409
  0.0409  0.0341  0.0341

 Free energy of the ion-electron system (eV)
  ---------------------------------------------------
  alpha Z        PSCENC =        13.46804116
  Ewald energy   TEWEN  =      9989.05913646
  -Hartree energ DENC   =    -21958.15424861
  -exchange      EXHF   =         0.00000000
  -V(xc)+E(xc)   XCENC  =       356.57553109
  PAW double counting   =     11740.70485300   -12541.79924862
  entropy T*S    EENTRO =         0.00000000
  eigenvalues    EBANDS =      -564.66919479
  atomic energy  EATOM  =     12931.62781481
  ---------------------------------------------------
  free energy    TOTEN  =       -33.18731549 eV

  energy without entropy =      -33.18731549  energy(sigma->0) =      -33.18731549


--------------------------------------------------------------------------------------------------------




----------------------------------------- Iteration    1(  29)  ---------------------------------------


    POTLOK:  cpu time    0.18: real time    0.17
    SETDIJ:  cpu time    0.00: real time    0.01
     EDDAV:  cpu time    0.70: real time    0.70
       DOS:  cpu time    0.00: real time    0.00
    CHARGE:  cpu time    0.04: real time    0.04
    MIXING:  cpu time    0.01: real time    0.01
    --------------------------------------------
      LOOP:  cpu time    0.93: real time    0.94

 eigenvalue-minimisations  :   408
 total energy-change (2. order) :-0.1171559E+00  (-0.1867204E-02)
 number of electron     119.9999857 magnetization      10.2519076
 augmentation part       75.7468002 magnetization       8.2078387

 Broyden mixing:
  rms(total) = 0.59974E+00    rms(broyden)= 0.59926E+00
  rms(prec ) = 0.65916E+00
  weight for this iteration     100.00

 eigenvalues of (default mixing * dielectric matrix)
  average eigenvalue GAMMA=   0.4297
  1.2729  1.2729  1.1715  0.8858  0.8858  0.6624  0.6624  0.5131  0.5131  0.5086
  0.5086  0.4358  0.4358  0.0780  0.0780  0.0783  0.0568  0.0514  0.0458  0.0458
  0.0409  0.0409  0.0341  0.0341

 Free energy of the ion-electron system (eV)
  ---------------------------------------------------
  alpha Z        PSCENC =        13.46804116
  Ewald energy   TEWEN  =      9989.05913646
  -Hartree energ DENC   =    -21957.41183644
  -exchange      EXHF   =         0.00000000
  -V(xc)+E(xc)   XCENC  =       356.48877506
  PAW double counting   =     11739.10604504   -12540.25928277
  entropy T*S    EENTRO =         0.00000000
  eigenvalues    EBANDS =      -565.38316472
  atomic energy  EATOM  =     12931.62781481
  ---------------------------------------------------
  free energy    TOTEN  =       -33.30447140 eV

  energy without entropy =      -33.30447140  energy(sigma->0) =      -33.30447140


--------------------------------------------------------------------------------------------------------




----------------------------------------- Iteration    1(  30)  ---------------------------------------


    POTLOK:  cpu time    0.17: real time    0.17
    SETDIJ:  cpu time    0.01: real time    0.01
     EDDAV:  cpu time    0.70: real time    0.70
       DOS:  cpu time    0.00: real time    0.00
    CHARGE:  cpu time    0.04: real time    0.04
    MIXING:  cpu time    0.01: real time    0.01
    --------------------------------------------
      LOOP:  cpu time    0.93: real time    0.94

 eigenvalue-minimisations  :   408
 total energy-change (2. order) :-0.1565225E+00  (-0.3930109E-02)
 number of electron     119.9999860 magnetization      10.2839911
 augmentation part       75.7763146 magnetization       8.2958922

 Broyden mixing:
  rms(total) = 0.53723E+00    rms(broyden)= 0.53595E+00
  rms(prec ) = 0.59083E+00
  weight for this iteration     100.00

 eigenvalues of (default mixing * dielectric matrix)
  average eigenvalue GAMMA=   0.4721
  1.5005  1.5005  1.1906  0.9264  0.9264  0.7214  0.7214  0.6244  0.6244  0.5394
  0.5394  0.5213  0.4409  0.4409  0.0780  0.0780  0.0783  0.0568  0.0514  0.0458
  0.0458  0.0409  0.0409  0.0341  0.0341

 Free energy of the ion-electron system (eV)
  ---------------------------------------------------
  alpha Z        PSCENC =        13.46804116
  Ewald energy   TEWEN  =      9989.05913646
  -Hartree energ DENC   =    -21956.21113063
  -exchange      EXHF   =         0.00000000
  -V(xc)+E(xc)   XCENC  =       356.38014930
  PAW double counting   =     11736.08463803   -12537.33555414
  entropy T*S    EENTRO =        -0.00000000
  eigenvalues    EBANDS =      -566.53408886
  atomic energy  EATOM  =     12931.62781481
  ---------------------------------------------------
  free energy    TOTEN  =       -33.46099386 eV

  energy without entropy =      -33.46099386  energy(sigma->0) =      -33.46099386


--------------------------------------------------------------------------------------------------------




----------------------------------------- Iteration    1(  31)  ---------------------------------------


    POTLOK:  cpu time    0.17: real time    0.17
    SETDIJ:  cpu time    0.01: real time    0.01
     EDDAV:  cpu time    0.69: real time    0.69
       DOS:  cpu time    0.00: real time    0.00
    CHARGE:  cpu time    0.04: real time    0.04
    MIXING:  cpu time    0.01: real time    0.01
    --------------------------------------------
      LOOP:  cpu time    0.92: real time    0.94

 eigenvalue-minimisations  :   400
 total energy-change (2. order) :-0.1652822E+00  (-0.4277790E-02)
 number of electron     119.9999861 magnetization      10.2405005
 augmentation part       75.8210939 magnetization       8.3197427

 Broyden mixing:
  rms(total) = 0.46812E+00    rms(broyden)= 0.46666E+00
  rms(prec ) = 0.51768E+00
  weight for this iteration     100.00

 eigenvalues of (default mixing * dielectric matrix)
  average eigenvalue GAMMA=   0.4997
  1.5759  1.5759  1.2327  1.0465  1.0465  0.7426  0.7426  0.7070  0.7070  0.5305
  0.5305  0.5438  0.5438  0.4416  0.4416  0.0780  0.0780  0.0783  0.0568  0.0514
  0.0458  0.0458  0.0409  0.0409  0.0341  0.0341

 Free energy of the ion-electron system (eV)
  ---------------------------------------------------
  alpha Z        PSCENC =        13.46804116
  Ewald energy   TEWEN  =      9989.05913646
  -Hartree energ DENC   =    -21954.98492619
  -exchange      EXHF   =         0.00000000
  -V(xc)+E(xc)   XCENC  =       356.26323804
  PAW double counting   =     11732.11036642   -12533.38682336
  entropy T*S    EENTRO =         0.00000000
  eigenvalues    EBANDS =      -567.78312339
  atomic energy  EATOM  =     12931.62781481
  ---------------------------------------------------
  free energy    TOTEN  =       -33.62627605 eV

  energy without entropy =      -33.62627605  energy(sigma->0) =      -33.62627605


--------------------------------------------------------------------------------------------------------




----------------------------------------- Iteration    1(  32)  ---------------------------------------


    POTLOK:  cpu time    0.17: real time    0.17
    SETDIJ:  cpu time    0.01: real time    0.01
     EDDAV:  cpu time    0.68: real time    0.68
       DOS:  cpu time    0.00: real time    0.00
    CHARGE:  cpu time    0.04: real time    0.04
    MIXING:  cpu time    0.01: real time    0.01
    --------------------------------------------
      LOOP:  cpu time    0.92: real time    0.96

 eigenvalue-minimisations  :   392
 total energy-change (2. order) :-0.1237530E+00  (-0.6132944E-02)
 number of electron     119.9999857 magnetization      10.1979516
 augmentation part       75.8473518 magnetization       8.3312798

 Broyden mixing:
  rms(total) = 0.31206E+00    rms(broyden)= 0.30879E+00
  rms(prec ) = 0.34274E+00
  weight for this iteration     100.00

 eigenvalues of (default mixing * dielectric matrix)
  average eigenvalue GAMMA=   0.5184
  1.5977  1.5977  1.3957  1.0950  1.0950  0.7549  0.7549  0.7207  0.7207  0.5907
  0.5907  0.5463  0.5463  0.5262  0.4405  0.4405  0.0780  0.0780  0.0783  0.0568
  0.0514  0.0458  0.0458  0.0409  0.0409  0.0341  0.0341

 Free energy of the ion-electron system (eV)
  ---------------------------------------------------
  alpha Z        PSCENC =        13.46804116
  Ewald energy   TEWEN  =      9989.05913646
  -Hartree energ DENC   =    -21955.78719684
  -exchange      EXHF   =         0.00000000
  -V(xc)+E(xc)   XCENC  =       356.17925898
  PAW double counting   =     11729.17490809   -12530.42636457
  entropy T*S    EENTRO =         0.00000000
  eigenvalues    EBANDS =      -567.04562713
  atomic energy  EATOM  =     12931.62781481
  ---------------------------------------------------
  free energy    TOTEN  =       -33.75002903 eV

  energy without entropy =      -33.75002903  energy(sigma->0) =      -33.75002903


--------------------------------------------------------------------------------------------------------




----------------------------------------- Iteration    1(  33)  ---------------------------------------


    POTLOK:  cpu time    0.18: real time    0.17
    SETDIJ:  cpu time    0.00: real time    0.01
     EDDAV:  cpu time    0.68: real time    0.68
       DOS:  cpu time    0.00: real time    0.00
    CHARGE:  cpu time    0.04: real time    0.04
    MIXING:  cpu time    0.02: real time    0.01
    --------------------------------------------
      LOOP:  cpu time    0.92: real time    0.92

 eigenvalue-minimisations  :   392
 total energy-change (2. order) :-0.1015355E+00  (-0.2652328E-02)
 number of electron     119.9999855 magnetization      10.1972772
 augmentation part       75.8514660 magnetization       8.3587978

 Broyden mixing:
  rms(total) = 0.24971E+00    rms(broyden)= 0.24736E+00
  rms(prec ) = 0.27142E+00
  weight for this iteration     100.00

 eigenvalues of (default mixing * dielectric matrix)
  average eigenvalue GAMMA=   0.5297
  1.6318  1.6318  1.4046  1.1550  1.1550  0.8154  0.8154  0.7017  0.7017  0.6208
  0.6208  0.5378  0.5378  0.5159  0.5159  0.4425  0.4425  0.0780  0.0780  0.0783
  0.0568  0.0514  0.0458  0.0458  0.0409  0.0409  0.0341  0.0341

 Free energy of the ion-electron system (eV)
  ---------------------------------------------------
  alpha Z        PSCENC =        13.46804116
  Ewald energy   TEWEN  =      9989.05913646
  -Hartree energ DENC   =    -21956.99127961
  -exchange      EXHF   =         0.00000000
  -V(xc)+E(xc)   XCENC  =       356.11683798
  PAW double counting   =     11728.62952057   -12529.91849804
  entropy T*S    EENTRO =         0.00000000
  eigenvalues    EBANDS =      -565.84313787
  atomic energy  EATOM  =     12931.62781481
  ---------------------------------------------------
[...]
     32      -5.3214      1.00000
     33      -5.3034      1.00000
     34      -5.2992      1.00000
     35      -4.9416      1.00000
     36      -4.9320      1.00000
     37      -4.8553      1.00000
     38      -4.8409      1.00000
     39      -4.8394      1.00000
     40      -4.7536      1.00000
     41      -4.7445      1.00000
     42      -4.7319      1.00000
     43      -4.7284      1.00000
     44      -4.7065      1.00000
     45      -4.6806      1.00000
     46      -4.6774      1.00000
     47      -4.5925      1.00000
     48      -4.5879      1.00000
     49      -4.5110      1.00000
     50      -4.4931      1.00000
     51      -4.4869      1.00000
     52      -4.4828      1.00000
     53      -4.4810      1.00000
     54      -4.4042      1.00000
     55      -4.4031      1.00000
     56      -4.3903      1.00000
     57      -4.3857      1.00000
     58      -4.3397      1.00000
     59      -4.3362      1.00000
     60      -4.2980      1.00000
     61      -4.2749      1.00000
     62      -4.2724      1.00000
     63      -4.2697      1.00000
     64      -4.1047      1.00000
     65      -3.1941      0.00000
     66      -3.1934      0.00000
     67      -2.9583      0.00000
     68      -2.9539      0.00000
     69      -2.6138      0.00000
     70      -2.4071      0.00000
     71      -0.7878      0.00000
     72      -0.7866      0.00000
     73      -0.6885      0.00000
     74      -0.6857      0.00000
     75      -0.5921      0.00000
     76      -0.5914      0.00000
     77      -0.4744      0.00000
     78      -0.2001      0.00000
     79      -0.1921      0.00000
     80       0.1885      0.00000

 spin component 2

 k-point     1 :       0.0000    0.0000    0.0000
  band No.  band energies     occupation 
      1     -10.3285      1.00000
      2      -7.9501      1.00000
      3      -7.9467      1.00000
      4      -7.7867      1.00000
      5      -7.5881      1.00000
      6      -7.5874      1.00000
      7      -7.0028      1.00000
      8      -6.9977      1.00000
      9      -6.6798      1.00000
     10      -6.4170      1.00000
     11      -5.9455      1.00000
     12      -5.9437      1.00000
     13      -5.9178      1.00000
     14      -5.7828      1.00000
     15      -5.7790      1.00000
     16      -5.7733      1.00000
     17      -5.7696      1.00000
     18      -5.5741      1.00000
     19      -5.5713      1.00000
     20      -5.4091      1.00000
     21      -5.4077      1.00000
     22      -5.3817      1.00000
     23      -5.3669      1.00000
     24      -5.3562      1.00000
     25      -5.1062      1.00000
     26      -5.0914      1.00000
     27      -4.9010      1.00000
     28      -4.8989      1.00000
     29      -4.6484      1.00000
     30      -4.6451      1.00000
     31      -4.5681      1.00000
     32      -4.5642      1.00000
     33      -4.5307      1.00000
     34      -4.5189      1.00000
     35      -4.3152      1.00000
     36      -4.3044      1.00000
     37      -4.2574      1.00000
     38      -4.1710      1.00000
     39      -4.1696      1.00000
     40      -4.0781      1.00000
     41      -4.0311      1.00000
     42      -4.0292      1.00000
     43      -3.9604      1.00000
     44      -3.9578      1.00000
     45      -3.9410      1.00000
     46      -3.9399      1.00000
     47      -3.9060      1.00000
     48      -3.8998      1.00000
     49      -3.8521      1.00000
     50      -3.8483      1.00000
     51      -3.7900      1.00000
     52      -3.7550      1.00000
     53      -3.7536      1.00000
     54      -3.7440      1.00000
     55      -3.6856      1.00000
     56      -3.6829      1.00000
     57      -3.5708      0.00000
     58      -3.5702      0.00000
     59      -3.5161      0.00000
     60      -3.5148      0.00000
     61      -3.5141      0.00000
     62      -3.4421      0.00000
     63      -3.4402      0.00000
     64      -3.2782      0.00000
     65      -3.0100      0.00000
     66      -3.0093      0.00000
     67      -2.7556      0.00000
     68      -2.7513      0.00000
     69      -2.4828      0.00000
     70      -2.2823      0.00000
     71      -0.7083      0.00000
     72      -0.7059      0.00000
     73      -0.6931      0.00000
     74      -0.6902      0.00000
     75      -0.4751      0.00000
     76      -0.4737      0.00000
     77      -0.4120      0.00000
     78      -0.1527      0.00000
     79      -0.1442      0.00000
     80       0.2171      0.00000


--------------------------------------------------------------------------------------------------------


 soft charge-density along one line, spin component           1
         0         1         2         3         4         5         6         7         8         9
 total charge-density along one line
 
 soft charge-density along one line, spin component           2
         0         1         2         3         4         5         6         7         8         9
 total charge-density along one line
 
 pseudopotential strength for first ion, spin component:           1
 -9.492  -0.001   0.005  -0.009  -0.003  -9.799  -0.001   0.005
 -0.001  -9.472   0.111   0.012  -0.019  -0.001  -9.780   0.106
  0.005   0.111  -9.457   0.004   0.028   0.005   0.106  -9.765
 -0.009   0.012   0.004  -9.482   0.001  -0.008   0.011   0.004
 -0.003  -0.019   0.028   0.001  -9.535  -0.003  -0.018   0.026
 -9.799  -0.001   0.005  -0.008  -0.003 -10.050  -0.001   0.004
 -0.001  -9.780   0.106   0.011  -0.018  -0.001 -10.032   0.102
  0.005   0.106  -9.765   0.004   0.026   0.004   0.102 -10.017
 -0.008   0.011   0.004  -9.789   0.001  -0.008   0.011   0.004
 -0.003  -0.018   0.026   0.001  -9.840  -0.003  -0.017   0.024
 -0.001  -0.008  -0.006  -0.000   0.009  -0.001  -0.008  -0.006
 -0.002  -0.013  -0.010  -0.001   0.017  -0.002  -0.013  -0.011
 -0.000   0.003   0.011   0.000   0.016  -0.000   0.002   0.010
  0.000  -0.016  -0.004  -0.001   0.000   0.000  -0.015  -0.003
 -0.018   0.000  -0.000   0.003  -0.000  -0.017   0.000  -0.000
 -0.000   0.002   0.010   0.000   0.013  -0.000   0.001   0.009
  0.000  -0.012  -0.006  -0.001   0.000   0.000  -0.011  -0.006
 -0.016   0.000  -0.000   0.002  -0.000  -0.015   0.000  -0.000
 pseudopotential strength for first ion, spin component:           2
 -8.869   0.001  -0.004   0.042   0.004  -9.206   0.001  -0.004
  0.001  -8.829  -0.024  -0.002  -0.020   0.001  -9.167  -0.024
 -0.004  -0.024  -8.849  -0.001  -0.009  -0.004  -0.024  -9.186
  0.042  -0.002  -0.001  -8.859   0.000   0.041  -0.002  -0.001
  0.004  -0.020  -0.009   0.000  -8.870   0.003  -0.020  -0.009
 -9.206   0.001  -0.004   0.041   0.003  -9.484   0.001  -0.004
  0.001  -9.167  -0.024  -0.002  -0.020   0.001  -9.447  -0.023
 -0.004  -0.024  -9.186  -0.001  -0.009  -0.004  -0.023  -9.465
  0.041  -0.002  -0.001  -9.195   0.000   0.039  -0.002  -0.001
  0.003  -0.020  -0.009   0.000  -9.206   0.003  -0.019  -0.009
 -0.000  -0.005  -0.002  -0.000   0.003  -0.000  -0.004  -0.002
 -0.001  -0.008  -0.003  -0.000   0.005  -0.001  -0.008  -0.003
 -0.001   0.003   0.013  -0.000   0.023  -0.001   0.003   0.012
 -0.000  -0.025   0.003  -0.001  -0.000  -0.000  -0.024   0.003
 -0.024  -0.000   0.000   0.003  -0.001  -0.023  -0.000   0.000
 -0.001   0.003   0.013  -0.000   0.023  -0.000   0.003   0.012
 -0.000  -0.025   0.003  -0.001  -0.000  -0.000  -0.024   0.003
 -0.024  -0.000   0.000   0.002  -0.001  -0.022  -0.000   0.000
 total augmentation occupancy for first ion, spin component:           1
  2.875  -0.024   0.009  -0.088   0.041  -1.129   0.018   0.007   0.064  -0.033  -0.015   0.004   0.001   0.008  -0.289  -0.000
 -0.024   2.665   0.259   0.046   0.171   0.019  -0.918  -0.032  -0.022  -0.145   0.184  -0.038   0.073  -0.179   0.007  -0.000
  0.009   0.259   2.291   0.025   0.140   0.007  -0.033  -0.549  -0.008  -0.153   0.414  -0.057   0.122  -0.013   0.002  -0.000
 -0.088   0.046   0.025   2.039  -0.001   0.064  -0.022  -0.008  -0.378   0.003   0.024  -0.003   0.004  -0.009   0.037  -0.000
  0.041   0.171   0.140  -0.001   2.259  -0.033  -0.143  -0.150   0.003  -0.717   0.258  -0.069   0.151  -0.028  -0.014   0.008
 -1.129   0.019   0.007   0.064  -0.033   1.195  -0.015  -0.017  -0.073   0.024   0.011  -0.003   0.003  -0.006   0.363  -0.001
  0.018  -0.918  -0.033  -0.022  -0.143  -0.015   0.974  -0.082   0.011   0.125  -0.182   0.038  -0.071   0.274  -0.006   0.009
  0.007  -0.032  -0.549  -0.008  -0.150  -0.017  -0.082   0.592  -0.005   0.187  -0.363   0.058  -0.171  -0.060  -0.008   0.024
  0.064  -0.022  -0.008  -0.378   0.003  -0.073   0.011  -0.005   0.502  -0.004  -0.022   0.004  -0.003   0.007  -0.034   0.001
 -0.033  -0.145  -0.153   0.003  -0.717   0.024   0.125   0.187  -0.004   0.919  -0.194   0.051  -0.242   0.024   0.019   0.031
 -0.015   0.184   0.414   0.024   0.258   0.011  -0.182  -0.363  -0.022  -0.194   1.897  -0.207   0.390  -0.075   0.014  -0.065
  0.004  -0.038  -0.057  -0.003  -0.069  -0.003   0.038   0.058   0.004   0.051  -0.207   0.029  -0.057   0.011  -0.002   0.009
  0.001   0.073   0.122   0.004   0.151   0.003  -0.071  -0.171  -0.003  -0.242   0.390  -0.057   0.153  -0.014  -0.001  -0.023
  0.008  -0.179  -0.013  -0.009  -0.028  -0.006   0.274  -0.060   0.007   0.024  -0.075   0.011  -0.014   0.106  -0.003   0.002
 -0.289   0.007   0.002   0.037  -0.014   0.363  -0.006  -0.008  -0.034   0.019   0.014  -0.002  -0.001  -0.003   0.159  -0.000
 -0.000  -0.000  -0.000  -0.000   0.008  -0.001   0.009   0.024   0.001   0.031  -0.065   0.009  -0.023   0.002  -0.000   0.004
 -0.001  -0.017   0.008  -0.000   0.003   0.001  -0.027   0.005  -0.001  -0.003   0.013  -0.002   0.003  -0.011   0.000  -0.001
 -0.009  -0.000   0.000   0.004  -0.001  -0.035   0.001   0.001   0.004  -0.002  -0.002   0.000  -0.000   0.000  -0.015   0.000
 total augmentation occupancy for first ion, spin component:           2
  0.656   0.004  -0.014   0.093   0.015  -0.267  -0.001   0.004  -0.032  -0.007  -0.000   0.000  -0.000  -0.002   0.004  -0.000
  0.004   0.655  -0.276  -0.035   0.013  -0.002  -0.258   0.102   0.015  -0.010  -0.016   0.000   0.002  -0.025  -0.002   0.001
 -0.014  -0.276   0.591  -0.019  -0.120   0.004   0.098  -0.233   0.009   0.060   0.013   0.005  -0.008   0.026   0.002   0.003
  0.093  -0.035  -0.019   0.735   0.001  -0.032   0.014   0.010  -0.321  -0.001   0.000   0.001  -0.001   0.002  -0.010  -0.000
  0.015   0.013  -0.120   0.001   0.744  -0.007  -0.011   0.057  -0.001  -0.292  -0.004  -0.008   0.011  -0.005  -0.002   0.009
 -0.267  -0.002   0.004  -0.032  -0.007   0.033   0.000  -0.000   0.008   0.004   0.001  -0.000  -0.000   0.000  -0.015   0.000
 -0.001  -0.258   0.098   0.014  -0.011   0.000   0.028  -0.023  -0.005   0.008   0.008  -0.002  -0.002  -0.005   0.001  -0.001
  0.004   0.102  -0.233   0.010   0.057  -0.000  -0.023   0.017  -0.004  -0.024  -0.006  -0.005   0.010   0.001   0.000  -0.002
 -0.032   0.015   0.009  -0.321  -0.001   0.008  -0.005  -0.004   0.061   0.001   0.001  -0.001   0.000  -0.001   0.005   0.000
 -0.007  -0.010   0.060  -0.001  -0.292   0.004   0.008  -0.024   0.001   0.024  -0.012   0.002   0.009   0.004   0.000  -0.005
 -0.000  -0.016   0.013   0.000  -0.004   0.001   0.008  -0.006   0.001  -0.012  -0.136   0.036  -0.014   0.011  -0.000   0.003
  0.000   0.000   0.005   0.001  -0.008  -0.000  -0.002  -0.005  -0.001   0.002   0.036  -0.006   0.006  -0.001   0.000  -0.001
 -0.000   0.002  -0.008  -0.001   0.011  -0.000  -0.002   0.010   0.000   0.009  -0.014   0.006  -0.008  -0.001   0.000   0.001
 -0.002  -0.025   0.026   0.002  -0.005   0.000  -0.005   0.001  -0.001   0.004   0.011  -0.001  -0.001  -0.006   0.001  -0.000
  0.004  -0.002   0.002  -0.010  -0.002  -0.015   0.001   0.000   0.005   0.000  -0.000   0.000   0.000   0.001  -0.018  -0.000
 -0.000   0.001   0.003  -0.000   0.009   0.000  -0.001  -0.002   0.000  -0.005   0.003  -0.001   0.001  -0.000  -0.000  -0.000
 -0.000  -0.011   0.006   0.000  -0.001  -0.000   0.006  -0.003   0.000   0.000  -0.001   0.000  -0.000   0.001  -0.000   0.000
 -0.010  -0.000   0.001   0.001  -0.001   0.007   0.000  -0.000  -0.001   0.000   0.000  -0.000  -0.000  -0.000   0.002  -0.000


------------------------ aborting loop because EDIFF is reached ----------------------------------------


    CHARGE:  cpu time    0.04: real time    0.04
    FORLOC:  cpu time    0.01: real time    0.01
    FORNL :  cpu time    0.26: real time    0.26
    STRESS:  cpu time    0.31: real time    0.31
    FORCOR:  cpu time    0.17: real time    0.17
    FORHAR:  cpu time    0.02: real time    0.02
    MIXING:  cpu time    0.00: real time    0.01
    OFIELD:  cpu time    0.00: real time    0.00

  FORCE on cell =-STRESS in cart. coord.  units (eV):
  Direction    XX          YY          ZZ          XY          YZ          ZX
  --------------------------------------------------------------------------------------
  Alpha Z    13.46804    13.46804    13.46804
  Ewald    6039.98779  5536.56566  4545.30177    18.08893   758.48960   -37.35728
  Hartree  9925.42780  9479.80352  8605.73660    17.77795   661.31596   -33.04860
  E(xc)    -658.10667  -658.18969  -658.35600     0.00176     0.14120    -0.00667
  Local  -18241.80937-17293.85023-15432.72214   -36.15976 -1416.61718    70.26060
  n-local  -134.40335  -133.58090  -132.39548    -0.07939    -1.06806     0.03265
  augment  2116.41092  2116.46225  2117.93341     0.16374    -1.10242     0.08239
  Kinetic   936.24554   936.61282   938.10875     0.07999    -1.17701     0.07540
  Fock        0.00000     0.00000     0.00000     0.00000     0.00000     0.00000
  -------------------------------------------------------------------------------------
  Total      -2.77930    -2.70851    -2.92505    -0.12677    -0.01791     0.03849
  in kB      -0.81662    -0.79583    -0.85945    -0.03725    -0.00526     0.01131
  external pressure =       -0.82 kB  Pullay stress =        0.00 kB


 VOLUME and BASIS-vectors are now :
 -----------------------------------------------------------------------------
  energy-cutoff  :      269.53
  volume of cell :     5452.84
      direct lattice vectors                 reciprocal lattice vectors
    17.601150000  0.000000000  0.000000000     0.056814470  0.000000000  0.000000000
     0.000000000 17.601150000  0.000000000     0.000000000  0.056814470  0.000000000
     0.000000000  0.000000000 17.601150000     0.000000000  0.000000000  0.056814470

  length of vectors
    17.601150000 17.601150000 17.601150000     0.056814470  0.056814470  0.056814470


 FORCES acting on ions
    electron-ion (+dipol)            ewald-force                    non-local-force                 convergence-correction
 -----------------------------------------------------------------------------------------------
   0.445E+02 0.124E+04 -.121E+03   -.444E+02 -.123E+04 0.120E+03   -.239E+00 -.745E+01 0.172E+01   0.555E-01 0.768E-01 0.281E-01
   0.535E+03 -.389E+03 -.106E+04   -.532E+03 0.388E+03 0.105E+04   -.294E+01 0.157E+01 0.687E+01   -.167E+00 -.153E+00 -.758E-01
   0.744E+03 0.516E+03 0.893E+03   -.741E+03 -.514E+03 -.889E+03   -.308E+01 -.211E+01 -.375E+01   0.138E-01 -.482E-01 0.194E+00
   0.108E+04 -.621E+03 0.240E+03   -.108E+04 0.618E+03 -.239E+03   -.450E+01 0.260E+01 -.104E+01   -.149E+00 -.158E+00 0.968E-01
   -.967E+03 0.670E+03 -.419E+03   0.961E+03 -.666E+03 0.415E+03   0.541E+01 -.426E+01 0.337E+01   -.190E+00 -.323E+00 0.626E-01
   -.607E+03 0.567E+03 0.964E+03   0.604E+03 -.565E+03 -.960E+03   0.251E+01 -.230E+01 -.401E+01   -.151E+00 -.366E+00 0.192E+00
   -.662E+03 -.333E+03 -.100E+04   0.658E+03 0.332E+03 0.998E+03   0.377E+01 0.124E+01 0.664E+01   -.140E+00 -.288E+00 0.107E+00
   0.292E+02 -.629E+03 0.111E+04   -.287E+02 0.626E+03 -.110E+04   -.119E+00 0.286E+01 -.504E+01   -.317E+00 -.199E+00 -.406E-02
   -.574E+02 -.127E+04 -.959E+02   0.576E+02 0.126E+04 0.954E+02   0.223E+00 0.525E+01 0.362E+00   -.409E+00 -.113E+00 0.111E+00
   -.110E+04 -.532E+03 0.342E+03   0.110E+04 0.530E+03 -.340E+03   0.460E+01 0.225E+01 -.148E+01   -.564E-01 -.339E+00 0.290E-01
   0.969E+03 0.590E+03 -.519E+03   -.964E+03 -.587E+03 0.515E+03   -.539E+01 -.389E+01 0.392E+01   0.174E+00 0.854E-01 -.124E+00
   -.862E+01 0.190E+03 -.332E+03   0.894E+01 -.190E+03 0.333E+03   -.319E-01 0.722E+00 -.130E+01   -.297E+00 -.402E+00 0.498E-01
 -----------------------------------------------------------------------------------------------
   0.146E+01 0.581E+01 -.693E+01   0.199E-12 -.171E-12 -.114E-12   0.214E+00 -.353E+01 0.626E+01   -.163E+01 -.223E+01 0.666E+00
 
 
 POSITION                                       TOTAL-FORCE (eV/Angst)
 -----------------------------------------------------------------------------------
      8.70514      6.37227      8.79006        -0.007477     -0.008175      0.012768
      7.68848      9.75461     10.73950        -0.006096     -0.003603      0.034112
      7.49882      7.84368      7.33545        -0.011977     -0.019088     -0.028352
      6.90295      9.82847      8.47841        -0.002944      0.017236     -0.001705
     10.80333      7.55534      9.40374        -0.008610      0.000489      0.031190
      9.86644      7.75596      7.21102         0.009999     -0.009415     -0.018658
     10.16628      9.64651     10.63207         0.010534      0.002540     -0.011405
      8.75315      9.86388      6.92669        -0.006816      0.004195     -0.022410
      8.90546     10.96023      9.06428        -0.018911      0.039675      0.003927
     10.73630      9.67616      8.29873         0.043255      0.013918     -0.021413
      6.77074      7.72542      9.61620         0.008412     -0.005369     -0.004604
      8.80979      8.62436      9.11074        -0.009368     -0.032402      0.026550
 -----------------------------------------------------------------------------------
    total drift:                                0.037530      0.053861     -0.003461


--------------------------------------------------------------------------------------------------------



  FREE ENERGIE OF THE ION-ELECTRON SYSTEM (eV)
  ---------------------------------------------------
  free  energy   TOTEN  =       -45.40986178 eV

  energy  without entropy=      -45.40986178  energy(sigma->0) =      -45.40986178
 
 d Force = 0.9202098E-04[-0.179E-03, 0.363E-03]  d Energy = 0.3363844E-03-0.244E-03
 d Force =-0.1581395E+02[-0.158E+02,-0.158E+02]  d Ewald  =-0.1581396E+02 0.959E-05


--------------------------------------------------------------------------------------------------------


    POTLOK:  cpu time    0.18: real time    0.19


--------------------------------------------------------------------------------------------------------




--------------------------------------------------------------------------------------------------------


  
 reached required accuracy - stopping structural energy minimisation
     LOOP+:  cpu time    8.23: real time   13.73
    4ORBIT:  cpu time    0.00: real time    0.00

 total amount of memory used by VASP on root node    49159. kBytes
========================================================================

   base      :      30000. kBytes
   nonl-proj :       1150. kBytes
   fftplans  :       4478. kBytes
   grid      :      11298. kBytes
   one-center:         31. kBytes
   wavefun   :       2202. kBytes
 
  
  
 General timing and accounting informations for this job:
 ========================================================
  
                  Total CPU time used (sec):      582.608
                            User time (sec):      573.568
                          System time (sec):        9.041
                         Elapsed time (sec):      703.709
  
                   Maximum memory used (kb):       59168.
                   Average memory used (kb):           0.
  
                          Minor page faults:      1549546
                          Major page faults:            0
                 Voluntary context switches:        13866
