unknown system                          
           1
    20.281580    0.000000    0.000000
     0.000000   20.281580    0.000000
     0.000000    0.000000   20.281580
   Ag
  17
Direct configuration=     1
   0.41433888  0.65729462  0.55917447
   0.44994716  0.56250682  0.64208594
   0.50528069  0.46850916  0.71277751
   0.48218959  0.38550357  0.61543607
   0.53305876  0.70522423  0.54652264
   0.45215844  0.58430338  0.45985448
   0.56610969  0.58507861  0.58385014
   0.43071045  0.48251842  0.53989907
   0.59710565  0.46255712  0.61908742
   0.55215185  0.66142050  0.42612427
   0.55265765  0.45138563  0.49269704
   0.49145131  0.33392737  0.49748728
   0.40999636  0.41086972  0.43295638
   0.49777298  0.49209932  0.37964089
   0.68258141  0.45612307  0.52000787
   0.62493427  0.56056457  0.46873750
   0.58944671  0.57397136  0.33763676
Direct configuration=     2
   0.41401391  0.65731103  0.55934340
   0.44977428  0.56269407  0.64228564
   0.50536510  0.46860764  0.71305100
   0.48229071  0.38537952  0.61549560
   0.53323980  0.70543504  0.54662208
   0.45204436  0.58433621  0.45979466
   0.56611462  0.58518560  0.58392795
   0.43049666  0.48261823  0.53998950
   0.59715399  0.46237666  0.61927416
   0.55214311  0.66169845  0.42604609
   0.55261465  0.45118690  0.49268943
   0.49149046  0.33362061  0.49741640
   0.40994066  0.41086366  0.43269844
   0.49773181  0.49200895  0.37939832
   0.68279091  0.45591148  0.51999318
   0.62500293  0.56073731  0.46850295
   0.58968388  0.57388612  0.33744693
Direct configuration=     3
   0.41303900  0.65736025  0.55985018
   0.44925565  0.56325583  0.64288476
   0.50561833  0.46890308  0.71387146
   0.48259408  0.38500735  0.61567416
   0.53378291  0.70606746  0.54692043
   0.45170211  0.58443470  0.45961517
   0.56612942  0.58550655  0.58416136
   0.42985528  0.48291764  0.54026079
   0.59729900  0.46183527  0.61983439
   0.55211689  0.66253231  0.42581156
   0.55248565  0.45059073  0.49266659
   0.49160793  0.33270032  0.49720377
   0.40977355  0.41084549  0.43192462
   0.49760829  0.49173782  0.37867062
   0.68341942  0.45527672  0.51994914
   0.62520893  0.56125554  0.46779930
   0.59039539  0.57363040  0.33687742
Direct configuration=     4
   0.41108917  0.65745870  0.56086375
   0.44821840  0.56437936  0.64408300
   0.50612480  0.46949396  0.71551238
   0.48320081  0.38426300  0.61603129
   0.53486914  0.70733231  0.54751711
   0.45101761  0.58463168  0.45925621
   0.56615903  0.58614846  0.58462820
   0.42857254  0.48351646  0.54080337
   0.59758904  0.46075249  0.62095484
   0.55206445  0.66420004  0.42534250
   0.55222765  0.44939837  0.49262092
   0.49184287  0.33085975  0.49677850
   0.40943934  0.41080914  0.43037697
   0.49736124  0.49119558  0.37721521
   0.68467643  0.45400720  0.51986106
   0.62562093  0.56229200  0.46639199
   0.59181841  0.57311897  0.33573842
Direct configuration=     5
   0.40718951  0.65765559  0.56289089
   0.44614388  0.56662642  0.64647946
   0.50713773  0.47067572  0.71879423
   0.48441427  0.38277432  0.61674556
   0.53704158  0.70986200  0.54871049
   0.44964861  0.58502565  0.45853829
   0.56621823  0.58743228  0.58556188
   0.42600705  0.48471410  0.54188854
   0.59816911  0.45858693  0.62319573
   0.55195957  0.66753550  0.42440439
   0.55171164  0.44701366  0.49252957
   0.49231275  0.32717860  0.49592798
   0.40877092  0.41073645  0.42728168
   0.49686716  0.49011108  0.37430439
   0.68719044  0.45146815  0.51968489
   0.62644493  0.56436491  0.46357737
   0.59466444  0.57209612  0.33346040
Direct configuration=     6
   0.40839995  0.65759447  0.56226167
   0.44678780  0.56592894  0.64573561
   0.50682332  0.47030890  0.71777555
   0.48403762  0.38323641  0.61652385
   0.53636727  0.70907679  0.54834007
   0.45007354  0.58490336  0.45876113
   0.56619985  0.58703379  0.58527207
   0.42680337  0.48434236  0.54155171
   0.59798906  0.45925911  0.62250016
   0.55199213  0.66650018  0.42469557
   0.55187180  0.44775387  0.49255792
   0.49216690  0.32832121  0.49619198
   0.40897840  0.41075901  0.42824245
   0.49702052  0.49044770  0.37520790
   0.68641010  0.45225626  0.51973957
   0.62618917  0.56372149  0.46445102
   0.59378104  0.57241361  0.33416749
Direct configuration=     7
   0.40829829  0.65776091  0.56225936
   0.44672992  0.56610197  0.64669469
   0.50704634  0.47085413  0.71804362
   0.48450483  0.38331323  0.61641013
   0.53610897  0.70929480  0.54861513
   0.45007784  0.58512184  0.45861670
   0.56610146  0.58669910  0.58527997
   0.42645306  0.48443706  0.54168382
   0.59821382  0.45906692  0.62239591
   0.55177202  0.66674291  0.42430822
   0.55183154  0.44762920  0.49271605
   0.49184853  0.32773656  0.49596124
   0.40949014  0.41066235  0.42808554
   0.49735425  0.49067826  0.37469126
   0.68581365  0.45217090  0.51967607
   0.62598777  0.56323580  0.46454170
   0.59425941  0.57235154  0.33399631
Direct configuration=     8
   0.40799329  0.65826024  0.56225243
   0.44655627  0.56662106  0.64957195
   0.50771541  0.47248981  0.71884783
   0.48590646  0.38354372  0.61606899
   0.53533410  0.70994883  0.54944033
   0.45009073  0.58577725  0.45818340
   0.56580628  0.58569503  0.58530369
   0.42540213  0.48472116  0.54208016
   0.59888810  0.45849033  0.62208313
   0.55111172  0.66747108  0.42314616
   0.55171075  0.44725520  0.49319044
   0.49089340  0.32598260  0.49526901
   0.41102538  0.41037236  0.42761480
   0.49835545  0.49136992  0.37314137
   0.68402430  0.45191480  0.51948556
   0.62538358  0.56177874  0.46481372
   0.59569451  0.57216533  0.33348277
Direct configuration=     9
   0.40738331  0.65925889  0.56223857
   0.44620896  0.56765925  0.65532645
   0.50905354  0.47576116  0.72045624
   0.48870973  0.38400470  0.61538669
   0.53378435  0.71125688  0.55109071
   0.45011652  0.58708809  0.45731682
   0.56521592  0.58368690  0.58535112
   0.42330027  0.48528937  0.54287284
   0.60023665  0.45733715  0.62145758
   0.54979110  0.66892743  0.42082203
   0.55146916  0.44650719  0.49413922
   0.48898314  0.32247469  0.49388455
   0.41409585  0.40979238  0.42667333
   0.50035785  0.49275325  0.37004157
   0.68044559  0.45140262  0.51910455
   0.62417520  0.55886462  0.46535778
   0.59856470  0.57179291  0.33245569
Direct configuration=    10
   0.40783156  0.65852502  0.56224875
   0.44646418  0.56689633  0.65109770
   0.50807020  0.47335718  0.71927428
   0.48664973  0.38366595  0.61588808
   0.53492320  0.71029564  0.54987791
   0.45009757  0.58612481  0.45795364
   0.56564975  0.58516259  0.58531626
   0.42484484  0.48487182  0.54229033
   0.59924565  0.45818457  0.62191727
   0.55076157  0.66785722  0.42252994
   0.55164669  0.44705687  0.49344200
   0.49038691  0.32505251  0.49490193
   0.41183949  0.41021858  0.42736518
   0.49888637  0.49173670  0.37231948
   0.68307543  0.45177900  0.51938454
   0.62506319  0.56100609  0.46495798
   0.59645551  0.57206658  0.33321045
Direct configuration=    11
   0.40800898  0.65834177  0.56240637
   0.44625341  0.56748778  0.65175309
   0.50873650  0.47387195  0.71941518
   0.48725653  0.38391742  0.61553794
   0.53448951  0.71003085  0.54999130
   0.45021543  0.58612515  0.45785750
   0.56514424  0.58480288  0.58526184
   0.42462562  0.48532954  0.54256147
   0.59938111  0.45806415  0.62215958
   0.55065157  0.66784270  0.42232541
   0.55074150  0.44667496  0.49348916
   0.48995996  0.32452746  0.49477402
   0.41291707  0.41032081  0.42726334
   0.49933522  0.49209122  0.37201894
   0.68258635  0.45153883  0.51911860
   0.62431307  0.56068311  0.46486773
   0.59727577  0.57220689  0.33317425
Direct configuration=    12
   0.40854125  0.65779199  0.56287924
   0.44562111  0.56926215  0.65371924
   0.51073542  0.47541628  0.71983787
   0.48907692  0.38467182  0.61448753
   0.53318843  0.70923647  0.55033148
   0.45056901  0.58612618  0.45756909
   0.56362771  0.58372375  0.58509858
   0.42396797  0.48670270  0.54337489
   0.59978749  0.45770287  0.62288650
   0.55032158  0.66779913  0.42171183
   0.54802592  0.44552923  0.49363064
   0.48867912  0.32295231  0.49439028
   0.41614981  0.41062751  0.42695782
   0.50068175  0.49315480  0.37111733
   0.68111909  0.45081830  0.51832077
   0.62206273  0.55971416  0.46459697
   0.59973655  0.57262781  0.33306568
Direct configuration=    13
   0.40960579  0.65669244  0.56382496
   0.44435650  0.57281090  0.65765155
   0.51473324  0.47850495  0.72068324
   0.49271772  0.38618064  0.61238671
   0.53058628  0.70764771  0.55101182
   0.45127617  0.58612822  0.45699226
   0.56059465  0.58156548  0.58477204
   0.42265266  0.48944902  0.54500174
   0.60060025  0.45698032  0.62434035
   0.54966159  0.66771200  0.42048466
   0.54259476  0.44323778  0.49391361
   0.48611744  0.31980200  0.49362281
   0.42261528  0.41124089  0.42634678
   0.50337481  0.49528195  0.36931410
   0.67818457  0.44937726  0.51672510
   0.61756205  0.55777627  0.46405547
   0.60465810  0.57346964  0.33284852
Direct configuration=    14
   0.40936888  0.65592575  0.56391908
   0.44417079  0.57349397  0.65863606
   0.51558698  0.47932464  0.72069130
   0.49265309  0.38620368  0.61191799
   0.53042298  0.70697790  0.55064419
   0.45155708  0.58569684  0.45712582
   0.55921979  0.58083774  0.58478655
   0.42238564  0.49068131  0.54600543
   0.60174440  0.45733324  0.62436027
   0.54987657  0.66759773  0.42042190
   0.54141302  0.44279777  0.49395761
   0.48580787  0.31851150  0.49395920
   0.42402666  0.41191534  0.42613615
   0.50451892  0.49633120  0.36893664
   0.67722977  0.44889257  0.51592701
   0.61586844  0.55730830  0.46392799
   0.60604098  0.57402797  0.33262254
Direct configuration=    15
   0.40865815  0.65362570  0.56420144
   0.44361366  0.57554321  0.66158959
   0.51814822  0.48178373  0.72071546
   0.49245920  0.38627281  0.61051184
   0.52993309  0.70496844  0.54954129
   0.45239981  0.58440269  0.45752650
   0.55509521  0.57865453  0.58483006
   0.42158457  0.49437817  0.54901651
   0.60517683  0.45839198  0.62442003
   0.55052153  0.66725492  0.42023359
   0.53786780  0.44147776  0.49408961
   0.48487916  0.31464000  0.49496837
   0.42826078  0.41393869  0.42550426
   0.50795125  0.49947896  0.36780428
   0.67436538  0.44743852  0.51353275
   0.61078760  0.55590437  0.46354555
   0.61018961  0.57570298  0.33194462
Direct configuration=    16
   0.40723670  0.64902560  0.56476616
   0.44249941  0.57964169  0.66749663
   0.52327069  0.48670190  0.72076378
   0.49207142  0.38641105  0.60769954
   0.52895330  0.70094954  0.54733549
   0.45408528  0.58181439  0.45832786
   0.54684607  0.57428810  0.58491708
   0.41998243  0.50177190  0.55503866
   0.61204169  0.46050947  0.62453954
   0.55181144  0.66656931  0.41985698
   0.53077736  0.43883772  0.49435360
   0.48302175  0.30689700  0.49698670
   0.43672902  0.41798540  0.42424048
   0.51481591  0.50577448  0.36553956
   0.66863659  0.44453041  0.50874423
   0.60062591  0.55309652  0.46278066
   0.61848688  0.57905299  0.33058878
Direct configuration=    17
   0.40830692  0.65248906  0.56434098
   0.44333834  0.57655591  0.66304916
   0.51941393  0.48299896  0.72072739
   0.49236339  0.38630696  0.60981695
   0.52969099  0.70397541  0.54899626
   0.45281627  0.58376315  0.45772451
   0.55305693  0.57757563  0.58485156
   0.42118870  0.49620509  0.55050452
   0.60687307  0.45891519  0.62444956
   0.55084026  0.66708552  0.42014053
   0.53611582  0.44082543  0.49415484
   0.48442021  0.31272678  0.49546708
   0.43035320  0.41493859  0.42519199
   0.50964744  0.50103452  0.36724469
   0.67294985  0.44671995  0.51234956
   0.60827674  0.55521058  0.46335655
   0.61223978  0.57653073  0.33160961
Direct configuration=    18
   0.40699428  0.65069326  0.56384035
   0.44301574  0.57692685  0.66534328
   0.52070196  0.48424808  0.71958170
   0.49168924  0.38684983  0.61038000
   0.53002855  0.70277631  0.54788534
   0.45361799  0.58312055  0.45800674
   0.54993123  0.57586240  0.58511294
   0.42089560  0.49806351  0.55318150
   0.60785063  0.45934021  0.62429849
   0.55144494  0.66719227  0.41958408
   0.53714014  0.44101443  0.49516292
   0.48418954  0.31166769  0.49623139
   0.43009436  0.41549544  0.42432754
   0.51205498  0.50254388  0.36664010
   0.67171721  0.44593858  0.51007569
   0.60586790  0.55400045  0.46331499
   0.61465755  0.57812371  0.33100869
Direct configuration=    19
   0.40474827  0.64762053  0.56298375
   0.44246376  0.57756157  0.66926866
   0.52290587  0.48638540  0.71762135
   0.49053572  0.38777872  0.61134341
   0.53060613  0.70072457  0.54598447
   0.45498979  0.58202103  0.45848965
   0.54458294  0.57293095  0.58556017
   0.42039410  0.50124339  0.55776198
   0.60952330  0.46006745  0.62404002
   0.55247959  0.66737493  0.41863196
   0.53889283  0.44133783  0.49688780
   0.48379485  0.30985552  0.49753918
   0.42965147  0.41644825  0.42284840
   0.51617444  0.50512648  0.36560560
   0.66960808  0.44460161  0.50618495
   0.60174621  0.55192983  0.46324387
   0.61879449  0.58084941  0.32998049
Direct configuration=    20
   0.40528544  0.64835542  0.56318862
   0.44259577  0.57740977  0.66832985
   0.52237877  0.48587423  0.71809020
   0.49081160  0.38755656  0.61111299
   0.53046800  0.70121528  0.54643909
   0.45466170  0.58228400  0.45837415
   0.54586206  0.57363205  0.58545321
   0.42051404  0.50048288  0.55666649
   0.60912326  0.45989352  0.62410184
   0.55223213  0.66733124  0.41885967
   0.53847365  0.44126049  0.49647527
   0.48388925  0.31028893  0.49722640
   0.42975740  0.41622037  0.42320216
   0.51518921  0.50450882  0.36585301
   0.67011251  0.44492137  0.50711548
   0.60273198  0.55242505  0.46326088
   0.61780508  0.58019752  0.33022640
Direct configuration=    21
   0.40373817  0.64611040  0.56292814
   0.44109101  0.57878293  0.67156886
   0.52385014  0.48688867  0.71656839
   0.48998090  0.38870408  0.61225739
   0.53054400  0.69943385  0.54539538
   0.45588217  0.58128999  0.45845704
   0.54220450  0.57150129  0.58557196
   0.42053173  0.50155528  0.55976330
   0.61019185  0.45961825  0.62288159
   0.55312489  0.66744395  0.41726319
   0.53763452  0.44036002  0.49778299
   0.48376240  0.31153365  0.49801963
   0.43025830  0.41717686  0.42273833
   0.51687969  0.50461256  0.36554105
   0.67044582  0.44370143  0.50441416
   0.60121665  0.55264505  0.46285762
   0.62055510  0.58249921  0.32996674
Direct configuration=    22
   0.39909637  0.63937534  0.56214669
   0.43657673  0.58290242  0.68128588
   0.52826425  0.48993200  0.71200295
   0.48748882  0.39214665  0.61569057
   0.53077202  0.69408958  0.54226425
   0.45954357  0.57830796  0.45870568
   0.53123180  0.56510900  0.58592819
   0.42058479  0.50477249  0.56905372
   0.61339762  0.45879242  0.61922085
   0.55580316  0.66778209  0.41247373
   0.53511712  0.43765861  0.50170612
   0.48338186  0.31526782  0.50039931
   0.43176101  0.42004634  0.42134683
   0.52195112  0.50492380  0.36460517
   0.67144576  0.44004163  0.49631020
   0.59667069  0.55330506  0.46164783
   0.62880515  0.58940427  0.32918774
Direct configuration=    23
   0.40157433  0.64297076  0.56256386
   0.43898662  0.58070328  0.67609857
   0.52590783  0.48830736  0.71444015
   0.48881919  0.39030888  0.61385781
   0.53065029  0.69694255  0.54393576
   0.45758897  0.57989988  0.45857295
   0.53708944  0.56852144  0.58573802
   0.42055647  0.50305503  0.56409414
   0.61168626  0.45923328  0.62117509
   0.55437340  0.66760158  0.41503052
   0.53646101  0.43910073  0.49961181
   0.48358501  0.31327438  0.49912895
   0.43095881  0.41851450  0.42208966
   0.51924380  0.50475765  0.36510478
   0.67091196  0.44199537  0.50063640
   0.59909750  0.55295272  0.46229366
   0.62440096  0.58571809  0.32960360
Direct configuration=    24
   0.40136158  0.64190096  0.56317206
   0.43730674  0.58307968  0.67867714
   0.52607243  0.48902692  0.71359195
   0.48839458  0.39107421  0.61561646
   0.52976771  0.69492536  0.54322531
   0.45834355  0.57864076  0.45880978
   0.53588759  0.56761885  0.58599747
   0.41936028  0.50157308  0.56501882
   0.61290202  0.45816016  0.61833364
   0.55446193  0.66821183  0.41318300
   0.53576490  0.43964653  0.49974425
   0.48321150  0.31573403  0.49937217
   0.43208668  0.41953748  0.42200800
   0.51975534  0.50323722  0.36419538
   0.67121706  0.44146119  0.49902716
   0.60075082  0.55319068  0.46350288
   0.62524714  0.58683854  0.33050025
Direct configuration=    25
   0.40091100  0.63963524  0.56446015
   0.43374896  0.58811257  0.68413821
   0.52642103  0.49055085  0.71179558
   0.48749531  0.39269507  0.61934106
   0.52789853  0.69065322  0.54172066
   0.45994164  0.57597412  0.45931137
   0.53334225  0.56570727  0.58654695
   0.41682692  0.49843453  0.56697716
   0.61547684  0.45588745  0.61231582
   0.55464941  0.66950424  0.40927020
   0.53429064  0.44080249  0.50002474
   0.48242047  0.32094323  0.49988728
   0.43447535  0.42170402  0.42183505
   0.52083873  0.50001716  0.36226940
   0.67186322  0.44032988  0.49561902
   0.60425232  0.55369463  0.46606385
   0.62703922  0.58921150  0.33239924
Direct configuration=    26
   0.40105611  0.64036490  0.56404533
   0.43489472  0.58649177  0.68237951
   0.52630877  0.49006008  0.71237409
   0.48778491  0.39217308  0.61814158
   0.52850049  0.69202902  0.54220522
   0.45942699  0.57683289  0.45914984
   0.53416196  0.56632288  0.58636999
   0.41764276  0.49944528  0.56634649
   0.61464764  0.45661936  0.61425381
   0.55458904  0.66908803  0.41053028
   0.53476541  0.44043022  0.49993441
   0.48267522  0.31926565  0.49972140
   0.43370610  0.42100631  0.42189074
   0.52048983  0.50105416  0.36288964
   0.67165513  0.44069421  0.49671658
   0.60312469  0.55353233  0.46523911
   0.62646210  0.58844730  0.33178768
Direct configuration=    27
   0.40130256  0.63895144  0.56469734
   0.43434222  0.58840163  0.68407632
   0.52650476  0.49115894  0.71025094
   0.48797886  0.39293513  0.61967409
   0.52728084  0.68993000  0.54057621
   0.46070656  0.57511104  0.45978744
   0.53296481  0.56493850  0.58779685
   0.41576802  0.49815408  0.56689263
   0.61445673  0.45580519  0.61243725
   0.55397895  0.66910858  0.40987163
   0.53555330  0.44286578  0.50057760
   0.48185607  0.32093094  0.50016598
   0.43340402  0.42203080  0.42125112
   0.52227790  0.50052877  0.36227910
   0.67230074  0.43982166  0.49436491
   0.60448686  0.55473866  0.46598949
   0.62672865  0.58844633  0.33328684
Direct configuration=    28
   0.40188875  0.63558954  0.56624814
   0.43302812  0.59294422  0.68811215
   0.52697092  0.49377257  0.70520106
   0.48844017  0.39474764  0.62331913
   0.52437992  0.68493750  0.53670163
   0.46374999  0.57101563  0.46130396
   0.53011742  0.56164575  0.59119062
   0.41130897  0.49508300  0.56819162
   0.61400265  0.45386870  0.60811659
   0.55252787  0.66915744  0.40830502
   0.53742729  0.44865872  0.50210742
   0.47990773  0.32489181  0.50122340
   0.43268553  0.42446755  0.41972977
   0.52653079  0.49927916  0.36082693
   0.67383631  0.43774633  0.48877148
   0.60772677  0.55760791  0.46777426
   0.62736264  0.58844400  0.33685256
Direct configuration=    29
   0.40160642  0.63720874  0.56550122
   0.43366103  0.59075637  0.68616836
   0.52674640  0.49251376  0.70763325
   0.48821799  0.39387467  0.62156356
   0.52577709  0.68734205  0.53856775
   0.46228418  0.57298811  0.46057356
   0.53148882  0.56323164  0.58955607
   0.41345659  0.49656213  0.56756598
   0.61422135  0.45480138  0.61019756
   0.55322676  0.66913391  0.40905955
   0.53652472  0.44586865  0.50137061
   0.48084611  0.32298413  0.50071411
   0.43303158  0.42329393  0.42046250
   0.52448246  0.49988101  0.36152634
   0.67309673  0.43874588  0.49146546
   0.60616633  0.55622599  0.46691466
   0.62705729  0.58844512  0.33513519
Direct configuration=    30
   0.40163218  0.63564224  0.56542084
   0.43473920  0.59111366  0.68646188
   0.52688029  0.49383148  0.70699686
   0.48866021  0.39382027  0.62092420
   0.52512624  0.68611046  0.53723908
   0.46328979  0.57136377  0.46137618
   0.53035836  0.56296321  0.59064959
   0.41218944  0.49615156  0.56742811
   0.61468927  0.45419165  0.61060169
   0.55186647  0.66876105  0.40952398
   0.53517195  0.44688221  0.50054095
   0.47996728  0.32453793  0.50141204
   0.43316601  0.42445140  0.42053645
   0.52621350  0.50028558  0.36215049
   0.67326593  0.43832818  0.48926731
   0.60700936  0.55808509  0.46766846
   0.62766636  0.58733774  0.33577761
Direct configuration=    31
   0.40164449  0.63489319  0.56538240
   0.43525474  0.59128451  0.68660223
   0.52694432  0.49446157  0.70669256
   0.48887166  0.39379426  0.62061847
   0.52481503  0.68552155  0.53660376
   0.46377064  0.57058707  0.46175996
   0.52981781  0.56283485  0.59117247
   0.41158354  0.49595524  0.56736218
   0.61491302  0.45390010  0.61079494
   0.55121603  0.66858276  0.40974606
   0.53452511  0.44736685  0.50014424
   0.47954706  0.32528090  0.50174576
   0.43323029  0.42500486  0.42057181
   0.52704122  0.50047903  0.36244894
   0.67334684  0.43812845  0.48821623
   0.60741248  0.55897405  0.46802891
   0.62795759  0.58680823  0.33608480
Direct configuration=    32
   0.40111453  0.63363261  0.56490618
   0.43641137  0.59146403  0.68667760
   0.52743231  0.49495113  0.70763541
   0.48949421  0.39388625  0.61949620
   0.52443045  0.68505193  0.53668618
   0.46402270  0.56943277  0.46229899
   0.52938104  0.56292879  0.59091331
   0.41066866  0.49541929  0.56703369
   0.61550260  0.45343507  0.61046696
   0.55016221  0.66761175  0.40877483
   0.53486851  0.44837342  0.49996332
   0.47835376  0.32593247  0.50219114
   0.43269173  0.42618093  0.42012852
   0.52836615  0.50082112  0.36365009
   0.67185964  0.43862967  0.48706649
   0.60818011  0.56009545  0.46973259
   0.62895185  0.58601077  0.33635423
Direct configuration=    33
   0.40040324  0.63194072  0.56426701
   0.43796375  0.59170498  0.68677877
   0.52808728  0.49560818  0.70890086
   0.49032978  0.39400972  0.61798993
   0.52391429  0.68442163  0.53679680
   0.46436100  0.56788353  0.46302244
   0.52879483  0.56305489  0.59056546
   0.40944074  0.49469997  0.56659280
   0.61629392  0.45281093  0.61002676
   0.54874783  0.66630850  0.40747129
   0.53532941  0.44972440  0.49972050
   0.47675217  0.32680698  0.50278890
   0.43196890  0.42775938  0.41953356
   0.53014442  0.50128026  0.36526222
   0.66986359  0.43930239  0.48552337
   0.60921038  0.56160054  0.47201920
   0.63028631  0.58494047  0.33671585
Direct configuration=    34
   0.39947187  0.63106579  0.56408464
   0.43875801  0.59232760  0.68673046
   0.52929108  0.49525145  0.70939992
   0.49112402  0.39502457  0.61770156
   0.52370646  0.68455266  0.53657211
   0.46374767  0.56749976  0.46298015
   0.52889246  0.56210807  0.59080585
   0.40884095  0.49368680  0.56632765
   0.61633512  0.45291546  0.60997087
   0.54782043  0.66441353  0.40632139
   0.53514202  0.44944024  0.49954477
   0.47530522  0.32751685  0.50223736
   0.43166117  0.42892416  0.41934553
   0.53152465  0.50132928  0.36640172
   0.66854194  0.43982636  0.48439029
   0.60984980  0.56334887  0.47371897
   0.63187896  0.58462604  0.33744251
Direct configuration=    35
   0.39732305  0.62904717  0.56366387
   0.44059051  0.59376409  0.68661900
   0.53206845  0.49442841  0.71055134
   0.49295647  0.39736598  0.61703622
   0.52322697  0.68485496  0.53605372
   0.46233260  0.56661433  0.46288258
   0.52911772  0.55992362  0.59136045
   0.40745713  0.49134924  0.56571590
   0.61643017  0.45315665  0.60984191
   0.54568077  0.66004151  0.40366836
   0.53470970  0.44878462  0.49913933
   0.47196687  0.32915465  0.50096487
   0.43095120  0.43161148  0.41891171
   0.53470905  0.50144238  0.36903071
   0.66549268  0.44103524  0.48177609
   0.61132504  0.56738253  0.47764060
   0.63555348  0.58390059  0.33911904
Direct configuration=    36
   0.39692055  0.62806363  0.56415938
   0.44167369  0.59460427  0.68655970
   0.53354743  0.49428435  0.71100570
   0.49296441  0.39798462  0.61800911
   0.52269608  0.68321125  0.53494058
   0.46085738  0.56694265  0.46294194
   0.52842279  0.55951743  0.59146274
   0.40706968  0.49031793  0.56502966
   0.61752322  0.45374791  0.60936392
   0.54434477  0.65769874  0.40255578
   0.53393753  0.44839267  0.49857693
   0.47003946  0.32986096  0.50019987
   0.43025385  0.43323676  0.41857337
   0.53730089  0.50172741  0.37013713
   0.66490350  0.44183256  0.48000143
   0.61083783  0.56879871  0.47946585
   0.63859880  0.58363562  0.34099263
Direct configuration=    37
   0.39590474  0.62558142  0.56540993
   0.44440734  0.59672465  0.68641006
   0.53728000  0.49392076  0.71215239
   0.49298444  0.39954592  0.62046442
   0.52135625  0.67906296  0.53213131
   0.45713429  0.56777125  0.46309173
   0.52666897  0.55849232  0.59172092
   0.40609184  0.48771514  0.56329777
   0.62028181  0.45524012  0.60815759
   0.54097303  0.65178618  0.39974789
   0.53198875  0.44740350  0.49715757
   0.46517517  0.33164349  0.49826921
   0.42849392  0.43733855  0.41771948
   0.54384206  0.50244674  0.37292944
   0.66341657  0.44384479  0.47552262
   0.60960824  0.57237279  0.48407231
   0.64628442  0.58296689  0.34572110
Direct configuration=    38
   0.39559008  0.62515146  0.56593801
   0.44519058  0.59722685  0.68687950
   0.53800250  0.49410331  0.71222455
   0.49304232  0.39975250  0.62084371
   0.52104640  0.67804249  0.53137363
   0.45633556  0.56763900  0.46274599
   0.52621035  0.55791410  0.59189434
   0.40582645  0.48706996  0.56274816
   0.62070875  0.45568288  0.60739972
   0.54032602  0.65052136  0.39871804
   0.53185018  0.44720423  0.49749990
   0.46389646  0.33216711  0.49816721
   0.42813121  0.43839227  0.41718140
   0.54511517  0.50268026  0.37373548
   0.66303999  0.44465101  0.47437864
   0.60934919  0.57277789  0.48495623
   0.64823065  0.58288077  0.34729122
Direct configuration=    39
   0.39464611  0.62386161  0.56752227
   0.44754029  0.59873346  0.68828784
   0.54017002  0.49465093  0.71244103
   0.49321597  0.40037223  0.62198157
   0.52011683  0.67498111  0.52910060
   0.45393939  0.56724227  0.46170878
   0.52483448  0.55617945  0.59241460
   0.40503026  0.48513441  0.56109930
   0.62198956  0.45701117  0.60512609
   0.53838496  0.64672688  0.39562849
   0.53143445  0.44660643  0.49852691
   0.46006034  0.33373796  0.49786124
   0.42704306  0.44155343  0.41556716
   0.54893450  0.50338083  0.37615362
   0.66191027  0.44706966  0.47094668
   0.60857204  0.57399322  0.48760799
   0.65406933  0.58262242  0.35200157
Direct configuration=    40
   0.39275816  0.62128189  0.57069079
   0.45223970  0.60174668  0.69110451
   0.54450506  0.49574618  0.71287399
   0.49356326  0.40161171  0.62425730
   0.51825769  0.66885834  0.52455455
   0.44914705  0.56644881  0.45963435
   0.52208275  0.55271013  0.59345512
   0.40343788  0.48126331  0.55780159
   0.62455117  0.45966774  0.60057885
   0.53450286  0.63913793  0.38944938
   0.53060300  0.44541082  0.50058091
   0.45238809  0.33687965  0.49724929
   0.42486676  0.44787576  0.41233869
   0.55657315  0.50478197  0.38098989
   0.65965081  0.45190697  0.46408277
   0.60701775  0.57642387  0.49291149
   0.66574669  0.58210572  0.36142226
Direct configuration=    41
   0.39421746  0.62327590  0.56824166
   0.44860726  0.59941760  0.68892735
   0.54115427  0.49489960  0.71253933
   0.49329482  0.40065365  0.62249826
   0.51969472  0.67359097  0.52806845
   0.45285132  0.56706212  0.46123779
   0.52420972  0.55539176  0.59265084
   0.40466872  0.48425550  0.56035057
   0.62257116  0.45761433  0.60409367
   0.53750355  0.64500385  0.39422556
   0.53124568  0.44633497  0.49899326
   0.45831840  0.33445126  0.49772230
   0.42654894  0.44298888  0.41483416
   0.55066881  0.50369895  0.37725167
   0.66139727  0.44816795  0.46938827
   0.60821915  0.57454508  0.48881212
   0.65672061  0.58250511  0.35414048
Direct configuration=    42
   0.39411945  0.62272294  0.56893296
   0.44939566  0.59995506  0.69035196
   0.54130496  0.49543981  0.71230608
   0.49356060  0.40058621  0.62231509
   0.51923172  0.67338696  0.52745895
   0.45223054  0.56679512  0.46090897
   0.52349114  0.55440939  0.59292946
   0.40428136  0.48360887  0.55966982
   0.62225109  0.45817194  0.60286280
   0.53800540  0.64455752  0.39289852
   0.53092675  0.44593752  0.49974938
   0.45730012  0.33543398  0.49839311
   0.42723727  0.44318862  0.41420830
   0.55093341  0.50362052  0.37799642
   0.66118401  0.44948266  0.46806151
   0.60855981  0.57418891  0.48865057
   0.65787856  0.58237144  0.35628182
Direct configuration=    43
   0.39382543  0.62106409  0.57100687
   0.45176086  0.60156744  0.69462580
   0.54175705  0.49706044  0.71160634
   0.49435793  0.40038390  0.62176559
   0.51784271  0.67277494  0.52563046
   0.45036820  0.56599410  0.45992252
   0.52133539  0.55146229  0.59376530
   0.40311929  0.48166899  0.55762755
   0.62129088  0.45984477  0.59917018
   0.53951095  0.64321850  0.38891742
   0.52996997  0.44474516  0.50201776
   0.45424528  0.33838216  0.50040552
   0.42930225  0.44378783  0.41233071
   0.55172722  0.50338524  0.38023069
   0.66054422  0.45342681  0.46408125
   0.60958178  0.57312040  0.48816593
   0.66135243  0.58197042  0.36270585
Direct configuration=    44
   0.39416356  0.62027023  0.57194150
   0.45259113  0.60223214  0.69605560
   0.54177408  0.49741100  0.71159606
   0.49462818  0.40013347  0.62202467
   0.51732915  0.67232617  0.52495853
   0.45023880  0.56636053  0.45969829
   0.52015127  0.55144246  0.59347307
   0.40254890  0.48090062  0.55690456
   0.62127747  0.46037328  0.59813010
   0.54013201  0.64290656  0.38806420
   0.52993710  0.44459675  0.50187932
   0.45286911  0.33904172  0.50132022
   0.43022858  0.44336300  0.41154724
   0.55163032  0.50318203  0.38063504
   0.66060921  0.45438090  0.46241092
   0.60937800  0.57335334  0.48851750
   0.66240497  0.58158328  0.36481890
Direct configuration=    45
   0.39517795  0.61788864  0.57474539
   0.45508194  0.60422625  0.70034498
   0.54182518  0.49846269  0.71156523