<?xml version="1.0" encoding="ISO-8859-1"?>
<modeling>
 <generator>
  <i name="program" type="string">vasp </i>
  <i name="version" type="string">5.3.5  </i>
  <i name="subversion" type="string">31Mar14 (build Feb 01 2018 12:10:03) gamma-only                       parallel </i>
  <i name="platform" type="string">LinuxIFC </i>
  <i name="date" type="string">2019 03 23 </i>
  <i name="time" type="string">05:40:12 </i>
 </generator>
 <incar>
  <i type="string" name="PREC">normal</i>
  <i type="int" name="ISPIN">     2</i>
  <i type="int" name="IBRION">     2</i>
  <i type="int" name="NSW">  1000</i>
  <i type="int" name="ISIF">     2</i>
  <i name="POTIM">      0.10000000</i>
  <i type="logical" name="LPLANE"> T  </i>
  <i type="int" name="ISMEAR">     0</i>
  <i name="SIGMA">      0.00010000</i>
  <i type="logical" name="LWAVE"> F  </i>
  <i type="logical" name="LCHARG"> F  </i>
  <i type="logical" name="LVTOT"> F  </i>
  <i type="string" name="GGA"> PE</i>
 </incar>
 <kpoints>
  <varray name="kpointlist" >
   <v>       0.00000000       0.00000000       0.00000000 </v>
  </varray>
  <varray name="weights" >
   <v>       1.00000000 </v>
  </varray>
 </kpoints>
 <parameters>
  <separator name="general" >
   <i type="string" name="SYSTEM">unknown system</i>
   <i type="logical" name="LCOMPAT"> F  </i>
  </separator>
  <separator name="electronic" >
   <i type="string" name="PREC">normal</i>
   <i name="ENMAX">    249.84400000</i>
   <i name="ENAUG">    412.49600000</i>
   <i name="EDIFF">      0.00010000</i>
   <i type="int" name="IALGO">    38</i>
   <i type="int" name="IWAVPR">    11</i>
   <i type="int" name="NBANDS">   272</i>
   <i name="NELECT">    418.00000000</i>
   <i type="int" name="TURBO">     0</i>
   <i type="int" name="IRESTART">     0</i>
   <i type="int" name="NREBOOT">     0</i>
   <i type="int" name="NMIN">     0</i>
   <i name="EREF">      0.00000000</i>
   <separator name="electronic smearing" >
    <i type="int" name="ISMEAR">     0</i>
    <i name="SIGMA">      0.00010000</i>
    <i name="KSPACING">      0.50000000</i>
    <i type="logical" name="KGAMMA"> T  </i>
   </separator>
   <separator name="electronic projectors" >
    <i type="logical" name="LREAL"> F  </i>
    <v name="ROPT">      0.00000000</v>
    <i type="int" name="LMAXPAW">  -100</i>
    <i type="int" name="LMAXMIX">     2</i>
    <i type="logical" name="NLSPLINE"> F  </i>
   </separator>
   <separator name="electronic startup" >
    <i type="int" name="ISTART">     0</i>
    <i type="int" name="ICHARG">     2</i>
    <i type="int" name="INIWAV">     1</i>
   </separator>
   <separator name="electronic spin" >
    <i type="int" name="ISPIN">     2</i>
    <i type="logical" name="LNONCOLLINEAR"> F  </i>
    <v name="MAGMOM">      1.00000000      1.00000000      1.00000000      1.00000000      1.00000000      1.00000000      1.00000000      1.00000000      1.00000000      1.00000000      1.00000000      1.00000000      1.00000000      1.00000000      1.00000000      1.00000000      1.00000000      1.00000000      1.00000000      1.00000000
      1.00000000      1.00000000      1.00000000      1.00000000      1.00000000      1.00000000      1.00000000      1.00000000      1.00000000      1.00000000      1.00000000      1.00000000      1.00000000      1.00000000      1.00000000      1.00000000      1.00000000      1.00000000</v>
    <i name="NUPDOWN">     -1.00000000</i>
    <i type="logical" name="LSORBIT"> F  </i>
    <v name="SAXIS">      0.00000000      0.00000000      1.00000000</v>
    <i type="logical" name="LSPIRAL"> F  </i>
    <v name="QSPIRAL">      0.00000000      0.00000000      0.00000000</v>
    <i type="logical" name="LZEROZ"> F  </i>
   </separator>
   <separator name="electronic exchange-correlation" >
    <i type="logical" name="LASPH"> F  </i>
    <i type="logical" name="LMETAGGA"> F  </i>
   </separator>
   <separator name="electronic convergence" >
    <i type="int" name="NELM">    60</i>
    <i type="int" name="NELMDL">    -5</i>
    <i type="int" name="NELMIN">     2</i>
    <i name="ENINI">    249.84400000</i>
    <separator name="electronic convergence detail" >
     <i type="logical" name="LDIAG"> T  </i>
     <i type="logical" name="LSUBROT"> F  </i>
     <i name="WEIMIN">      0.00100000</i>
     <i name="EBREAK">      0.00000009</i>
     <i name="DEPER">      0.30000000</i>
     <i type="int" name="NRMM">     4</i>
     <i name="TIME">      0.40000000</i>
    </separator>
   </separator>
   <separator name="electronic mixer" >
    <i name="AMIX">      0.40000000</i>
    <i name="BMIX">      1.00000000</i>
    <i name="AMIN">      0.10000000</i>
    <i name="AMIX_MAG">      1.60000000</i>
    <i name="BMIX_MAG">      1.00000000</i>
    <separator name="electronic mixer details" >
     <i type="int" name="IMIX">     4</i>
     <i type="int" name="MAXMIX">   -45</i>
     <i name="WC">    100.00000000</i>
     <i type="int" name="INIMIX">     1</i>
     <i type="int" name="MIXPRE">     1</i>
     <i type="int" name="MREMOVE">     5</i>
    </separator>
   </separator>
   <separator name="electronic dipolcorrection" >
    <i type="logical" name="LDIPOL"> F  </i>
    <i type="logical" name="LMONO"> F  </i>
    <i type="int" name="IDIPOL">     0</i>
    <i name="EPSILON">      1.00000000</i>
    <v name="DIPOL">   -100.00000000   -100.00000000   -100.00000000</v>
    <i name="EFIELD">      0.00000000</i>
   </separator>
  </separator>
  <separator name="grids" >
   <i type="int" name="NGX">    90</i>
   <i type="int" name="NGY">    90</i>
   <i type="int" name="NGZ">    90</i>
   <i type="int" name="NGXF">   180</i>
   <i type="int" name="NGYF">   180</i>
   <i type="int" name="NGZF">   180</i>
   <i type="logical" name="ADDGRID"> F  </i>
  </separator>
  <separator name="ionic" >
   <i type="int" name="NSW">  1000</i>
   <i type="int" name="IBRION">     2</i>
   <i type="int" name="ISIF">     2</i>
   <i name="PSTRESS">      0.00000000</i>
   <i name="EDIFFG">      0.00100000</i>
   <i type="int" name="NFREE">     1</i>
   <i name="POTIM">      0.10000000</i>
   <i name="SMASS">     -3.00000000</i>
   <i name="SCALEE">      1.00000000</i>
  </separator>
  <separator name="ionic md" >
   <i name="TEBEG">      0.00010000</i>
   <i name="TEEND">      0.00010000</i>
   <i type="int" name="NBLOCK">     1</i>
   <i type="int" name="KBLOCK">  1000</i>
   <i type="int" name="NPACO">   256</i>
   <i name="APACO">     16.00000000</i>
  </separator>
  <separator name="symmetry" >
   <i type="int" name="ISYM">     2</i>
   <i name="SYMPREC">      0.00001000</i>
  </separator>
  <separator name="dos" >
   <i type="logical" name="LORBIT"> F  </i>
   <v name="RWIGS">     -1.00000000</v>
   <i type="int" name="NEDOS">   301</i>
   <i name="EMIN">     10.00000000</i>
   <i name="EMAX">    -10.00000000</i>
   <i name="EFERMI">      0.00000000</i>
  </separator>
  <separator name="writing" >
   <i type="int" name="NWRITE">     2</i>
   <i type="logical" name="LWAVE"> F  </i>
   <i type="logical" name="LCHARG"> F  </i>
   <i type="logical" name="LPARD"> F  </i>
   <i type="logical" name="LVTOT"> F  </i>
   <i type="logical" name="LVHAR"> F  </i>
   <i type="logical" name="LELF"> F  </i>
   <i type="logical" name="LOPTICS"> F  </i>
   <v name="STM">      0.00000000      0.00000000      0.00000000      0.00000000      0.00000000      0.00000000      0.00000000</v>
  </separator>
  <separator name="performance" >
   <i type="int" name="NPAR">     4</i>
   <i type="int" name="NSIM">     4</i>
   <i type="int" name="NBLK">    -1</i>
   <i type="logical" name="LPLANE"> T  </i>
   <i type="logical" name="LSCALAPACK"> T  </i>
   <i type="logical" name="LSCAAWARE"> F  </i>
   <i type="logical" name="LSCALU"> F  </i>
   <i type="logical" name="LASYNC"> F  </i>
   <i type="logical" name="LORBITALREAL"> F  </i>
  </separator>
  <separator name="miscellaneous" >
   <i type="int" name="IDIOT">     3</i>
   <i type="logical" name="LMUSIC"> F  </i>
   <v name="POMASS">    107.86800000</v>
   <v name="DARWINR">      0.00000000</v>
   <v name="DARWINV">      1.00000000</v>
   <i type="logical" name="LCORR"> T  </i>
  </separator>
  <i type="logical" name="GGA_COMPAT"> T  </i>
  <i type="logical" name="LBERRY"> F  </i>
  <i type="int" name="ICORELEVEL">     0</i>
  <i type="logical" name="LDAU"> F  </i>
  <i type="int" name="I_CONSTRAINED_M">     0</i>
  <separator name="electronic exchange-correlation" >
   <i type="string" name="GGA">PE</i>
   <i type="int" name="VOSKOWN">     0</i>
   <i type="logical" name="LHFCALC"> F  </i>
   <i type="string" name="PRECFOCK"></i>
   <i type="logical" name="LSYMGRAD"> F  </i>
   <i type="logical" name="LHFONE"> F  </i>
   <i type="logical" name="LRHFCALC"> F  </i>
   <i type="logical" name="LTHOMAS"> F  </i>
   <i type="logical" name="LMODELHF"> F  </i>
   <i name="ENCUT4O">     -1.00000000</i>
   <i type="int" name="EXXOEP">     0</i>
   <i type="int" name="FOURORBIT">     0</i>
   <i name="AEXX">      0.00000000</i>
   <i name="HFALPHA">      0.00000000</i>
   <i name="MCALPHA">      0.00000000</i>
   <i name="ALDAX">      1.00000000</i>
   <i name="AGGAX">      1.00000000</i>
   <i name="ALDAC">      1.00000000</i>
   <i name="AGGAC">      1.00000000</i>
   <i type="int" name="NKREDX">     1</i>
   <i type="int" name="NKREDY">     1</i>
   <i type="int" name="NKREDZ">     1</i>
   <i type="logical" name="SHIFTRED"> F  </i>
   <i type="logical" name="ODDONLY"> F  </i>
   <i type="logical" name="EVENONLY"> F  </i>
   <i type="int" name="LMAXFOCK">     0</i>
   <i type="int" name="NMAXFOCKAE">     0</i>
   <i type="logical" name="LFOCKAEDFT"> F  </i>
   <i name="HFSCREEN">      0.00000000</i>
   <i name="HFSCREENC">      0.00000000</i>
   <i type="int" name="NBANDSGWLOW">     0</i>
  </separator>
  <separator name="vdW DFT" >
   <i type="logical" name="LUSE_VDW"> F  </i>
   <i name="Zab_VDW">     -0.84910000</i>
   <i name="PARAM1">      0.12340000</i>
   <i name="PARAM2">      1.00000000</i>
   <i name="PARAM3">      0.00000000</i>
  </separator>
  <separator name="model GW" >
   <i type="int" name="MODEL_GW">     0</i>
   <i name="MODEL_EPS0">    166.35766841</i>
   <i name="MODEL_ALPHA">      1.00000000</i>
  </separator>
  <separator name="linear response parameters" >
   <i type="logical" name="LEPSILON"> F  </i>
   <i type="logical" name="LRPA"> F  </i>
   <i type="logical" name="LNABLA"> F  </i>
   <i type="logical" name="LVEL"> F  </i>
   <i type="int" name="KINTER">     0</i>
   <i name="CSHIFT">      0.10000000</i>
   <i name="OMEGAMAX">     -1.00000000</i>
   <i name="DEG_THRESHOLD">      0.00200000</i>
  </separator>
  <separator name="orbital magnetization" >
   <i type="logical" name="NUCIND"> F  </i>
   <v name="MAGPOS">      0.00000000      0.00000000      0.00000000</v>
   <i type="logical" name="LNICSALL"> T  </i>
   <i type="logical" name="ORBITALMAG"> F  </i>
   <i type="logical" name="LMAGBLOCH"> F  </i>
   <i type="logical" name="LCHIMAG"> F  </i>
   <i type="logical" name="LGAUGE"> T  </i>
   <i type="int" name="MAGATOM">     0</i>
   <v name="MAGDIPOL">      0.00000000      0.00000000      0.00000000</v>
   <v name="AVECCONST">      0.00000000      0.00000000      0.00000000</v>
  </separator>
  <separator name="response functions" >
   <i type="logical" name="LADDER"> F  </i>
   <i type="logical" name="LFXC"> F  </i>
   <i type="logical" name="LHARTREE"> T  </i>
   <i type="int" name="IBSE">     0</i>
   <i type="logical" name="LTCTE"> F  </i>
   <i type="logical" name="LTETE"> F  </i>
   <i type="logical" name="LTRIPLET"> F  </i>
   <i type="logical" name="LFXCEPS"> F  </i>
   <i type="logical" name="LFXHEG"> F  </i>
   <i type="logical" name="L2ORDER"> F  </i>
   <i type="logical" name="LUSEW"> F  </i>
   <i name="ENCUTGW">     -2.00000000</i>
   <i name="ENCUTGWSOFT">     -2.00000000</i>
   <i name="ENCUTLF">     -1.00000000</i>
   <i type="int" name="LMAXMP2">    -1</i>
   <i name="SCISSOR">      0.00000000</i>
   <i type="int" name="NOMEGA">     0</i>
   <i type="int" name="NOMEGAR">     0</i>
   <i type="int" name="NBANDSGW">    -1</i>
   <i type="int" name="NBANDSO">    -1</i>
   <i type="int" name="NBANDSV">    -1</i>
   <i type="int" name="NELM">     1</i>
   <i type="int" name="DIM">     3</i>
   <i type="int" name="ANTIRES">     0</i>
   <i name="OMEGAMAX">    -30.00000000</i>
   <i name="OMEGAMIN">    -30.00000000</i>
   <i name="OMEGATL">   -200.00000000</i>
   <i type="int" name="OMEGAGRID">     0</i>
   <i name="CSHIFT">     -0.10000000</i>
   <i type="logical" name="SELFENERGY"> F  </i>
   <i type="logical" name="LSPECTRAL"> F  </i>
   <i type="logical" name="ODDONLYGW"> F  </i>
   <i type="logical" name="EVENONLYGW"> F  </i>
   <i type="int" name="NKREDLFX">     1</i>
   <i type="int" name="NKREDLFY">     1</i>
   <i type="int" name="NKREDLFZ">     1</i>
   <i type="int" name="MAXMEM">  1800</i>
   <i type="int" name="TELESCOPE">     0</i>
   <i type="int" name="TAUPAR">     1</i>
  </separator>
  <separator name="External order field" >
   <i name="OFIELD_KAPPA">      0.00000000</i>
   <v name="OFIELD_K">      0.00000000      0.00000000      0.00000000</v>
   <i name="OFIELD_Q6_NEAR">      0.00000000</i>
   <i name="OFIELD_Q6_FAR">      0.00000000</i>
   <i name="OFIELD_A">      0.00000000</i>
  </separator>
 </parameters>
 <atominfo>
  <atoms>      38 </atoms>
  <types>       1 </types>
  <array name="atoms" >
   <dimension dim="1">ion</dimension>
   <field type="string">element</field>
   <field type="int">atomtype</field>
   <set>
    <rc><c>Ag</c><c>   1</c></rc>
    <rc><c>Ag</c><c>   1</c></rc>
    <rc><c>Ag</c><c>   1</c></rc>
    <rc><c>Ag</c><c>   1</c></rc>
    <rc><c>Ag</c><c>   1</c></rc>
    <rc><c>Ag</c><c>   1</c></rc>
    <rc><c>Ag</c><c>   1</c></rc>
    <rc><c>Ag</c><c>   1</c></rc>
    <rc><c>Ag</c><c>   1</c></rc>
    <rc><c>Ag</c><c>   1</c></rc>
    <rc><c>Ag</c><c>   1</c></rc>
    <rc><c>Ag</c><c>   1</c></rc>
    <rc><c>Ag</c><c>   1</c></rc>
    <rc><c>Ag</c><c>   1</c></rc>
    <rc><c>Ag</c><c>   1</c></rc>
    <rc><c>Ag</c><c>   1</c></rc>
    <rc><c>Ag</c><c>   1</c></rc>
    <rc><c>Ag</c><c>   1</c></rc>
    <rc><c>Ag</c><c>   1</c></rc>
    <rc><c>Ag</c><c>   1</c></rc>
    <rc><c>Ag</c><c>   1</c></rc>
    <rc><c>Ag</c><c>   1</c></rc>
    <rc><c>Ag</c><c>   1</c></rc>
    <rc><c>Ag</c><c>   1</c></rc>
    <rc><c>Ag</c><c>   1</c></rc>
    <rc><c>Ag</c><c>   1</c></rc>
    <rc><c>Ag</c><c>   1</c></rc>
    <rc><c>Ag</c><c>   1</c></rc>
    <rc><c>Ag</c><c>   1</c></rc>
    <rc><c>Ag</c><c>   1</c></rc>
    <rc><c>Ag</c><c>   1</c></rc>
    <rc><c>Ag</c><c>   1</c></rc>
    <rc><c>Ag</c><c>   1</c></rc>
    <rc><c>Ag</c><c>   1</c></rc>
    <rc><c>Ag</c><c>   1</c></rc>
    <rc><c>Ag</c><c>   1</c></rc>
    <rc><c>Ag</c><c>   1</c></rc>
    <rc><c>Ag</c><c>   1</c></rc>
   </set>
  </array>
  <array name="atomtypes" >
   <dimension dim="1">type</dimension>
   <field type="int">atomspertype</field>
   <field type="string">element</field>
   <field>mass</field>
   <field>valence</field>
   <field type="string">pseudopotential</field>
   <set>
    <rc><c>  38</c><c>Ag</c><c>    107.86800000</c><c>     11.00000000</c><c>  PAW_PBE Ag 02Apr2005                  </c></rc>
   </set>
  </array>
 </atominfo>
 <structure name="initialpos" >
  <crystal>
   <varray name="basis" >
    <v>      21.92258303       0.00000000       0.00000000 </v>
    <v>       0.00000000      21.92258303       0.00000000 </v>
    <v>       0.00000000       0.00000000      21.92258303 </v>
   </varray>
   <i name="volume">  10535.98566571 </i>
   <varray name="rec_basis" >
    <v>       0.04561506       0.00000000       0.00000000 </v>
    <v>       0.00000000       0.04561506       0.00000000 </v>
    <v>       0.00000000       0.00000000       0.04561506 </v>
   </varray>
  </crystal>
  <varray name="positions" >
   <v>       0.72637183       0.41848010       0.58525171 </v>
   <v>       0.62202583       0.49415036       0.59166053 </v>
   <v>       0.70965304       0.51853251       0.50242855 </v>
   <v>       0.67710775       0.30200185       0.56135643 </v>
   <v>       0.64757699       0.40406794       0.48662012 </v>
   <v>       0.66747864       0.61785124       0.58059045 </v>
   <v>       0.67610403       0.60026585       0.41135334 </v>
   <v>       0.48715524       0.53652270       0.58421273 </v>
   <v>       0.57102526       0.37599157       0.59109652 </v>
   <v>       0.52638158       0.45422514       0.49575448 </v>
   <v>       0.62984865       0.69058537       0.48212284 </v>
   <v>       0.61706963       0.48742103       0.39920905 </v>
   <v>       0.57933542       0.58950439       0.66573933 </v>
   <v>       0.57947444       0.29102790       0.48951773 </v>
   <v>       0.48671277       0.56080259       0.74204662 </v>
   <v>       0.55696530       0.37944141       0.39635117 </v>
   <v>       0.53633779       0.46133634       0.67802668 </v>
   <v>       0.55883039       0.59695913       0.36154411 </v>
   <v>       0.58048276       0.57008955       0.49595791 </v>
   <v>       0.54162942       0.66821032       0.57230633 </v>
   <v>       0.35924437       0.59192102       0.72119190 </v>
   <v>       0.49786994       0.48146334       0.35377296 </v>
   <v>       0.48497116       0.27571698       0.40730267 </v>
   <v>       0.51027048       0.68079803       0.44657073 </v>
   <v>       0.40689585       0.48162230       0.68878860 </v>
   <v>       0.46050582       0.34120120       0.51052450 </v>
   <v>       0.44330969       0.40876984       0.60464823 </v>
   <v>       0.46029313       0.55837021       0.44911773 </v>
   <v>       0.45003625       0.63995405       0.64986268 </v>
   <v>       0.43978882       0.58891776       0.32429200 </v>
   <v>       0.42565468       0.38478330       0.39756255 </v>
   <v>       0.39442109       0.46086402       0.50070134 </v>
   <v>       0.41961972       0.64855156       0.53122514 </v>
   <v>       0.35824396       0.55362986       0.59348776 </v>
   <v>       0.36770517       0.49022447       0.37358091 </v>
   <v>       0.39108074       0.67484984       0.41029215 </v>
   <v>       0.33320707       0.57161469       0.47141828 </v>
   <v>       0.31058825       0.60074827       0.34593806 </v>
  </varray>
 </structure>
 <calculation>
  <scstep>
   <time name="dav">    3.68    3.69</time>
   <time name="total">    3.94    3.95</time>
   <energy>
    <i name="alphaZ">    116.57520906 </i>
    <i name="ewald">  93135.46662697 </i>
    <i name="hartreedc">-131027.09867345 </i>
    <i name="XCdc">   -415.07857990 </i>
    <i name="pawpsdc">  38128.14276665 </i>
    <i name="pawaedc"> -36376.05513740 </i>
    <i name="eentropy">      0.00000000 </i>
    <i name="bandstr">    479.92034888 </i>
    <i name="atom">  39413.54794328 </i>
    <i name="e_fr_energy">   3455.42050408 </i>
    <i name="e_wo_entrp">   3455.42050408 </i>
    <i name="e_0_energy">   3455.42050408 </i>
   </energy>
  </scstep>
  <scstep>
   <time name="dav">    5.26    5.27</time>
   <time name="total">    5.26    5.30</time>
   <energy>
    <i name="e_fr_energy">    579.78872244 </i>
    <i name="e_wo_entrp">    579.78872244 </i>
    <i name="e_0_energy">    579.78872244 </i>
   </energy>
  </scstep>
  <scstep>
   <time name="dav">    4.29    4.29</time>
   <time name="total">    4.29    4.29</time>
   <energy>
    <i name="e_fr_energy">    -54.91852324 </i>
    <i name="e_wo_entrp">    -54.91852324 </i>
    <i name="e_0_energy">    -54.91852324 </i>
   </energy>
  </scstep>
  <scstep>
   <time name="dav">    3.80    3.81</time>
   <time name="total">    3.80    3.81</time>
   <energy>
    <i name="e_fr_energy">    -80.81910234 </i>
    <i name="e_wo_entrp">    -80.81910234 </i>
    <i name="e_0_energy">    -80.81910234 </i>
   </energy>
  </scstep>
  <scstep>
   <time name="dav">    3.83    3.84</time>
   <time name="total">    3.96    3.96</time>
   <energy>
    <i name="e_fr_energy">    -81.19395718 </i>
    <i name="e_wo_entrp">    -81.19395718 </i>
    <i name="e_0_energy">    -81.19395718 </i>
   </energy>
  </scstep>
  <scstep>
   <time name="dav">    3.58    3.58</time>
   <time name="total">    3.92    4.50</time>
   <energy>
    <i name="e_fr_energy">    -34.22773636 </i>
    <i name="e_wo_entrp">    -34.22773636 </i>
    <i name="e_0_energy">    -34.22773636 </i>
   </energy>
  </scstep>
  <scstep>
   <time name="dav">    3.63    3.64</time>
   <time name="total">    3.97    3.98</time>
   <energy>
    <i name="e_fr_energy">    -26.55223937 </i>
    <i name="e_wo_entrp">    -26.55223937 </i>
    <i name="e_0_energy">    -26.55223937 </i>
   </energy>
  </scstep>
  <scstep>
   <time name="dav">    3.63    3.63</time>
   <time name="total">    3.98    3.99</time>
   <energy>
    <i name="e_fr_energy">    -22.97484708 </i>
    <i name="e_wo_entrp">    -22.97484708 </i>
    <i name="e_0_energy">    -22.97484708 </i>
   </energy>
  </scstep>
  <scstep>
   <time name="dav">    3.67    3.68</time>
   <time name="total">    4.04    4.06</time>
   <energy>
    <i name="e_fr_energy">    -29.00651644 </i>
    <i name="e_wo_entrp">    -29.00651644 </i>
    <i name="e_0_energy">    -29.00651644 </i>
   </energy>
  </scstep>
  <scstep>
   <time name="dav">    3.64    3.64</time>
   <time name="total">    4.00    4.01</time>
   <energy>
    <i name="e_fr_energy">    -41.25042567 </i>
    <i name="e_wo_entrp">    -41.25042567 </i>
    <i name="e_0_energy">    -41.25042567 </i>
   </energy>
  </scstep>
  <scstep>
   <time name="dav">    3.62    3.63</time>
   <time name="total">    3.97    3.97</time>
   <energy>
    <i name="e_fr_energy">    -56.67995911 </i>
    <i name="e_wo_entrp">    -56.67995911 </i>
    <i name="e_0_energy">    -56.67995911 </i>
   </energy>
  </scstep>
  <scstep>
   <time name="dav">    3.74    3.74</time>
   <time name="total">    4.08    4.09</time>
   <energy>
    <i name="e_fr_energy">    -59.71726930 </i>
    <i name="e_wo_entrp">    -59.71726930 </i>
    <i name="e_0_energy">    -59.71726930 </i>
   </energy>
  </scstep>
  <scstep>
   <time name="dav">    3.92    3.93</time>
   <time name="total">    4.28    4.28</time>
   <energy>
    <i name="e_fr_energy">    -60.18981839 </i>
    <i name="e_wo_entrp">    -60.18981839 </i>
    <i name="e_0_energy">    -60.18981839 </i>
   </energy>
  </scstep>
  <scstep>
   <time name="dav">    3.58    3.59</time>
   <time name="total">    3.92    3.93</time>
   <energy>
    <i name="e_fr_energy">    -66.09547497 </i>
    <i name="e_wo_entrp">    -66.09547497 </i>
    <i name="e_0_energy">    -66.09547497 </i>
   </energy>
  </scstep>
  <scstep>
   <time name="dav">    3.56    3.57</time>
   <time name="total">    3.91    4.17</time>
   <energy>
    <i name="e_fr_energy">    -72.08691417 </i>
    <i name="e_wo_entrp">    -72.08691417 </i>
    <i name="e_0_energy">    -72.08691417 </i>
   </energy>
  </scstep>
  <scstep>
   <time name="dav">    3.83    3.83</time>
   <time name="total">    4.19    4.20</time>
   <energy>
    <i name="e_fr_energy">    -73.07067454 </i>
    <i name="e_wo_entrp">    -73.07067454 </i>
    <i name="e_0_energy">    -73.07067454 </i>
   </energy>
  </scstep>
  <scstep>
   <time name="dav">    3.71    3.71</time>
   <time name="total">    4.08    4.09</time>
   <energy>
    <i name="e_fr_energy">    -74.97167866 </i>
    <i name="e_wo_entrp">    -74.97167866 </i>
    <i name="e_0_energy">    -74.97167866 </i>
   </energy>
  </scstep>
  <scstep>
   <time name="dav">    3.77    3.78</time>
   <time name="total">    4.12    4.14</time>
   <energy>
    <i name="e_fr_energy">    -77.51793868 </i>
    <i name="e_wo_entrp">    -77.51793868 </i>
    <i name="e_0_energy">    -77.51793868 </i>
   </energy>
  </scstep>
  <scstep>
   <time name="dav">    3.74    3.74</time>
   <time name="total">    4.09    4.12</time>
   <energy>
    <i name="e_fr_energy">    -78.63495790 </i>
    <i name="e_wo_entrp">    -78.63495790 </i>
    <i name="e_0_energy">    -78.63495790 </i>
   </energy>
  </scstep>
  <scstep>
   <time name="dav">    3.82    3.83</time>
   <time name="total">    4.19    4.19</time>
   <energy>
    <i name="e_fr_energy">    -79.28043839 </i>
    <i name="e_wo_entrp">    -79.28043839 </i>
    <i name="e_0_energy">    -79.28043839 </i>
   </energy>
  </scstep>
  <scstep>
   <time name="dav">    3.80    3.80</time>
   <time name="total">    4.15    4.16</time>
   <energy>
    <i name="e_fr_energy">    -79.88758453 </i>
    <i name="e_wo_entrp">    -79.88758453 </i>
    <i name="e_0_energy">    -79.88758453 </i>
   </energy>
  </scstep>
  <scstep>
   <time name="dav">    3.82    3.82</time>
   <time name="total">    4.17    4.17</time>
   <energy>
    <i name="e_fr_energy">    -79.98465450 </i>
    <i name="e_wo_entrp">    -79.98465450 </i>
    <i name="e_0_energy">    -79.98465450 </i>
   </energy>
  </scstep>
  <scstep>
   <time name="dav">    3.63    3.63</time>
   <time name="total">    3.98    4.27</time>
   <energy>
    <i name="e_fr_energy">    -80.05637555 </i>
    <i name="e_wo_entrp">    -80.05637555 </i>
    <i name="e_0_energy">    -80.05637555 </i>
   </energy>
  </scstep>
  <scstep>
   <time name="dav">    3.18    3.19</time>
   <time name="total">    3.54    3.55</time>
   <energy>
    <i name="e_fr_energy">    -80.09115036 </i>
    <i name="e_wo_entrp">    -80.09115036 </i>
    <i name="e_0_energy">    -80.09115036 </i>
   </energy>
  </scstep>
  <scstep>
   <time name="dav">    2.92    2.92</time>
   <time name="total">    3.28    3.29</time>
   <energy>
    <i name="e_fr_energy">    -80.09972880 </i>
    <i name="e_wo_entrp">    -80.09972880 </i>
    <i name="e_0_energy">    -80.09972880 </i>
   </energy>
  </scstep>
  <scstep>
   <time name="dav">    2.86    2.86</time>
   <time name="total">    3.24    3.25</time>
   <energy>
    <i name="e_fr_energy">    -80.10917434 </i>
    <i name="e_wo_entrp">    -80.10917434 </i>
    <i name="e_0_energy">    -80.10917434 </i>
   </energy>
  </scstep>
  <scstep>
   <time name="dav">    2.90    2.90</time>
   <time name="total">    3.25    3.81</time>
   <energy>
    <i name="e_fr_energy">    -80.11343136 </i>
    <i name="e_wo_entrp">    -80.11343136 </i>
    <i name="e_0_energy">    -80.11343136 </i>
   </energy>
  </scstep>
  <scstep>
   <time name="dav">    2.84    2.84</time>
   <time name="total">    3.25    3.26</time>
   <energy>
    <i name="e_fr_energy">    -80.11553102 </i>
    <i name="e_wo_entrp">    -80.11553102 </i>
    <i name="e_0_energy">    -80.11553102 </i>
   </energy>
  </scstep>
  <scstep>
   <time name="dav">    2.82    2.82</time>
   <time name="total">    3.17    3.17</time>
   <energy>
    <i name="e_fr_energy">    -80.11712886 </i>
    <i name="e_wo_entrp">    -80.11712886 </i>
    <i name="e_0_energy">    -80.11712886 </i>
   </energy>
  </scstep>
  <scstep>
   <time name="dav">    2.76    2.76</time>
   <time name="total">    3.13    3.14</time>
   <energy>
    <i name="e_fr_energy">    -80.11739948 </i>
    <i name="e_wo_entrp">    -80.11739948 </i>
    <i name="e_0_energy">    -80.11739948 </i>
   </energy>
  </scstep>
  <scstep>
   <time name="dav">    2.72    2.72</time>
   <time name="total">    2.95    2.96</time>
   <energy>
    <i name="alphaZ">    116.57520906 </i>
    <i name="ewald">  93135.46662697 </i>
    <i name="hartreedc">-130969.01618816 </i>
    <i name="XCdc">   -429.91177336 </i>
    <i name="pawpsdc">  41233.86233799 </i>
    <i name="pawaedc"> -39553.72121285 </i>
    <i name="eentropy">      0.00000000 </i>
    <i name="bandstr">  -3026.92037640 </i>
    <i name="atom">  39413.54794328 </i>
    <i name="e_fr_energy">    -80.11743347 </i>
    <i name="e_wo_entrp">    -80.11743347 </i>
    <i name="e_0_energy">    -80.11743347 </i>
   </energy>
  </scstep>
  <structure>
   <crystal>
    <varray name="basis" >
     <v>      21.92258303       0.00000000       0.00000000 </v>
     <v>       0.00000000      21.92258303       0.00000000 </v>
     <v>       0.00000000       0.00000000      21.92258303 </v>
    </varray>
    <i name="volume">  10535.98566571 </i>
    <varray name="rec_basis" >
     <v>       0.04561506       0.00000000       0.00000000 </v>
     <v>       0.00000000       0.04561506       0.00000000 </v>
     <v>       0.00000000       0.00000000       0.04561506 </v>
    </varray>
   </crystal>
   <varray name="positions" >
    <v>       0.72637183       0.41848010       0.58525171 </v>
    <v>       0.62202583       0.49415036       0.59166053 </v>
    <v>       0.70965304       0.51853251       0.50242855 </v>
    <v>       0.67710775       0.30200185       0.56135643 </v>
    <v>       0.64757699       0.40406794       0.48662012 </v>
    <v>       0.66747864       0.61785124       0.58059045 </v>
    <v>       0.67610403       0.60026585       0.41135334 </v>
    <v>       0.48715524       0.53652270       0.58421273 </v>
    <v>       0.57102526       0.37599157       0.59109652 </v>
    <v>       0.52638158       0.45422514       0.49575448 </v>
    <v>       0.62984865       0.69058537       0.48212284 </v>
    <v>       0.61706963       0.48742103       0.39920905 </v>
    <v>       0.57933542       0.58950439       0.66573933 </v>
    <v>       0.57947444       0.29102790       0.48951773 </v>
    <v>       0.48671277       0.56080259       0.74204662 </v>
    <v>       0.55696530       0.37944141       0.39635117 </v>
    <v>       0.53633779       0.46133634       0.67802668 </v>
    <v>       0.55883039       0.59695913       0.36154411 </v>
    <v>       0.58048276       0.57008955       0.49595791 </v>
    <v>       0.54162942       0.66821032       0.57230633 </v>
    <v>       0.35924437       0.59192102       0.72119190 </v>
    <v>       0.49786994       0.48146334       0.35377296 </v>
    <v>       0.48497116       0.27571698       0.40730267 </v>
    <v>       0.51027048       0.68079803       0.44657073 </v>
    <v>       0.40689585       0.48162230       0.68878860 </v>
    <v>       0.46050582       0.34120120       0.51052450 </v>
    <v>       0.44330969       0.40876984       0.60464823 </v>
    <v>       0.46029313       0.55837021       0.44911773 </v>
    <v>       0.45003625       0.63995405       0.64986268 </v>
    <v>       0.43978882       0.58891776       0.32429200 </v>
    <v>       0.42565468       0.38478330       0.39756255 </v>
    <v>       0.39442109       0.46086402       0.50070134 </v>
    <v>       0.41961972       0.64855156       0.53122514 </v>
    <v>       0.35824396       0.55362986       0.59348776 </v>
    <v>       0.36770517       0.49022447       0.37358091 </v>
    <v>       0.39108074       0.67484984       0.41029215 </v>
    <v>       0.33320707       0.57161469       0.47141828 </v>
    <v>       0.31058825       0.60074827       0.34593806 </v>
   </varray>
  </structure>
  <varray name="forces" >
   <v>      -0.21699427       0.00763601      -0.09756825 </v>
   <v>       0.15329325      -0.13135483       0.07660463 </v>
   <v>      -0.06567671       0.03595074      -0.14246873 </v>
   <v>       0.06944650       0.35143139       0.06619914 </v>
   <v>       0.19865209      -0.16714945       0.19114196 </v>
   <v>       0.11058582      -0.09909448      -0.09125804 </v>
   <v>       0.07971898      -0.26049069      -0.08807688 </v>
   <v>       0.00691469       0.03956721      -0.11642463 </v>
   <v>       0.01876583      -0.30950540      -0.03709750 </v>
   <v>      -0.15255495      -0.02907137       0.02586846 </v>
   <v>      -0.08944030       0.14982418       0.06962979 </v>
   <v>       0.30133690       0.31857454      -0.07010645 </v>
   <v>      -0.03742739       0.06747340       0.13921146 </v>
   <v>      -0.27932007       0.00564534      -0.06098207 </v>
   <v>      -0.12923221       0.08200001       0.25691110 </v>
   <v>       0.01412832      -0.56482474      -0.11911558 </v>
   <v>      -0.08429498      -0.01048283       0.24707498 </v>
   <v>       0.17879278       0.06834500       0.04261807 </v>
   <v>       0.24761872       0.29782770      -0.19480101 </v>
   <v>       0.14004143       0.04029261      -0.03990645 </v>
   <v>       0.00138544       0.07691928      -0.02215376 </v>
   <v>      -0.08452886      -0.05909600      -0.25187650 </v>
   <v>       0.03964086      -0.34950730      -0.26246978 </v>
   <v>       0.06136018      -0.04667452       0.00759332 </v>
   <v>      -0.18343474       0.34454461       0.33343697 </v>
   <v>       0.23810930      -0.32465342      -0.37967519 </v>
   <v>       0.26600996       0.04305527       0.09054959 </v>
   <v>       0.00285803       0.22687997       0.00313861 </v>
   <v>      -0.12644977       0.03695214       0.46337691 </v>
   <v>      -0.41702247       0.05196013      -0.02815822 </v>
   <v>       0.09173290       0.03083130       0.04566529 </v>
   <v>      -0.17833619      -0.19054745       0.14564156 </v>
   <v>      -0.09103372       0.14364121      -0.00009071 </v>
   <v>       0.00750447      -0.03218311       0.19236478 </v>
   <v>       0.08723326       0.41150978      -0.10881539 </v>
   <v>      -0.06527049      -0.30518564       0.00773313 </v>
   <v>      -0.15706118       0.15657998      -0.16934763 </v>
   <v>       0.04294858      -0.10762057      -0.12436697 </v>
  </varray>
  <varray name="stress" >
   <v>      -1.72346458      -0.18171786      -0.18718058 </v>
   <v>      -0.18171786      -1.43835660       0.48517550 </v>
   <v>      -0.18718058       0.48517550      -0.87802686 </v>
  </varray>
  <energy>
   <i name="e_fr_energy">    -80.11743347 </i>
   <i name="e_wo_entrp">    -80.11743347 </i>
   <i name="e_0_energy">      0.00000000 </i>
  </energy>
  <time name="totalsc">  126.33  128.29</time>
 </calculation>
 <calculation>
  <scstep>
   <time name="dav">    3.74    3.75</time>
   <time name="total">    4.12    4.14</time>
   <energy>
    <i name="alphaZ">    116.57520906 </i>
    <i name="ewald">  93088.82684568 </i>
    <i name="hartreedc">-130922.52999753 </i>
    <i name="XCdc">   -429.94680049 </i>
    <i name="pawpsdc">  41233.97459114 </i>
    <i name="pawaedc"> -39553.83312360 </i>
    <i name="eentropy">      0.00000000 </i>
    <i name="bandstr">  -3026.76506724 </i>
    <i name="atom">  39413.54794328 </i>
    <i name="e_fr_energy">    -80.15039969 </i>
    <i name="e_wo_entrp">    -80.15039969 </i>
    <i name="e_0_energy">    -80.15039969 </i>
   </energy>
  </scstep>
  <scstep>
   <time name="dav">    3.80    3.80</time>
   <time name="total">    4.16    4.16</time>
   <energy>
    <i name="e_fr_energy">    -80.15148266 </i>
    <i name="e_wo_entrp">    -80.15148266 </i>
    <i name="e_0_energy">    -80.15148266 </i>
   </energy>
  </scstep>
  <scstep>
   <time name="dav">    2.71    2.71</time>
   <time name="total">    2.94    2.94</time>
   <energy>
    <i name="alphaZ">    116.57520906 </i>
    <i name="ewald">  93088.82684568 </i>
    <i name="hartreedc">-130922.80933715 </i>
    <i name="XCdc">   -429.94340945 </i>
    <i name="pawpsdc">  41231.07597337 </i>
    <i name="pawaedc"> -39550.88280938 </i>
    <i name="eentropy">      0.00000000 </i>
    <i name="bandstr">  -3026.54189993 </i>
    <i name="atom">  39413.54794328 </i>
    <i name="e_fr_energy">    -80.15148452 </i>
    <i name="e_wo_entrp">    -80.15148452 </i>
    <i name="e_0_energy">    -80.15148452 </i>
   </energy>
  </scstep>
  <structure>
   <crystal>
    <varray name="basis" >
     <v>      21.92258303       0.00000000       0.00000000 </v>
     <v>       0.00000000      21.92258303       0.00000000 </v>
     <v>       0.00000000       0.00000000      21.92258303 </v>
    </varray>
    <i name="volume">  10535.98566571 </i>
    <varray name="rec_basis" >
     <v>       0.04561506       0.00000000       0.00000000 </v>
     <v>       0.00000000       0.04561506       0.00000000 </v>
     <v>       0.00000000       0.00000000       0.04561506 </v>
    </varray>
   </crystal>
   <varray name="positions" >
    <v>       0.72627633       0.41848346       0.58520877 </v>
    <v>       0.62209330       0.49409255       0.59169424 </v>
    <v>       0.70962413       0.51854833       0.50236585 </v>
    <v>       0.67713831       0.30215653       0.56138557 </v>
    <v>       0.64766442       0.40399437       0.48670425 </v>
    <v>       0.66752731       0.61780763       0.58055028 </v>
    <v>       0.67613911       0.60015120       0.41131458 </v>
    <v>       0.48715828       0.53654012       0.58416149 </v>
    <v>       0.57103352       0.37585535       0.59108019 </v>
    <v>       0.52631444       0.45421234       0.49576587 </v>
    <v>       0.62980929       0.69065131       0.48215349 </v>
    <v>       0.61720225       0.48756124       0.39917820 </v>
    <v>       0.57931895       0.58953409       0.66580060 </v>
    <v>       0.57935151       0.29103039       0.48949089 </v>
    <v>       0.48665589       0.56083868       0.74215969 </v>
    <v>       0.55697151       0.37919283       0.39629874 </v>
    <v>       0.53630069       0.46133172       0.67813542 </v>
    <v>       0.55890908       0.59698921       0.36156287 </v>
    <v>       0.58059174       0.57022063       0.49587217 </v>
    <v>       0.54169105       0.66822806       0.57228877 </v>
    <v>       0.35924498       0.59195487       0.72118215 </v>
    <v>       0.49783274       0.48143733       0.35366211 </v>
    <v>       0.48498861       0.27556316       0.40718715 </v>
    <v>       0.51029749       0.68077749       0.44657407 </v>
    <v>       0.40681512       0.48177394       0.68893535 </v>
    <v>       0.46061062       0.34105832       0.51035740 </v>
    <v>       0.44342676       0.40878879       0.60468808 </v>
    <v>       0.46029439       0.55847007       0.44911911 </v>
    <v>       0.44998059       0.63997031       0.65006662 </v>
    <v>       0.43960528       0.58894063       0.32427960 </v>
    <v>       0.42569505       0.38479687       0.39758265 </v>
    <v>       0.39434260       0.46078016       0.50076544 </v>
    <v>       0.41957965       0.64861478       0.53122510 </v>
    <v>       0.35824726       0.55361570       0.59357242 </v>
    <v>       0.36774356       0.49040559       0.37353302 </v>
    <v>       0.39105201       0.67471552       0.41029555 </v>
    <v>       0.33313795       0.57168361       0.47134375 </v>
    <v>       0.31060716       0.60070090       0.34588332 </v>
   </varray>
  </structure>
  <varray name="forces" >
   <v>      -0.19718044       0.01285557      -0.08552579 </v>
   <v>       0.13104101      -0.12071508       0.07613205 </v>
   <v>      -0.06108451       0.02929441      -0.13507756 </v>
   <v>       0.05822516       0.32681384       0.05946966 </v>
   <v>       0.17150580      -0.14918332       0.15812794 </v>
   <v>       0.10445979      -0.09711755      -0.08375598 </v>
   <v>       0.08473008      -0.22882189      -0.08399314 </v>
   <v>       0.01011827       0.04551445      -0.10865779 </v>
   <v>       0.01307585      -0.28814477      -0.02937179 </v>
   <v>      -0.13530290      -0.02645536       0.01300482 </v>
   <v>      -0.07492389       0.14250681       0.06008310 </v>
   <v>       0.26550116       0.25848400      -0.06005887 </v>
   <v>      -0.03751144       0.06168355       0.12961707 </v>
   <v>      -0.25098324      -0.00162700      -0.04895510 </v>
   <v>      -0.11648795       0.07950949       0.25427751 </v>
   <v>       0.02706795      -0.49900758      -0.11178313 </v>
   <v>      -0.07914622      -0.00780624       0.22933893 </v>
   <v>       0.15258051       0.06351047       0.03255830 </v>
   <v>       0.22908861       0.27035920      -0.18111783 </v>
   <v>       0.11838061       0.03199169      -0.02327694 </v>
   <v>      -0.01340956       0.08361614      -0.01025381 </v>
   <v>      -0.06745029      -0.05686558      -0.23378560 </v>
   <v>       0.03211164      -0.34300928      -0.26210270 </v>
   <v>       0.05240848      -0.04304107       0.00606658 </v>
   <v>      -0.16477460       0.30475800       0.29919463 </v>
   <v>       0.21976250      -0.29233334      -0.33391147 </v>
   <v>       0.25549289       0.04177355       0.07976321 </v>
   <v>       0.00480663       0.20663250       0.00432619 </v>
   <v>      -0.10513427       0.04035280       0.41433332 </v>
   <v>      -0.37790748       0.04874441      -0.02865746 </v>
   <v>       0.08494991       0.03774638       0.03997260 </v>
   <v>      -0.16976795      -0.17528172       0.13573821 </v>
   <v>      -0.08389569       0.13619395       0.02035030 </v>
   <v>       0.00776303      -0.02744183       0.17135662 </v>
   <v>       0.09180533       0.37607870      -0.09732883 </v>
   <v>      -0.06065854      -0.28884434       0.00858858 </v>
   <v>      -0.14723127       0.14454460      -0.14776678 </v>
   <v>       0.02797501      -0.09726855      -0.12691907 </v>
  </varray>
  <varray name="stress" >
   <v>      -1.75031678      -0.17791171      -0.18409173 </v>
   <v>      -0.17791170      -1.47411649       0.47449751 </v>
   <v>      -0.18409173       0.47449752      -0.92346052 </v>
  </varray>
  <energy>
   <i name="e_fr_energy">    -80.15148452 </i>
   <i name="e_wo_entrp">    -80.15148452 </i>
   <i name="e_0_energy">      0.00000000 </i>
  </energy>
  <time name="totalsc">   17.43   17.47</time>
 </calculation>
 <calculation>
  <scstep>
   <time name="dav">    3.61    3.62</time>
   <time name="total">    3.98    4.00</time>
   <energy>
    <i name="alphaZ">    116.57520906 </i>
    <i name="ewald">  92949.60538809 </i>
    <i name="hartreedc">-130784.24116065 </i>
    <i name="XCdc">   -430.04110698 </i>
    <i name="pawpsdc">  41228.56242386 </i>
    <i name="pawaedc"> -39548.33575331 </i>
    <i name="eentropy">      0.00000000 </i>
    <i name="bandstr">  -3025.90230724 </i>
    <i name="atom">  39413.54794328 </i>
    <i name="e_fr_energy">    -80.22936388 </i>
    <i name="e_wo_entrp">    -80.22936388 </i>
    <i name="e_0_energy">    -80.22936388 </i>
   </energy>
  </scstep>
  <scstep>
   <time name="dav">    3.77    3.77</time>
   <time name="total">    4.12    4.12</time>
   <energy>
    <i name="e_fr_energy">    -80.23866948 </i>
    <i name="e_wo_entrp">    -80.23866948 </i>
    <i name="e_0_energy">    -80.23866948 </i>
   </energy>
  </scstep>
  <scstep>
   <time name="dav">    3.90    3.90</time>
   <time name="total">    4.25    4.26</time>
   <energy>
    <i name="e_fr_energy">    -80.23849158 </i>
    <i name="e_wo_entrp">    -80.23849158 </i>
    <i name="e_0_energy">    -80.23849158 </i>
   </energy>
  </scstep>
  <scstep>
   <time name="dav">    3.72    3.72</time>
   <time name="total">    4.10    4.64</time>
   <energy>
    <i name="e_fr_energy">    -80.23839111 </i>
    <i name="e_wo_entrp">    -80.23839111 </i>
    <i name="e_0_energy">    -80.23839111 </i>
   </energy>
  </scstep>
  <scstep>
   <time name="dav">    2.64    2.65</time>
   <time name="total">    2.87    4.25</time>
   <energy>
    <i name="alphaZ">    116.57520906 </i>
    <i name="ewald">  92949.60538809 </i>
    <i name="hartreedc">-130785.22685036 </i>
    <i name="XCdc">   -430.02776273 </i>
    <i name="pawpsdc">  41212.47613290 </i>
    <i name="pawaedc"> -39531.99166610 </i>
    <i name="eentropy">      0.00000000 </i>
    <i name="bandstr">  -3025.19678696 </i>
    <i name="atom">  39413.54794328 </i>
    <i name="e_fr_energy">    -80.23839281 </i>
    <i name="e_wo_entrp">    -80.23839281 </i>
    <i name="e_0_energy">    -80.23839281 </i>
   </energy>
  </scstep>
  <structure>
   <crystal>
    <varray name="basis" >
     <v>      21.92258303       0.00000000       0.00000000 </v>
     <v>       0.00000000      21.92258303       0.00000000 </v>
     <v>       0.00000000       0.00000000      21.92258303 </v>
    </varray>
    <i name="volume">  10535.98566571 </i>
    <varray name="rec_basis" >
     <v>       0.04561506       0.00000000       0.00000000 </v>
     <v>       0.00000000       0.04561506       0.00000000 </v>
     <v>       0.00000000       0.00000000       0.04561506 </v>
    </varray>
   </crystal>
   <varray name="positions" >
    <v>       0.72598982       0.41849354       0.58507995 </v>
    <v>       0.62229570       0.49391911       0.59179539 </v>
    <v>       0.70953741       0.51859580       0.50217774 </v>
    <v>       0.67723001       0.30262054       0.56147297 </v>
    <v>       0.64792671       0.40377368       0.48695662 </v>
    <v>       0.66767332       0.61767679       0.58042979 </v>
    <v>       0.67624437       0.59980726       0.41119829 </v>
    <v>       0.48716741       0.53659236       0.58400777 </v>
    <v>       0.57105829       0.37544670       0.59103121 </v>
    <v>       0.52611301       0.45417396       0.49580002 </v>
    <v>       0.62969119       0.69084913       0.48224542 </v>
    <v>       0.61760012       0.48798187       0.39908563 </v>
    <v>       0.57926953       0.58962318       0.66598441 </v>
    <v>       0.57898270       0.29103784       0.48941037 </v>
    <v>       0.48648526       0.56094695       0.74249891 </v>
    <v>       0.55699017       0.37844706       0.39614147 </v>
    <v>       0.53618939       0.46131788       0.67846165 </v>
    <v>       0.55914515       0.59707945       0.36161914 </v>
    <v>       0.58091868       0.57061387       0.49561497 </v>
    <v>       0.54187596       0.66828126       0.57223608 </v>
    <v>       0.35924681       0.59205644       0.72115290 </v>
    <v>       0.49772113       0.48135930       0.35332954 </v>
    <v>       0.48504095       0.27510168       0.40684060 </v>
    <v>       0.51037851       0.68071587       0.44658410 </v>
    <v>       0.40657292       0.48222887       0.68937560 </v>
    <v>       0.46092501       0.34062966       0.50985609 </v>
    <v>       0.44377799       0.40884564       0.60480764 </v>
    <v>       0.46029817       0.55876963       0.44912326 </v>
    <v>       0.44981364       0.64001910       0.65067845 </v>
    <v>       0.43905466       0.58900923       0.32424242 </v>
    <v>       0.42581617       0.38483758       0.39764295 </v>
    <v>       0.39410713       0.46052857       0.50095774 </v>
    <v>       0.41945945       0.64880444       0.53122498 </v>
    <v>       0.35825717       0.55357321       0.59382641 </v>
    <v>       0.36785874       0.49094893       0.37338934 </v>
    <v>       0.39096583       0.67431257       0.41030576 </v>
    <v>       0.33293057       0.57189035       0.47112015 </v>
    <v>       0.31066386       0.60055880       0.34571912 </v>
   </varray>
  </structure>
  <varray name="forces" >
   <v>      -0.15596711       0.02856226      -0.05718018 </v>
   <v>       0.08005769      -0.09977296       0.08080820 </v>
   <v>      -0.05283505       0.01278000      -0.12360681 </v>
   <v>       0.03224474       0.28268372       0.04659168 </v>
   <v>       0.11027380      -0.11110696       0.07858478 </v>
   <v>       0.09507590      -0.09788545      -0.06891817 </v>
   <v>       0.10563451      -0.15661888      -0.07967867 </v>
   <v>       0.01881652       0.06507704      -0.09599196 </v>
   <v>      -0.00139219      -0.25054012      -0.01137221 </v>
   <v>      -0.10000841      -0.02248335      -0.01992953 </v>
   <v>      -0.04100627       0.13427268       0.03955384 </v>
   <v>       0.18866958       0.11402222      -0.03672236 </v>
   <v>      -0.04059501       0.04995968       0.11198697 </v>
   <v>      -0.18968789      -0.02162399      -0.02008337 </v>
   <v>      -0.08928784       0.07827360       0.26399818 </v>
   <v>       0.06076601      -0.35396389      -0.09950087 </v>
   <v>      -0.07073344      -0.00111930       0.19713912 </v>
   <v>       0.09333384       0.05477757       0.00826415 </v>
   <v>       0.19370045       0.21421981      -0.15721706 </v>
   <v>       0.06841771       0.01221798       0.01949629 </v>
   <v>      -0.05594601       0.10805282       0.02301813 </v>
   <v>      -0.02726521      -0.05425579      -0.19994158 </v>
   <v>       0.01451819      -0.34847511      -0.27984667 </v>
   <v>       0.03246893      -0.03646794       0.00254162 </v>
   <v>      -0.12321408       0.21242843       0.22525706 </v>
   <v>       0.18406870      -0.22410171      -0.23062195 </v>
   <v>       0.24158658       0.04122495       0.05548272 </v>
   <v>       0.01094924       0.16733891       0.00788082 </v>
   <v>      -0.05466300       0.05096366       0.30810426 </v>
   <v>      -0.29751095       0.04341649      -0.03349713 </v>
   <v>       0.07335456       0.05876436       0.02729515 </v>
   <v>      -0.15675433      -0.14536315       0.11825721 </v>
   <v>      -0.07042736       0.12412926       0.07596734 </v>
   <v>       0.00877065      -0.01703313       0.12645444 </v>
   <v>       0.11001351       0.30431539      -0.07257078 </v>
   <v>      -0.05261038      -0.26478333       0.01225402 </v>
   <v>      -0.13049213       0.12241616      -0.10041282 </v>
   <v>      -0.01232445      -0.07430192      -0.14184385 </v>
  </varray>
  <varray name="stress" >
   <v>      -1.80508703      -0.16906584      -0.17166059 </v>
   <v>      -0.16906585      -1.55228164       0.44386966 </v>
   <v>      -0.17166059       0.44386966      -1.02964535 </v>
  </varray>
  <energy>
   <i name="e_fr_energy">    -80.23839281 </i>
   <i name="e_wo_entrp">    -80.23839281 </i>
   <i name="e_0_energy">      0.00000000 </i>
  </energy>
  <time name="totalsc">   25.51   27.53</time>
 </calculation>
 <calculation>
  <scstep>
   <time name="dav">    3.62    3.62</time>
   <time name="total">    3.97    4.58</time>
   <energy>
    <i name="alphaZ">    116.57520906 </i>
    <i name="ewald">  92674.28308226 </i>
    <i name="hartreedc">-130510.78741592 </i>
    <i name="XCdc">   -430.19623591 </i>
    <i name="pawpsdc">  41212.50458320 </i>
    <i name="pawaedc"> -39532.02174073 </i>
    <i name="eentropy">      0.00000000 </i>
    <i name="bandstr">  -3024.21608256 </i>
    <i name="atom">  39413.54794328 </i>
    <i name="e_fr_energy">    -80.31065732 </i>
    <i name="e_wo_entrp">    -80.31065732 </i>
    <i name="e_0_energy">    -80.31065732 </i>
   </energy>
  </scstep>
  <scstep>
   <time name="dav">    3.78    3.78</time>
   <time name="total">    4.14    4.14</time>
   <energy>
    <i name="e_fr_energy">    -80.34811740 </i>
    <i name="e_wo_entrp">    -80.34811740 </i>
    <i name="e_0_energy">    -80.34811740 </i>
   </energy>
  </scstep>
  <scstep>
   <time name="dav">    3.92    3.92</time>
   <time name="total">    4.28    4.28</time>
   <energy>
    <i name="e_fr_energy">    -80.34740444 </i>
    <i name="e_wo_entrp">    -80.34740444 </i>
    <i name="e_0_energy">    -80.34740444 </i>
   </energy>
  </scstep>
  <scstep>
   <time name="dav">    3.74    3.75</time>
   <time name="total">    4.09    4.10</time>
   <energy>
    <i name="e_fr_energy">    -80.34689474 </i>
    <i name="e_wo_entrp">    -80.34689474 </i>
    <i name="e_0_energy">    -80.34689474 </i>
   </energy>
  </scstep>
  <scstep>
   <time name="dav">    2.68    2.68</time>
   <time name="total">    2.92    2.92</time>
   <energy>
    <i name="alphaZ">    116.57520906 </i>
    <i name="ewald">  92674.28308226 </i>
    <i name="hartreedc">-130512.61437827 </i>
    <i name="XCdc">   -430.17350211 </i>
    <i name="pawpsdc">  41188.33566001 </i>
    <i name="pawaedc"> -39507.42969942 </i>
    <i name="eentropy">      0.00000000 </i>
    <i name="bandstr">  -3022.87121306 </i>
    <i name="atom">  39413.54794328 </i>
    <i name="e_fr_energy">    -80.34689825 </i>
    <i name="e_wo_entrp">    -80.34689825 </i>
    <i name="e_0_energy">    -80.34689825 </i>
   </energy>
  </scstep>
  <structure>
   <crystal>
    <varray name="basis" >
     <v>      21.92258303       0.00000000       0.00000000 </v>
     <v>       0.00000000      21.92258303       0.00000000 </v>
     <v>       0.00000000       0.00000000      21.92258303 </v>
    </varray>
    <i name="volume">  10535.98566571 </i>
    <varray name="rec_basis" >
     <v>       0.04561506       0.00000000       0.00000000 </v>
     <v>       0.00000000       0.04561506       0.00000000 </v>
     <v>       0.00000000       0.00000000       0.04561506 </v>
    </varray>
   </crystal>
   <varray name="positions" >
    <v>       0.72541680       0.41851371       0.58482230 </v>
    <v>       0.62270051       0.49357224       0.59199768 </v>
    <v>       0.70936398       0.51869073       0.50180152 </v>
    <v>       0.67741340       0.30354857       0.56164778 </v>
    <v>       0.64845130       0.40333228       0.48746138 </v>
    <v>       0.66796534       0.61741511       0.58018880 </v>
    <v>       0.67645489       0.59911938       0.41096570 </v>
    <v>       0.48718567       0.53669685       0.58370032 </v>
    <v>       0.57110785       0.37462938       0.59093325 </v>
    <v>       0.52571015       0.45409719       0.49586834 </v>
    <v>       0.62945501       0.69124477       0.48242929 </v>
    <v>       0.61839586       0.48882313       0.39890050 </v>
    <v>       0.57917070       0.58980135       0.66635203 </v>
    <v>       0.57824510       0.29105275       0.48924934 </v>
    <v>       0.48614399       0.56116349       0.74317733 </v>
    <v>       0.55702748       0.37695552       0.39582692 </v>
    <v>       0.53596679       0.46129020       0.67911410 </v>
    <v>       0.55961729       0.59725992       0.36173168 </v>
    <v>       0.58157257       0.57140034       0.49510055 </v>
    <v>       0.54224577       0.66838766       0.57213070 </v>
    <v>       0.35925047       0.59225956       0.72109440 </v>
    <v>       0.49749791       0.48120325       0.35266441 </v>
    <v>       0.48514563       0.27417874       0.40614749 </v>
    <v>       0.51054054       0.68059261       0.44660415 </v>
    <v>       0.40608852       0.48313871       0.69025611 </v>
    <v>       0.46155379       0.33977234       0.50885348 </v>
    <v>       0.44448045       0.40895934       0.60504675 </v>
    <v>       0.46030571       0.55936875       0.44913154 </v>
    <v>       0.44947972       0.64011668       0.65190209 </v>
    <v>       0.43795343       0.58914645       0.32416807 </v>
    <v>       0.42605841       0.38491900       0.39776354 </v>
    <v>       0.39363620       0.46002539       0.50134234 </v>
    <v>       0.41921906       0.64918375       0.53122475 </v>
    <v>       0.35827699       0.55348822       0.59433439 </v>
    <v>       0.36808910       0.49203560       0.37310199 </v>
    <v>       0.39079347       0.67350666       0.41032618 </v>
    <v>       0.33251582       0.57230383       0.47067295 </v>
    <v>       0.31077728       0.60027461       0.34539070 </v>
   </varray>
  </structure>
  <varray name="forces" >
   <v>      -0.05379608       0.06496429       0.01009199 </v>
   <v>      -0.02774633      -0.05215594       0.08809684 </v>
   <v>      -0.03239026      -0.02399617      -0.09170059 </v>
   <v>      -0.01707182       0.16680748       0.02320874 </v>
   <v>      -0.01941084      -0.02970820      -0.09365399 </v>
   <v>       0.07328847      -0.09466783      -0.03555385 </v>
   <v>       0.15567378       0.00486230      -0.07423517 </v>
   <v>       0.03501292       0.10172241      -0.06605202 </v>
   <v>      -0.03220302      -0.16730439       0.02444599 </v>
   <v>      -0.02991821      -0.01572013      -0.08286181 </v>
   <v>       0.03064309       0.11870597      -0.00218841 </v>
   <v>       0.03580981      -0.17529086       0.00596272 </v>
   <v>      -0.04610617       0.02498063       0.07182478 </v>
   <v>      -0.04727880      -0.06818478       0.03748796 </v>
   <v>      -0.02970788       0.07610066       0.27577902 </v>
   <v>       0.11733964      -0.06738189      -0.07762849 </v>
   <v>      -0.05183339       0.01447638       0.13106876 </v>
   <v>      -0.02529326       0.03778938      -0.04121393 </v>
   <v>       0.11175613       0.09122638      -0.09983808 </v>
   <v>      -0.03193659      -0.02751906       0.10300118 </v>
   <v>      -0.14969341       0.15888840       0.09476791 </v>
   <v>       0.04961632      -0.04366922      -0.12763803 </v>
   <v>      -0.02369712      -0.35193851      -0.30262619 </v>
   <v>      -0.01125475      -0.01999274      -0.00564673 </v>
   <v>      -0.03500691       0.01511534       0.07890042 </v>
   <v>       0.10216820      -0.08227288      -0.03012272 </v>
   <v>       0.20070600       0.04075976       0.00782392 </v>
   <v>       0.02461554       0.07999137       0.01475517 </v>
   <v>       0.05325713       0.07477323       0.08993836 </v>
   <v>      -0.12138228       0.03526159      -0.05189497 </v>
   <v>       0.04707368       0.09928371      -0.00055402 </v>
   <v>      -0.12468769      -0.08256929       0.08030953 </v>
   <v>      -0.04274992       0.09436903       0.18060804 </v>
   <v>       0.01075345       0.00400714       0.03193789 </v>
   <v>       0.13997951       0.14095734      -0.01617083 </v>
   <v>      -0.03384831      -0.19693023       0.01889755 </v>
   <v>      -0.09574711       0.07359609      -0.00040982 </v>
   <v>      -0.10493348      -0.01933676      -0.16891710 </v>
  </varray>
  <varray name="stress" >
   <v>      -1.88889225      -0.15047816      -0.14885776 </v>
   <v>      -0.15047814      -1.67403320       0.38433266 </v>
   <v>      -0.14885777       0.38433266      -1.21671139 </v>
  </varray>
  <energy>
   <i name="e_fr_energy">    -80.34689825 </i>
   <i name="e_wo_entrp">    -80.34689825 </i>
   <i name="e_0_energy">      0.00000000 </i>
  </energy>
  <time name="totalsc">   25.61   26.97</time>
 </calculation>
 <calculation>
  <scstep>
   <time name="dav">    3.62    3.62</time>
   <time name="total">    3.96    3.97</time>
   <energy>
    <i name="alphaZ">    116.57520906 </i>
    <i name="ewald">  92135.96361826 </i>
    <i name="hartreedc">-129975.16698124 </i>
    <i name="XCdc">   -430.39785477 </i>
    <i name="pawpsdc">  41188.21456108 </i>
    <i name="pawaedc"> -39507.31030541 </i>
    <i name="eentropy">      0.00000000 </i>
    <i name="bandstr">  -3021.59434527 </i>
    <i name="atom">  39413.54794328 </i>
    <i name="e_fr_energy">    -80.16815501 </i>
    <i name="e_wo_entrp">    -80.16815501 </i>
    <i name="e_0_energy">    -80.16815501 </i>
   </energy>
  </scstep>
  <scstep>
   <time name="dav">    3.66    3.67</time>
   <time name="total">    4.04    4.04</time>
   <energy>
    <i name="e_fr_energy">    -80.32192914 </i>
    <i name="e_wo_entrp">    -80.32192914 </i>
    <i name="e_0_energy">    -80.32192914 </i>
   </energy>
  </scstep>
  <scstep>
   <time name="dav">    3.86    3.87</time>
   <time name="total">    4.20    4.21</time>
   <energy>
    <i name="e_fr_energy">    -80.31931426 </i>
    <i name="e_wo_entrp">    -80.31931426 </i>
    <i name="e_0_energy">    -80.31931426 </i>
   </energy>
  </scstep>
  <scstep>
   <time name="dav">    3.73    3.73</time>
   <time name="total">    4.09    4.10</time>
   <energy>
    <i name="e_fr_energy">    -80.31714483 </i>
    <i name="e_wo_entrp">    -80.31714483 </i>
    <i name="e_0_energy">    -80.31714483 </i>
   </energy>
  </scstep>
  <scstep>
   <time name="dav">    3.11    3.11</time>
   <time name="total">    3.34    3.37</time>
   <energy>
    <i name="alphaZ">    116.57520906 </i>
    <i name="ewald">  92135.96361826 </i>
    <i name="hartreedc">-129977.99616913 </i>
    <i name="XCdc">   -430.36380220 </i>
    <i name="pawpsdc">  41168.53055335 </i>
    <i name="pawaedc"> -39487.11532149 </i>
    <i name="eentropy">      0.00000000 </i>
    <i name="bandstr">  -3019.45923022 </i>
    <i name="atom">  39413.54794328 </i>
    <i name="e_fr_energy">    -80.31719908 </i>
    <i name="e_wo_entrp">    -80.31719908 </i>
    <i name="e_0_energy">    -80.31719908 </i>
   </energy>
  </scstep>
  <structure>
   <crystal>
    <varray name="basis" >
     <v>      21.92258303       0.00000000       0.00000000 </v>
     <v>       0.00000000      21.92258303       0.00000000 </v>
     <v>       0.00000000       0.00000000      21.92258303 </v>
    </varray>
    <i name="volume">  10535.98566571 </i>
    <varray name="rec_basis" >
     <v>       0.04561506       0.00000000       0.00000000 </v>
     <v>       0.00000000       0.04561506       0.00000000 </v>
     <v>       0.00000000       0.00000000       0.04561506 </v>
    </varray>
   </crystal>
   <varray name="positions" >
    <v>       0.72427076       0.41855404       0.58430700 </v>
    <v>       0.62351011       0.49287850       0.59240226 </v>
    <v>       0.70901711       0.51888060       0.50104908 </v>
    <v>       0.67778017       0.30540463       0.56199741 </v>
    <v>       0.64950046       0.40244950       0.48847088 </v>
    <v>       0.66854940       0.61689175       0.57970683 </v>
    <v>       0.67687592       0.59774362       0.41050053 </v>
    <v>       0.48722219       0.53690582       0.58308543 </v>
    <v>       0.57120696       0.37299475       0.59073732 </v>
    <v>       0.52490445       0.45394365       0.49600496 </v>
    <v>       0.62898263       0.69203605       0.48279704 </v>
    <v>       0.61998735       0.49050566       0.39853024 </v>
    <v>       0.57897303       0.59015771       0.66708726 </v>
    <v>       0.57676989       0.29108256       0.48892726 </v>
    <v>       0.48546146       0.56159657       0.74453419 </v>
    <v>       0.55710209       0.37397244       0.39519782 </v>
    <v>       0.53552160       0.46123484       0.68041901 </v>
    <v>       0.56056157       0.59762088       0.36195677 </v>
    <v>       0.58288035       0.57297330       0.49407173 </v>
    <v>       0.54298538       0.66860046       0.57191994 </v>
    <v>       0.35925778       0.59266580       0.72097740 </v>
    <v>       0.49705148       0.48089114       0.35133414 </v>
    <v>       0.48535499       0.27233284       0.40476128 </v>
    <v>       0.51086461       0.68034610       0.44664425 </v>
    <v>       0.40511973       0.48495839       0.69201713 </v>
    <v>       0.46281134       0.33805771       0.50684825 </v>
    <v>       0.44588536       0.40918673       0.60552498 </v>
    <v>       0.46032081       0.56056700       0.44914812 </v>
    <v>       0.44881188       0.64031184       0.65434938 </v>
    <v>       0.43575096       0.58942087       0.32401935 </v>
    <v>       0.42654289       0.38508183       0.39800471 </v>
    <v>       0.39269433       0.45901903       0.50211153 </v>
    <v>       0.41873827       0.64994238       0.53122427 </v>
    <v>       0.35831662       0.55331825       0.59535035 </v>
    <v>       0.36854981       0.49420896       0.37252729 </v>
    <v>       0.39044875       0.67189485       0.41036702 </v>
    <v>       0.33168631       0.57313079       0.46977855 </v>
    <v>       0.31100411       0.59970622       0.34473386 </v>
   </varray>
  </structure>
  <varray name="forces" >
   <v>       0.19213843       0.15936482       0.17231377 </v>
   <v>      -0.23758638       0.04930022       0.10586295 </v>
   <v>       0.01407946      -0.10334494      -0.01274917 </v>
   <v>      -0.09222086      -0.12654438       0.00519785 </v>
   <v>      -0.28420888       0.12890133      -0.46165983 </v>
   <v>       0.03606987      -0.08182178       0.03116221 </v>
   <v>       0.29707699       0.35645541      -0.08596153 </v>
   <v>       0.06298490       0.17169265      -0.01022664 </v>
   <v>      -0.09606912      -0.01010571       0.08839002 </v>
   <v>       0.08623065      -0.01052054      -0.19001609 </v>
   <v>       0.17215945       0.11595558      -0.07486906 </v>
   <v>      -0.22767809      -0.70820699       0.05978537 </v>
   <v>      -0.05813997      -0.01849245      -0.00385369 </v>
   <v>       0.26906546      -0.18237828       0.14445051 </v>
   <v>       0.09149280       0.06442291       0.29821476 </v>
   <v>       0.19707560       0.38272938      -0.05949344 </v>
   <v>      -0.01539094       0.05199510       0.02682009 </v>
   <v>      -0.23603271       0.01691217      -0.13520200 </v>
   <v>      -0.06261262      -0.14258641       0.01730703 </v>
   <v>      -0.20894670      -0.09745231       0.25550946 </v>
   <v>      -0.36633045       0.28092833       0.25326614 </v>
   <v>       0.17448298      -0.01090825      -0.00813931 </v>
   <v>      -0.09592222      -0.36434950      -0.34543912 </v>
   <v>      -0.09778066       0.01871483      -0.02399252 </v>
   <v>       0.13708269      -0.36340016      -0.16011724 </v>
   <v>      -0.08955416       0.18372909       0.31134743 </v>
   <v>       0.11861505       0.04713420      -0.07419766 </v>
   <v>       0.05635421      -0.09054916       0.02653929 </v>
   <v>       0.26712206       0.13672133      -0.30114459 </v>
   <v>       0.22289293       0.04035643      -0.12691450 </v>
   <v>      -0.00054155       0.17772536      -0.05700985 </v>
   <v>      -0.06532009       0.02025701       0.02278070 </v>
   <v>       0.00563622       0.03777141       0.36005889 </v>
   <v>       0.01602336       0.04269352      -0.14371662 </v>
   <v>       0.18650286      -0.22496233       0.10792962 </v>
   <v>       0.00644500      -0.03299499       0.03449946 </v>
   <v>      -0.04980232      -0.02661507       0.18298491 </v>
   <v>      -0.32539325       0.11147214      -0.22971759 </v>
  </varray>
  <varray name="stress" >
   <v>      -1.92419302      -0.11484695      -0.09982869 </v>
   <v>      -0.11484695      -1.74506366       0.27139033 </v>
   <v>      -0.09982869       0.27139032      -1.46283659 </v>
  </varray>
  <energy>
   <i name="e_fr_energy">    -80.31719908 </i>
   <i name="e_wo_entrp">    -80.31719908 </i>
   <i name="e_0_energy">      0.00000000 </i>
  </energy>
  <time name="totalsc">   25.88   25.98</time>
 </calculation>
 <calculation>
  <scstep>
   <time name="dav">    3.59    3.60</time>
   <time name="total">    3.94    3.96</time>
   <energy>
    <i name="alphaZ">    116.57520906 </i>
    <i name="ewald">  92444.62668782 </i>
    <i name="hartreedc">-130286.62293040 </i>
    <i name="XCdc">   -430.23816719 </i>
    <i name="pawpsdc">  41167.47325631 </i>
    <i name="pawaedc"> -39486.05582836 </i>
    <i name="eentropy">      0.00000000 </i>
    <i name="bandstr">  -3019.63068334 </i>
    <i name="atom">  39413.54794328 </i>
    <i name="e_fr_energy">    -80.32451283 </i>
    <i name="e_wo_entrp">    -80.32451283 </i>
    <i name="e_0_energy">    -80.32451283 </i>
   </energy>
  </scstep>
  <scstep>
   <time name="dav">    3.72    3.73</time>
   <time name="total">    4.11    4.12</time>
   <energy>
    <i name="e_fr_energy">    -80.37523115 </i>
    <i name="e_wo_entrp">    -80.37523115 </i>
    <i name="e_0_energy">    -80.37523115 </i>
   </energy>
  </scstep>
  <scstep>
   <time name="dav">    3.86    3.86</time>
   <time name="total">    4.22    4.22</time>
   <energy>
    <i name="e_fr_energy">    -80.37421620 </i>
    <i name="e_wo_entrp">    -80.37421620 </i>
    <i name="e_0_energy">    -80.37421620 </i>
   </energy>
  </scstep>
  <scstep>
   <time name="dav">    3.68    3.69</time>
   <time name="total">    4.03    4.74</time>
   <energy>
    <i name="e_fr_energy">    -80.37354162 </i>
    <i name="e_wo_entrp">    -80.37354162 </i>
    <i name="e_0_energy">    -80.37354162 </i>
   </energy>
  </scstep>
  <scstep>
   <time name="dav">    2.82    2.82</time>
   <time name="total">    3.11    3.16</time>
   <energy>
    <i name="alphaZ">    116.57520906 </i>
    <i name="ewald">  92444.62668782 </i>
    <i name="hartreedc">-130284.99229305 </i>
    <i name="XCdc">   -430.26850999 </i>
    <i name="pawpsdc">  41174.64827475 </i>
    <i name="pawaedc"> -39493.47222480 </i>
    <i name="eentropy">      0.00000000 </i>
    <i name="bandstr">  -3021.03865110 </i>
    <i name="atom">  39413.54794328 </i>
    <i name="e_fr_energy">    -80.37356404 </i>
    <i name="e_wo_entrp">    -80.37356404 </i>
    <i name="e_0_energy">    -80.37356404 </i>
   </energy>
  </scstep>
  <structure>
   <crystal>
    <varray name="basis" >
     <v>      21.92258303       0.00000000       0.00000000 </v>
     <v>       0.00000000      21.92258303       0.00000000 </v>
     <v>       0.00000000       0.00000000      21.92258303 </v>
    </varray>
    <i name="volume">  10535.98566571 </i>
    <varray name="rec_basis" >
     <v>       0.04561506       0.00000000       0.00000000 </v>
     <v>       0.00000000       0.04561506       0.00000000 </v>
     <v>       0.00000000       0.00000000       0.04561506 </v>
    </varray>
   </crystal>
   <varray name="positions" >
    <v>       0.72493212       0.41853076       0.58460437 </v>
    <v>       0.62304290       0.49327885       0.59216878 </v>
    <v>       0.70921729       0.51877103       0.50148330 </v>
    <v>       0.67756851       0.30433353       0.56179565 </v>
    <v>       0.64889501       0.40295894       0.48788831 </v>
    <v>       0.66821235       0.61719377       0.57998497 </v>
    <v>       0.67663295       0.59853755       0.41076897 </v>
    <v>       0.48720111       0.53678522       0.58344028 </v>
    <v>       0.57114976       0.37393807       0.59085039 </v>
    <v>       0.52536941       0.45403225       0.49592612 </v>
    <v>       0.62925523       0.69157942       0.48258482 </v>
    <v>       0.61906893       0.48953470       0.39874391 </v>
    <v>       0.57908710       0.58995206       0.66666297 </v>
    <v>       0.57762121       0.29106536       0.48911313 </v>
    <v>       0.48585534       0.56134664       0.74375117 </v>
    <v>       0.55705903       0.37569393       0.39556086 </v>
    <v>       0.53577851       0.46126679       0.67966597 </v>
    <v>       0.56001664       0.59741258       0.36182688 </v>
    <v>       0.58212565       0.57206557       0.49466545 </v>
    <v>       0.54255856       0.66847766       0.57204156 </v>
    <v>       0.35925356       0.59243136       0.72104492 </v>
    <v>       0.49730911       0.48107125       0.35210182 </v>
    <v>       0.48523417       0.27339808       0.40556124 </v>
    <v>       0.51067760       0.68048836       0.44662111 </v>
    <v>       0.40567880       0.48390828       0.69100088 </v>
    <v>       0.46208563       0.33904720       0.50800544 </v>
    <v>       0.44507461       0.40905550       0.60524900 </v>
    <v>       0.46031210       0.55987551       0.44913855 </v>
    <v>       0.44919728       0.64019922       0.65293709 </v>
    <v>       0.43702197       0.58926250       0.32410517 </v>
    <v>       0.42626330       0.38498786       0.39786553 </v>
    <v>       0.39323787       0.45959978       0.50166764 </v>
    <v>       0.41901573       0.64950459       0.53122454 </v>
    <v>       0.35829375       0.55341633       0.59476406 </v>
    <v>       0.36828394       0.49295475       0.37285894 </v>
    <v>       0.39064768       0.67282500       0.41034346 </v>
    <v>       0.33216500       0.57265357       0.47029470 </v>
    <v>       0.31087321       0.60003423       0.34511291 </v>
   </varray>
  </structure>
  <varray name="forces" >
   <v>       0.04900270       0.10192913       0.07575702 </v>
   <v>      -0.12160417      -0.00876974       0.09344389 </v>
   <v>      -0.01211262      -0.05735438      -0.05839058 </v>
   <v>      -0.05262354       0.04619110       0.00945678 </v>
   <v>      -0.13409477       0.04055605      -0.24808590 </v>
   <v>       0.05516872      -0.08922453      -0.00593377 </v>
   <v>       0.20869806       0.15405113      -0.07396004 </v>
   <v>       0.04842277       0.13226944      -0.04039363 </v>
   <v>      -0.05883908      -0.09533910       0.05218336 </v>
   <v>       0.02579239      -0.01136247      -0.13269779 </v>
   <v>       0.09324044       0.11062476      -0.03597210 </v>
   <v>      -0.08665454      -0.41270897       0.03545775 </v>
   <v>      -0.05107853       0.00393909       0.03602453 </v>
   <v>       0.08723858      -0.11381225       0.08425900 </v>
   <v>       0.02310114       0.07088342       0.28153034 </v>
   <v>       0.15549465       0.15019374      -0.06212734 </v>
   <v>      -0.03561141       0.03099599       0.07853102 </v>
   <v>      -0.12177963       0.02516618      -0.08250751 </v>
   <v>       0.03599603      -0.01515728      -0.04761354 </v>
   <v>      -0.11265198      -0.06023619       0.17076091 </v>
   <v>      -0.23757671       0.20647218       0.15995643 </v>
   <v>       0.10967773      -0.02963283      -0.06563966 </v>
   <v>      -0.05716002      -0.35496381      -0.32015951 </v>
   <v>      -0.04977507      -0.00332787      -0.01327369 </v>
   <v>       0.04061053      -0.14917947      -0.03580673 </v>
   <v>       0.02062832       0.03762891       0.12423419 </v>
   <v>       0.16033245       0.04151873      -0.03034154 </v>
   <v>       0.03823437       0.00368141       0.02028082 </v>
   <v>       0.14590820       0.09702278      -0.08580193 </v>
   <v>       0.03062434       0.03351857      -0.07684350 </v>
   <v>       0.02459589       0.13329628      -0.02484991 </v>
   <v>      -0.09513025      -0.03297725       0.05127639 </v>
   <v>      -0.01879264       0.06670613       0.26237643 </v>
   <v>       0.01400513       0.02162426      -0.04726281 </v>
   <v>       0.15999400      -0.01211283       0.03692179 </v>
   <v>      -0.01658902      -0.12548497       0.02503416 </v>
   <v>      -0.06995708       0.02838367       0.08206820 </v>
   <v>      -0.19473540       0.03499099      -0.19189152 </v>
  </varray>
  <varray name="stress" >
   <v>      -1.92448362      -0.13681323      -0.13113104 </v>
   <v>      -0.13681324      -1.73235256       0.33562270 </v>
   <v>      -0.13113103       0.33562271      -1.33636711 </v>
  </varray>
  <energy>
   <i name="e_fr_energy">    -80.37356404 </i>
   <i name="e_wo_entrp">    -80.37356404 </i>
   <i name="e_0_energy">      0.00000000 </i>
  </energy>
  <time name="totalsc">   25.67   26.47</time>
 </calculation>
 <calculation>
  <scstep>
   <time name="dav">    3.61    3.61</time>
   <time name="total">    3.96    3.98</time>
   <energy>
    <i name="alphaZ">    116.57520906 </i>
    <i name="ewald">  92265.19245439 </i>
    <i name="hartreedc">-130106.58245209 </i>
    <i name="XCdc">   -430.46983383 </i>
    <i name="pawpsdc">  41174.36668967 </i>
    <i name="pawaedc"> -39493.18916369 </i>
    <i name="eentropy">      0.00000000 </i>
    <i name="bandstr">  -3019.85354771 </i>
    <i name="atom">  39413.54794328 </i>
    <i name="e_fr_energy">    -80.41270091 </i>
    <i name="e_wo_entrp">    -80.41270091 </i>
    <i name="e_0_energy">    -80.41270091 </i>
   </energy>
  </scstep>
  <scstep>
   <time name="dav">    3.69    3.70</time>
   <time name="total">    4.08    4.09</time>
   <energy>
    <i name="e_fr_energy">    -80.42127295 </i>
    <i name="e_wo_entrp">    -80.42127295 </i>
    <i name="e_0_energy">    -80.42127295 </i>
   </energy>
  </scstep>
  <scstep>
   <time name="dav">    3.79    3.79</time>
   <time name="total">    4.18    4.19</time>
   <energy>
    <i name="e_fr_energy">    -80.42115253 </i>
    <i name="e_wo_entrp">    -80.42115253 </i>
    <i name="e_0_energy">    -80.42115253 </i>
   </energy>
  </scstep>
  <scstep>
   <time name="dav">    3.75    3.75</time>
   <time name="total">    4.09    4.10</time>
   <energy>
    <i name="e_fr_energy">    -80.42087997 </i>
    <i name="e_wo_entrp">    -80.42087997 </i>
    <i name="e_0_energy">    -80.42087997 </i>
   </energy>
  </scstep>
  <scstep>
   <time name="dav">    2.60    2.61</time>
   <time name="total">    2.83    2.83</time>
   <energy>
    <i name="alphaZ">    116.57520906 </i>
    <i name="ewald">  92265.19245439 </i>
    <i name="hartreedc">-130108.24581351 </i>
    <i name="XCdc">   -430.43110093 </i>
    <i name="pawpsdc">  41146.76396656 </i>
    <i name="pawaedc"> -39465.14193311 </i>
    <i name="eentropy">      0.00000000 </i>
    <i name="bandstr">  -3018.68161226 </i>
    <i name="atom">  39413.54794328 </i>
    <i name="e_fr_energy">    -80.42088651 </i>
    <i name="e_wo_entrp">    -80.42088651 </i>
    <i name="e_0_energy">    -80.42088651 </i>
   </energy>
  </scstep>
  <structure>
   <crystal>
    <varray name="basis" >
     <v>      21.92258303       0.00000000       0.00000000 </v>
     <v>       0.00000000      21.92258303       0.00000000 </v>
     <v>       0.00000000       0.00000000      21.92258303 </v>
    </varray>
    <i name="volume">  10535.98566571 </i>
    <varray name="rec_basis" >
     <v>       0.04561506       0.00000000       0.00000000 </v>
     <v>       0.00000000       0.04561506       0.00000000 </v>
     <v>       0.00000000       0.00000000       0.04561506 </v>
    </varray>
   </crystal>
   <varray name="positions" >
    <v>       0.72486106       0.41870730       0.58466263 </v>
    <v>       0.62294704       0.49317131       0.59237981 </v>
    <v>       0.70915054       0.51870014       0.50128459 </v>
    <v>       0.67752923       0.30465941       0.56185830 </v>
    <v>       0.64881023       0.40290892       0.48760683 </v>
    <v>       0.66838312       0.61697393       0.57991052 </v>
    <v>       0.67703969       0.59861214       0.41058255 </v>
    <v>       0.48728730       0.53703527       0.58329018 </v>
    <v>       0.57106423       0.37355929       0.59091179 </v>
    <v>       0.52530492       0.45399263       0.49572159 </v>
    <v>       0.62934859       0.69187103       0.48257362 </v>
    <v>       0.61913636       0.48906686       0.39875391 </v>
    <v>       0.57897489       0.59000636       0.66682183 </v>
    <v>       0.57757032       0.29087825       0.48921151 </v>
    <v>       0.48580281       0.56152361       0.74440541 </v>
    <v>       0.55733010       0.37554699       0.39537238 </v>
    <v>       0.53565916       0.46131142       0.67997242 </v>
    <v>       0.55993851       0.59750313       0.36171846 </v>
    <v>       0.58236107       0.57225058       0.49444785 </v>
    <v>       0.54246837       0.66840499       0.57230008 </v>
    <v>       0.35885564       0.59283239       0.72129784 </v>
    <v>       0.49743353       0.48097974       0.35181362 </v>
    <v>       0.48516621       0.27255511       0.40483821 </v>
    <v>       0.51063738       0.68044979       0.44660419 </v>
    <v>       0.40561737       0.48390127       0.69117637 </v>
    <v>       0.46228852       0.33888097       0.50794574 </v>
    <v>       0.44553178       0.40915564       0.60526204 </v>
    <v>       0.46037831       0.56004201       0.44917482 </v>
    <v>       0.44935292       0.64038824       0.65312046 </v>
    <v>       0.43677871       0.58935550       0.32395625 </v>
    <v>       0.42636942       0.38523346       0.39785608 </v>
    <v>       0.39295212       0.45940977       0.50185665 </v>
    <v>       0.41891985       0.64971809       0.53166502 </v>
    <v>       0.35832257       0.55342990       0.59482063 </v>
    <v>       0.36861422       0.49322520       0.37284404 </v>
    <v>       0.39057371       0.67239865       0.41039095 </v>
    <v>       0.33193656       0.57281187       0.47031283 </v>
    <v>       0.31057659       0.60001693       0.34470284 </v>
   </varray>
  </structure>
  <varray name="forces" >
   <v>       0.03997336       0.10547235       0.06215243 </v>
   <v>      -0.12650955      -0.00319283       0.07708016 </v>
   <v>      -0.02100294      -0.06414811      -0.04841451 </v>
   <v>      -0.04986634       0.03285184       0.00981947 </v>
   <v>      -0.11699516       0.02557436      -0.20436040 </v>
   <v>       0.03683120      -0.08407909      -0.00496121 </v>
   <v>       0.15386454       0.12646813      -0.07316783 </v>
   <v>       0.05389516       0.11973422      -0.03972558 </v>
   <v>      -0.05565966      -0.06711781       0.05128902 </v>
   <v>       0.01871142      -0.00229275      -0.12142613 </v>
   <v>       0.07580486       0.08495386      -0.02582846 </v>
   <v>      -0.07563252      -0.31478115       0.02024374 </v>
   <v>      -0.04998990      -0.00549248       0.04010614 </v>
   <v>       0.06828881      -0.11908054       0.04860026 </v>
   <v>       0.00246549       0.06461571       0.24018749 </v>
[...]
       <r>     0.3015     0.0000   245.0000 </r>
       <r>     0.3420     0.0000   245.0000 </r>
       <r>     0.3825     0.0000   245.0000 </r>
       <r>     0.4230     0.0000   245.0000 </r>
       <r>     0.4635     0.0000   246.0000 </r>
       <r>     0.5040     0.0000   246.0000 </r>
       <r>     0.5445     0.0000   246.0000 </r>
       <r>     0.5850     0.0000   247.0000 </r>
       <r>     0.6255     0.0000   247.0000 </r>
       <r>     0.6660     0.0000   248.0000 </r>
       <r>     0.7065     0.0000   248.0000 </r>
       <r>     0.7471     0.0000   248.0000 </r>
       <r>     0.7876     0.0000   249.0000 </r>
       <r>     0.8281     0.0000   251.0000 </r>
       <r>     0.8686     0.0000   251.0000 </r>
       <r>     0.9091     0.0000   252.0000 </r>
       <r>     0.9496     0.0000   253.0000 </r>
       <r>     0.9901     0.0000   254.0000 </r>
       <r>     1.0306     0.0000   254.0000 </r>
       <r>     1.0711     0.0000   256.0000 </r>
       <r>     1.1116     0.0000   257.0000 </r>
       <r>     1.1521     0.0000   260.0000 </r>
       <r>     1.1926     0.0000   262.0000 </r>
       <r>     1.2331     0.0000   264.0000 </r>
       <r>     1.2736     0.0000   265.0000 </r>
       <r>     1.3141     0.0000   266.0000 </r>
       <r>     1.3546     0.0000   268.0000 </r>
       <r>     1.3951     0.0000   270.0000 </r>
       <r>     1.4356     0.0000   271.0000 </r>
       <r>     1.4761     0.0000   272.0000 </r>
       <r>     1.5166     0.0000   272.0000 </r>
       <r>     1.5572     0.0000   272.0000 </r>
       <r>     1.5977     0.0000   272.0000 </r>
       <r>     1.6382     0.0000   272.0000 </r>
       <r>     1.6787     0.0000   272.0000 </r>
       <r>     1.7192     0.0000   272.0000 </r>
       <r>     1.7597     0.0000   272.0000 </r>
       <r>     1.8002     0.0000   272.0000 </r>
       <r>     1.8407     0.0000   272.0000 </r>
       <r>     1.8812     0.0000   272.0000 </r>
       <r>     1.9217     0.0000   272.0000 </r>
       <r>     1.9622     0.0000   272.0000 </r>
       <r>     2.0027     0.0000   272.0000 </r>
      </set>
      <set comment="spin 2">
       <r>   -10.1488     0.0000     0.0000 </r>
       <r>   -10.1083     0.0000     0.0000 </r>
       <r>   -10.0678     0.0000     0.0000 </r>
       <r>   -10.0273     0.0000     0.0000 </r>
       <r>    -9.9868     0.0000     0.0000 </r>
       <r>    -9.9463     0.0000     0.0000 </r>
       <r>    -9.9058     0.0000     0.0000 </r>
       <r>    -9.8653     0.0000     0.0000 </r>
       <r>    -9.8248     0.0000     0.0000 </r>
       <r>    -9.7843     0.0000     0.0000 </r>
       <r>    -9.7438     0.0000     0.0000 </r>
       <r>    -9.7033     0.0000     0.0000 </r>
       <r>    -9.6628     0.0000     0.0000 </r>
       <r>    -9.6222     0.0000     0.0000 </r>
       <r>    -9.5817     0.0000     1.0000 </r>
       <r>    -9.5412     0.0000     1.0000 </r>
       <r>    -9.5007     0.0000     1.0000 </r>
       <r>    -9.4602     0.0000     1.0000 </r>
       <r>    -9.4197     0.0000     1.0000 </r>
       <r>    -9.3792     0.0000     1.0000 </r>
       <r>    -9.3387     0.0000     1.0000 </r>
       <r>    -9.2982     0.0000     1.0000 </r>
       <r>    -9.2577     0.0000     1.0000 </r>
       <r>    -9.2172     0.0000     1.0000 </r>
       <r>    -9.1767     0.0000     1.0000 </r>
       <r>    -9.1362     0.0000     1.0000 </r>
       <r>    -9.0957     0.0000     1.0000 </r>
       <r>    -9.0552     0.0000     1.0000 </r>
       <r>    -9.0147     0.0000     2.0000 </r>
       <r>    -8.9742     0.0000     4.0000 </r>
       <r>    -8.9337     0.0000     6.0000 </r>
       <r>    -8.8932     0.0000     7.0000 </r>
       <r>    -8.8526     0.0000    10.0000 </r>
       <r>    -8.8121     0.0000    12.0000 </r>
       <r>    -8.7716     0.0000    13.0000 </r>
       <r>    -8.7311     0.0000    15.0000 </r>
       <r>    -8.6906     0.0000    16.0000 </r>
       <r>    -8.6501     0.0000    17.0000 </r>
       <r>    -8.6096     0.0000    19.0000 </r>
       <r>    -8.5691    24.6883    21.0000 </r>
       <r>    -8.5286     0.0000    23.0000 </r>
       <r>    -8.4881     0.0000    25.0000 </r>
       <r>    -8.4476     0.0000    28.0000 </r>
       <r>    -8.4071     0.0000    30.0000 </r>
       <r>    -8.3666     0.0000    32.0000 </r>
       <r>    -8.3261     0.0000    34.0000 </r>
       <r>    -8.2856     0.0000    37.0000 </r>
       <r>    -8.2451     0.0000    39.0000 </r>
       <r>    -8.2046     0.0000    41.0000 </r>
       <r>    -8.1641     0.0000    44.0000 </r>
       <r>    -8.1236     0.0000    47.0000 </r>
       <r>    -8.0831     0.0000    50.0000 </r>
       <r>    -8.0425     0.0000    51.0000 </r>
       <r>    -8.0020     0.0000    54.0000 </r>
       <r>    -7.9615     0.0000    57.0000 </r>
       <r>    -7.9210     0.0000    59.0000 </r>
       <r>    -7.8805     0.0000    61.0000 </r>
       <r>    -7.8400     0.0000    64.0000 </r>
       <r>    -7.7995     0.0000    66.0000 </r>
       <r>    -7.7590     0.0000    68.0000 </r>
       <r>    -7.7185     0.0000    72.0000 </r>
       <r>    -7.6780     0.0000    74.0000 </r>
       <r>    -7.6375     0.0000    76.0000 </r>
       <r>    -7.5970     0.0000    79.0000 </r>
       <r>    -7.5565     0.0000    81.0000 </r>
       <r>    -7.5160     0.0000    84.0000 </r>
       <r>    -7.4755     0.0000    85.0000 </r>
       <r>    -7.4350     0.0000    89.0000 </r>
       <r>    -7.3945     0.0000    92.0000 </r>
       <r>    -7.3540     0.0000    94.0000 </r>
       <r>    -7.3135     0.0000    95.0000 </r>
       <r>    -7.2730     0.0000    97.0000 </r>
       <r>    -7.2324     0.0000   100.0000 </r>
       <r>    -7.1919     0.0000   103.0000 </r>
       <r>    -7.1514     0.0000   104.0000 </r>
       <r>    -7.1109     0.0000   107.0000 </r>
       <r>    -7.0704     0.0000   109.0000 </r>
       <r>    -7.0299     0.0000   112.0000 </r>
       <r>    -6.9894    24.6883   116.0000 </r>
       <r>    -6.9489    21.7944   119.8828 </r>
       <r>    -6.9084     0.0000   123.0000 </r>
       <r>    -6.8679     0.0000   126.0000 </r>
       <r>    -6.8274     0.0000   131.0000 </r>
       <r>    -6.7869     0.0000   135.0000 </r>
       <r>    -6.7464     0.0000   139.0000 </r>
       <r>    -6.7059    24.6883   142.0000 </r>
       <r>    -6.6654     0.0000   146.0000 </r>
       <r>    -6.6249     0.0000   149.0000 </r>
       <r>    -6.5844     0.0000   152.0000 </r>
       <r>    -6.5439     0.0000   157.0000 </r>
       <r>    -6.5034     0.0000   160.0000 </r>
       <r>    -6.4628     0.0000   163.0000 </r>
       <r>    -6.4223     0.0000   167.0000 </r>
       <r>    -6.3818     0.0000   171.0000 </r>
       <r>    -6.3413     0.0000   174.0000 </r>
       <r>    -6.3008    24.6883   180.0000 </r>
       <r>    -6.2603     0.0000   183.0000 </r>
       <r>    -6.2198     0.0000   185.0000 </r>
       <r>    -6.1793     0.0000   187.0000 </r>
       <r>    -6.1388     0.0000   190.0000 </r>
       <r>    -6.0983     0.0000   190.0000 </r>
       <r>    -6.0578     0.0000   192.0000 </r>
       <r>    -6.0173     0.0000   193.0000 </r>
       <r>    -5.9768     0.0000   195.0000 </r>
       <r>    -5.9363     0.0000   195.0000 </r>
       <r>    -5.8958     0.0000   195.0000 </r>
       <r>    -5.8553     0.0000   195.0000 </r>
       <r>    -5.8148     0.0000   195.0000 </r>
       <r>    -5.7743     0.0000   195.0000 </r>
       <r>    -5.7338     0.0000   196.0000 </r>
       <r>    -5.6933     0.0000   196.0000 </r>
       <r>    -5.6527     0.0000   197.0000 </r>
       <r>    -5.6122     0.0000   197.0000 </r>
       <r>    -5.5717     0.0000   197.0000 </r>
       <r>    -5.5312     0.0000   197.0000 </r>
       <r>    -5.4907     0.0000   198.0000 </r>
       <r>    -5.4502     0.0000   198.0000 </r>
       <r>    -5.4097     0.0000   199.0000 </r>
       <r>    -5.3692     0.0000   199.0000 </r>
       <r>    -5.3287     0.0000   199.0000 </r>
       <r>    -5.2882     0.0000   199.0000 </r>
       <r>    -5.2477     0.0000   200.0000 </r>
       <r>    -5.2072     0.0000   200.0000 </r>
       <r>    -5.1667     0.0000   200.0000 </r>
       <r>    -5.1262     0.0000   200.0000 </r>
       <r>    -5.0857     0.0000   200.0000 </r>
       <r>    -5.0452     0.0000   200.0000 </r>
       <r>    -5.0047     0.0000   200.0000 </r>
       <r>    -4.9642     0.0000   200.0000 </r>
       <r>    -4.9237     0.0000   200.0000 </r>
       <r>    -4.8832     0.0000   200.0000 </r>
       <r>    -4.8426     0.0000   200.0000 </r>
       <r>    -4.8021     0.0000   201.0000 </r>
       <r>    -4.7616     0.0000   201.0000 </r>
       <r>    -4.7211     0.0000   201.0000 </r>
       <r>    -4.6806     0.0000   201.0000 </r>
       <r>    -4.6401     0.0000   201.0000 </r>
       <r>    -4.5996     0.0000   201.0000 </r>
       <r>    -4.5591     0.0000   201.0000 </r>
       <r>    -4.5186     0.0000   201.0000 </r>
       <r>    -4.4781     0.0000   201.0000 </r>
       <r>    -4.4376     0.0000   201.0000 </r>
       <r>    -4.3971     0.0000   202.0000 </r>
       <r>    -4.3566     0.0000   202.0000 </r>
       <r>    -4.3161     0.0000   202.0000 </r>
       <r>    -4.2756     0.0000   202.0000 </r>
       <r>    -4.2351     0.0000   202.0000 </r>
       <r>    -4.1946     0.0000   203.0000 </r>
       <r>    -4.1541     0.0000   203.0000 </r>
       <r>    -4.1136     0.0000   203.0000 </r>
       <r>    -4.0731     0.0000   204.0000 </r>
       <r>    -4.0325     0.0000   204.0000 </r>
       <r>    -3.9920     0.0000   205.0000 </r>
       <r>    -3.9515     0.0000   206.0000 </r>
       <r>    -3.9110     0.0000   206.0000 </r>
       <r>    -3.8705     0.0000   206.0000 </r>
       <r>    -3.8300     0.0000   206.0000 </r>
       <r>    -3.7895     0.0000   206.0000 </r>
       <r>    -3.7490     0.0000   207.0000 </r>
       <r>    -3.7085     0.0000   208.0000 </r>
       <r>    -3.6680     0.0000   208.0000 </r>
       <r>    -3.6275     0.0000   208.0000 </r>
       <r>    -3.5870     0.0000   208.0000 </r>
       <r>    -3.5465     0.0000   208.0000 </r>
       <r>    -3.5060     0.0000   208.0000 </r>
       <r>    -3.4655     0.0000   208.0000 </r>
       <r>    -3.4250     0.0000   209.0000 </r>
       <r>    -3.3845     0.0000   209.0000 </r>
       <r>    -3.3440     0.0000   209.0000 </r>
       <r>    -3.3035     0.0000   209.0000 </r>
       <r>    -3.2629     0.0000   209.0000 </r>
       <r>    -3.2224     0.0000   209.0000 </r>
       <r>    -3.1819     0.0000   209.0000 </r>
       <r>    -3.1414     0.0000   210.0000 </r>
       <r>    -3.1009     0.0000   211.0000 </r>
       <r>    -3.0604     0.0000   211.0000 </r>
       <r>    -3.0199     0.0000   211.0000 </r>
       <r>    -2.9794     0.0000   211.0000 </r>
       <r>    -2.9389     0.0000   211.0000 </r>
       <r>    -2.8984     0.0000   212.0000 </r>
       <r>    -2.8579     0.0000   212.0000 </r>
       <r>    -2.8174     0.0000   212.0000 </r>
       <r>    -2.7769     0.0000   212.0000 </r>
       <r>    -2.7364     0.0000   212.0000 </r>
       <r>    -2.6959     0.0000   212.0000 </r>
       <r>    -2.6554     0.0000   212.0000 </r>
       <r>    -2.6149     0.0000   212.0000 </r>
       <r>    -2.5744     0.0000   212.0000 </r>
       <r>    -2.5339     0.0000   212.0000 </r>
       <r>    -2.4934     0.0000   213.0000 </r>
       <r>    -2.4528     0.0000   214.0000 </r>
       <r>    -2.4123     0.0000   214.0000 </r>
       <r>    -2.3718     0.0000   214.0000 </r>
       <r>    -2.3313     0.0000   214.0000 </r>
       <r>    -2.2908     0.0000   215.0000 </r>
       <r>    -2.2503     0.0000   215.0000 </r>
       <r>    -2.2098     0.0000   215.0000 </r>
       <r>    -2.1693     0.0000   216.0000 </r>
       <r>    -2.1288     0.0000   218.0000 </r>
       <r>    -2.0883     0.0000   218.0000 </r>
       <r>    -2.0478     0.0000   219.0000 </r>
       <r>    -2.0073     0.0000   219.0000 </r>
       <r>    -1.9668     0.0000   220.0000 </r>
       <r>    -1.9263     0.0000   220.0000 </r>
       <r>    -1.8858     0.0000   221.0000 </r>
       <r>    -1.8453     0.0000   221.0000 </r>
       <r>    -1.8048     0.0000   221.0000 </r>
       <r>    -1.7643     0.0000   221.0000 </r>
       <r>    -1.7238     0.0000   222.0000 </r>
       <r>    -1.6833     0.0000   223.0000 </r>
       <r>    -1.6427     0.0000   223.0000 </r>
       <r>    -1.6022     0.0000   223.0000 </r>
       <r>    -1.5617     0.0000   224.0000 </r>
       <r>    -1.5212     0.0000   225.0000 </r>
       <r>    -1.4807     0.0000   225.0000 </r>
       <r>    -1.4402     0.0000   226.0000 </r>
       <r>    -1.3997     0.0000   226.0000 </r>
       <r>    -1.3592     0.0000   226.0000 </r>
       <r>    -1.3187     0.0000   226.0000 </r>
       <r>    -1.2782     0.0000   227.0000 </r>
       <r>    -1.2377     0.0000   227.0000 </r>
       <r>    -1.1972     0.0000   227.0000 </r>
       <r>    -1.1567     0.0000   227.0000 </r>
       <r>    -1.1162     0.0000   227.0000 </r>
       <r>    -1.0757     0.0000   227.0000 </r>
       <r>    -1.0352     0.0000   227.0000 </r>
       <r>    -0.9947     0.0000   227.0000 </r>
       <r>    -0.9542     0.0000   227.0000 </r>
       <r>    -0.9137     0.0000   227.0000 </r>
       <r>    -0.8732     0.0000   228.0000 </r>
       <r>    -0.8326     0.0000   228.0000 </r>
       <r>    -0.7921     0.0000   229.0000 </r>
       <r>    -0.7516     0.0000   230.0000 </r>
       <r>    -0.7111     0.0000   230.0000 </r>
       <r>    -0.6706     0.0000   230.0000 </r>
       <r>    -0.6301     0.0000   230.0000 </r>
       <r>    -0.5896     0.0000   231.0000 </r>
       <r>    -0.5491     0.0000   233.0000 </r>
       <r>    -0.5086     0.0000   233.0000 </r>
       <r>    -0.4681     0.0000   233.0000 </r>
       <r>    -0.4276     0.0000   233.0000 </r>
       <r>    -0.3871     0.0000   234.0000 </r>
       <r>    -0.3466     0.0000   235.0000 </r>
       <r>    -0.3061     0.0000   235.0000 </r>
       <r>    -0.2656     0.0000   235.0000 </r>
       <r>    -0.2251     0.0000   237.0000 </r>
       <r>    -0.1846     0.0000   237.0000 </r>
       <r>    -0.1441     0.0000   237.0000 </r>
       <r>    -0.1036     0.0000   238.0000 </r>
       <r>    -0.0630     0.0000   239.0000 </r>
       <r>    -0.0225     0.0000   239.0000 </r>
       <r>     0.0180     0.0000   241.0000 </r>
       <r>     0.0585     0.0000   241.0000 </r>
       <r>     0.0990     0.0000   242.0000 </r>
       <r>     0.1395     0.0000   242.0000 </r>
       <r>     0.1800     0.0000   242.0000 </r>
       <r>     0.2205     0.0000   243.0000 </r>
       <r>     0.2610     0.0000   244.0000 </r>
       <r>     0.3015     0.0000   245.0000 </r>
       <r>     0.3420     0.0000   245.0000 </r>
       <r>     0.3825     0.0000   245.0000 </r>
       <r>     0.4230     0.0000   245.0000 </r>
       <r>     0.4635     0.0000   246.0000 </r>
       <r>     0.5040     0.0000   246.0000 </r>
       <r>     0.5445     0.0000   246.0000 </r>
       <r>     0.5850     0.0000   247.0000 </r>
       <r>     0.6255     0.0000   247.0000 </r>
       <r>     0.6660     0.0000   248.0000 </r>
       <r>     0.7065     0.0000   248.0000 </r>
       <r>     0.7471     0.0000   248.0000 </r>
       <r>     0.7876     0.0000   249.0000 </r>
       <r>     0.8281     0.0000   251.0000 </r>
       <r>     0.8686     0.0000   251.0000 </r>
       <r>     0.9091     0.0000   252.0000 </r>
       <r>     0.9496     0.0000   253.0000 </r>
       <r>     0.9901     0.0000   254.0000 </r>
       <r>     1.0306     0.0000   254.0000 </r>
       <r>     1.0711     0.0000   256.0000 </r>
       <r>     1.1116     0.0000   257.0000 </r>
       <r>     1.1521     0.0000   260.0000 </r>
       <r>     1.1926     0.0000   262.0000 </r>
       <r>     1.2331     0.0000   264.0000 </r>
       <r>     1.2736     0.0000   265.0000 </r>
       <r>     1.3141     0.0000   266.0000 </r>
       <r>     1.3546     0.0000   268.0000 </r>
       <r>     1.3951     0.0000   270.0000 </r>
       <r>     1.4356     0.0000   271.0000 </r>
       <r>     1.4761     0.0000   272.0000 </r>
       <r>     1.5166     0.0000   272.0000 </r>
       <r>     1.5572     0.0000   272.0000 </r>
       <r>     1.5977     0.0000   272.0000 </r>
       <r>     1.6382     0.0000   272.0000 </r>
       <r>     1.6787     0.0000   272.0000 </r>
       <r>     1.7192     0.0000   272.0000 </r>
       <r>     1.7597     0.0000   272.0000 </r>
       <r>     1.8002     0.0000   272.0000 </r>
       <r>     1.8407     0.0000   272.0000 </r>
       <r>     1.8812     0.0000   272.0000 </r>
       <r>     1.9217     0.0000   272.0000 </r>
       <r>     1.9622     0.0000   272.0000 </r>
       <r>     2.0027     0.0000   272.0000 </r>
      </set>
     </set>
    </array>
   </total>
  </dos>
 </calculation>
 <structure name="finalpos" >
  <crystal>
   <varray name="basis" >
    <v>      21.92258303       0.00000000       0.00000000 </v>
    <v>       0.00000000      21.92258303       0.00000000 </v>
    <v>       0.00000000       0.00000000      21.92258303 </v>
   </varray>
   <i name="volume">  10535.98566571 </i>
   <varray name="rec_basis" >
    <v>       0.04561506       0.00000000       0.00000000 </v>
    <v>       0.00000000       0.04561506       0.00000000 </v>
    <v>       0.00000000       0.00000000       0.04561506 </v>
   </varray>
  </crystal>
  <varray name="positions" >
   <v>       0.71853818       0.42304443       0.58589777 </v>
   <v>       0.61502852       0.49323363       0.59059807 </v>
   <v>       0.70509819       0.51679928       0.49781232 </v>
   <v>       0.67452051       0.30677275       0.56469033 </v>
   <v>       0.64632381       0.40056277       0.48466047 </v>
   <v>       0.66637025       0.61153136       0.58148838 </v>
   <v>       0.67859605       0.59905563       0.40506561 </v>
   <v>       0.48977053       0.53940889       0.57876796 </v>
   <v>       0.56874742       0.37277885       0.59104853 </v>
   <v>       0.52348263       0.45393402       0.48852838 </v>
   <v>       0.63101885       0.69006338       0.48348737 </v>
   <v>       0.62143123       0.48633391       0.39473323 </v>
   <v>       0.57661598       0.58912715       0.67292533 </v>
   <v>       0.57870657       0.28642416       0.48783485 </v>
   <v>       0.48411780       0.56598113       0.75739656 </v>
   <v>       0.56192624       0.37303995       0.39061316 </v>
   <v>       0.53493732       0.46485503       0.68568067 </v>
   <v>       0.55918821       0.59931627       0.36048949 </v>
   <v>       0.58406092       0.57155382       0.48868906 </v>
   <v>       0.54344849       0.66406946       0.57408736 </v>
   <v>       0.35527231       0.59802825       0.72259320 </v>
   <v>       0.50119977       0.48222078       0.34852186 </v>
   <v>       0.48618100       0.27165668       0.40073766 </v>
   <v>       0.51012813       0.68029924       0.44899302 </v>
   <v>       0.40990582       0.49066117       0.69204101 </v>
   <v>       0.46568967       0.33763331       0.50999968 </v>
   <v>       0.44961967       0.41498376       0.60422822 </v>
   <v>       0.45959796       0.56087908       0.44917725 </v>
   <v>       0.45232518       0.63606269       0.65680591 </v>
   <v>       0.43823867       0.59031094       0.32019362 </v>
   <v>       0.43321765       0.38816837       0.40025117 </v>
   <v>       0.39006379       0.45930523       0.50349077 </v>
   <v>       0.41780541       0.65111721       0.53597128 </v>
   <v>       0.35932702       0.55293582       0.59526482 </v>
   <v>       0.37345913       0.49515302       0.37525322 </v>
   <v>       0.38958311       0.66534219       0.41213502 </v>
   <v>       0.32810521       0.57168671       0.47272015 </v>
   <v>       0.30962570       0.59713779       0.34055208 </v>
  </varray>
 </structure>
</modeling>
