   41   41 1000    2
  0.3108817E+03  0.2335929E-08  0.2335929E-08  0.2335929E-08  0.1000000E-15
  1.000000000000000E-004
  CAR 
 unknown system                          
    451      1    292
 
  0.0000000E+00  0.0000000E+00  0.0000000E+00  0.1000000E+01
    1       -9.703398     -9.690220
    2       -9.249187     -9.236113
    3       -9.175056     -9.166992
    4       -9.135717     -9.126564
    5       -9.093041     -9.086779
    6       -9.072894     -9.064978
    7       -9.030995     -9.018558
    8       -9.015161     -9.007843
    9       -8.994391     -8.986880
   10       -8.975029     -8.968891
   11       -8.947805     -8.938582
   12       -8.917586     -8.908055
   13       -8.892193     -8.881518
   14       -8.870499     -8.862456
   15       -8.849092     -8.839982
   16       -8.828167     -8.819014
   17       -8.796243     -8.784908
   18       -8.776614     -8.766523
   19       -8.730106     -8.717481
   20       -8.721878     -8.711207
   21       -8.696787     -8.685893
   22       -8.677926     -8.669969
   23       -8.660597     -8.650109
   24       -8.623720     -8.613198
   25       -8.598823     -8.590098
   26       -8.590003     -8.579800
   27       -8.573958     -8.565105
   28       -8.556470     -8.547516
   29       -8.545849     -8.536250
   30       -8.524262     -8.516392
   31       -8.510648     -8.501355
   32       -8.492919     -8.485101
   33       -8.473909     -8.465723
   34       -8.465132     -8.455192
   35       -8.439128     -8.431910
   36       -8.428708     -8.420498
   37       -8.418723     -8.412049
   38       -8.396152     -8.387600
   39       -8.383171     -8.375501
   40       -8.355680     -8.345810
   41       -8.341820     -8.334549
   42       -8.322700     -8.315343
   43       -8.304679     -8.295052
   44       -8.291982     -8.282693
   45       -8.280678     -8.272378
   46       -8.248974     -8.240486
   47       -8.239448     -8.231121
   48       -8.221704     -8.213596
   49       -8.214177     -8.205451
   50       -8.186204     -8.176998
   51       -8.172823     -8.165817
   52       -8.152205     -8.143741
   53       -8.150093     -8.141728
   54       -8.132818     -8.124782
   55       -8.104688     -8.098608
   56       -8.098863     -8.092290
   57       -8.082942     -8.075120
   58       -8.069462     -8.062224
   59       -8.056496     -8.047830
   60       -8.051660     -8.042636
   61       -8.038637     -8.029634
   62       -8.023501     -8.016094
   63       -7.995460     -7.988287
   64       -7.991048     -7.983330
   65       -7.984058     -7.977059
   66       -7.965929     -7.955025
   67       -7.941512     -7.934376
   68       -7.928484     -7.921171
   69       -7.918519     -7.910109
   70       -7.902605     -7.893334
   71       -7.868003     -7.859336
   72       -7.861110     -7.853820
   73       -7.847147     -7.839607
   74       -7.827727     -7.819509
   75       -7.810009     -7.802621
   76       -7.795103     -7.786746
   77       -7.784772     -7.776885
   78       -7.775210     -7.766888
   79       -7.760755     -7.753916
   80       -7.726334     -7.719344
   81       -7.719390     -7.711689
   82       -7.704582     -7.696528
   83       -7.695768     -7.686080
   84       -7.669047     -7.659837
   85       -7.659624     -7.651166
   86       -7.659117     -7.650768
   87       -7.612665     -7.605610
   88       -7.603943     -7.596071
   89       -7.595959     -7.589103
   90       -7.576958     -7.568590
   91       -7.556971     -7.550626
   92       -7.546339     -7.538376
   93       -7.516149     -7.508695
   94       -7.504172     -7.494484
   95       -7.490250     -7.481232
   96       -7.472382     -7.464702
   97       -7.470437     -7.462867
   98       -7.457847     -7.449930
   99       -7.437586     -7.428988
  100       -7.414624     -7.406290
  101       -7.386599     -7.377690
  102       -7.376980     -7.369603
  103       -7.363459     -7.354872
  104       -7.352075     -7.344818
  105       -7.335426     -7.327036
  106       -7.315405     -7.308291
  107       -7.306805     -7.297535
  108       -7.294089     -7.286844
  109       -7.289191     -7.280757
  110       -7.279795     -7.272392
  111       -7.260454     -7.253530
  112       -7.246644     -7.238069
  113       -7.241160     -7.234129
  114       -7.211463     -7.204973
  115       -7.190113     -7.183012
  116       -7.179809     -7.172167
  117       -7.170622     -7.163437
  118       -7.165629     -7.159242
  119       -7.145285     -7.139034
  120       -7.134774     -7.127724
  121       -7.118484     -7.112513
  122       -7.108967     -7.101634
  123       -7.092223     -7.083382
  124       -7.079233     -7.072634
  125       -7.055280     -7.048323
  126       -7.046445     -7.039321
  127       -7.034829     -7.028814
  128       -7.032472     -7.026963
  129       -7.028142     -7.021944
  130       -7.013128     -7.007181
  131       -7.005163     -6.998445
  132       -6.997354     -6.991445
  133       -6.994582     -6.987320
  134       -6.970155     -6.963879
  135       -6.955575     -6.948900
  136       -6.948045     -6.940762
  137       -6.941773     -6.935171
  138       -6.930071     -6.923091
  139       -6.927245     -6.921214
  140       -6.911000     -6.904978
  141       -6.898421     -6.892369
  142       -6.897311     -6.891289
  143       -6.892322     -6.884437
  144       -6.866367     -6.860127
  145       -6.855276     -6.846784
  146       -6.847815     -6.840454
  147       -6.841524     -6.835036
  148       -6.833709     -6.826743
  149       -6.819277     -6.813310
  150       -6.816006     -6.808917
  151       -6.810548     -6.803786
  152       -6.794113     -6.787469
  153       -6.783294     -6.775615
  154       -6.780820     -6.774451
  155       -6.764754     -6.755964
  156       -6.757101     -6.748749
  157       -6.743846     -6.737779
  158       -6.737939     -6.732228
  159       -6.728409     -6.721805
  160       -6.713465     -6.706348
  161       -6.707136     -6.701376
  162       -6.704702     -6.697070
  163       -6.688148     -6.681203
  164       -6.673251     -6.666060
  165       -6.662266     -6.653928
  166       -6.645985     -6.639525
  167       -6.636187     -6.627946
  168       -6.622257     -6.616997
  169       -6.620049     -6.612720
  170       -6.610918     -6.604192
  171       -6.603293     -6.595540
  172       -6.591488     -6.584125
  173       -6.581330     -6.574527
  174       -6.570842     -6.564101
  175       -6.553831     -6.548238
  176       -6.542306     -6.533708
  177       -6.530863     -6.523032
  178       -6.516987     -6.510675
  179       -6.508554     -6.499900
  180       -6.502382     -6.496288
  181       -6.493935     -6.487592
  182       -6.481156     -6.476017
  183       -6.476461     -6.470323
  184       -6.464801     -6.458639
  185       -6.445137     -6.439541
  186       -6.429040     -6.422690
  187       -6.423315     -6.416779
  188       -6.400272     -6.393209
  189       -6.393675     -6.387854
  190       -6.386530     -6.380059
  191       -6.381605     -6.376107
  192       -6.362955     -6.357372
  193       -6.349935     -6.340322
  194       -6.340134     -6.333691
  195       -6.335096     -6.326985
  196       -6.327135     -6.321576
  197       -6.317930     -6.310054
  198       -6.308814     -6.302142
  199       -6.305384     -6.298000
  200       -6.278977     -6.273060
  201       -6.270077     -6.264726
  202       -6.259955     -6.250820
  203       -6.225501     -6.219396
  204       -6.207333     -6.200645
  205       -6.193842     -6.187114
  206       -6.168529     -6.159612
  207       -6.149722     -6.142369
  208       -6.140765     -6.130566
  209       -6.106050     -6.099153
  210       -6.088144     -6.079690
  211       -6.049463     -6.034146
  212       -5.979481     -5.969907
  213       -5.695944     -5.682166
  214       -5.600943     -5.582863
  215       -5.183245     -5.161865
  216       -4.892688     -4.875321
  217       -4.837307     -4.801304
  218       -4.729577     -4.711449
  219       -4.591025     -4.566444
  220       -4.405606     -4.386542
  221       -4.189095     -4.168536
  222       -4.088519     -4.067895
  223       -3.781571     -3.767819
  224       -3.588120     -3.570509
  225       -3.496941     -3.476561
  226       -3.424248     -3.346754
  227       -3.181611     -3.151281
  228       -3.002212     -2.983031
  229       -2.778524     -2.758667
  230       -2.728006     -2.702871
  231       -2.704431     -2.686638
  232       -2.617986     -2.600523
  233       -2.566469     -2.540940
  234       -2.338422     -2.317052
  235       -2.209955     -2.187959
  236       -2.111221     -2.091166
  237       -1.957286     -1.938963
  238       -1.852220     -1.828096
  239       -1.735464     -1.715749
  240       -1.681406     -1.653963
  241       -1.557045     -1.512320
  242       -1.484300     -1.457964
  243       -1.346515     -1.316570
  244       -1.222050     -1.201558
  245       -1.157085     -1.135308
  246       -1.126846     -1.109070
  247       -1.054294     -1.034182
  248       -1.005025     -0.977954
  249       -0.907278     -0.877823
  250       -0.823073     -0.802045
  251       -0.773483     -0.751378
  252       -0.653923     -0.637033
  253       -0.573191     -0.550443
  254       -0.514471     -0.494976
  255       -0.391199     -0.358794
  256       -0.325518     -0.300600
  257       -0.214030     -0.186648
  258       -0.088602     -0.064562
  259       -0.005074      0.019858
  260        0.067569      0.104096
  261        0.125403      0.149334
  262        0.188093      0.221249
  263        0.236930      0.266930
  264        0.312031      0.339265
  265        0.410357      0.429589
  266        0.457602      0.469245
  267        0.551102      0.567091
  268        0.613040      0.628962
  269        0.654694      0.666554
  270        0.677700      0.702000
  271        0.732974      0.749946
  272        0.771552      0.775524
  273        0.815711      0.834552
  274        0.848237      0.849145
  275        0.854572      0.882722
  276        0.904065      0.915265
  277        0.944269      0.950359
  278        0.957720      0.973849
  279        0.971576      0.990868
  280        0.984235      0.996998
  281        1.001518      1.011815
  282        1.007375      1.032665
  283        1.029849      1.049715
  284        1.052261      1.068612
  285        1.080267      1.089473
  286        1.102528      1.126053
  287        1.127574      1.129485
  288        1.174705      1.200690
  289        1.201292      1.212202
  290        1.224950      1.227712
  291        1.230116      1.250294
  292        1.271907      1.288732
