10
Energy = -51.12720742 eV
B 9.674777122453813 10.359617029440624 6.612493446240983
B 10.284284529448351 9.065719554987096 7.11266376159986
B 9.499688230998666 7.9357638758928175 7.9345944674518245
B 8.66541211381544 6.821290364714913 8.715354383292652
B 8.627706420830968 9.371654294800999 7.339543456747623
B 7.265747237281221 6.461018246044345 7.944259719885508
B 7.442812720003942 7.337234130848349 9.668911355353272
B 6.002822978073538 7.374853484943416 7.809710705704948
B 7.67567751537136 8.296808220206065 8.09989150732297
B 6.172835611481718 8.11242650395806 9.175662640506616
