11
Energy = -55.23589328 eV
B 8.963215011682422 5.243098924054397 5.3276344083289535
B 7.561892469187958 10.153966979371216 10.958249014105935
B 6.562078661303153 10.442342300272673 9.836558063528898
B 7.656317602528576 9.078951620042512 9.834717950594769
B 7.787200027392776 7.998524840579791 8.569202808187754
B 8.575736372723753 6.096576930388385 6.6138278344124615
B 6.4775148344344 8.434550710930102 7.419827433675285
B 9.443581678368723 4.494372237771529 4.054570460005743
B 7.409779903023775 7.261618933474946 7.030740706013302
B 8.710961399685198 6.809788573860114 7.997323535314652
B 6.366919474610553 9.532756921807369 8.58363239980165
