17
Energy = -94.54976657 eV
B 8.106704033766617 6.927697467257933 10.762301037613739
B 8.676784351425631 5.157567661810637 10.108162586189158
B 9.472706034194816 6.131900504529878 11.01248209046034
B 7.214496574386832 7.685196971648115 9.656266500270004
B 7.836204340154854 6.097548175054218 9.142465639892606
B 7.294017846786937 9.01523556335747 8.68915351731185
B 9.587240172793726 6.801529081681971 9.49833538241405
B 8.447992968350205 10.37599029754709 8.569605613928116
B 7.237156997492083 9.860353601025881 7.287408813943033
B 10.05853698444712 8.006945968290859 8.4967300347392
B 8.428145911282916 7.452978813760797 8.402596119088262
B 8.732315824644646 8.810930450885465 7.477280313913359
B 10.085718219825505 11.149264740408226 8.197353757601878
B 10.191261354948182 9.585486933651879 8.118098391204855
B 7.637703858590609 11.361559673552721 6.998307659710379
B 8.935913283200009 11.982278284899103 7.55525791447571
B 9.024420291609623 10.29341487033102 6.850292357475273
