19
Energy = -109.60983916 eV
B 8.405330376705674 9.163371781194765 6.336254314102181
B 9.238473448890065 7.9105488186187385 6.931479470529743
B 7.933929561849772 10.477923817599821 7.151189818395154
B 10.300588387251956 6.8859017990010365 7.5973221318749165
B 7.789141013320385 11.835944391108876 8.020817201309127
B 8.500761610871969 9.069742580836893 7.9881489631602305
B 9.509729042369369 7.899555198401287 8.637832944198061
B 8.192445035734105 10.468845546727923 8.862135506767277
B 10.848729971490892 6.917370173842747 9.123113620167562
B 8.246864359257009 12.05065286369537 9.561180688978371
B 8.86509836786461 9.111412728477593 9.661894213383201
B 10.124589143678012 8.074829463044887 10.187066658992233
B 8.826618995661038 10.654727843313516 10.401928415040533
B 11.499196242405782 7.237657265990495 10.57308802719365
B 8.99366867829788 12.19085272436209 10.993910171325313
B 9.753010952348575 9.43829034030326 11.090864305317968
B 10.810224076714219 9.870983616218783 12.291994935621116
B 9.804952292276065 11.02947302438517 11.777330114005585
B 11.104074615888793 8.459342195752782 11.559874672513812
