22
Energy = -127.30765817 eV
B 9.203135862811493 9.742539117121364 6.428426104595996
B 10.26030227986369 10.216291014803305 7.498921070488118
B 11.039981200290164 10.879424536510417 8.84533514227661
B 11.732220889012519 11.443080384111578 10.153605478234436
B 8.196572477175279 8.570025363637587 6.677756261913919
B 9.782985314156141 8.480766861474379 7.600629565229401
B 10.004353192201483 11.442115653772731 10.262268960082313
B 10.498460313566534 9.114940090315649 8.876061085420684
B 11.405221836069392 9.712632826014849 10.164767081755446
B 11.229902929329766 11.135553165019891 11.629180868550542
B 8.172839402332945 7.80265829534868 8.03028481740906
B 10.426440352707415 10.869046392135711 13.148365305366672
B 9.210161031317094 7.988750078744307 9.226783491927286
B 8.352241983078544 11.544459776758812 10.67913920930557
B 9.892546493998527 8.563840673786592 10.671740572827082
B 11.421310063782498 9.701881231678353 12.916242125064356
B 8.76991887168921 9.914801711779278 10.974035710422301
B 9.379964028403789 11.291185666314153 11.954207023147006
B 8.495914415877957 9.639577661136162 8.119988782703773
B 8.240303023538434 10.622587328450955 9.448516258233614
B 11.373645547251305 8.788370777851833 11.579370962374366
B 9.884425271952736 9.508318173640049 12.087220903078224
