24
Energy = -139.93641944 eV
B 12.256614341454549 8.935736331826964 8.689610528415079
B 11.219271936372929 7.796679495920042 9.361157153445422
B 12.857922012815187 7.888436836350888 9.813264454272344
B 11.545868728076545 10.205634540594547 7.923508909098086
B 10.653701508953898 8.830348341203743 8.25540302922682
B 11.623012906984798 7.324395033220679 10.924018965435238
B 13.241608006251685 7.428671316210132 11.301030488903558
B 10.673980849307107 11.596527613361854 7.820628262061262
B 9.877333519151874 10.134487589388069 7.825880240790574
B 12.222141849009859 7.265582374543755 12.479971488971792
B 9.993475760903323 7.679434030386464 10.775201286529784
B 9.025208575155318 11.47163308021494 8.138515412184843
B 9.83085297311629 12.976682962309193 8.129271898849158
B 9.244152687857097 14.138839101141745 9.062717243080046
B 10.669818333062905 7.5725167978945676 12.400221408327095
B 8.580169838260874 8.405758200226401 10.610261492915946
B 8.405584287362348 12.700874932820591 9.112838269418745
B 9.245979329152643 8.328377554002005 12.1452446848733
B 8.234766396871581 13.921730612233967 10.238037477325207
B 7.788852491779838 9.702185668482999 10.166251563455113
B 7.867242244945772 11.18713184266997 9.583117907514971
B 8.163081417379384 9.52211353814168 11.795915936979164
B 7.670793075664276 12.520949440880054 10.7179732078589
B 7.62003511526258 10.976740951128965 11.241426875220915
