25
Energy = -146.40017131 eV
B 12.31825761548205 8.9703224441091 13.1126358995591
B 11.916751021573655 8.59791753208776 14.616204734069196
B 12.631060416599116 9.372306181874762 11.583382839392849
B 12.861675352933252 9.095657596006335 8.415325229485004
B 12.887246830086143 9.2468083059385 9.978475705366112
B 10.82909301675918 9.296795948131916 15.478373030889266
B 11.487640268390017 10.425893627022855 12.336473572257187
B 12.098886431875044 10.044400858014997 7.359802344886231
B 11.161281956062066 9.884831303173362 13.975680646064578
B 12.36283736015579 10.543504630499383 9.04051569303176
B 9.857924024047291 10.502868277663001 15.035745832665512
B 12.07635021641049 10.694312117406804 10.703911464400687
B 10.285837066423207 11.189937957188747 13.38992491642117
B 8.933080031164929 11.572097196647439 14.318834102037586
B 11.632291737984511 11.651701337571406 7.9643945288492
B 11.81913470461606 12.001483131114044 9.606121915910128
B 10.352337105227624 11.745090171407393 11.849329778270945
B 9.022366632706971 12.19078201807018 12.858624046642152
B 11.042671860063065 10.94061657682583 6.583283232177712
B 10.379969045574876 12.436726406721455 8.817543335277241
B 10.546158740550267 12.604173458619764 10.465574547319502
B 9.115569129278116 12.716334380593194 11.277510479893552
B 10.056901284891088 12.06552018132669 7.1791723603133955
B 9.017162834335839 13.01269738574682 9.663474113691233
B 8.994196578363695 12.883902237792748 8.076366912682882
