36
Energy = -204.52368679 Dir = /p/work1/plile1/GA_structures/B/36/all_candidates/45/
B 9.952216459206413 12.149657764198045 12.21541624852217
B 8.803689997911302 11.901817130332534 13.354985504855588
B 11.172479792397267 11.672064185298622 11.211676910340625
B 7.835498935215338 10.882468514907902 14.116890018441865
B 9.498045602077022 11.61497427793762 10.616618170141795
B 12.184445678557406 10.837066491027286 10.394346125939036
B 8.401506803553605 12.146779633580548 11.675340168615149
B 10.712057742131982 11.136881531988884 9.584891313905478
B 7.526110702277275 10.985242249258597 12.47951124556018
B 7.061284306170464 9.733024374921234 13.407976893476421
B 11.900570670912005 9.958893674905225 9.145615660401868
B 11.026166642624089 11.743107129528552 6.872404220199106
B 10.74687286900183 10.448193697518626 7.929225307860122
B 11.22976807319116 12.968647558641942 5.90412272750473
B 7.8753835520615905 10.891969363033969 10.742833561919582
B 7.048695841805441 9.438499249393404 11.824074002978934
B 10.398564766189628 11.832178792015382 5.316714487048275
B 10.221957697369179 10.44078713236974 6.069726253898801
B 7.370237737331205 9.552516715602545 10.137191609525049
B 11.210399033399563 8.817120836452318 8.1920779498723
B 10.403782784810888 6.61829643063895 12.088927021313124
B 10.786585343530009 7.494978596499065 10.872120768618004
B 10.06601419567698 9.028867477589813 7.040842558170911
B 11.597216723637313 8.01886266049566 9.526199207656898
B 6.716611185532566 8.161749098877142 10.720915063118035
B 11.737860534879198 6.066832970100275 11.568707624636906
B 7.487229050031247 8.175044079435242 9.21494479101432
B 12.30389769280234 6.808750510576359 10.320905315442436
B 8.277977824900255 7.910558273266335 7.830656669576025
B 9.985962913520652 8.91710982792336 5.378227848010005
B 6.591774134512616 6.877432404757305 9.82148070286761
B 8.970454548660152 7.86634616282472 6.335635518744122
B 7.254125300174759 6.700223692982996 8.399201768483511
B 9.312794281356597 7.689185865785494 4.676331819120493
B 7.870474889613185 6.637657227103752 6.84357114094718
B 8.389808082789486 6.625644916374793 5.342506271671017
