4
Energy = -17.20846181 eV
B 8.122849943266665 8.132643793156483 6.80551442669706
B 7.987794073964981 7.1167489179179855 7.949848607689972
B 7.938376631303761 7.927811457350544 9.254400785407466
B 8.072537065423665 8.944353545533948 8.111793894164576
