6
Energy = -28.40336484 eV
B 6.253540732169011 5.417557902103418 6.777726988011481
B 6.890533840024571 7.755386630951347 6.3829416521362905
B 7.807225961734392 6.4649968641864906 6.559632523233489
B 5.420258014941452 8.239072559552655 6.398175258778435
B 7.72702038213378 4.934715500167706 6.784385904498236
B 5.341171833613197 6.716491465444221 6.656317126158553
