7
Energy = -34.48587784 eV
B 7.2816994835391675 6.735076812162979 7.585719152761498
B 6.890335792397416 6.676957629427992 5.8496641572435175
B 5.364652588846066 6.341276164422018 5.4866915243454475
B 8.396855013803277 6.992632188256283 6.297184906002409
B 5.72310564124499 6.400785712130551 7.169112573731143
B 8.803760884183962 7.068159602895177 7.741483489388769
B 4.318636934792353 6.103729450604799 6.539231705571356
