 running on   64 total cores
 distrk:  each k-point on   64 cores,    1 groups
 distr:  one band on   16 cores,    4 groups
 using from now: INCAR     
 vasp.5.3.5 31Mar14 (build Feb 01 2018 12:10:03) gamma-only                     
  
 POSCAR found type information on POSCAR  Ag
 POSCAR found :  1 types and      54 ions
 scaLAPACK will be used

 ----------------------------------------------------------------------------- 
|                                                                             |
|  ADVICE TO THIS USER RUNNING 'VASP/VAMP'   (HEAR YOUR MASTER'S VOICE ...):  |
|                                                                             |
|      You have a (more or less) 'large supercell' and for larger cells       |
|      it might be more efficient to use real space projection opertators     |
|      So try LREAL= Auto  in the INCAR   file.                               |
|      Mind: At the moment your POTCAR file does not contain real space       |
|       projectors, and has to be modified,  BUT if you                       |
|      want to do an extremely  accurate calculation you might also keep the  |
|      reciprocal projection scheme          (i.e. LREAL=.FALSE.)             |
|                                                                             |
 ----------------------------------------------------------------------------- 

 LDA part: xc-table for Pade appr. of Perdew
 POSCAR, INCAR and KPOINTS ok, starting setup
 WARNING: small aliasing (wrap around) errors must be expected
 FFT: planning ...
 WAVECAR not read
 WARNING: random wavefunctions but no delay for mixing, default for NELMDL
 entering main loop
       N       E                     dE             d eps       ncg     rms          rms(c)
DAV:   1     0.535712108674E+04    0.53571E+04   -0.10131E+05  1552   0.577E+02
DAV:   2     0.147525812825E+04   -0.38819E+04   -0.34386E+04  2752   0.129E+02
DAV:   3     0.282356942811E+01   -0.14724E+04   -0.13592E+04  2072   0.922E+01
DAV:   4    -0.114022293275E+03   -0.11685E+03   -0.11169E+03  1760   0.275E+01
DAV:   5    -0.116468988873E+03   -0.24467E+01   -0.24406E+01  1720   0.460E+00    0.419E+01
DAV:   6    -0.476431132556E+02    0.68826E+02   -0.22060E+02  1568   0.170E+01    0.220E+01
DAV:   7    -0.402537279130E+02    0.73894E+01   -0.10409E+01  1664   0.496E+00    0.136E+01
DAV:   8    -0.316569426895E+02    0.85968E+01   -0.37053E+00  1648   0.359E+00    0.795E+00
DAV:   9    -0.364080323234E+02   -0.47511E+01   -0.13811E+00  1688   0.161E+00    0.581E+00
DAV:  10    -0.455907298979E+02   -0.91827E+01   -0.23652E+00  1672   0.258E+00    0.473E+00
DAV:  11    -0.639266974513E+02   -0.18336E+02   -0.62172E+00  1656   0.285E+00    0.446E+00
DAV:  12    -0.730346670623E+02   -0.91080E+01   -0.32480E+00  1656   0.215E+00    0.316E+00
DAV:  13    -0.869927239872E+02   -0.13958E+02   -0.63807E+00  1592   0.242E+00    0.310E+00
DAV:  14    -0.914108042485E+02   -0.44181E+01   -0.12481E+00  1624   0.152E+00    0.232E+00
DAV:  15    -0.992199936895E+02   -0.78092E+01   -0.26541E+00  1576   0.158E+00    0.204E+00
DAV:  16    -0.101988530094E+03   -0.27685E+01   -0.47928E-01  1656   0.126E+00    0.153E+00
DAV:  17    -0.105674786688E+03   -0.36863E+01   -0.70952E-01  1624   0.869E-01    0.111E+00
DAV:  18    -0.108825026908E+03   -0.31502E+01   -0.49555E-01  1592   0.661E-01    0.804E-01
DAV:  19    -0.110571493259E+03   -0.17465E+01   -0.15278E-01  1616   0.413E-01    0.618E-01
DAV:  20    -0.112689235521E+03   -0.21177E+01   -0.16237E-01  1600   0.403E-01    0.403E-01
DAV:  21    -0.113781137046E+03   -0.10919E+01   -0.39037E-02  1648   0.210E-01    0.293E-01
DAV:  22    -0.114330729386E+03   -0.54959E+00   -0.87555E-03  1656   0.118E-01    0.208E-01
DAV:  23    -0.114778455737E+03   -0.44773E+00   -0.65173E-03  1656   0.101E-01    0.134E-01
DAV:  24    -0.114910872612E+03   -0.13242E+00   -0.12527E-03  1408   0.543E-02    0.935E-02
DAV:  25    -0.115014257948E+03   -0.10339E+00   -0.52070E-04  1112   0.462E-02    0.678E-02
DAV:  26    -0.115093970567E+03   -0.79713E-01   -0.28015E-04  1096   0.262E-02    0.476E-02
DAV:  27    -0.115157452663E+03   -0.63482E-01   -0.18201E-04  1088   0.273E-02    0.333E-02
DAV:  28    -0.115173312784E+03   -0.15860E-01   -0.96259E-05  1056   0.211E-02    0.236E-02
DAV:  29    -0.115182752771E+03   -0.94400E-02   -0.91529E-05  1088   0.183E-02    0.162E-02
DAV:  30    -0.115187441252E+03   -0.46885E-02   -0.35214E-05  1072   0.859E-03    0.105E-02
DAV:  31    -0.115190301630E+03   -0.28604E-02   -0.20809E-05  1056   0.730E-03    0.602E-03
DAV:  32    -0.115192339378E+03   -0.20377E-02   -0.82148E-06  1008   0.441E-03    0.332E-03
DAV:  33    -0.115193673820E+03   -0.13344E-02   -0.47130E-06  1008   0.305E-03    0.199E-03
DAV:  34    -0.115194335156E+03   -0.66134E-03   -0.24558E-06   976   0.259E-03    0.126E-03
DAV:  35    -0.115194538564E+03   -0.20341E-03   -0.13761E-06  1032   0.174E-03    0.683E-04
DAV:  36    -0.115194589686E+03   -0.51122E-04   -0.50473E-07   976   0.106E-03
   1 F= -.11519459E+03 E0= -.11519459E+03  d E =-.115195E+03  mag=     0.0002
 curvature:   0.00 expect dE= 0.000E+00 dE for cont linesearch  0.000E+00
 trial: gam= 0.00000 g(F)=  0.283E-02 g(S)=  0.000E+00 ort = 0.000E+00 (trialstep = 0.100E+01)
 search vector abs. value=  0.283E-02
 bond charge predicted
       N       E                     dE             d eps       ncg     rms          rms(c)
DAV:   1    -0.115197269818E+03   -0.27313E-02   -0.19030E-01  1616   0.606E-01    0.242E-02
DAV:   2    -0.115197363659E+03   -0.93841E-04   -0.86434E-04  1568   0.568E-02
   2 F= -.11519736E+03 E0= -.11519736E+03  d E =-.277397E-02  mag=     0.0002
 ZBRENT: can't locate minimum, use default step
 trial-energy change:   -0.002774  1 .order   -0.002661   -0.002833   -0.002489
 step:   4.0000(harm=  8.2444)  dis= 0.00492  next Energy=  -115.206266 (dE=-0.117E-01)
 bond charge predicted
       N       E                     dE             d eps       ncg     rms          rms(c)
DAV:   1    -0.115203723778E+03   -0.64540E-02   -0.17187E+00  1568   0.182E+00    0.799E-02
DAV:   2    -0.115204492538E+03   -0.76876E-03   -0.77468E-03  1632   0.171E-01    0.614E-02
DAV:   3    -0.115204474151E+03    0.18387E-04   -0.12371E-04   960   0.216E-02
   3 F= -.11520447E+03 E0= -.11520447E+03  d E =-.988446E-02  mag=     0.0001
 curvature:  -2.71 expect dE=-0.380E-02 dE for cont linesearch -0.352E-02
 ZBRENT: increasing intervall
 opt :  10.0000  next Energy=  -115.212578 (dE=-0.180E-01)
 bond charge predicted
       N       E                     dE             d eps       ncg     rms          rms(c)
DAV:   1    -0.115210650199E+03   -0.61577E-02   -0.68700E+00  1560   0.365E+00    0.148E-01
DAV:   2    -0.115213722366E+03   -0.30722E-02   -0.31338E-02  1632   0.341E-01    0.109E-01
DAV:   3    -0.115213674240E+03    0.48126E-04   -0.51906E-04  1664   0.423E-02
   4 F= -.11521367E+03 E0= -.11521367E+03  d E =-.190846E-01  mag=     0.0001
 curvature:  -6.23 expect dE=-0.574E-02 dE for cont linesearch -0.198E-02
 ZBRENT: increasing intervall
 opt :  22.0000  next Energy=  -115.213407 (dE=-0.188E-01)
 bond charge predicted
       N       E                     dE             d eps       ncg     rms          rms(c)
DAV:   1    -0.115200263621E+03    0.13459E-01   -0.27444E+01  1552   0.729E+00    0.292E-01
DAV:   2    -0.115212645062E+03   -0.12381E-01   -0.12520E-01  1624   0.682E-01    0.219E-01
DAV:   3    -0.115212436768E+03    0.20829E-03   -0.20827E-03  1664   0.845E-02    0.143E-01
DAV:   4    -0.115212237039E+03    0.19973E-03   -0.93433E-04  1624   0.521E-02    0.385E-02
DAV:   5    -0.115212248675E+03   -0.11636E-04   -0.47363E-05   928   0.173E-02
   5 F= -.11521225E+03 E0= -.11521225E+03  d E =-.176590E-01  mag=     0.0001
 curvature:   0.84 expect dE= 0.271E-02 dE for cont linesearch  0.402E-03
 trial: gam= 0.00000 g(F)=  0.323E-02 g(S)=  0.000E+00 ort =-0.116E-02 (trialstep = 0.457E+01)
 search vector abs. value=  0.323E-02
 bond charge predicted
       N       E                     dE             d eps       ncg     rms          rms(c)
DAV:   1    -0.115222148680E+03   -0.99116E-02   -0.45355E+00  1544   0.295E+00    0.132E-01
DAV:   2    -0.115224172521E+03   -0.20238E-02   -0.20915E-02  1632   0.279E-01    0.956E-02
DAV:   3    -0.115224144747E+03    0.27773E-04   -0.38136E-04  1568   0.373E-02
   6 F= -.11522414E+03 E0= -.11522414E+03  d E =-.118961E-01  mag=     0.0000
 trial-energy change:   -0.011896  1 .order   -0.011662   -0.014729   -0.008595
 step:  10.9632(harm= 10.9632)  dis= 0.01651  next Energy=  -115.229931 (dE=-0.177E-01)
 bond charge predicted
       N       E                     dE             d eps       ncg     rms          rms(c)
DAV:   1    -0.115226972363E+03   -0.27998E-02   -0.89145E+00  1536   0.413E+00    0.201E-01
DAV:   2    -0.115230916299E+03   -0.39439E-02   -0.41376E-02  1624   0.389E-01    0.141E-01
DAV:   3    -0.115230858819E+03    0.57480E-04   -0.76824E-04  1664   0.521E-02
   7 F= -.11523086E+03 E0= -.11523086E+03  d E =-.186101E-01  mag=     0.0000
 curvature:  -5.48 expect dE=-0.431E-02 dE for cont linesearch -0.923E-05
 trial: gam= 0.22070 g(F)=  0.786E-03 g(S)=  0.000E+00 ort = 0.737E-04 (trialstep = 0.585E+01)
 search vector abs. value=  0.975E-03
 bond charge predicted
       N       E                     dE             d eps       ncg     rms          rms(c)
DAV:   1    -0.115234300947E+03   -0.33846E-02   -0.22264E+00  1568   0.207E+00    0.544E-02
DAV:   2    -0.115235339458E+03   -0.10385E-02   -0.10067E-02  1632   0.194E-01    0.476E-02
DAV:   3    -0.115235324815E+03    0.14643E-04   -0.12945E-04   952   0.224E-02
   8 F= -.11523532E+03 E0= -.11523532E+03  d E =-.446600E-02  mag=     0.0000
 ZBRENT: can't locate minimum, use default step
 trial-energy change:   -0.004466  1 .order   -0.004171   -0.004687   -0.003655
 step:  23.3823(harm= 26.5393)  dis= 0.02247  next Energy=  -115.241500 (dE=-0.106E-01)
 bond charge predicted
       N       E                     dE             d eps       ncg     rms          rms(c)
DAV:   1    -0.115236989451E+03   -0.16500E-02   -0.20042E+01  1536   0.621E+00    0.153E-01
DAV:   2    -0.115246266439E+03   -0.92770E-02   -0.89803E-02  1584   0.580E-01    0.145E-01
DAV:   3    -0.115246138230E+03    0.12821E-03   -0.13229E-03  1680   0.674E-02    0.113E-01
DAV:   4    -0.115245830122E+03    0.30811E-03   -0.53098E-04  1608   0.344E-02    0.527E-02
DAV:   5    -0.115245814870E+03    0.15252E-04   -0.34636E-04  1456   0.277E-02
   9 F= -.11524581E+03 E0= -.11524581E+03  d E =-.149561E-01  mag=     0.0000
 curvature: -15.76 expect dE=-0.123E-01 dE for cont linesearch -0.411E-02
 ZBRENT: increasing intervall
 opt :  58.4557  next Energy=  -115.259268 (dE=-0.284E-01)
 bond charge predicted
       N       E                     dE             d eps       ncg     rms          rms(c)
DAV:   1    -0.115217146908E+03    0.28683E-01   -0.80117E+01  1536   0.124E+01    0.307E-01
DAV:   2    -0.115254354593E+03   -0.37208E-01   -0.36234E-01  1584   0.116E+00    0.279E-01
DAV:   3    -0.115253857198E+03    0.49739E-03   -0.53822E-03  1664   0.137E-01    0.214E-01
DAV:   4    -0.115252727325E+03    0.11299E-02   -0.17643E-03  1576   0.633E-02    0.105E-01
DAV:   5    -0.115252620746E+03    0.10658E-03   -0.13579E-03  1632   0.538E-02    0.375E-02
DAV:   6    -0.115252615213E+03    0.55336E-05   -0.30995E-05   944   0.924E-03
  10 F= -.11525262E+03 E0= -.11525262E+03  d E =-.217564E-01  mag=     0.0000
 curvature: -51.57 expect dE=-0.165E+00 dE for cont linesearch -0.219E-03
 trial: gam= 4.19252 g(F)=  0.319E-02 g(S)=  0.000E+00 ort =-0.644E-04 (trialstep = 0.806E+00)
 search vector abs. value=  0.198E-01
 bond charge predicted
       N       E                     dE             d eps       ncg     rms          rms(c)
DAV:   1    -0.115254493309E+03   -0.18726E-02   -0.85397E-01  1552   0.128E+00    0.267E-02
DAV:   2    -0.115254891606E+03   -0.39830E-03   -0.38288E-03  1664   0.120E-01    0.283E-02
DAV:   3    -0.115254887886E+03    0.37192E-05   -0.46753E-05   912   0.135E-02
  11 F= -.11525489E+03 E0= -.11525489E+03  d E =-.227267E-02  mag=     0.0000
 ZBRENT: can't locate minimum, use default step
 trial-energy change:   -0.002273  1 .order   -0.002184   -0.002357   -0.002012
 step:   3.2256(harm=  5.5137)  dis= 0.01354  next Energy=  -115.260673 (dE=-0.806E-02)
 bond charge predicted
       N       E                     dE             d eps       ncg     rms          rms(c)
DAV:   1    -0.115257847107E+03   -0.29555E-02   -0.77242E+00  1536   0.385E+00    0.813E-02
DAV:   2    -0.115261366376E+03   -0.35193E-02   -0.34066E-02  1616   0.359E-01    0.894E-02
DAV:   3    -0.115261327326E+03    0.39050E-04   -0.48928E-04  1568   0.407E-02
  12 F= -.11526133E+03 E0= -.11526133E+03  d E =-.871211E-02  mag=     0.0000
 curvature: -14.26 expect dE=-0.396E-01 dE for cont linesearch -0.498E-02
 ZBRENT: increasing intervall
 opt :   8.0640  next Energy=  -115.274695 (dE=-0.221E-01)
 bond charge predicted
       N       E                     dE             d eps       ncg     rms          rms(c)
DAV:   1    -0.115258658271E+03    0.27081E-02   -0.30891E+01  1536   0.770E+00    0.171E-01
DAV:   2    -0.115272539299E+03   -0.13881E-01   -0.13528E-01  1600   0.716E-01    0.189E-01
DAV:   3    -0.115272354951E+03    0.18435E-03   -0.19419E-03  1664   0.806E-02    0.159E-01
DAV:   4    -0.115271728338E+03    0.62661E-03   -0.75465E-04  1584   0.407E-02    0.907E-02
DAV:   5    -0.115271611471E+03    0.11687E-03   -0.11575E-03  1648   0.487E-02    0.368E-02
DAV:   6    -0.115271617644E+03   -0.61722E-05   -0.13125E-05   928   0.630E-03
  13 F= -.11527162E+03 E0= -.11527162E+03  d E =-.190024E-01  mag=     0.0000
 curvature: -38.29 expect dE=-0.871E-01 dE for cont linesearch -0.749E-02
 ZBRENT: increasing intervall
 opt :  17.7407  next Energy=  -115.284270 (dE=-0.317E-01)
 bond charge predicted
       N       E                     dE             d eps       ncg     rms          rms(c)
DAV:   1    -0.115229891714E+03    0.41720E-01   -0.12369E+02  1536   0.154E+01    0.332E-01
DAV:   2    -0.115287542228E+03   -0.57651E-01   -0.55495E-01  1600   0.145E+00    0.340E-01
DAV:   3    -0.115286930264E+03    0.61196E-03   -0.80763E-03  1648   0.167E-01    0.271E-01
DAV:   4    -0.115285137089E+03    0.17932E-02   -0.18607E-03  1632   0.652E-02    0.164E-01
DAV:   5    -0.115284579079E+03    0.55801E-03   -0.34767E-03  1616   0.842E-02    0.528E-02
DAV:   6    -0.115284604986E+03   -0.25908E-04   -0.32312E-05   960   0.104E-02
  14 F= -.11528460E+03 E0= -.11528460E+03  d E =-.319898E-01  mag=     0.0000
 curvature: -64.65 expect dE=-0.138E+00 dE for cont linesearch -0.355E-02
 ZBRENT: increasing intervall
 opt :  37.0943  next Energy=  -115.286888 (dE=-0.343E-01)
 bond charge predicted
       N       E                     dE             d eps       ncg     rms          rms(c)
DAV:   1    -0.115055363898E+03    0.22922E+00   -0.49907E+02  1536   0.311E+01    0.764E-01
DAV:   2    -0.115293268278E+03   -0.23790E+00   -0.22774E+00  1632   0.294E+00    0.698E-01
DAV:   3    -0.115290437871E+03    0.28304E-02   -0.33717E-02  1664   0.346E-01    0.529E-01
DAV:   4    -0.115283705019E+03    0.67329E-02   -0.77519E-03  1632   0.133E-01    0.311E-01
DAV:   5    -0.115281824195E+03    0.18808E-02   -0.98873E-03  1600   0.143E-01    0.904E-02
DAV:   6    -0.115281924588E+03   -0.10039E-03   -0.10387E-04  1072   0.193E-02    0.546E-02
DAV:   7    -0.115281966858E+03   -0.42269E-04   -0.65847E-05   960   0.134E-02
  15 F= -.11528197E+03 E0= -.11528197E+03  d E =-.293516E-01  mag=     0.0000
 curvature: -41.53 expect dE=-0.200E+00 dE for cont linesearch -0.161E-02
 ZBRENT: bracketing found
 ZBRENT: interpolating
 opt :  28.2640  next Energy=  -115.285831 (dE=-0.332E-01)
 bond charge predicted
       N       E                     dE             d eps       ncg     rms          rms(c)
DAV:   1    -0.115241635169E+03    0.40289E-01   -0.10304E+02  1536   0.141E+01    0.302E-01
DAV:   2    -0.115290105377E+03   -0.48470E-01   -0.46340E-01  1600   0.132E+00    0.307E-01
DAV:   3    -0.115289694023E+03    0.41135E-03   -0.67829E-03  1696   0.154E-01    0.245E-01
DAV:   4    -0.115288277915E+03    0.14161E-02   -0.14914E-03  1600   0.589E-02    0.149E-01
DAV:   5    -0.115287854392E+03    0.42352E-03   -0.29571E-03  1632   0.778E-02    0.475E-02
DAV:   6    -0.115287872906E+03   -0.18514E-04   -0.27899E-05   976   0.957E-03
  16 F= -.11528787E+03 E0= -.11528787E+03  d E =-.352577E-01  mag=     0.0000
 curvature: -99.85 expect dE=-0.318E+00 dE for cont linesearch -0.885E-03
 trial: gam= 0.69154 g(F)=  0.319E-02 g(S)=  0.000E+00 ort =-0.419E-03 (trialstep = 0.630E+01)
 search vector abs. value=  0.121E-01
 bond charge predicted
       N       E                     dE             d eps       ncg     rms          rms(c)
DAV:   1    -0.115290911735E+03   -0.30573E-02   -0.31999E+01  1536   0.780E+00    0.179E-01
DAV:   2    -0.115306484082E+03   -0.15572E-01   -0.14569E-01  1616   0.739E-01    0.176E-01
DAV:   3    -0.115306370856E+03    0.11323E-03   -0.21327E-03  1664   0.851E-02    0.140E-01
DAV:   4    -0.115305900370E+03    0.47049E-03   -0.62938E-04  1616   0.378E-02    0.757E-02
DAV:   5    -0.115305825442E+03    0.74928E-04   -0.75542E-04  1648   0.396E-02
  17 F= -.11530583E+03 E0= -.11530583E+03  d E =-.179525E-01  mag=     0.0000
 ZBRENT: can't locate minimum, use default step
 trial-energy change:   -0.017953  1 .order   -0.017945   -0.018254   -0.017636
 step:  25.1916(harm=185.9652)  dis= 0.06059  next Energy=  -115.557376 (dE=-0.270E+00)
 bond charge predicted
       N       E                     dE             d eps       ncg     rms          rms(c)
DAV:   1    -0.115204544708E+03    0.10136E+00   -0.29039E+02  1536   0.236E+01    0.616E-01
DAV:   2    -0.115345806758E+03   -0.14126E+00   -0.13466E+00  1600   0.225E+00    0.532E-01
DAV:   3    -0.115344284539E+03    0.15222E-02   -0.20034E-02  1664   0.263E-01    0.400E-01
DAV:   4    -0.115340447954E+03    0.38366E-02   -0.55060E-03  1632   0.111E-01    0.209E-01
DAV:   5    -0.115339843805E+03    0.60415E-03   -0.45086E-03  1584   0.977E-02    0.628E-02
DAV:   6    -0.115339870868E+03   -0.27064E-04   -0.65064E-05  1024   0.149E-02
  18 F= -.11533987E+03 E0= -.11533987E+03  d E =-.519980E-01  mag=     0.0000
 curvature: -77.19 expect dE=-0.307E+00 dE for cont linesearch -0.775E-02
 ZBRENT: increasing intervall
 opt :  62.9791  next Energy=  -115.317245 (dE=-0.294E-01)
 bond charge predicted
       N       E                     dE             d eps       ncg     rms          rms(c)
DAV:   1    -0.114705173304E+03    0.63467E+00   -0.11974E+03  1536   0.484E+01    0.169E+00
DAV:   2    -0.115313904873E+03   -0.60873E+00   -0.59009E+00  1632   0.474E+00    0.113E+00
DAV:   3    -0.115306186415E+03    0.77185E-02   -0.92505E-02  1664   0.579E-01    0.790E-01
DAV:   4    -0.115293760400E+03    0.12426E-01   -0.17253E-02  1616   0.202E-01    0.455E-01
DAV:   5    -0.115290921870E+03    0.28385E-02   -0.13599E-02  1600   0.172E-01    0.115E-01
DAV:   6    -0.115291115354E+03   -0.19348E-03   -0.20742E-04  1088   0.305E-02    0.607E-02
DAV:   7    -0.115291220327E+03   -0.10497E-03   -0.66664E-05   992   0.159E-02    0.178E-02
DAV:   8    -0.115291273425E+03   -0.53098E-04   -0.22948E-05   976   0.742E-03
  19 F= -.11529127E+03 E0= -.11529127E+03  d E =-.340052E-02  mag=     0.0000
 curvature: 225.49 expect dE= 0.443E+01 dE for cont linesearch  0.223E+00
 ZBRENT: bracketing found
 ZBRENT: interpolating
 opt :  34.3210  next Energy=  -115.344895 (dE=-0.570E-01)
 bond charge predicted
       N       E                     dE             d eps       ncg     rms          rms(c)
DAV:   1    -0.115023918930E+03    0.26730E+00   -0.67733E+02  1536   0.362E+01    0.102E+00
DAV:   2    -0.115357285290E+03   -0.33337E+00   -0.31979E+00  1616   0.347E+00    0.839E-01
DAV:   3    -0.115353634102E+03    0.36512E-02   -0.48154E-02  1648   0.417E-01    0.624E-01
DAV:   4    -0.115345616115E+03    0.80180E-02   -0.10332E-02  1616   0.157E-01    0.358E-01
DAV:   5    -0.115343715971E+03    0.19001E-02   -0.10580E-02  1584   0.151E-01    0.931E-02
DAV:   6    -0.115343808964E+03   -0.92993E-04   -0.13275E-04  1104   0.225E-02
  20 F= -.11534381E+03 E0= -.11534381E+03  d E =-.559361E-01  mag=     0.0000
 curvature:  -5.08 expect dE=-0.313E-01 dE for cont linesearch -0.794E-04
 trial: gam= 1.79742 g(F)=  0.617E-02 g(S)=  0.000E+00 ort =-0.434E-03 (trialstep = 0.330E+01)
 search vector abs. value=  0.436E-01
 bond charge predicted
       N       E                     dE             d eps       ncg     rms          rms(c)
DAV:   1    -0.115347891747E+03   -0.41758E-02   -0.31696E+01  1536   0.773E+00    0.166E-01
DAV:   2    -0.115362944591E+03   -0.15053E-01   -0.14434E-01  1600   0.731E-01    0.168E-01
DAV:   3    -0.115362813968E+03    0.13062E-03   -0.21068E-03  1680   0.848E-02    0.136E-01
DAV:   4    -0.115362384378E+03    0.42959E-03   -0.45848E-04  1552   0.324E-02    0.804E-02
DAV:   5    -0.115362267629E+03    0.11675E-03   -0.92121E-04  1632   0.434E-02    0.254E-02
DAV:   6    -0.115362271516E+03   -0.38873E-05   -0.99556E-06   928   0.562E-03
  21 F= -.11536227E+03 E0= -.11536227E+03  d E =-.184626E-01  mag=     0.0000
 ZBRENT: can't locate minimum, use default step
 trial-energy change:   -0.018463  1 .order   -0.017612   -0.017753   -0.017470
 step:  13.1803(harm=207.2366)  dis= 0.06251  next Energy=  -115.902065 (dE=-0.558E+00)
 bond charge predicted
       N       E                     dE             d eps       ncg     rms          rms(c)
DAV:   1    -0.115264597814E+03    0.97670E-01   -0.28778E+02  1536   0.234E+01    0.610E-01
DAV:   2    -0.115405158807E+03   -0.14056E+00   -0.13469E+00  1584   0.224E+00    0.510E-01
DAV:   3    -0.115403466338E+03    0.16925E-02   -0.20108E-02  1632   0.265E-01    0.382E-01
DAV:   4    -0.115399892536E+03    0.35738E-02   -0.47553E-03  1616   0.104E-01    0.207E-01
DAV:   5    -0.115399161413E+03    0.73112E-03   -0.46122E-03  1600   0.984E-02    0.567E-02
DAV:   6    -0.115399196019E+03   -0.34606E-04   -0.59480E-05  1040   0.147E-02
  22 F= -.11539920E+03 E0= -.11539920E+03  d E =-.553871E-01  mag=     0.0000
 curvature: -79.36 expect dE=-0.384E+00 dE for cont linesearch -0.122E-01
 ZBRENT: increasing intervall
 opt :  32.9509  next Energy=  -115.396627 (dE=-0.528E-01)
 bond charge predicted
       N       E                     dE             d eps       ncg     rms          rms(c)
DAV:   1    -0.114752562284E+03    0.64660E+00   -0.11909E+03  1536   0.481E+01    0.180E+00
DAV:   2    -0.115367802557E+03   -0.61524E+00   -0.59918E+00  1600   0.476E+00    0.114E+00
DAV:   3    -0.115359771655E+03    0.80309E-02   -0.95771E-02  1632   0.593E-01    0.771E-01
DAV:   4    -0.115348091338E+03    0.11680E-01   -0.16989E-02  1616   0.203E-01    0.442E-01
DAV:   5    -0.115345617238E+03    0.24741E-02   -0.12481E-02  1600   0.166E-01    0.109E-01
DAV:   6    -0.115345791407E+03   -0.17417E-03   -0.19390E-04  1088   0.299E-02    0.589E-02
DAV:   7    -0.115345907582E+03   -0.11618E-03   -0.68794E-05  1024   0.159E-02    0.157E-02
DAV:   8    -0.115345969991E+03   -0.62409E-04   -0.19290E-05  1056   0.686E-03
  23 F= -.11534597E+03 E0= -.11534597E+03  d E =-.216103E-02  mag=     0.0000
 curvature:  16.76 expect dE= 0.319E+00 dE for cont linesearch  0.316E-01
 ZBRENT: bracketing found
 ZBRENT: interpolating
 opt :  17.5678  next Energy=  -115.404869 (dE=-0.611E-01)
 bond charge predicted
       N       E                     dE             d eps       ncg     rms          rms(c)
DAV:   1    -0.115071299514E+03    0.27461E+00   -0.70851E+02  1536   0.369E+01    0.109E+00
DAV:   2    -0.115419580294E+03   -0.34828E+00   -0.33711E+00  1584   0.356E+00    0.873E-01
DAV:   3    -0.115415364913E+03    0.42154E-02   -0.51217E-02  1680   0.436E-01    0.654E-01
DAV:   4    -0.115407396175E+03    0.79687E-02   -0.10482E-02  1600   0.160E-01    0.376E-01
DAV:   5    -0.115405520556E+03    0.18756E-02   -0.10711E-02  1600   0.153E-01    0.944E-02
DAV:   6    -0.115405626438E+03   -0.10588E-03   -0.14328E-04  1104   0.239E-02    0.538E-02
DAV:   7    -0.115405634107E+03   -0.76683E-05   -0.87783E-05   992   0.166E-02
  24 F= -.11540563E+03 E0= -.11540563E+03  d E =-.618251E-01  mag=     0.0000
 curvature:  -3.01 expect dE=-0.168E-01 dE for cont linesearch -0.106E-04
 trial: gam= 0.32629 g(F)=  0.557E-02 g(S)=  0.000E+00 ort = 0.392E-03 (trialstep = 0.615E+01)
 search vector abs. value=  0.105E-01
 bond charge predicted
       N       E                     dE             d eps       ncg     rms          rms(c)
DAV:   1    -0.115424640342E+03   -0.19014E-01   -0.26590E+01  1536   0.706E+00    0.220E-01
DAV:   2    -0.115437545967E+03   -0.12906E-01   -0.12552E-01  1584   0.681E-01    0.178E-01
DAV:   3    -0.115437421374E+03    0.12459E-03   -0.19335E-03  1664   0.831E-02    0.127E-01
DAV:   4    -0.115437153666E+03    0.26771E-03   -0.69238E-04  1568   0.418E-02    0.523E-02
DAV:   5    -0.115437169930E+03   -0.16264E-04   -0.20115E-04  1040   0.233E-02
  25 F= -.11543717E+03 E0= -.11543717E+03  d E =-.315358E-01  mag=     0.0000
 ZBRENT: can't locate minimum, use default step
 trial-energy change:   -0.031536  1 .order   -0.031482   -0.035065   -0.027899
 step:  24.5985(harm= 30.0930)  dis= 0.09439  next Energy=  -115.491429 (dE=-0.858E-01)
 bond charge predicted
       N       E                     dE             d eps       ncg     rms          rms(c)
DAV:   1    -0.115363773524E+03    0.73380E-01   -0.24059E+02  1536   0.213E+01    0.731E-01
DAV:   2    -0.115480896435E+03   -0.11712E+00   -0.11549E+00  1584   0.207E+00    0.543E-01
DAV:   3    -0.115479455043E+03    0.14414E-02   -0.18126E-02  1648   0.256E-01    0.375E-01
DAV:   4    -0.115476982998E+03    0.24720E-02   -0.63607E-03  1616   0.125E-01    0.147E-01
DAV:   5    -0.115477050002E+03   -0.67004E-04   -0.14902E-03  1632   0.616E-02    0.503E-02
DAV:   6    -0.115476991674E+03    0.58328E-04   -0.15211E-04  1040   0.184E-02
  26 F= -.11547699E+03 E0= -.11547699E+03  d E =-.713576E-01  mag=     0.0000
 curvature: -26.18 expect dE=-0.112E+00 dE for cont linesearch -0.577E-04
 trial: gam= 0.78990 g(F)=  0.428E-02 g(S)=  0.000E+00 ort =-0.152E-03 (trialstep = 0.975E+01)
 search vector abs. value=  0.106E-01
 bond charge predicted
       N       E                     dE             d eps       ncg     rms          rms(c)
DAV:   1    -0.115479227555E+03   -0.21776E-02   -0.67323E+01  1536   0.113E+01    0.278E-01
DAV:   2    -0.115512043194E+03   -0.32816E-01   -0.31578E-01  1600   0.108E+00    0.253E-01
DAV:   3    -0.115511757176E+03    0.28602E-03   -0.45938E-03  1664   0.126E-01    0.194E-01
DAV:   4    -0.115510927747E+03    0.82943E-03   -0.12063E-03  1616   0.530E-02    0.103E-01
DAV:   5    -0.115510823972E+03    0.10378E-03   -0.12828E-03  1600   0.519E-02    0.340E-02
DAV:   6    -0.115510826514E+03   -0.25423E-05   -0.25072E-05   976   0.816E-03
  27 F= -.11551083E+03 E0= -.11551083E+03  d E =-.338348E-01  mag=     0.0000
 trial-energy change:   -0.033835  1 .order   -0.034134   -0.040524   -0.027744
 step:  30.9099(harm= 30.9099)  dis= 0.09077  next Energy=  -115.541243 (dE=-0.643E-01)
 bond charge predicted
       N       E                     dE             d eps       ncg     rms          rms(c)
DAV:   1    -0.115386363406E+03    0.12446E+00   -0.31961E+02  1536   0.246E+01    0.674E-01
DAV:   2    -0.115545469986E+03   -0.15911E+00   -0.15256E+00  1600   0.238E+00    0.560E-01
DAV:   3    -0.115544311841E+03    0.11581E-02   -0.23253E-02  1696   0.284E-01    0.416E-01
DAV:   4    -0.115540577612E+03    0.37342E-02   -0.56732E-03  1584   0.114E-01    0.217E-01
DAV:   5    -0.115540090418E+03    0.48719E-03   -0.47101E-03  1600   0.999E-02    0.639E-02
DAV:   6    -0.115540100706E+03   -0.10287E-04   -0.95102E-05  1040   0.166E-02
  28 F= -.11554010E+03 E0= -.11554010E+03  d E =-.631090E-01  mag=     0.0000
 curvature: -39.30 expect dE=-0.196E+00 dE for cont linesearch -0.116E-03
 trial: gam= 1.06128 g(F)=  0.497E-02 g(S)=  0.000E+00 ort = 0.176E-03 (trialstep = 0.857E+01)
 search vector abs. value=  0.173E-01
 bond charge predicted
       N       E                     dE             d eps       ncg     rms          rms(c)
DAV:   1    -0.115534492617E+03    0.55978E-02   -0.84866E+01  1536   0.126E+01    0.315E-01
DAV:   2    -0.115575879669E+03   -0.41387E-01   -0.39545E-01  1600   0.120E+00    0.281E-01
DAV:   3    -0.115575536994E+03    0.34268E-03   -0.57554E-03  1664   0.137E-01    0.219E-01
DAV:   4    -0.115574435191E+03    0.11018E-02   -0.19090E-03  1584   0.649E-02    0.103E-01
DAV:   5    -0.115574375760E+03    0.59431E-04   -0.12613E-03  1600   0.521E-02    0.366E-02
DAV:   6    -0.115574381890E+03   -0.61298E-05   -0.31463E-05   976   0.948E-03
  29 F= -.11557438E+03 E0= -.11557438E+03  d E =-.342812E-01  mag=     0.0000
 trial-energy change:   -0.034281  1 .order   -0.035260   -0.044207   -0.026313
 step:  21.1600(harm= 21.1600)  dis= 0.11579  next Energy=  -115.594706 (dE=-0.546E-01)
 bond charge predicted
       N       E                     dE             d eps       ncg     rms          rms(c)
DAV:   1    -0.115506796222E+03    0.67580E-01   -0.18420E+02  1536   0.186E+01    0.486E-01
DAV:   2    -0.115596990450E+03   -0.90194E-01   -0.86451E-01  1600   0.178E+00    0.414E-01
DAV:   3    -0.115596184746E+03    0.80570E-03   -0.12709E-02  1648   0.204E-01    0.317E-01
DAV:   4    -0.115593850724E+03    0.23340E-02   -0.40617E-03  1600   0.946E-02    0.147E-01
DAV:   5    -0.115593691623E+03    0.15910E-03   -0.23701E-03  1616   0.714E-02    0.491E-02
DAV:   6    -0.115593697951E+03   -0.63276E-05   -0.61569E-05   992   0.134E-02
  30 F= -.11559370E+03 E0= -.11559370E+03  d E =-.535972E-01  mag=     0.0000
 curvature: -35.37 expect dE=-0.141E+00 dE for cont linesearch -0.170E-03
 trial: gam= 0.62453 g(F)=  0.399E-02 g(S)=  0.000E+00 ort = 0.288E-03 (trialstep = 0.111E+02)
 search vector abs. value=  0.111E-01
 bond charge predicted
       N       E                     dE             d eps       ncg     rms          rms(c)
DAV:   1    -0.115586497268E+03    0.71944E-02   -0.91614E+01  1536   0.130E+01    0.338E-01
DAV:   2    -0.115632213170E+03   -0.45716E-01   -0.43597E-01  1568   0.125E+00    0.284E-01
DAV:   3    -0.115631983778E+03    0.22939E-03   -0.63027E-03  1664   0.142E-01    0.217E-01
DAV:   4    -0.115630963432E+03    0.10203E-02   -0.19082E-03  1600   0.653E-02    0.992E-02
DAV:   5    -0.115630926517E+03    0.36916E-04   -0.11290E-03  1632   0.493E-02    0.346E-02
DAV:   6    -0.115630930901E+03   -0.43843E-05   -0.36185E-05   976   0.969E-03
  31 F= -.11563093E+03 E0= -.11563093E+03  d E =-.372330E-01  mag=     0.0000
 trial-energy change:   -0.037233  1 .order   -0.038243   -0.046248   -0.030238
 step:  32.0196(harm= 32.0196)  dis= 0.16694  next Energy=  -115.660497 (dE=-0.668E-01)
 bond charge predicted
       N       E                     dE             d eps       ncg     rms          rms(c)
DAV:   1    -0.115498529152E+03    0.13240E+00   -0.33060E+02  1536   0.248E+01    0.723E-01
DAV:   2    -0.115671304515E+03   -0.17278E+00   -0.16175E+00  1584   0.241E+00    0.547E-01
DAV:   3    -0.115670424331E+03    0.88018E-03   -0.24075E-02  1680   0.278E-01    0.406E-01
DAV:   4    -0.115667056313E+03    0.33680E-02   -0.55814E-03  1632   0.112E-01    0.203E-01
DAV:   5    -0.115666666327E+03    0.38999E-03   -0.36546E-03  1616   0.885E-02    0.546E-02
DAV:   6    -0.115666700671E+03   -0.34343E-04   -0.77946E-05  1056   0.163E-02
  32 F= -.11566670E+03 E0= -.11566670E+03  d E =-.730027E-01  mag=     0.0000
 curvature: -42.53 expect dE=-0.261E+00 dE for cont linesearch -0.169E-02
 trial: gam= 1.54885 g(F)=  0.613E-02 g(S)=  0.000E+00 ort = 0.663E-03 (trialstep = 0.487E+01)
 search vector abs. value=  0.348E-01
 bond charge predicted
       N       E                     dE             d eps       ncg     rms          rms(c)
DAV:   1    -0.115670765386E+03   -0.40991E-02   -0.55479E+01  1536   0.995E+00    0.235E-01
DAV:   2    -0.115698100916E+03   -0.27336E-01   -0.26546E-01  1616   0.957E-01    0.205E-01
DAV:   3    -0.115697964720E+03    0.13620E-03   -0.37774E-03  1632   0.108E-01    0.160E-01
DAV:   4    -0.115697412660E+03    0.55206E-03   -0.81832E-04  1616   0.428E-02    0.848E-02
DAV:   5    -0.115697347740E+03    0.64919E-04   -0.88960E-04  1616   0.422E-02
  33 F= -.11569735E+03 E0= -.11569735E+03  d E =-.306471E-01  mag=     0.0000
 ZBRENT: can't locate minimum, use default step
 trial-energy change:   -0.030647  1 .order   -0.032087   -0.034855   -0.029319
 step:  19.4678(harm= 30.6447)  dis= 0.21300  next Energy=  -115.776433 (dE=-0.110E+00)
 bond charge predicted
       N       E                     dE             d eps       ncg     rms          rms(c)
DAV:   1    -0.115485947997E+03    0.21146E+00   -0.51814E+02  1536   0.306E+01    0.101E+00
DAV:   2    -0.115762656546E+03   -0.27671E+00   -0.27017E+00  1616   0.305E+00    0.662E-01
DAV:   3    -0.115762223847E+03    0.43270E-03   -0.41244E-02  1664   0.354E-01    0.475E-01
DAV:   4    -0.115758430312E+03    0.37935E-02   -0.53572E-03  1616   0.114E-01    0.285E-01
DAV:   5    -0.115757399034E+03    0.10313E-02   -0.58654E-03  1616   0.109E-01    0.662E-02
DAV:   6    -0.115757523561E+03   -0.12453E-03   -0.88712E-05  1056   0.202E-02    0.360E-02
DAV:   7    -0.115757595235E+03   -0.71674E-04   -0.33895E-05  1008   0.104E-02
  34 F= -.11575760E+03 E0= -.11575760E+03  d E =-.908946E-01  mag=     0.0000
 curvature: -60.42 expect dE=-0.396E+00 dE for cont linesearch -0.258E-01
 ZBRENT: increasing intervall
 opt :  48.6694  next Energy=  -115.806869 (dE=-0.140E+00)
 bond charge predicted
       N       E                     dE             d eps       ncg     rms          rms(c)
DAV:   1    -0.114091534955E+03    0.16660E+01   -0.22853E+03  1536   0.654E+01    0.516E+00
DAV:   2    -0.115773850545E+03   -0.16823E+01   -0.16750E+01  1600   0.740E+00    0.225E+00
DAV:   3    -0.115775980572E+03   -0.21300E-02   -0.25648E-01  1680   0.944E-01    0.159E+00
DAV:   4    -0.115764485119E+03    0.11495E-01   -0.16497E-02  1664   0.211E-01    0.116E+00
DAV:   5    -0.115757958689E+03    0.65264E-02   -0.25075E-02  1584   0.239E-01    0.286E-01
DAV:   6    -0.115758294241E+03   -0.33555E-03   -0.92410E-04  1680   0.570E-02    0.115E-01
DAV:   7    -0.115758515709E+03   -0.22147E-03   -0.88641E-05  1040   0.224E-02    0.344E-02
DAV:   8    -0.115758611728E+03   -0.96019E-04   -0.27486E-05  1072   0.840E-03
  35 F= -.11575861E+03 E0= -.11575861E+03  d E =-.919111E-01  mag=     0.0000
 curvature: ****** expect dE=-0.214E+01 dE for cont linesearch -0.321E-01
 ZBRENT: bracketing found
 ZBRENT: interpolating
 opt :  35.6256  next Energy=  -115.778912 (dE=-0.112E+00)
 bond charge predicted
       N       E                     dE             d eps       ncg     rms          rms(c)
DAV:   1    -0.115565294343E+03    0.19322E+00   -0.41028E+02  1536   0.273E+01    0.821E-01
DAV:   2    -0.115785912549E+03   -0.22062E+00   -0.20789E+00  1632   0.269E+00    0.611E-01
DAV:   3    -0.115786380803E+03   -0.46825E-03   -0.31089E-02  1680   0.306E-01    0.457E-01
DAV:   4    -0.115783148426E+03    0.32324E-02   -0.46264E-03  1632   0.106E-01    0.272E-01
DAV:   5    -0.115782381605E+03    0.76682E-03   -0.53016E-03  1632   0.104E-01    0.643E-02
DAV:   6    -0.115782459479E+03   -0.77874E-04   -0.70589E-05  1040   0.185E-02
  36 F= -.11578246E+03 E0= -.11578246E+03  d E =-.115759E+00  mag=    -0.0000
 curvature: -72.87 expect dE=-0.806E+00 dE for cont linesearch -0.411E-02
 trial: gam= 1.42397 g(F)=  0.111E-01 g(S)=  0.000E+00 ort =-0.140E-02 (trialstep = 0.494E+01)
 search vector abs. value=  0.776E-01
 bond charge predicted
       N       E                     dE             d eps       ncg     rms          rms(c)
DAV:   1    -0.115759640156E+03    0.22741E-01   -0.12903E+02  1536   0.151E+01    0.401E-01
DAV:   2    -0.115828000155E+03   -0.68360E-01   -0.64107E-01  1616   0.148E+00    0.332E-01
DAV:   3    -0.115828409219E+03   -0.40906E-03   -0.96248E-03  1712   0.170E-01    0.252E-01
DAV:   4    -0.115827254622E+03    0.11546E-02   -0.18054E-03  1600   0.633E-02    0.138E-01
DAV:   5    -0.115827086342E+03    0.16828E-03   -0.18235E-03  1648   0.607E-02    0.383E-02
DAV:   6    -0.115827099944E+03   -0.13602E-04   -0.26027E-05   944   0.996E-03
  37 F= -.11582710E+03 E0= -.11582710E+03  d E =-.446405E-01  mag=    -0.0000
 ZBRENT: can't locate minimum, use default step
 trial-energy change:   -0.044640  1 .order   -0.045785   -0.044791   -0.046779
 step:  19.7539(harm= 19.7539)  dis= 0.33398  next Energy=  -115.977532 (dE=-0.195E+00)
 bond charge predicted
       N       E                     dE             d eps       ncg     rms          rms(c)
DAV:   1    -0.115055514436E+03    0.77157E+00   -0.12881E+03  1536   0.483E+01    0.273E+00
DAV:   2    -0.115890683369E+03   -0.83517E+00   -0.82882E+00  1600   0.526E+00    0.136E+00
DAV:   3    -0.115890632585E+03    0.50785E-04   -0.13766E-01  1680   0.656E-01    0.957E-01
DAV:   4    -0.115883298766E+03    0.73338E-02   -0.10574E-02  1632   0.164E-01    0.659E-01
DAV:   5    -0.115880180697E+03    0.31181E-02   -0.13745E-02  1600   0.170E-01    0.142E-01
DAV:   6    -0.115880385237E+03   -0.20454E-03   -0.29903E-04  1296   0.368E-02    0.687E-02
DAV:   7    -0.115880474124E+03   -0.88887E-04   -0.64596E-05  1040   0.173E-02
  38 F= -.11588047E+03 E0= -.11588047E+03  d E =-.980146E-01  mag=    -0.0000
 curvature: ****** expect dE=-0.207E+01 dE for cont linesearch -0.430E-02
 trial: gam= 0.92357 g(F)=  0.160E-01 g(S)=  0.000E+00 ort =-0.161E-02 (trialstep = 0.774E+01)
 search vector abs. value=  0.792E-01
 bond charge predicted
       N       E                     dE             d eps       ncg     rms          rms(c)
DAV:   1    -0.115807518092E+03    0.72867E-01   -0.33020E+02  1536   0.243E+01    0.738E-01
DAV:   2    -0.115986624144E+03   -0.17911E+00   -0.17029E+00  1648   0.244E+00    0.542E-01
DAV:   3    -0.115986122286E+03    0.50186E-03   -0.26472E-02  1680   0.293E-01    0.397E-01
DAV:   4    -0.115983426863E+03    0.26954E-02   -0.34175E-03  1632   0.893E-02    0.248E-01
DAV:   5    -0.115982541741E+03    0.88512E-03   -0.44185E-03  1616   0.947E-02    0.588E-02
DAV:   6    -0.115982640884E+03   -0.99143E-04   -0.82934E-05  1056   0.179E-02
  39 F= -.11598264E+03 E0= -.11598264E+03  d E =-.102167E+00  mag=    -0.0000
 ZBRENT: can't locate minimum, use default step
 trial-energy change:   -0.102167  1 .order   -0.102833   -0.112378   -0.093289
 step:  30.9568(harm= 45.5623)  dis= 0.48271  next Energy=  -116.211270 (dE=-0.331E+00)
 bond charge predicted
       N       E                     dE             d eps       ncg     rms          rms(c)
DAV:   1    -0.110208234382E+03    0.57743E+01   -0.34323E+03  1536   0.811E+01    0.265E+01
DAV:   2    -0.116109722341E+03   -0.59015E+01   -0.59605E+01  1664   0.121E+01    0.106E+01
DAV:   3    -0.116097685004E+03    0.12037E-01   -0.67355E-01  1616   0.232E+00    0.760E+00
DAV:   4    -0.116084373804E+03    0.13311E-01   -0.42092E-02  1680   0.332E-01    0.596E+00
DAV:   5    -0.116073539765E+03    0.10834E-01   -0.33519E-02  1600   0.278E-01    0.210E+00
DAV:   6    -0.116073316758E+03    0.22301E-03   -0.52708E-03  1680   0.212E-01    0.534E-01
DAV:   7    -0.116073560766E+03   -0.24401E-03   -0.47182E-04  1520   0.409E-02    0.189E-01
DAV:   8    -0.116073712880E+03   -0.15211E-03   -0.65729E-05  1056   0.160E-02    0.241E-02
DAV:   9    -0.116073773703E+03   -0.60823E-04   -0.90497E-06  1056   0.656E-03
  40 F= -.11607377E+03 E0= -.11607377E+03  d E =-.193300E+00  mag=     0.0000
 curvature: ****** expect dE=-0.278E+01 dE for cont linesearch -0.681E-01
 ZBRENT: interpolating
 opt :  22.3202  next Energy=  -116.104605 (dE=-0.224E+00)
 bond charge predicted
       N       E                     dE             d eps       ncg     rms          rms(c)
DAV:   1    -0.115885933220E+03    0.18778E+00   -0.41447E+02  1536   0.276E+01    0.852E-01
DAV:   2    -0.116099747342E+03   -0.21381E+00   -0.20682E+00  1632   0.269E+00    0.598E-01
DAV:   3    -0.116098465516E+03    0.12818E-02   -0.31463E-02  1680   0.316E-01    0.459E-01
DAV:   4    -0.116095377321E+03    0.30882E-02   -0.39006E-03  1616   0.103E-01    0.285E-01
DAV:   5    -0.116094359457E+03    0.10179E-02   -0.52531E-03  1616   0.106E-01    0.604E-02
DAV:   6    -0.116094435895E+03   -0.76439E-04   -0.85082E-05  1056   0.201E-02
  41 F= -.11609444E+03 E0= -.11609444E+03  d E =-.213962E+00  mag=     0.0000
 curvature: -47.91 expect dE=-0.832E+00 dE for cont linesearch -0.268E-02
 trial: gam= 0.50301 g(F)=  0.174E-01 g(S)=  0.000E+00 ort = 0.211E-02 (trialstep = 0.107E+02)
 search vector abs. value=  0.395E-01
 bond charge predicted
       N       E                     dE             d eps       ncg     rms          rms(c)
DAV:   1    -0.116091354307E+03    0.30051E-02   -0.30955E+02  1536   0.239E+01    0.819E-01
DAV:   2    -0.116250080477E+03   -0.15873E+00   -0.15632E+00  1584   0.238E+00    0.575E-01
DAV:   3    -0.116249098849E+03    0.98163E-03   -0.25538E-02  1680   0.306E-01    0.401E-01
DAV:   4    -0.116246372994E+03    0.27259E-02   -0.48126E-03  1632   0.111E-01    0.209E-01
DAV:   5    -0.116246044157E+03    0.32884E-03   -0.30319E-03  1632   0.826E-02    0.507E-02
DAV:   6    -0.116246037791E+03    0.63661E-05   -0.87679E-05  1024   0.156E-02
  42 F= -.11624604E+03 E0= -.11624604E+03  d E =-.151602E+00  mag=     0.0000
 trial-energy change:   -0.151602  1 .order   -0.152024   -0.196372   -0.107676
 step:  24.4998(harm= 23.5909)  dis= 0.16401  next Energy=  -116.315063 (dE=-0.221E+00)
 bond charge predicted
       N       E                     dE             d eps       ncg     rms          rms(c)
DAV:   1    -0.116014745410E+03    0.23130E+00   -0.53177E+02  1536   0.315E+01    0.122E+00
DAV:   2    -0.116293120198E+03   -0.27837E+00   -0.27979E+00  1616   0.319E+00    0.765E-01
DAV:   3    -0.116290605197E+03    0.25150E-02   -0.46804E-02  1632   0.420E-01    0.521E-01
DAV:   4    -0.116286473426E+03    0.41318E-02   -0.69961E-03  1664   0.138E-01    0.291E-01
DAV:   5    -0.116285808031E+03    0.66539E-03   -0.50164E-03  1584   0.107E-01    0.633E-02
DAV:   6    -0.116285844847E+03   -0.36816E-04   -0.11444E-04  1072   0.193E-02
  43 F= -.11628584E+03 E0= -.11628584E+03  d E =-.191409E+00  mag=     0.0000
 curvature: -25.18 expect dE=-0.366E+00 dE for cont linesearch -0.881E-02
 ZBRENT: interpolating
 opt :  20.7757  next Energy=  -116.292769 (dE=-0.198E+00)
 bond charge predicted
       N       E                     dE             d eps       ncg     rms          rms(c)
DAV:   1    -0.116277154722E+03    0.86533E-02   -0.36934E+01  1536   0.827E+00    0.235E-01
DAV:   2    -0.116294940696E+03   -0.17786E-01   -0.17225E-01  1632   0.791E-01    0.202E-01
DAV:   3    -0.116294815957E+03    0.12474E-03   -0.26648E-03  1696   0.976E-02    0.149E-01
DAV:   4    -0.116294461151E+03    0.35481E-03   -0.70683E-04  1600   0.429E-02    0.742E-02
DAV:   5    -0.116294471642E+03   -0.10491E-04   -0.47728E-04  1584   0.335E-02
  44 F= -.11629447E+03 E0= -.11629447E+03  d E =-.200036E+00  mag=     0.0000
 curvature: -19.80 expect dE=-0.220E+00 dE for cont linesearch -0.139E-03
 trial: gam= 0.50452 g(F)=  0.111E-01 g(S)=  0.000E+00 ort =-0.527E-03 (trialstep = 0.127E+02)
 search vector abs. value=  0.206E-01
 bond charge predicted
       N       E                     dE             d eps       ncg     rms          rms(c)
DAV:   1    -0.116286697933E+03    0.77632E-02   -0.22437E+02  1536   0.207E+01    0.628E-01
DAV:   2    -0.116394028421E+03   -0.10733E+00   -0.10594E+00  1600   0.199E+00    0.521E-01
DAV:   3    -0.116392708714E+03    0.13197E-02   -0.16501E-02  1648   0.243E-01    0.371E-01
DAV:   4    -0.116390005258E+03    0.27035E-02   -0.51498E-03  1600   0.110E-01    0.179E-01
DAV:   5    -0.116389888817E+03    0.11644E-03   -0.24916E-03  1632   0.753E-02    0.584E-02
DAV:   6    -0.116389854186E+03    0.34631E-04   -0.11562E-04   976   0.161E-02
  45 F= -.11638985E+03 E0= -.11638985E+03  d E =-.953825E-01  mag=     0.0000
 trial-energy change:   -0.095383  1 .order   -0.096651   -0.137593   -0.055709
 step:  23.0607(harm= 21.3059)  dis= 0.08308  next Energy=  -116.411964 (dE=-0.117E+00)
 bond charge predicted
       N       E                     dE             d eps       ncg     rms          rms(c)
DAV:   1    -0.116339151291E+03    0.50738E-01   -0.14978E+02  1536   0.169E+01    0.512E-01
DAV:   2    -0.116413352858E+03   -0.74202E-01   -0.70617E-01  1600   0.163E+00    0.435E-01
DAV:   3    -0.116412687561E+03    0.66530E-03   -0.11028E-02  1632   0.200E-01    0.310E-01
DAV:   4    -0.116410880961E+03    0.18066E-02   -0.36145E-03  1584   0.927E-02    0.149E-01
DAV:   5    -0.116410840283E+03    0.40679E-04   -0.17011E-03  1600   0.628E-02    0.498E-02
DAV:   6    -0.116410819256E+03    0.21027E-04   -0.86441E-05  1008   0.138E-02
  46 F= -.11641082E+03 E0= -.11641082E+03  d E =-.116348E+00  mag=     0.0000
 curvature: -19.43 expect dE=-0.195E+00 dE for cont linesearch -0.135E-03
 trial: gam= 0.79969 g(F)=  0.101E-01 g(S)=  0.000E+00 ort =-0.379E-03 (trialstep = 0.135E+02)
 search vector abs. value=  0.227E-01
 bond charge predicted
       N       E                     dE             d eps       ncg     rms          rms(c)
DAV:   1    -0.116377554077E+03    0.33286E-01   -0.27562E+02  1536   0.230E+01    0.660E-01
DAV:   2    -0.116511150979E+03   -0.13360E+00   -0.12782E+00  1616   0.220E+00    0.556E-01
DAV:   3    -0.116509468270E+03    0.16827E-02   -0.19751E-02  1680   0.263E-01    0.407E-01
DAV:   4    -0.116505812204E+03    0.36561E-02   -0.66880E-03  1584   0.123E-01    0.189E-01
DAV:   5    -0.116505627707E+03    0.18450E-03   -0.31869E-03  1648   0.850E-02    0.645E-02
DAV:   6    -0.116505599679E+03    0.28028E-04   -0.13144E-04  1040   0.180E-02
  47 F= -.11650560E+03 E0= -.11650560E+03  d E =-.947804E-01  mag=     0.0000
 trial-energy change:   -0.094780  1 .order   -0.093914   -0.131140   -0.056689
 step:  22.6175(harm= 23.6933)  dis= 0.09926  next Energy=  -116.525189 (dE=-0.114E+00)
 bond charge predicted
       N       E                     dE             d eps       ncg     rms          rms(c)
DAV:   1    -0.116465461674E+03    0.40166E-01   -0.12745E+02  1536   0.156E+01    0.437E-01
DAV:   2    -0.116524912797E+03   -0.59451E-01   -0.58248E-01  1600   0.148E+00    0.377E-01
DAV:   3    -0.116524091213E+03    0.82158E-03   -0.89156E-03  1664   0.176E-01    0.278E-01
DAV:   4    -0.116522368076E+03    0.17231E-02   -0.33602E-03  1584   0.869E-02    0.124E-01
DAV:   5    -0.116522337831E+03    0.30245E-04   -0.14731E-03  1616   0.581E-02    0.463E-02
DAV:   6    -0.116522320866E+03    0.16965E-04   -0.72508E-05   992   0.130E-02
  48 F= -.11652232E+03 E0= -.11652232E+03  d E =-.111502E+00  mag=     0.0000
 curvature: -27.22 expect dE=-0.203E+00 dE for cont linesearch -0.178E-03
 trial: gam= 0.59845 g(F)=  0.745E-02 g(S)=  0.000E+00 ort =-0.384E-03 (trialstep = 0.153E+02)
 search vector abs. value=  0.151E-01
 bond charge predicted
       N       E                     dE             d eps       ncg     rms          rms(c)
DAV:   1    -0.116487855195E+03    0.34483E-01   -0.23823E+02  1536   0.213E+01    0.600E-01
DAV:   2    -0.116601826714E+03   -0.11397E+00   -0.11154E+00  1632   0.203E+00    0.512E-01
DAV:   3    -0.116600468526E+03    0.13582E-02   -0.16442E-02  1648   0.236E-01    0.378E-01
DAV:   4    -0.116597484924E+03    0.29836E-02   -0.54008E-03  1600   0.111E-01    0.181E-01
DAV:   5    -0.116597318547E+03    0.16638E-03   -0.28040E-03  1600   0.800E-02    0.610E-02
DAV:   6    -0.116597296334E+03    0.22213E-04   -0.10340E-04  1072   0.161E-02
  49 F= -.11659730E+03 E0= -.11659730E+03  d E =-.749755E-01  mag=     0.0000
 trial-energy change:   -0.074975  1 .order   -0.075236   -0.110282   -0.040190
 step:  24.0484(harm= 24.0484)  dis= 0.10854  next Energy=  -116.609079 (dE=-0.868E-01)
 bond charge predicted
       N       E                     dE             d eps       ncg     rms          rms(c)
DAV:   1    -0.116570896909E+03    0.26422E-01   -0.77777E+01  1536   0.121E+01    0.333E-01
DAV:   2    -0.116607348632E+03   -0.36452E-01   -0.35816E-01  1616   0.115E+00    0.292E-01
DAV:   3    -0.116606888414E+03    0.46022E-03   -0.52133E-03  1680   0.133E-01    0.218E-01
DAV:   4    -0.116605892445E+03    0.99597E-03   -0.20182E-03  1600   0.679E-02    0.982E-02
DAV:   5    -0.116605892131E+03    0.31443E-06   -0.89922E-04  1600   0.458E-02
  50 F= -.11660589E+03 E0= -.11660589E+03  d E =-.835713E-01  mag=     0.0000
 curvature: -25.16 expect dE=-0.103E+00 dE for cont linesearch -0.364E-03
 trial: gam= 0.40365 g(F)=  0.411E-02 g(S)=  0.000E+00 ort =-0.467E-03 (trialstep = 0.170E+02)
 search vector abs. value=  0.619E-02
 bond charge predicted
       N       E                     dE             d eps       ncg     rms          rms(c)
DAV:   1    -0.116588700581E+03    0.17192E-01   -0.12061E+02  1536   0.152E+01    0.469E-01
DAV:   2    -0.116645391356E+03   -0.56691E-01   -0.55351E-01  1616   0.144E+00    0.390E-01
DAV:   3    -0.116644658714E+03    0.73264E-03   -0.83563E-03  1648   0.169E-01    0.281E-01
DAV:   4    -0.116643227696E+03    0.14310E-02   -0.37739E-03  1616   0.937E-02    0.108E-01
DAV:   5    -0.116643295568E+03   -0.67872E-04   -0.83195E-04  1648   0.468E-02
  51 F= -.11664330E+03 E0= -.11664330E+03  d E =-.374034E-01  mag=     0.0000
 trial-energy change:   -0.037403  1 .order   -0.038379   -0.066804   -0.009954
 step:  20.4412(harm= 20.0205)  dis= 0.04544  next Energy=  -116.644282 (dE=-0.384E-01)
 bond charge predicted
       N       E                     dE             d eps       ncg     rms          rms(c)
DAV:   1    -0.116641604554E+03    0.16231E-02   -0.47901E+00  1536   0.303E+00    0.996E-02
DAV:   2    -0.116643884081E+03   -0.22795E-02   -0.22376E-02  1648   0.287E-01    0.763E-02
DAV:   3    -0.116643870643E+03    0.13439E-04   -0.31570E-04  1200   0.340E-02
  52 F= -.11664387E+03 E0= -.11664387E+03  d E =-.379785E-01  mag=     0.0000
 curvature: -15.49 expect dE=-0.321E-01 dE for cont linesearch -0.487E-03
 trial: gam= 0.45763 g(F)=  0.207E-02 g(S)=  0.000E+00 ort =-0.441E-03 (trialstep = 0.177E+02)
 search vector abs. value=  0.296E-02
 bond charge predicted
       N       E                     dE             d eps       ncg     rms          rms(c)
DAV:   1    -0.116639704289E+03    0.41798E-02   -0.62208E+01  1536   0.110E+01    0.278E-01
DAV:   2    -0.116668727851E+03   -0.29024E-01   -0.27962E-01  1632   0.103E+00    0.257E-01
DAV:   3    -0.116668396097E+03    0.33175E-03   -0.40259E-03  1680   0.116E-01    0.198E-01
DAV:   4    -0.116667502556E+03    0.89354E-03   -0.17253E-03  1616   0.619E-02    0.900E-02
DAV:   5    -0.116667490668E+03    0.11888E-04   -0.90056E-04  1648   0.450E-02
  53 F= -.11666749E+03 E0= -.11666749E+03  d E =-.236200E-01  mag=     0.0000
 trial-energy change:   -0.023620  1 .order   -0.023406   -0.033085   -0.013727
 step:  30.2826(harm= 30.2826)  dis= 0.04496  next Energy=  -116.672144 (dE=-0.283E-01)
 bond charge predicted
       N       E                     dE             d eps       ncg     rms          rms(c)
DAV:   1    -0.116656551038E+03    0.10952E-01   -0.31224E+01  1536   0.777E+00    0.202E-01
DAV:   2    -0.116671318941E+03   -0.14768E-01   -0.14186E-01  1616   0.729E-01    0.179E-01
DAV:   3    -0.116671188704E+03    0.13024E-03   -0.20572E-03  1664   0.834E-02    0.134E-01
DAV:   4    -0.116670809706E+03    0.37900E-03   -0.79700E-04  1616   0.425E-02    0.607E-02
DAV:   5    -0.116670816263E+03   -0.65569E-05   -0.38909E-04  1488   0.301E-02
  54 F= -.11667082E+03 E0= -.11667082E+03  d E =-.269456E-01  mag=     0.0000
 curvature: -24.02 expect dE=-0.404E-01 dE for cont linesearch -0.126E-03
 trial: gam= 0.83400 g(F)=  0.168E-02 g(S)=  0.000E+00 ort =-0.125E-03 (trialstep = 0.170E+02)
 search vector abs. value=  0.353E-02
 bond charge predicted
       N       E                     dE             d eps       ncg     rms          rms(c)
DAV:   1    -0.116655028114E+03    0.15782E-01   -0.67978E+01  1536   0.115E+01    0.296E-01
DAV:   2    -0.116687560563E+03   -0.32532E-01   -0.31028E-01  1616   0.108E+00    0.275E-01
DAV:   3    -0.116687266124E+03    0.29444E-03   -0.45926E-03  1664   0.128E-01    0.209E-01
DAV:   4    -0.116686337244E+03    0.92888E-03   -0.16160E-03  1616   0.612E-02    0.106E-01
DAV:   5    -0.116686291737E+03    0.45508E-04   -0.12092E-03  1632   0.523E-02    0.395E-02
DAV:   6    -0.116686275060E+03    0.16677E-04   -0.43385E-05   928   0.104E-02
  55 F= -.11668628E+03 E0= -.11668628E+03  d E =-.154588E-01  mag=     0.0000
 trial-energy change:   -0.015459  1 .order   -0.015965   -0.026762   -0.005168
 step:  21.9128(harm= 21.0107)  dis= 0.02502  next Energy=  -116.687018 (dE=-0.162E-01)
 bond charge predicted
       N       E                     dE             d eps       ncg     rms          rms(c)
DAV:   1    -0.116684096896E+03    0.21948E-02   -0.58073E+00  1536   0.335E+00    0.856E-02
DAV:   2    -0.116686847167E+03   -0.27503E-02   -0.26426E-02  1616   0.316E-01    0.809E-02
DAV:   3    -0.116686819630E+03    0.27537E-04   -0.37495E-04  1392   0.371E-02
  56 F= -.11668682E+03 E0= -.11668682E+03  d E =-.160034E-01  mag=     0.0000
 curvature: -22.36 expect dE=-0.305E-01 dE for cont linesearch -0.167E-03
 trial: gam= 0.78509 g(F)=  0.136E-02 g(S)=  0.000E+00 ort =-0.162E-03 (trialstep = 0.179E+02)
 search vector abs. value=  0.329E-02
 bond charge predicted
       N       E                     dE             d eps       ncg     rms          rms(c)
DAV:   1    -0.116669169175E+03    0.17678E-01   -0.70902E+01  1536   0.117E+01    0.290E-01
DAV:   2    -0.116702818653E+03   -0.33649E-01   -0.32143E-01  1600   0.110E+00    0.282E-01
DAV:   3    -0.116702521147E+03    0.29751E-03   -0.46811E-03  1680   0.127E-01    0.219E-01
DAV:   4    -0.116701432112E+03    0.10890E-02   -0.17900E-03  1616   0.640E-02    0.112E-01
DAV:   5    -0.116701356773E+03    0.75339E-04   -0.14238E-03  1600   0.557E-02    0.426E-02
DAV:   6    -0.116701344833E+03    0.11940E-04   -0.39624E-05   928   0.993E-03
  57 F= -.11670134E+03 E0= -.11670134E+03  d E =-.145252E-01  mag=     0.0000
 trial-energy change:   -0.014525  1 .order   -0.014499   -0.022205   -0.006794
 step:  25.8559(harm= 25.8559)  dis= 0.02840  next Energy=  -116.702816 (dE=-0.160E-01)
 bond charge predicted
       N       E                     dE             d eps       ncg     rms          rms(c)
DAV:   1    -0.116696147594E+03    0.52092E-02   -0.13745E+01  1536   0.515E+00    0.125E-01
DAV:   2    -0.116702656191E+03   -0.65086E-02   -0.62475E-02  1600   0.486E-01    0.121E-01
DAV:   3    -0.116702597978E+03    0.58213E-04   -0.90323E-04  1648   0.559E-02
  58 F= -.11670260E+03 E0= -.11670260E+03  d E =-.157783E-01  mag=     0.0000
 curvature: -34.36 expect dE=-0.473E-01 dE for cont linesearch -0.220E-04
 trial: gam= 0.95735 g(F)=  0.138E-02 g(S)=  0.000E+00 ort =-0.459E-04 (trialstep = 0.149E+02)
 search vector abs. value=  0.430E-02
 bond charge predicted
       N       E                     dE             d eps       ncg     rms          rms(c)
DAV:   1    -0.116688666422E+03    0.13990E-01   -0.64071E+01  1536   0.111E+01    0.267E-01
DAV:   2    -0.116718516219E+03   -0.29850E-01   -0.28549E-01  1600   0.104E+00    0.266E-01
DAV:   3    -0.116718160698E+03    0.35552E-03   -0.41352E-03  1696   0.116E-01    0.214E-01
DAV:   4    -0.116717016789E+03    0.11439E-02   -0.19987E-03  1600   0.654E-02    0.992E-02
DAV:   5    -0.116716969715E+03    0.47075E-04   -0.12498E-03  1616   0.525E-02    0.413E-02
DAV:   6    -0.116716964382E+03    0.53324E-05   -0.31520E-05   912   0.943E-03
  59 F= -.11671696E+03 E0= -.11671696E+03  d E =-.143664E-01  mag=     0.0000
 trial-energy change:   -0.014366  1 .order   -0.015162   -0.019880   -0.010444
 step:  31.4489(harm= 31.4489)  dis= 0.03924  next Energy=  -116.723539 (dE=-0.209E-01)
 bond charge predicted
       N       E                     dE             d eps       ncg     rms          rms(c)
DAV:   1    -0.116686522157E+03    0.30448E-01   -0.78418E+01  1536   0.123E+01    0.289E-01
DAV:   2    -0.116723616589E+03   -0.37094E-01   -0.35332E-01  1600   0.115E+00    0.278E-01
DAV:   3    -0.116723217725E+03    0.39886E-03   -0.51107E-03  1696   0.131E-01    0.220E-01
DAV:   4    -0.116722003638E+03    0.12141E-02   -0.18952E-03  1600   0.641E-02    0.108E-01
DAV:   5    -0.116721895150E+03    0.10849E-03   -0.14676E-03  1616   0.565E-02    0.406E-02
DAV:   6    -0.116721892228E+03    0.29222E-05   -0.31057E-05   912   0.952E-03
  60 F= -.11672189E+03 E0= -.11672189E+03  d E =-.192942E-01  mag=    -0.0000
 curvature: -50.80 expect dE=-0.922E-01 dE for cont linesearch -0.211E-04
 trial: gam= 1.11161 g(F)=  0.181E-02 g(S)=  0.000E+00 ort =-0.422E-04 (trialstep = 0.111E+02)
 search vector abs. value=  0.704E-02
 bond charge predicted
       N       E                     dE             d eps       ncg     rms          rms(c)
DAV:   1    -0.116711248008E+03    0.10647E-01   -0.58383E+01  1536   0.106E+01    0.235E-01
DAV:   2    -0.116739337506E+03   -0.28089E-01   -0.26390E-01  1600   0.996E-01    0.240E-01
DAV:   3    -0.116739167493E+03    0.17001E-03   -0.38611E-03  1696   0.113E-01    0.195E-01
DAV:   4    -0.116738260352E+03    0.90714E-03   -0.12154E-03  1616   0.529E-02    0.105E-01
DAV:   5    -0.116738119800E+03    0.14055E-03   -0.14690E-03  1600   0.557E-02    0.394E-02
DAV:   6    -0.116738124618E+03   -0.48183E-05   -0.19690E-05   912   0.799E-03
  61 F= -.11673812E+03 E0= -.11673812E+03  d E =-.162324E-01  mag=    -0.0000
 trial-energy change:   -0.016232  1 .order   -0.016852   -0.019703   -0.014001
 step:  38.5148(harm= 38.5148)  dis= 0.08321  next Energy=  -116.755933 (dE=-0.340E-01)
 bond charge predicted
       N       E                     dE             d eps       ncg     rms          rms(c)
DAV:   1    -0.116584584189E+03    0.15354E+00   -0.35472E+02  1536   0.262E+01    0.629E-01
DAV:   2    -0.116754005612E+03   -0.16942E+00   -0.16181E+00  1632   0.247E+00    0.602E-01
DAV:   3    -0.116752118601E+03    0.18870E-02   -0.23718E-02  1680   0.281E-01    0.473E-01
DAV:   4    -0.116746820648E+03    0.52980E-02   -0.70620E-03  1616   0.127E-01    0.255E-01
DAV:   5    -0.116745870721E+03    0.94993E-03   -0.69548E-03  1584   0.122E-01    0.825E-02
DAV:   6    -0.116745913534E+03   -0.42813E-04   -0.88264E-05  1024   0.179E-02
  62 F= -.11674591E+03 E0= -.11674591E+03  d E =-.240213E-01  mag=    -0.0000
 curvature: -76.66 expect dE=-0.225E+00 dE for cont linesearch -0.251E-02
 ZBRENT: interpolating
 opt :  30.9529  next Energy=  -116.747727 (dE=-0.258E-01)
 bond charge predicted
       N       E                     dE             d eps       ncg     rms          rms(c)
DAV:   1    -0.116736943642E+03    0.89271E-02   -0.26905E+01  1536   0.719E+00    0.160E-01
DAV:   2    -0.116749634066E+03   -0.12690E-01   -0.12112E-01  1616   0.673E-01    0.161E-01
DAV:   3    -0.116749499899E+03    0.13417E-03   -0.17023E-03  1680   0.748E-02    0.131E-01
DAV:   4    -0.116749076455E+03    0.42344E-03   -0.60142E-04  1584   0.368E-02    0.667E-02
DAV:   5    -0.116749030390E+03    0.46066E-04   -0.61445E-04  1600   0.360E-02
  63 F= -.11674903E+03 E0= -.11674903E+03  d E =-.271382E-01  mag=    -0.0000
 curvature: -55.48 expect dE=-0.112E+00 dE for cont linesearch -0.432E-03
 trial: gam= 0.91898 g(F)=  0.202E-02 g(S)=  0.000E+00 ort =-0.234E-03 (trialstep = 0.141E+02)
 search vector abs. value=  0.753E-02
 bond charge predicted
       N       E                     dE             d eps       ncg     rms          rms(c)
DAV:   1    -0.116724469395E+03    0.24607E-01   -0.10054E+02  1536   0.139E+01    0.309E-01
DAV:   2    -0.116772631833E+03   -0.48162E-01   -0.45717E-01  1616   0.131E+00    0.318E-01
DAV:   3    -0.116772169916E+03    0.46192E-03   -0.64127E-03  1680   0.144E-01    0.261E-01
DAV:   4    -0.116770462549E+03    0.17074E-02   -0.22333E-03  1632   0.703E-02    0.138E-01
DAV:   5    -0.116770174416E+03    0.28813E-03   -0.24832E-03  1616   0.722E-02    0.506E-02
DAV:   6    -0.116770183550E+03   -0.91347E-05   -0.31880E-05   960   0.103E-02
  64 F= -.11677018E+03 E0= -.11677018E+03  d E =-.211532E-01  mag=    -0.0000
 trial-energy change:   -0.021153  1 .order   -0.021354   -0.025470   -0.017239
 step:  43.6781(harm= 43.6781)  dis= 0.12106  next Energy=  -116.788440 (dE=-0.394E-01)
 bond charge predicted
       N       E                     dE             d eps       ncg     rms          rms(c)
DAV:   1    -0.116571643306E+03    0.19853E+00   -0.44555E+02  1536   0.293E+01    0.748E-01
DAV:   2    -0.116788882199E+03   -0.21724E+00   -0.20695E+00  1664   0.279E+00    0.674E-01
DAV:   3    -0.116785962358E+03    0.29198E-02   -0.29604E-02  1648   0.312E-01    0.522E-01
DAV:   4    -0.116779332324E+03    0.66300E-02   -0.95122E-03  1632   0.145E-01    0.268E-01
DAV:   5    -0.116778269497E+03    0.10628E-02   -0.71230E-03  1600   0.124E-01    0.821E-02
DAV:   6    -0.116778333546E+03   -0.64049E-04   -0.98554E-05  1056   0.194E-02
  65 F= -.11677833E+03 E0= -.11677833E+03  d E =-.293032E-01  mag=    -0.0000
 curvature: -91.15 expect dE=-0.385E+00 dE for cont linesearch -0.254E-02
 ZBRENT: interpolating
 opt :  35.6143  next Energy=  -116.780181 (dE=-0.312E-01)
 bond charge predicted
       N       E                     dE             d eps       ncg     rms          rms(c)
DAV:   1    -0.116766814559E+03    0.11455E-01   -0.32790E+01  1536   0.792E+00    0.175E-01
DAV:   2    -0.116782387784E+03   -0.15573E-01   -0.14940E-01  1616   0.747E-01    0.181E-01
DAV:   3    -0.116782254884E+03    0.13290E-03   -0.21252E-03  1712   0.836E-02    0.148E-01
DAV:   4    -0.116781725314E+03    0.52957E-03   -0.71260E-04  1600   0.399E-02    0.790E-02
DAV:   5    -0.116781653803E+03    0.71510E-04   -0.84926E-04  1600   0.421E-02
  66 F= -.11678165E+03 E0= -.11678165E+03  d E =-.326234E-01  mag=    -0.0000
 curvature: -66.29 expect dE=-0.192E+00 dE for cont linesearch -0.583E-03
 trial: gam= 1.24929 g(F)=  0.290E-02 g(S)=  0.000E+00 ort =-0.257E-03 (trialstep = 0.990E+01)
 search vector abs. value=  0.140E-01
 bond charge predicted
       N       E                     dE             d eps       ncg     rms          rms(c)
DAV:   1    -0.116762518110E+03    0.19207E-01   -0.91979E+01  1536   0.132E+01    0.283E-01
DAV:   2    -0.116807051003E+03   -0.44533E-01   -0.42100E-01  1616   0.125E+00    0.299E-01
DAV:   3    -0.116806641259E+03    0.40974E-03   -0.60391E-03  1680   0.139E-01    0.248E-01
DAV:   4    -0.116805083644E+03    0.15576E-02   -0.18275E-03  1616   0.632E-02    0.138E-01
DAV:   5    -0.116804739510E+03    0.34413E-03   -0.25780E-03  1600   0.728E-02    0.490E-02
DAV:   6    -0.116804751670E+03   -0.12160E-04   -0.29875E-05   960   0.101E-02
  67 F= -.11680475E+03 E0= -.11680475E+03  d E =-.230979E-01  mag=    -0.0000
 trial-energy change:   -0.023098  1 .order   -0.022644   -0.025553   -0.019735
 step:  25.2061(harm= 43.4583)  dis= 0.08023  next Energy=  -116.821700 (dE=-0.400E-01)
 bond charge predicted
       N       E                     dE             d eps       ncg     rms          rms(c)
DAV:   1    -0.116718874017E+03    0.85865E-01   -0.22097E+02  1536   0.206E+01    0.475E-01
DAV:   2    -0.116824488977E+03   -0.10561E+00   -0.10191E+00  1632   0.195E+00    0.459E-01
DAV:   3    -0.116823181504E+03    0.13075E-02   -0.14687E-02  1696   0.218E-01    0.366E-01
DAV:   4    -0.116819699078E+03    0.34824E-02   -0.46029E-03  1616   0.999E-02    0.192E-01
DAV:   5    -0.116819087128E+03    0.61195E-03   -0.44890E-03  1616   0.970E-02    0.640E-02
DAV:   6    -0.116819114013E+03   -0.26885E-04   -0.60447E-05  1008   0.146E-02
  68 F= -.11681911E+03 E0= -.11681911E+03  d E =-.374602E-01  mag=    -0.0000
 curvature: -83.06 expect dE=-0.196E+00 dE for cont linesearch -0.411E-03
 trial: gam= 0.39136 g(F)=  0.236E-02 g(S)=  0.000E+00 ort = 0.263E-03 (trialstep = 0.130E+02)
 search vector abs. value=  0.471E-02
 bond charge predicted
       N       E                     dE             d eps       ncg     rms          rms(c)
DAV:   1    -0.116819001133E+03    0.85995E-04   -0.52839E+01  1536   0.101E+01    0.256E-01
DAV:   2    -0.116843820525E+03   -0.24819E-01   -0.24118E-01  1600   0.949E-01    0.240E-01
DAV:   3    -0.116843491338E+03    0.32919E-03   -0.35696E-03  1696   0.110E-01    0.185E-01
DAV:   4    -0.116842662871E+03    0.82847E-03   -0.14576E-03  1600   0.565E-02    0.883E-02
DAV:   5    -0.116842629164E+03    0.33707E-04   -0.86848E-04  1632   0.439E-02
  69 F= -.11684263E+03 E0= -.11684263E+03  d E =-.235152E-01  mag=    -0.0000
 trial-energy change:   -0.023515  1 .order   -0.024566   -0.031872   -0.017259
 step:  28.2611(harm= 28.2611)  dis= 0.04268  next Energy=  -116.853872 (dE=-0.348E-01)
 bond charge predicted
       N       E                     dE             d eps       ncg     rms          rms(c)
DAV:   1    -0.116817987320E+03    0.24676E-01   -0.73746E+01  1536   0.119E+01    0.311E-01
DAV:   2    -0.116852793721E+03   -0.34806E-01   -0.33845E-01  1600   0.112E+00    0.281E-01
DAV:   3    -0.116852367919E+03    0.42580E-03   -0.50501E-03  1696   0.130E-01    0.213E-01
DAV:   4    -0.116851297355E+03    0.10706E-02   -0.20075E-03  1600   0.666E-02    0.994E-02
DAV:   5    -0.116851270488E+03    0.26868E-04   -0.10545E-03  1632   0.488E-02    0.392E-02
DAV:   6    -0.116851261740E+03    0.87478E-05   -0.40113E-05   912   0.991E-03
  70 F= -.11685126E+03 E0= -.11685126E+03  d E =-.321477E-01  mag=    -0.0000
 curvature: -27.05 expect dE=-0.675E-01 dE for cont linesearch -0.413E-04
 trial: gam= 1.09516 g(F)=  0.250E-02 g(S)=  0.000E+00 ort =-0.847E-04 (trialstep = 0.948E+01)
 search vector abs. value=  0.796E-02
 bond charge predicted
       N       E                     dE             d eps       ncg     rms          rms(c)
DAV:   1    -0.116847407971E+03    0.38625E-02   -0.47713E+01  1536   0.959E+00    0.229E-01
DAV:   2    -0.116869836226E+03   -0.22428E-01   -0.21523E-01  1632   0.899E-01    0.226E-01
DAV:   3    -0.116869557730E+03    0.27850E-03   -0.31559E-03  1680   0.102E-01    0.179E-01
DAV:   4    -0.116868728186E+03    0.82954E-03   -0.13026E-03  1600   0.532E-02    0.880E-02
DAV:   5    -0.116868660434E+03    0.67752E-04   -0.95690E-04  1648   0.455E-02
  71 F= -.11686866E+03 E0= -.11686866E+03  d E =-.173987E-01  mag=    -0.0000
 trial-energy change:   -0.017399  1 .order   -0.018136   -0.022782   -0.013490
 step:  23.2381(harm= 23.2381)  dis= 0.05065  next Energy=  -116.879190 (dE=-0.279E-01)
 bond charge predicted
       N       E                     dE             d eps       ncg     rms          rms(c)
DAV:   1    -0.116830699161E+03    0.38029E-01   -0.10067E+02  1536   0.139E+01    0.342E-01
DAV:   2    -0.116878611982E+03   -0.47913E-01   -0.45739E-01  1632   0.131E+00    0.323E-01
DAV:   3    -0.116878037137E+03    0.57485E-03   -0.67307E-03  1680   0.150E-01    0.252E-01
DAV:   4    -0.116876426315E+03    0.16108E-02   -0.26375E-03  1600   0.759E-02    0.121E-01
DAV:   5    -0.116876306892E+03    0.11942E-03   -0.17368E-03  1648   0.617E-02    0.471E-02
DAV:   6    -0.116876305869E+03    0.10228E-05   -0.37646E-05   928   0.102E-02
  72 F= -.11687631E+03 E0= -.11687631E+03  d E =-.250441E-01  mag=    -0.0000
 curvature: -38.47 expect dE=-0.992E-01 dE for cont linesearch -0.959E-04
 trial: gam= 1.01434 g(F)=  0.258E-02 g(S)=  0.000E+00 ort =-0.141E-03 (trialstep = 0.929E+01)
 search vector abs. value=  0.105E-01
 bond charge predicted
       N       E                     dE             d eps       ncg     rms          rms(c)
DAV:   1    -0.116868395211E+03    0.79117E-02   -0.60340E+01  1536   0.108E+01    0.235E-01
DAV:   2    -0.116896849102E+03   -0.28454E-01   -0.27047E-01  1616   0.101E+00    0.252E-01
DAV:   3    -0.116896547024E+03    0.30208E-03   -0.37849E-03  1696   0.112E-01    0.206E-01
DAV:   4    -0.116895455031E+03    0.10920E-02   -0.13006E-03  1600   0.532E-02    0.116E-01
DAV:   5    -0.116895230679E+03    0.22435E-03   -0.17640E-03  1632   0.606E-02    0.448E-02
DAV:   6    -0.116895243728E+03   -0.13049E-04   -0.20723E-05   912   0.816E-03
  73 F= -.11689524E+03 E0= -.11689524E+03  d E =-.189379E-01  mag=    -0.0000
 trial-energy change:   -0.018938  1 .order   -0.019536   -0.022611   -0.016462
 step:  34.1520(harm= 34.1520)  dis= 0.10732  next Energy=  -116.917878 (dE=-0.416E-01)
 bond charge predicted
       N       E                     dE             d eps       ncg     rms          rms(c)
DAV:   1    -0.116715686973E+03    0.17954E+00   -0.43651E+02  1536   0.291E+01    0.722E-01
DAV:   2    -0.116923253406E+03   -0.20757E+00   -0.19829E+00  1664   0.275E+00    0.685E-01
DAV:   3    -0.116920262434E+03    0.29910E-02   -0.28268E-02  1664   0.309E-01    0.532E-01
DAV:   4    -0.116912978815E+03    0.72836E-02   -0.99727E-03  1616   0.147E-01    0.279E-01
DAV:   5    -0.116911735695E+03    0.12431E-02   -0.79315E-03  1624   0.130E-01    0.925E-02
DAV:   6    -0.116911806286E+03   -0.70591E-04   -0.10625E-04  1056   0.192E-02
  74 F= -.11691181E+03 E0= -.11691181E+03  d E =-.355004E-01  mag=    -0.0000
 curvature: -73.51 expect dE=-0.236E+00 dE for cont linesearch -0.154E-04
 trial: gam= 1.07139 g(F)=  0.320E-02 g(S)=  0.000E+00 ort =-0.468E-04 (trialstep = 0.988E+01)
 search vector abs. value=  0.151E-01
 bond charge predicted
       N       E                     dE             d eps       ncg     rms          rms(c)
DAV:   1    -0.116890993772E+03    0.20742E-01   -0.98653E+01  1536   0.138E+01    0.306E-01
DAV:   2    -0.116937772474E+03   -0.46779E-01   -0.44455E-01  1600   0.130E+00    0.330E-01
DAV:   3    -0.116937298264E+03    0.47421E-03   -0.64947E-03  1712   0.148E-01    0.266E-01
DAV:   4    -0.116935572550E+03    0.17257E-02   -0.19689E-03  1600   0.670E-02    0.160E-01
DAV:   5    -0.116935170907E+03    0.40164E-03   -0.30278E-03  1584   0.793E-02    0.600E-02
DAV:   6    -0.116935191382E+03   -0.20475E-04   -0.38178E-05   976   0.107E-02
  75 F= -.11693519E+03 E0= -.11693519E+03  d E =-.233851E-01  mag=    -0.0000
 trial-energy change:   -0.023385  1 .order   -0.025104   -0.031144   -0.019064
 step:  25.4620(harm= 25.4620)  dis= 0.10329  next Energy=  -116.951955 (dE=-0.401E-01)
 bond charge predicted
       N       E                     dE             d eps       ncg     rms          rms(c)
DAV:   1    -0.116837754109E+03    0.97417E-01   -0.24675E+02  1536   0.218E+01    0.518E-01
DAV:   2    -0.116954065309E+03   -0.11631E+00   -0.11163E+00  1664   0.206E+00    0.523E-01
DAV:   3    -0.116952609646E+03    0.14557E-02   -0.15994E-02  1664   0.234E-01    0.411E-01
DAV:   4    -0.116948387069E+03    0.42226E-02   -0.53968E-03  1632   0.110E-01    0.233E-01
DAV:   5    -0.116947570096E+03    0.81697E-03   -0.57935E-03  1632   0.110E-01    0.823E-02
DAV:   6    -0.116947602347E+03   -0.32251E-04   -0.80950E-05   992   0.156E-02
  76 F= -.11694760E+03 E0= -.11694760E+03  d E =-.357961E-01  mag=    -0.0000
 curvature: -61.10 expect dE=-0.157E+00 dE for cont linesearch -0.191E-04
 trial: gam= 0.51701 g(F)=  0.257E-02 g(S)=  0.000E+00 ort = 0.689E-04 (trialstep = 0.130E+02)
 search vector abs. value=  0.669E-02
 bond charge predicted
       N       E                     dE             d eps       ncg     rms          rms(c)
DAV:   1    -0.116939226325E+03    0.83438E-02   -0.75459E+01  1536   0.120E+01    0.290E-01
DAV:   2    -0.116974309713E+03   -0.35083E-01   -0.33642E-01  1648   0.113E+00    0.290E-01
DAV:   3    -0.116973811228E+03    0.49849E-03   -0.48048E-03  1680   0.130E-01    0.229E-01
DAV:   4    -0.116972502958E+03    0.13083E-02   -0.18876E-03  1600   0.635E-02    0.120E-01
DAV:   5    -0.116972344447E+03    0.15851E-03   -0.16855E-03  1600   0.604E-02    0.448E-02
DAV:   6    -0.116972350723E+03   -0.62755E-05   -0.33547E-05   992   0.974E-03
  77 F= -.11697235E+03 E0= -.11697235E+03  d E =-.247484E-01  mag=    -0.0000
 trial-energy change:   -0.024748  1 .order   -0.025678   -0.033880   -0.017477
 step:  26.8363(harm= 26.8363)  dis= 0.08375  next Energy=  -116.982591 (dE=-0.350E-01)
 bond charge predicted
       N       E                     dE             d eps       ncg     rms          rms(c)
DAV:   1    -0.116943424317E+03    0.28920E-01   -0.85703E+01  1536   0.128E+01    0.311E-01
DAV:   2    -0.116982625376E+03   -0.39201E-01   -0.38108E-01  1648   0.120E+00    0.309E-01
DAV:   3    -0.116982011845E+03    0.61353E-03   -0.54601E-03  1680   0.139E-01    0.243E-01
DAV:   4    -0.116980523114E+03    0.14887E-02   -0.21653E-03  1600   0.680E-02    0.127E-01
DAV:   5    -0.116980341804E+03    0.18131E-03   -0.18547E-03  1616   0.635E-02    0.470E-02
DAV:   6    -0.116980344276E+03   -0.24713E-05   -0.38450E-05   976   0.104E-02
  78 F= -.11698034E+03 E0= -.11698034E+03  d E =-.327419E-01  mag=    -0.0000
 curvature: -34.42 expect dE=-0.670E-01 dE for cont linesearch -0.180E-04
 trial: gam= 0.63506 g(F)=  0.195E-02 g(S)=  0.000E+00 ort =-0.592E-04 (trialstep = 0.158E+02)
 search vector abs. value=  0.457E-02
 bond charge predicted
       N       E                     dE             d eps       ncg     rms          rms(c)
DAV:   1    -0.116966710785E+03    0.13631E-01   -0.75886E+01  1536   0.121E+01    0.294E-01
DAV:   2    -0.117002075816E+03   -0.35365E-01   -0.34149E-01  1632   0.114E+00    0.296E-01
DAV:   3    -0.117001615318E+03    0.46050E-03   -0.50948E-03  1696   0.134E-01    0.232E-01
DAV:   4    -0.117000329907E+03    0.12854E-02   -0.18435E-03  1600   0.633E-02    0.125E-01
DAV:   5    -0.117000176132E+03    0.15378E-03   -0.17788E-03  1600   0.618E-02    0.467E-02
DAV:   6    -0.117000170807E+03    0.53246E-05   -0.40569E-05   960   0.102E-02
  79 F= -.11700017E+03 E0= -.11700017E+03  d E =-.198265E-01  mag=    -0.0000
 trial-energy change:   -0.019827  1 .order   -0.020508   -0.030071   -0.010945
 step:  31.5117(harm= 24.7817)  dis= 0.06813  next Energy=  -117.004960 (dE=-0.246E-01)
 bond charge predicted
       N       E                     dE             d eps       ncg     rms          rms(c)
DAV:   1    -0.116967647682E+03    0.32528E-01   -0.75771E+01  1536   0.121E+01    0.297E-01
DAV:   2    -0.117003112086E+03   -0.35464E-01   -0.34135E-01  1632   0.114E+00    0.297E-01
DAV:   3    -0.117002666435E+03    0.44565E-03   -0.51063E-03  1680   0.134E-01    0.232E-01
DAV:   4    -0.117001388978E+03    0.12775E-02   -0.18569E-03  1600   0.636E-02    0.125E-01
DAV:   5    -0.117001241585E+03    0.14739E-03   -0.17511E-03  1632   0.614E-02    0.466E-02
DAV:   6    -0.117001234201E+03    0.73846E-05   -0.41749E-05   928   0.103E-02
  80 F= -.11700123E+03 E0= -.11700123E+03  d E =-.208899E-01  mag=     0.0000
 curvature: -13.15 expect dE=-0.331E-01 dE for cont linesearch -0.645E-03
 trial: gam= 0.00000 g(F)=  0.251E-02 g(S)=  0.000E+00 ort =-0.473E-03 (trialstep = 0.189E+02)
 search vector abs. value=  0.251E-02
 bond charge predicted
       N       E                     dE             d eps       ncg     rms          rms(c)
DAV:   1    -0.116984115586E+03    0.17126E-01   -0.60695E+01  1536   0.108E+01    0.439E-01
DAV:   2    -0.117011147469E+03   -0.27032E-01   -0.27523E-01  1600   0.101E+00    0.334E-01
DAV:   3    -0.117010617718E+03    0.52975E-03   -0.47123E-03  1664   0.124E-01    0.217E-01
DAV:   4    -0.117010143422E+03    0.47430E-03   -0.21040E-03  1616   0.770E-02    0.599E-02
DAV:   5    -0.117010166423E+03   -0.23002E-04   -0.97492E-05   992   0.252E-02
  81 F= -.11701017E+03 E0= -.11701017E+03  d E =-.893222E-02  mag=     0.0000
 trial-energy change:   -0.008932  1 .order   -0.009309   -0.047541    0.028923
 step:  11.7581(harm= 11.7581)  dis= 0.01101  next Energy=  -117.016013 (dE=-0.148E-01)
 bond charge predicted
       N       E                     dE             d eps       ncg     rms          rms(c)
DAV:   1    -0.117012215413E+03   -0.20720E-02   -0.86913E+00  1536   0.410E+00    0.164E-01
DAV:   2    -0.117016057861E+03   -0.38424E-02   -0.39019E-02  1584   0.380E-01    0.127E-01
DAV:   3    -0.117015971562E+03    0.86300E-04   -0.67864E-04  1664   0.464E-02
  82 F= -.11701597E+03 E0= -.11701597E+03  d E =-.147374E-01  mag=     0.0000
 curvature:  -5.88 expect dE=-0.463E-02 dE for cont linesearch -0.711E-07
 trial: gam= 0.31559 g(F)=  0.788E-03 g(S)=  0.000E+00 ort =-0.551E-05 (trialstep = 0.175E+02)
 search vector abs. value=  0.103E-02
 bond charge predicted
       N       E                     dE             d eps       ncg     rms          rms(c)
DAV:   1    -0.117016649764E+03   -0.59190E-03   -0.21126E+01  1536   0.639E+00    0.167E-01
DAV:   2    -0.117026613629E+03   -0.99639E-02   -0.95437E-02  1600   0.604E-01    0.163E-01
DAV:   3    -0.117026489971E+03    0.12366E-03   -0.14144E-03  1680   0.710E-02    0.125E-01
DAV:   4    -0.117026148109E+03    0.34186E-03   -0.57064E-04  1616   0.358E-02    0.639E-02
DAV:   5    -0.117026126600E+03    0.21509E-04   -0.40133E-04  1600   0.300E-02
  83 F= -.11702613E+03 E0= -.11702613E+03  d E =-.101550E-01  mag=     0.0000
 trial-energy change:   -0.010155  1 .order   -0.010428   -0.013742   -0.007113
 step:  36.2418(harm= 36.2418)  dis= 0.02590  next Energy=  -117.030216 (dE=-0.142E-01)
 bond charge predicted
       N       E                     dE             d eps       ncg     rms          rms(c)
DAV:   1    -0.117018030638E+03    0.81175E-02   -0.24336E+01  1536   0.686E+00    0.183E-01
DAV:   2    -0.117029561072E+03   -0.11530E-01   -0.11049E-01  1584   0.648E-01    0.174E-01
DAV:   3    -0.117029443823E+03    0.11725E-03   -0.16374E-03  1648   0.760E-02    0.131E-01
DAV:   4    -0.117029091605E+03    0.35222E-03   -0.63416E-04  1600   0.382E-02    0.663E-02
DAV:   5    -0.117029079960E+03    0.11645E-04   -0.41072E-04  1632   0.306E-02
  84 F= -.11702908E+03 E0= -.11702908E+03  d E =-.131084E-01  mag=     0.0000
 curvature: -23.85 expect dE=-0.240E-01 dE for cont linesearch -0.295E-04
 trial: gam= 1.32691 g(F)=  0.101E-02 g(S)=  0.000E+00 ort =-0.358E-04 (trialstep = 0.804E+01)
 search vector abs. value=  0.273E-02
 bond charge predicted
       N       E                     dE             d eps       ncg     rms          rms(c)
DAV:   1    -0.117029854564E+03   -0.76296E-03   -0.11791E+01  1536   0.477E+00    0.116E-01
DAV:   2    -0.117035485676E+03   -0.56311E-02   -0.53670E-02  1608   0.451E-01    0.116E-01
DAV:   3    -0.117035431912E+03    0.53765E-04   -0.77582E-04  1592   0.519E-02
  85 F= -.11703543E+03 E0= -.11703543E+03  d E =-.635195E-02  mag=     0.0000
 trial-energy change:   -0.006352  1 .order   -0.006470   -0.007711   -0.005229
 step:  24.9625(harm= 24.9625)  dis= 0.04048  next Energy=  -117.041056 (dE=-0.120E-01)
 bond charge predicted
       N       E                     dE             d eps       ncg     rms          rms(c)
DAV:   1    -0.117016665539E+03    0.18820E-01   -0.52437E+01  1536   0.101E+01    0.261E-01
DAV:   2    -0.117040767799E+03   -0.24102E-01   -0.23327E-01  1600   0.943E-01    0.270E-01
DAV:   3    -0.117040390829E+03    0.37697E-03   -0.33290E-03  1664   0.106E-01    0.217E-01
DAV:   4    -0.117039304445E+03    0.10864E-02   -0.18364E-03  1632   0.630E-02    0.108E-01
DAV:   5    -0.117039256584E+03    0.47861E-04   -0.12048E-03  1632   0.519E-02    0.462E-02
DAV:   6    -0.117039242180E+03    0.14403E-04   -0.40426E-05   896   0.989E-03
  86 F= -.11703924E+03 E0= -.11703924E+03  d E =-.101622E-01  mag=     0.0000
 curvature: -35.56 expect dE=-0.360E-01 dE for cont linesearch -0.223E-03
 trial: gam= 0.87278 g(F)=  0.101E-02 g(S)=  0.000E+00 ort =-0.131E-03 (trialstep = 0.109E+02)
 search vector abs. value=  0.287E-02
 bond charge predicted
       N       E                     dE             d eps       ncg     rms          rms(c)
DAV:   1    -0.117036606603E+03    0.26500E-02   -0.22713E+01  1536   0.662E+00    0.154E-01
DAV:   2    -0.117047094484E+03   -0.10488E-01   -0.10168E-01  1632   0.624E-01    0.159E-01
DAV:   3    -0.117046959243E+03    0.13524E-03   -0.14785E-03  1648   0.730E-02    0.126E-01
DAV:   4    -0.117046597198E+03    0.36205E-03   -0.44799E-04  1600   0.316E-02    0.724E-02
DAV:   5    -0.117046534423E+03    0.62775E-04   -0.64449E-04  1568   0.369E-02
  87 F= -.11704653E+03 E0= -.11704653E+03  d E =-.729224E-02  mag=     0.0000
 trial-energy change:   -0.007292  1 .order   -0.007672   -0.009776   -0.005568
 step:  25.3174(harm= 25.3174)  dis= 0.03589  next Energy=  -117.050599 (dE=-0.114E-01)
 bond charge predicted
       N       E                     dE             d eps       ncg     rms          rms(c)
DAV:   1    -0.117031295435E+03    0.15302E-01   -0.39782E+01  1536   0.876E+00    0.209E-01
DAV:   2    -0.117049665179E+03   -0.18370E-01   -0.17874E-01  1632   0.826E-01    0.209E-01
DAV:   3    -0.117049438209E+03    0.22697E-03   -0.26109E-03  1632   0.971E-02    0.162E-01
DAV:   4    -0.117048839806E+03    0.59840E-03   -0.78764E-04  1600   0.421E-02    0.912E-02
DAV:   5    -0.117048750547E+03    0.89259E-04   -0.98322E-04  1584   0.458E-02
  88 F= -.11704875E+03 E0= -.11704875E+03  d E =-.950837E-02  mag=     0.0000
 curvature: -40.43 expect dE=-0.333E-01 dE for cont linesearch -0.701E-04
 trial: gam= 0.62849 g(F)=  0.824E-03 g(S)=  0.000E+00 ort =-0.705E-04 (trialstep = 0.138E+02)
 search vector abs. value=  0.187E-02
 bond charge predicted
       N       E                     dE             d eps       ncg     rms          rms(c)
DAV:   1    -0.117045483535E+03    0.33563E-02   -0.23680E+01  1536   0.676E+00    0.177E-01
DAV:   2    -0.117056555148E+03   -0.11072E-01   -0.10717E-01  1600   0.639E-01    0.165E-01
DAV:   3    -0.117056448416E+03    0.10673E-03   -0.16548E-03  1648   0.777E-02    0.124E-01
DAV:   4    -0.117056127855E+03    0.32056E-03   -0.54233E-04  1600   0.351E-02    0.634E-02
DAV:   5    -0.117056114852E+03    0.13004E-04   -0.42060E-04  1600   0.304E-02
  89 F= -.11705611E+03 E0= -.11705611E+03  d E =-.736430E-02  mag=     0.0000
 trial-energy change:   -0.007364  1 .order   -0.007923   -0.010752   -0.005094
 step:  26.1903(harm= 26.1903)  dis= 0.02199  next Energy=  -117.058967 (dE=-0.102E-01)
 bond charge predicted
       N       E                     dE             d eps       ncg     rms          rms(c)
DAV:   1    -0.117049353970E+03    0.67739E-02   -0.19194E+01  1536   0.608E+00    0.161E-01
DAV:   2    -0.117058247947E+03   -0.88940E-02   -0.86733E-02  1600   0.575E-01    0.149E-01
DAV:   3    -0.117058149455E+03    0.98492E-04   -0.13411E-03  1648   0.701E-02    0.112E-01
DAV:   4    -0.117057886903E+03    0.26255E-03   -0.45370E-04  1600   0.320E-02    0.562E-02
DAV:   5    -0.117057875556E+03    0.11346E-04   -0.30536E-04  1152   0.269E-02
  90 F= -.11705788E+03 E0= -.11705788E+03  d E =-.912501E-02  mag=     0.0000
 curvature: -31.35 expect dE=-0.212E-01 dE for cont linesearch -0.273E-05
 trial: gam= 0.68800 g(F)=  0.675E-03 g(S)=  0.000E+00 ort = 0.128E-04 (trialstep = 0.163E+02)
 search vector abs. value=  0.158E-02
 bond charge predicted
       N       E                     dE             d eps       ncg     rms          rms(c)
DAV:   1    -0.117052380839E+03    0.55061E-02   -0.27837E+01  1536   0.731E+00    0.185E-01
DAV:   2    -0.117065584876E+03   -0.13204E-01   -0.12656E-01  1600   0.693E-01    0.177E-01
DAV:   3    -0.117065461329E+03    0.12355E-03   -0.18783E-03  1648   0.829E-02    0.134E-01
DAV:   4    -0.117065077281E+03    0.38405E-03   -0.58077E-04  1600   0.362E-02    0.720E-02
DAV:   5    -0.117065040583E+03    0.36698E-04   -0.55331E-04  1632   0.346E-02
  91 F= -.11706504E+03 E0= -.11706504E+03  d E =-.716503E-02  mag=     0.0000
 trial-energy change:   -0.007165  1 .order   -0.007774   -0.011121   -0.004426
 step:  27.0160(harm= 27.0160)  dis= 0.02813  next Energy=  -117.067113 (dE=-0.924E-02)
 bond charge predicted
       N       E                     dE             d eps       ncg     rms          rms(c)
DAV:   1    -0.117060448728E+03    0.46286E-02   -0.12159E+01  1536   0.483E+00    0.125E-01
DAV:   2    -0.117066119282E+03   -0.56706E-02   -0.55425E-02  1632   0.458E-01    0.116E-01
DAV:   3    -0.117066063815E+03    0.55467E-04   -0.82415E-04  1616   0.551E-02
  92 F= -.11706606E+03 E0= -.11706606E+03  d E =-.818826E-02  mag=     0.0000
 curvature: -31.14 expect dE=-0.189E-01 dE for cont linesearch -0.639E-04
 trial: gam= 0.88497 g(F)=  0.606E-03 g(S)=  0.000E+00 ort =-0.569E-04 (trialstep = 0.167E+02)
 search vector abs. value=  0.174E-02
 bond charge predicted
       N       E                     dE             d eps       ncg     rms          rms(c)
DAV:   1    -0.117057301590E+03    0.88177E-02   -0.32373E+01  1536   0.787E+00    0.197E-01
DAV:   2    -0.117072125969E+03   -0.14824E-01   -0.14481E-01  1616   0.738E-01    0.198E-01
DAV:   3    -0.117071917545E+03    0.20842E-03   -0.20730E-03  1664   0.844E-02    0.157E-01
DAV:   4    -0.117071350197E+03    0.56735E-03   -0.92586E-04  1584   0.451E-02    0.785E-02
DAV:   5    -0.117071315222E+03    0.34975E-04   -0.69801E-04  1632   0.389E-02
  93 F= -.11707132E+03 E0= -.11707132E+03  d E =-.525141E-02  mag=     0.0000
 trial-energy change:   -0.005251  1 .order   -0.005917   -0.009271   -0.002563
 step:  23.0586(harm= 23.0586)  dis= 0.02943  next Energy=  -117.072471 (dE=-0.641E-02)
 bond charge predicted
       N       E                     dE             d eps       ncg     rms          rms(c)
DAV:   1    -0.117069269848E+03    0.20803E-02   -0.47119E+00  1536   0.300E+00    0.785E-02
DAV:   2    -0.117071481522E+03   -0.22117E-02   -0.21697E-02  1616   0.284E-01    0.678E-02
DAV:   3    -0.117071462580E+03    0.18942E-04   -0.28943E-04  1088   0.334E-02
  94 F= -.11707146E+03 E0= -.11707146E+03  d E =-.539876E-02  mag=     0.0000
 curvature: -36.10 expect dE=-0.177E-01 dE for cont linesearch -0.931E-03
 trial: gam= 0.00000 g(F)=  0.490E-03 g(S)=  0.000E+00 ort =-0.212E-03 (trialstep = 0.180E+02)
 search vector abs. value=  0.490E-03
 bond charge predicted
       N       E                     dE             d eps       ncg     rms          rms(c)
DAV:   1    -0.117070111606E+03    0.13699E-02   -0.10626E+01  1536   0.453E+00    0.163E-01
DAV:   2    -0.117074952222E+03   -0.48406E-02   -0.48880E-02  1584   0.427E-01    0.131E-01
DAV:   3    -0.117074865095E+03    0.87127E-04   -0.78993E-04  1664   0.527E-02
  95 F= -.11707487E+03 E0= -.11707487E+03  d E =-.340252E-02  mag=     0.0000
 trial-energy change:   -0.003403  1 .order   -0.003437   -0.008806    0.001933
 step:  14.7264(harm= 14.7264)  dis= 0.00745  next Energy=  -117.075073 (dE=-0.361E-02)
 bond charge predicted
       N       E                     dE             d eps       ncg     rms          rms(c)
DAV:   1    -0.117074758419E+03    0.19380E-03   -0.34011E-01  1568   0.808E-01    0.241E-02
DAV:   2    -0.117074922216E+03   -0.16380E-03   -0.15990E-03  1664   0.794E-02    0.149E-02
DAV:   3    -0.117074921217E+03    0.99883E-06   -0.25634E-05   912   0.110E-02
  96 F= -.11707492E+03 E0= -.11707492E+03  d E =-.345864E-02  mag=     0.0000
 curvature:  -7.36 expect dE=-0.200E-02 dE for cont linesearch -0.189E-04
 trial: gam= 0.48179 g(F)=  0.272E-03 g(S)=  0.000E+00 ort = 0.355E-04 (trialstep = 0.173E+02)
 search vector abs. value=  0.420E-03
 bond charge predicted
       N       E                     dE             d eps       ncg     rms          rms(c)
DAV:   1    -0.117074151129E+03    0.77109E-03   -0.84058E+00  1536   0.403E+00    0.112E-01
DAV:   2    -0.117078009493E+03   -0.38584E-02   -0.37972E-02  1584   0.380E-01    0.103E-01
DAV:   3    -0.117077957867E+03    0.51627E-04   -0.58719E-04  1632   0.459E-02
  97 F= -.11707796E+03 E0= -.11707796E+03  d E =-.303665E-02  mag=     0.0000
 trial-energy change:   -0.003037  1 .order   -0.003097   -0.005000   -0.001194
 step:  22.7419(harm= 22.7419)  dis= 0.01138  next Energy=  -117.078205 (dE=-0.328E-02)
 bond charge predicted
       N       E                     dE             d eps       ncg     rms          rms(c)
DAV:   1    -0.117077683539E+03    0.32595E-03   -0.83283E-01  1584   0.127E+00    0.611E-02
DAV:   2    -0.117078027728E+03   -0.34419E-03   -0.35093E-03  1648   0.116E-01    0.499E-02
DAV:   3    -0.117078004351E+03    0.23377E-04   -0.65462E-05   944   0.142E-02
  98 F= -.11707800E+03 E0= -.11707800E+03  d E =-.308313E-02  mag=     0.0000
 curvature: -16.53 expect dE=-0.261E-02 dE for cont linesearch -0.534E-04
 trial: gam= 0.68061 g(F)=  0.158E-03 g(S)=  0.000E+00 ort =-0.368E-04 (trialstep = 0.184E+02)
 search vector abs. value=  0.302E-03
 bond charge predicted
       N       E                     dE             d eps       ncg     rms          rms(c)
DAV:   1    -0.117076838109E+03    0.11896E-02   -0.68292E+00  1536   0.363E+00    0.858E-02
DAV:   2    -0.117079999905E+03   -0.31618E-02   -0.30362E-02  1616   0.339E-01    0.846E-02
DAV:   3    -0.117079964939E+03    0.34966E-04   -0.43025E-04  1552   0.388E-02
  99 F= -.11707996E+03 E0= -.11707996E+03  d E =-.196059E-02  mag=     0.0000
 trial-energy change:   -0.001961  1 .order   -0.001761   -0.002445   -0.001077
 step:  32.8869(harm= 32.8869)  dis= 0.01101  next Energy=  -117.080190 (dE=-0.219E-02)
 bond charge predicted
       N       E                     dE             d eps       ncg     rms          rms(c)
DAV:   1    -0.117078298751E+03    0.17012E-02   -0.42407E+00  1536   0.286E+00    0.847E-02
DAV:   2    -0.117080158509E+03   -0.18598E-02   -0.18201E-02  1616   0.264E-01    0.836E-02
DAV:   3    -0.117080110677E+03    0.47831E-04   -0.22883E-04   960   0.291E-02
 100 F= -.11708011E+03 E0= -.11708011E+03  d E =-.210633E-02  mag=     0.0000
 curvature: -37.40 expect dE=-0.768E-02 dE for cont linesearch -0.106E-02
 ZBRENT: interpolating
 opt :  24.0120  next Energy=  -117.080129 (dE=-0.212E-02)
 bond charge predicted
       N       E                     dE             d eps       ncg     rms          rms(c)
DAV:   1    -0.117079323035E+03    0.83547E-03   -0.15734E+00  1568   0.174E+00    0.358E-02
DAV:   2    -0.117080089472E+03   -0.76644E-03   -0.72216E-03  1616   0.166E-01    0.361E-02
DAV:   3    -0.117080081348E+03    0.81242E-05   -0.94728E-05   960   0.196E-02
 101 F= -.11708008E+03 E0= -.11708008E+03  d E =-.207700E-02  mag=     0.0000
 curvature:  -5.80 expect dE=-0.611E-03 dE for cont linesearch -0.915E-04
 trial: gam= 0.00000 g(F)=  0.105E-03 g(S)=  0.000E+00 ort = 0.691E-04 (trialstep = 0.195E+02)
 search vector abs. value=  0.105E-03
 bond charge predicted
       N       E                     dE             d eps       ncg     rms          rms(c)
DAV:   1    -0.117080168294E+03   -0.78822E-04   -0.26843E+00  1536   0.227E+00    0.676E-02
DAV:   2    -0.117081467359E+03   -0.12991E-02   -0.12494E-02  1616   0.217E-01    0.563E-02
DAV:   3    -0.117081453045E+03    0.14314E-04   -0.17250E-04   928   0.268E-02
 102 F= -.11708145E+03 E0= -.11708145E+03  d E =-.137170E-02  mag=     0.0000
 trial-energy change:   -0.001372  1 .order   -0.001081   -0.002057   -0.000105
 step:  20.5676(harm= 20.5676)  dis= 0.00517  next Energy=  -117.081165 (dE=-0.108E-02)
 bond charge predicted
       N       E                     dE             d eps       ncg     rms          rms(c)
DAV:   1    -0.117081469255E+03   -0.18956E-05   -0.85825E-03  1616   0.130E-01    0.155E-02
DAV:   2    -0.117081472281E+03   -0.30264E-05   -0.29878E-05   944   0.114E-02
 103 F= -.11708147E+03 E0= -.11708147E+03  d E =-.139093E-02  mag=     0.0000
 curvature: -10.28 expect dE=-0.553E-03 dE for cont linesearch -0.126E-03
 trial: gam= 0.16840 g(F)=  0.537E-04 g(S)=  0.000E+00 ort = 0.360E-04 (trialstep = 0.197E+02)
 search vector abs. value=  0.688E-04
 bond charge predicted
       N       E                     dE             d eps       ncg     rms          rms(c)
DAV:   1    -0.117081671287E+03   -0.20203E-03   -0.17917E+00  1536   0.185E+00    0.495E-02
DAV:   2    -0.117082526979E+03   -0.85569E-03   -0.81208E-03  1600   0.176E-01    0.476E-02
DAV:   3    -0.117082517406E+03    0.95732E-05   -0.11287E-04   912   0.212E-02
 104 F= -.11708252E+03 E0= -.11708252E+03  d E =-.104512E-02  mag=     0.0000
 trial-energy change:   -0.001045  1 .order   -0.000747   -0.001180   -0.000315
 step:  26.9286(harm= 26.9286)  dis= 0.00777  next Energy=  -117.082277 (dE=-0.805E-03)
 bond charge predicted
       N       E                     dE             d eps       ncg     rms          rms(c)
DAV:   1    -0.117082649972E+03   -0.12299E-03   -0.24184E-01  1552   0.682E-01    0.270E-02
DAV:   2    -0.117082755936E+03   -0.10596E-03   -0.10337E-03  1520   0.629E-02    0.236E-02
DAV:   3    -0.117082752401E+03    0.35347E-05   -0.14454E-05   912   0.731E-03
 105 F= -.11708275E+03 E0= -.11708275E+03  d E =-.128012E-02  mag=     0.0000
 curvature: -15.50 expect dE=-0.113E-02 dE for cont linesearch -0.135E-03
 trial: gam= 0.00000 g(F)=  0.728E-04 g(S)=  0.000E+00 ort = 0.245E-04 (trialstep = 0.200E+02)
 search vector abs. value=  0.728E-04
 bond charge predicted
       N       E                     dE             d eps       ncg     rms          rms(c)
DAV:   1    -0.117082616677E+03    0.13926E-03   -0.19591E+00  1536   0.194E+00    0.656E-02
DAV:   2    -0.117083511971E+03   -0.89529E-03   -0.87091E-03  1584   0.180E-01    0.543E-02
DAV:   3    -0.117083494920E+03    0.17051E-04   -0.12858E-04   912   0.218E-02
 106 F= -.11708349E+03 E0= -.11708349E+03  d E =-.742520E-03  mag=     0.0000
 trial-energy change:   -0.000743  1 .order   -0.000441   -0.001457    0.000575
 step:  14.3573(harm= 14.3573)  dis= 0.00314  next Energy=  -117.083275 (dE=-0.522E-03)
 bond charge predicted
       N       E                     dE             d eps       ncg     rms          rms(c)
DAV:   1    -0.117083357861E+03    0.15411E-03   -0.15400E-01  1568   0.541E-01    0.135E-02
DAV:   2    -0.117083431806E+03   -0.73945E-04   -0.69796E-04  1488   0.514E-02
 107 F= -.11708343E+03 E0= -.11708343E+03  d E =-.679405E-03  mag=     0.0000
 curvature:  -7.18 expect dE=-0.640E-03 dE for cont linesearch -0.166E-03
 trial: gam= 0.00000 g(F)=  0.891E-04 g(S)=  0.000E+00 ort = 0.410E-04 (trialstep = 0.154E+02)
 search vector abs. value=  0.891E-04
 reached required accuracy - stopping structural energy minimisation
Application 91238390 resources: utime ~757175s, stime ~2250s, Rss ~120344, inblocks ~4671067, outblocks ~2835999
