25
Energy = -264.99056497 Dir = /p/work1/plile1/GA_structures/W/25/all_candidates/1591/
W 9.003646048123592 8.186469993794088 5.139696098667997
W 6.929928229432087 8.855718458339554 6.313210285461268
W 8.101513015059457 6.50952762391644 6.896678727005885
W 5.583710898193887 6.81623677445447 6.553624327576415
W 9.207583239062746 10.278605297318208 6.656080915428882
W 11.53326725954233 10.931061411649322 7.658398043641139
W 10.51881598207235 8.18118555973508 7.106666939930935
W 9.819804285933513 12.55997384966707 8.273585557893286
W 8.168123530244868 8.194689506338184 8.776501484328275
W 5.377840281282738 8.61965855838019 8.420625619481221
W 6.1315860824202995 6.411710893013731 8.95450059724091
W 7.417886411721759 10.673974690799115 8.501063363353396
W 12.93572502266692 10.353836787551193 9.771317581556422
W 10.08998814091022 9.956996918280208 9.444017307643882
W 10.300527006139202 6.089577094652246 8.676972924940573
W 8.364648494232082 5.320165930284694 9.575615800096617
W 12.014071871601503 8.140158539834973 9.231108213090273
W 6.4452268444987215 9.697117767661608 10.59653189486957
W 11.261328716540318 12.159216133045708 10.300184404301394
W 8.535632170455898 11.752691466889408 10.481882120091703
W 7.283093170063432 7.405003822134283 11.079375875565107
W 9.918481876918154 7.540670425380291 10.76564964628037
W 8.699559709743127 9.570651431770372 11.95719982443014
W 11.545032644420116 9.652595887485466 11.698016295009626
W 10.150494229145945 11.480020338049242 12.5090113125397
