30
Energy = -319.41825822 Dir = /p/work1/plile1/GA_structures/W/30/all_candidates/542/
W 11.100370603298865 9.474985924776359 4.547907801663182
W 9.882559842948595 7.54130967749984 5.9434146105694765
W 12.455450927887386 8.136743154233335 6.212800303244065
W 11.862764527310382 5.810223165341478 6.226426638387523
W 9.261229509116449 10.155236846026575 6.022336622215325
W 7.135534681819959 8.624237508203914 6.156304939387191
W 11.90830800408616 10.690742587160162 6.423953699990631
W 5.297370022933126 9.932176948463335 7.387273291316795
W 7.07863254522713 11.541267742844184 7.25269087415376
W 10.80036309636712 8.788076826716066 8.164492976463917
W 7.43850659717688 6.609205260243975 7.759213842715568
W 10.094431656278774 5.907975898525044 8.021061507881669
W 10.094606513350838 11.407133230263941 8.058791748332172
W 12.456203450508312 6.80592012867196 8.550609900923432
W 7.970552159300825 9.429469175217768 8.357071478315826
W 8.09790680105979 4.765154526835374 9.245567591657723
W 6.01388528167433 8.112577309535721 9.226306164152547
W 8.987817320479584 7.414533384629408 9.838603788501635
W 8.022705936464222 11.99726997717945 9.597583446719222
W 5.7447717185872404 10.837471054168562 9.76309190071453
W 9.876882401668405 10.245447651346902 10.425502030542026
W 11.066798606770476 5.8233539210286365 10.409019304127998
W 6.972233467640154 6.267046548438 10.687344785207781
W 11.440805472618164 8.076992736519838 10.922257394197263
W 7.447204221179382 9.43232655506602 11.29159737485832
W 8.051435118757873 11.762579788250894 12.243644025171392
W 6.216564148423658 13.058024079660761 11.181360233180902
W 9.282618211355924 7.766054669493993 12.320111715276573
W 9.744173414556764 9.965943851825017 12.90767651656916
W 5.646791982749193 11.069998113428792 12.305461735158584
