5
Energy = -41.46859133 eV
W 11.577367783048233 9.25368229387611 6.697899843228034
W 10.359009754760889 9.072199049091338 8.125356208472125
W 7.875224499377261 8.457760295666311 9.41313868927847
W 9.20932337554218 9.768314039870079 10.659273150435578
W 7.043910133480981 9.523439162669016 11.210489309214656
