8
Energy = -644.0
W 0.782983 0.71171 -1.130182
W -1.537275 -0.14843 -1.509623
W -0.920059 -1.212311 1.006171
W -0.153684 -2.052628 -1.202638
W 0.608606 2.451214 0.578486
W 1.708109 -1.274629 0.048636
W 0.963526 0.355535 1.685441
W -1.452207 1.169539 0.523708
