9
Energy = -643.0
W -1.209346 -0.698473 -2.172988
W 1.209503 -0.698063 -2.173058
W -2.25E-4 1.396306 -2.172866
W -1.302546 0.751484 -7.5E-5
W 1.302325 0.751804 -9.6E-5
W 2.76E-4 -1.504356 1.75E-4
W -1.209322 -0.697965 2.173164
W 1.209535 -0.697556 2.173205
W -1.98E-4 1.396819 2.172542
