 vasp.5.3.5 31Mar14 (build Feb 01 2018 12:10:03) gamma-only                     
  
 executed on             LinuxIFC date 2019.04.09  01:53:32
 running on   32 total cores
 distrk:  each k-point on   32 cores,    1 groups
 distr:  one band on NCORES_PER_BAND=   8 cores,    4 groups


--------------------------------------------------------------------------------------------------------


 INCAR:
 POTCAR:    PAW_PBE Pd 04Jan2005                  
 POTCAR:    PAW_PBE Pd 04Jan2005                  
   VRHFIN =Pd : s1 d9                                                           
   LEXCH  = PE                                                                  
   EATOM  =   809.7530 eV,   59.5152 Ry                                         
                                                                                
   TITEL  = PAW_PBE Pd 04Jan2005                                                
   LULTRA =        F    use ultrasoft PP ?                                      
   IUNSCR =        1    unscreen: 0-lin 1-nonlin 2-no                           
   RPACOR =    2.000    partial core radius                                     
   POMASS =  106.420; ZVAL   =   10.000    mass and valenz                      
   RCORE  =    2.600    outmost cutoff radius                                   
   RWIGS  =    2.710; RWIGS  =    1.434    wigner-seitz radius (au A)           
   ENMAX  =  250.925; ENMIN  =  188.194 eV                                      
   ICORE  =        3    local potential                                         
   LCOR   =        T    correct aug charges                                     
   LPAW   =        T    paw PP                                                  
   EAUG   =  416.230                                                            
   DEXC   =    0.000                                                            
   RMAX   =    2.653    core radius for proj-oper                               
   RAUG   =    1.300    factor for augmentation sphere                          
   RDEP   =    2.734    radius for radial grids                                 
   RDEPT  =    2.103    core radius for aug-charge                              
                                                                                
   Atomic configuration                                                         
   12 entries                                                                   
     n  l   j            E        occ.                                          
     1  0  0.50    -24164.6631   2.0000                                         
     2  0  0.50     -3530.9218   2.0000                                         
     2  1  1.50     -3165.6822   6.0000                                         
     3  0  0.50      -639.4577   2.0000                                         
     3  1  1.50      -519.4532   6.0000                                         
     3  2  2.50      -328.9757  10.0000                                         
     4  0  0.50       -88.7014   2.0000                                         
     4  1  1.50       -54.4540   6.0000                                         
     4  2  2.50        -6.6878   9.0000                                         
     5  0  0.50        -4.3543   1.0000                                         
     5  1  0.50        -1.3606   0.0000                                         
     4  3  2.50        -1.3606   0.0000                                         
   Description                                                                  
     l       E           TYP  RCUT    TYP  RCUT                                 
     2     -6.6878251     23  2.400                                             
     2     -8.0484077     23  2.400                                             
     0     -4.3542939     23  2.400                                             
     0      4.3406793     23  2.400                                             
     1     -4.0817478     23  2.600                                             
     1     15.8380318     23  2.600                                             
     3     -4.0817478     23  2.400                                             
  local pseudopotential read in
  partial core-charges read in
  partial kinetic energy density read in
  atomic valenz-charges read in
  non local Contribution for L=           2  read in
    real space projection operators read in
  non local Contribution for L=           2  read in
    real space projection operators read in
  non local Contribution for L=           0  read in
    real space projection operators read in
  non local Contribution for L=           0  read in
    real space projection operators read in
  non local Contribution for L=           1  read in
    real space projection operators read in
  non local Contribution for L=           1  read in
    real space projection operators read in
    PAW grid and wavefunctions read in
 
   number of l-projection  operators is LMAX  =           6
   number of lm-projection operators is LMMAX =          18
 
  PAW_PBE Pd 04Jan2005                  :
 energy of atom  1       EATOM= -809.7530
 kinetic energy error for atom=    0.0653 (will be added to EATOM!!)
 
 
 POSCAR: Mo11, -837.0 <s> Pd </s>                
  positions in direct lattice
  No initial velocities read in
 exchange correlation table for  LEXCH =        8
   RHO(1)=    0.500       N(1)  =     2000
   RHO(2)=  100.500       N(2)  =     4000
 


--------------------------------------------------------------------------------------------------------


 ion  position               nearest neighbor table
   1  0.580  0.608  0.553-   7 2.49   6 2.54   2 2.54   9 2.56  10 3.04
   2  0.599  0.469  0.569-  10 2.47   5 2.47   1 2.54   7 2.54
   3  0.361  0.388  0.512-   8 2.18   4 2.60   5 2.95  10 2.96
   4  0.409  0.510  0.450-  11 2.46   9 2.46   3 2.60   5 2.72  10 2.72   6 3.05
   5  0.520  0.409  0.474-   2 2.47  11 2.53   8 2.59   4 2.72  10 2.73   3 2.95   7 3.04
   6  0.528  0.628  0.423-   9 2.51  11 2.52   1 2.54   7 2.54   4 3.05
   7  0.630  0.534  0.447-   1 2.49   6 2.54   2 2.54  11 2.56   5 3.04
   8  0.450  0.347  0.584-   3 2.18  10 2.58   5 2.59
   9  0.439  0.616  0.531-   4 2.46   6 2.51  10 2.53   1 2.56
  10  0.465  0.490  0.590-   2 2.47   9 2.53   8 2.58   4 2.72   5 2.73   3 2.96   1 3.04
  11  0.518  0.500  0.367-   4 2.46   6 2.52   5 2.53   7 2.56
 
  LATTYP: Found a simple cubic cell.
 ALAT       =    17.9438880000
  
  Lattice vectors:
  
 A1 = (  17.9438880000,   0.0000000000,   0.0000000000)
 A2 = (   0.0000000000,  17.9438880000,   0.0000000000)
 A3 = (   0.0000000000,   0.0000000000,  17.9438880000)


Analysis of symmetry for initial positions (statically):
=====================================================================
 Subroutine PRICEL returns:
 Original cell was already a primitive cell.
 

 Routine SETGRP: Setting up the symmetry group for a 
 simple cubic supercell.


 Subroutine GETGRP returns: Found  1 space group operations
 (whereof  1 operations were pure point group operations)
 out of a pool of 48 trial point group operations.


The static configuration has the point symmetry C_1 .


Analysis of symmetry for dynamics (positions and initial velocities):
=====================================================================
 Subroutine PRICEL returns:
 Original cell was already a primitive cell.
 

 Routine SETGRP: Setting up the symmetry group for a 
 simple cubic supercell.


 Subroutine GETGRP returns: Found  1 space group operations
 (whereof  1 operations were pure point group operations)
 out of a pool of 48 trial point group operations.


The dynamic configuration has the point symmetry C_1 .


Analysis of magnetic symmetry:
=====================================================================
 Subroutine PRICEL returns:
 Original cell was already a primitive cell.
 

 Subroutine MAGSYM returns: Found  1 space group operations
 (whereof  1 operations were pure point group operations)
 out of a pool of  1 trial space group operations
 (whereof  1 operations were pure point group operations)
 and found also     1 'primitive' translations


The magnetic configuration has the point symmetry C_1 .
 
 
 KPOINTS: Gamma-point only                        
  k-points in reciprocal lattice
Space group operators:
 irot       det(A)        alpha          n_x          n_y          n_z        tau_x        tau_y        tau_z
    1     1.000000     0.000001     1.000000     0.000000     0.000000     0.000000     0.000000     0.000000


--------------------------------------------------------------------------------------------------------




 Dimension of arrays:
   k-points           NKPTS =      1   k-points in BZ     NKDIM =      1   number of bands    NBANDS=     72
   number of dos      NEDOS =    301   number of ions     NIONS =     11
   non local maximal  LDIM  =      6   non local SUM 2l+1 LMDIM =     18
   total plane-waves  NPLWV = 343000
   max r-space proj   IRMAX =      1   max aug-charges    IRDMAX=   3079
   dimension x,y,z NGX =    70 NGY =   70 NGZ =   70
   dimension x,y,z NGXF=   140 NGYF=  140 NGZF=  140
   support grid    NGXF=   140 NGYF=  140 NGZF=  140
   ions per type =              11
 NGX,Y,Z   is equivalent  to a cutoff of   6.49,  6.49,  6.49 a.u.
 NGXF,Y,Z  is equivalent  to a cutoff of  12.97, 12.97, 12.97 a.u.


 I would recommend the setting:
   dimension x,y,z NGX =    70 NGY =   70 NGZ =   70
 SYSTEM =  unknown system                          
 POSCAR =  Mo11, -837.0 <s> Pd </s>                

 Startparameter for this run:
   NWRITE =      2    write-flag & timer
   PREC   = normal    normal or accurate (medium, high low for compatibility)
   ISTART =      0    job   : 0-new  1-cont  2-samecut
   ICHARG =      2    charge: 1-file 2-atom 10-const
   ISPIN  =      2    spin polarized calculation?
   LNONCOLLINEAR =      F non collinear calculations
   LSORBIT =      F    spin-orbit coupling
   INIWAV =      1    electr: 0-lowe 1-rand  2-diag
   LASPH  =      F    aspherical Exc in radial PAW
   METAGGA=      F    non-selfconsistent MetaGGA calc.

 Electronic Relaxation 1
   ENCUT  =  250.9 eV  18.44 Ry    4.29 a.u.  23.18 23.18 23.18*2*pi/ulx,y,z
   ENINI  =  250.9     initial cutoff
   ENAUG  =  416.2 eV  augmentation charge cutoff
   NELM   =     60;   NELMIN=  2; NELMDL= -5     # of ELM steps 
   EDIFF  = 0.1E-03   stopping-criterion for ELM
   LREAL  =      F    real-space projection
   NLSPLINE    = F    spline interpolate recip. space projectors
   LCOMPAT=      F    compatible to vasp.4.4
   GGA_COMPAT  = T    GGA compatible to vasp.4.4-vasp.4.6
   LMAXPAW     = -100 max onsite density
   LMAXMIX     =    2 max onsite mixed and CHGCAR
   VOSKOWN=      0    Vosko Wilk Nusair interpolation
   ROPT   =    0.00000
 Ionic relaxation
   EDIFFG = 0.1E-02   stopping-criterion for IOM
   NSW    =   1000    number of steps for IOM
   NBLOCK =      1;   KBLOCK =   1000    inner block; outer block 
   IBRION =      2    ionic relax: 0-MD 1-quasi-New 2-CG
   NFREE  =      1    steps in history (QN), initial steepest desc. (CG)
   ISIF   =      2    stress and relaxation
   IWAVPR =     11    prediction:  0-non 1-charg 2-wave 3-comb
   ISYM   =      2    0-nonsym 1-usesym 2-fastsym
   LCORR  =      T    Harris-Foulkes like correction to forces

   POTIM  = 0.1000    time-step for ionic-motion
   TEIN   =    0.0    initial temperature
   TEBEG  =    0.0;   TEEND  =   0.0 temperature during run
   SMASS  =  -3.00    Nose mass-parameter (am)
   estimated Nose-frequenzy (Omega)   =  0.10E-29 period in steps =****** mass=  -0.736E-26a.u.
   SCALEE = 1.0000    scale energy and forces
   NPACO  =    256;   APACO  = 16.0  distance and # of slots for P.C.
   PSTRESS=    0.0 pullay stress

  Mass of Ions in am
   POMASS = 106.42
  Ionic Valenz
   ZVAL   =  10.00
  Atomic Wigner-Seitz radii
   RWIGS  =  -1.00
  virtual crystal weights 
   VCA    =   1.00
   NELECT =     110.0000    total number of electrons
   NUPDOWN=      -1.0000    fix difference up-down

 DOS related values:
   EMIN   =  10.00;   EMAX   =-10.00  energy-range for DOS
   EFERMI =   0.00
   ISMEAR =     0;   SIGMA  =   0.00  broadening in eV -4-tet -1-fermi 0-gaus

 Electronic relaxation 2 (details)
   IALGO  =     38    algorithm
   LDIAG  =      T    sub-space diagonalisation (order eigenvalues)
   LSUBROT=      F    optimize rotation matrix (better conditioning)
   TURBO    =      0    0=normal 1=particle mesh
   IRESTART =      0    0=no restart 2=restart with 2 vectors
   NREBOOT  =      0    no. of reboots
   NMIN     =      0    reboot dimension
   EREF     =   0.00    reference energy to select bands
   IMIX   =      4    mixing-type and parameters
     AMIX     =   0.40;   BMIX     =  1.00
     AMIX_MAG =   1.60;   BMIX_MAG =  1.00
     AMIN     =   0.10
     WC   =   100.;   INIMIX=   1;  MIXPRE=   1;  MAXMIX= -45

 Intra band minimization:
   WEIMIN = 0.0010     energy-eigenvalue tresh-hold
   EBREAK =  0.35E-06  absolut break condition
   DEPER  =   0.30     relativ break condition  

   TIME   =   0.40     timestep for ELM

  volume/ion in A,a.u.               =     525.24      3544.49
  Fermi-wavevector in a.u.,A,eV,Ry     =   0.437142  0.826079  2.599980  0.191093
  Thomas-Fermi vector in A             =   1.409825
 
 Write flags
   LWAVE  =      F    write WAVECAR
   LCHARG =      F    write CHGCAR
   LVTOT  =      F    write LOCPOT, total local potential
   LVHAR  =      F    write LOCPOT, Hartree potential only
   LELF   =      F    write electronic localiz. function (ELF)
   LORBIT =      0    0 simple, 1 ext, 2 COOP (PROOUT)


 Dipole corrections
   LMONO  =      F    monopole corrections only (constant potential shift)
   LDIPOL =      F    correct potential (dipole corrections)
   IDIPOL =      0    1-x, 2-y, 3-z, 4-all directions 
   EPSILON=  1.0000000 bulk dielectric constant

 Exchange correlation treatment:
   GGA     =    PE    GGA type
   LEXCH   =     8    internal setting for exchange type
   VOSKOWN=      0    Vosko Wilk Nusair interpolation
   LHFCALC =     F    Hartree Fock is set to
   LHFONE  =     F    Hartree Fock one center treatment
   AEXX    =    0.0000 exact exchange contribution

 Linear response parameters
   LEPSILON=     F    determine dielectric tensor
   LRPA    =     F    only Hartree local field effects (RPA)
   LNABLA  =     F    use nabla operator in PAW spheres
   LVEL    =     F    velocity operator in full k-point grid
   LINTERFAST=   F  fast interpolation
   KINTER  =     0    interpolate to denser k-point grid
   CSHIFT  =0.1000    complex shift for real part using Kramers Kronig
   OMEGAMAX=  -1.0    maximum frequency
   DEG_THRESHOLD= 0.2000000E-02 threshold for treating states as degnerate
   RTIME   =    0.100 relaxation time in fs

 Orbital magnetization related:
   ORBITALMAG=     F  switch on orbital magnetization
   LCHIMAG   =     F  perturbation theory with respect to B field
   DQ        =  0.001000  dq finite difference perturbation B field



--------------------------------------------------------------------------------------------------------


 conjugate gradient relaxation of ions
 charge density and potential will be updated during run
 spin polarized calculation
 Variant of blocked Davidson
 Davidson routine will perform the subspace rotation
 perform sub-space diagonalisation
    after iterative eigenvector-optimisation
 modified Broyden-mixing scheme, WC =      100.0
 initial mixing is a Kerker type mixing with AMIX =  0.4000 and BMIX =      1.0000
 Hartree-type preconditioning will be used
 using additional bands           17
 reciprocal scheme for non local part
 use partial core corrections
 calculate Harris-corrections to forces 
   (improved forces if not selfconsistent)
 use gradient corrections 
 use of overlap-Matrix (Vanderbilt PP)
 Gauss-broadening in eV      SIGMA  =   0.00


--------------------------------------------------------------------------------------------------------


  energy-cutoff  :      250.93
  volume of cell :     5777.63
      direct lattice vectors                 reciprocal lattice vectors
    17.943888000  0.000000000  0.000000000     0.055729282  0.000000000  0.000000000
     0.000000000 17.943888000  0.000000000     0.000000000  0.055729282  0.000000000
     0.000000000  0.000000000 17.943888000     0.000000000  0.000000000  0.055729282

  length of vectors
    17.943888000 17.943888000 17.943888000     0.055729282  0.055729282  0.055729282


 
 k-points in units of 2pi/SCALE and weight: Gamma-point only                        
   0.00000000  0.00000000  0.00000000       1.000
 
 k-points in reciprocal lattice and weights: Gamma-point only                        
   0.00000000  0.00000000  0.00000000       1.000
 
 position of ions in fractional coordinates (direct lattice) 
   0.58017786  0.60839563  0.55310478
   0.59924786  0.46906961  0.56876911
   0.36115526  0.38816757  0.51240846
   0.40906666  0.50962102  0.45010566
   0.51984452  0.40883025  0.47362832
   0.52795558  0.62834575  0.42334614
   0.63049055  0.53406693  0.44702395
   0.45029996  0.34705921  0.58367354
   0.43949425  0.61574918  0.53131818
   0.46474115  0.49025357  0.58978398
   0.51752635  0.50044128  0.36683789
 
 position of ions in cartesian coordinates  (Angst):
  10.41064658 10.91698298  9.92485022
  10.75283649  8.41693253 10.20592918
   6.48052953  6.96523544  9.19459993
   7.34024627  9.14458251  8.07664555
   9.32803177  7.33600430  8.49873361
   9.47357585 11.27496568  7.59647564
  11.31345176  9.58323723  8.02134778
   8.08013212  6.22759155 10.47337256
   7.88623567 11.04893437  9.53391387
   8.33926308  8.79705517 10.58301761
   9.28643491  8.97986226  6.58249810
 


--------------------------------------------------------------------------------------------------------


 use parallel FFT for wavefunctions z direction half grid
 k-point  1 :   0.0000 0.0000 0.0000  plane waves:   26090

 maximum and minimum number of plane-waves per node :      3263     3260

 maximum number of plane-waves:     26090
 maximum index in each direction: 
   IXMAX=   23   IYMAX=   23   IZMAX=   23
   IXMIN=  -23   IYMIN=  -23   IZMIN=    0

 WARNING: aliasing errors must be expected set NGX to  94 to avoid them
 WARNING: aliasing errors must be expected set NGY to  94 to avoid them
 WARNING: aliasing errors must be expected set NGZ to  94 to avoid them
 aliasing errors are usually negligible using standard VASP settings
 and one can safely disregard these warnings

 parallel 3D FFT for wavefunctions:
    minimum data exchange during FFTs selected (reduces bandwidth)
 parallel 3D FFT for charge:
    minimum data exchange during FFTs selected (reduces bandwidth)


 total amount of memory used by VASP on root node    47854. kBytes
========================================================================

   base      :      30000. kBytes
   nonl-proj :       1044. kBytes
   fftplans  :       4207. kBytes
   grid      :      10682. kBytes
   one-center:         31. kBytes
   wavefun   :       1890. kBytes
 
     INWAV:  cpu time    0.00: real time    0.00
 Broyden mixing: mesh for mixing (old mesh)
   NGX = 47   NGY = 47   NGZ = 47
  (NGX  =140   NGY  =140   NGZ  =140)
  gives a total of 103823 points

 initial charge density was supplied:
 charge density of overlapping atoms calculated
 number of electron     110.0000000 magnetization      11.0000000
 keeping initial charge density in first step


--------------------------------------------------------------------------------------------------------


 Maximum index for augmentation-charges          239 (set IRDMAX)


--------------------------------------------------------------------------------------------------------


 First call to EWALD:  gamma=   0.099
 Maximum number of real-space cells 3x 3x 3
 Maximum number of reciprocal cells 3x 3x 3

 FEWALD executed in parallel
    FEWALD:  cpu time    0.00: real time    0.00


----------------------------------------- Iteration    1(   1)  ---------------------------------------


    POTLOK:  cpu time    0.16: real time    0.16
    SETDIJ:  cpu time    0.00: real time    0.01
     EDDAV:  cpu time    0.46: real time    0.47
       DOS:  cpu time    0.00: real time    0.00
    --------------------------------------------
      LOOP:  cpu time    0.63: real time    0.65

 eigenvalue-minimisations  :   288
 total energy-change (2. order) : 0.9585297E+03  (-0.1710070E+04)
 number of electron     110.0000000 magnetization      11.0000000
 augmentation part      110.0000000 magnetization      11.0000000

 Free energy of the ion-electron system (eV)
  ---------------------------------------------------
  alpha Z        PSCENC =        13.64954768
  Ewald energy   TEWEN  =     10809.46508911
  -Hartree energ DENC   =    -19292.01576715
  -exchange      EXHF   =         0.00000000
  -V(xc)+E(xc)   XCENC  =      -330.58328835
  PAW double counting   =      8873.12721117    -8188.75509675
  entropy T*S    EENTRO =         0.00000000
  eigenvalues    EBANDS =       167.07689878
  atomic energy  EATOM  =      8906.56515536
  ---------------------------------------------------
  free energy    TOTEN  =       958.52974984 eV

  energy without entropy =      958.52974984  energy(sigma->0) =      958.52974984


--------------------------------------------------------------------------------------------------------




----------------------------------------- Iteration    1(   2)  ---------------------------------------


     EDDAV:  cpu time    0.78: real time    0.77
       DOS:  cpu time    0.00: real time    0.00
    --------------------------------------------
      LOOP:  cpu time    0.78: real time    0.78

 eigenvalue-minimisations  :   544
 total energy-change (2. order) :-0.6019215E+03  (-0.5317406E+03)
 number of electron     110.0000000 magnetization      11.0000000
 augmentation part      110.0000000 magnetization      11.0000000

 Free energy of the ion-electron system (eV)
  ---------------------------------------------------
  alpha Z        PSCENC =        13.64954768
  Ewald energy   TEWEN  =     10809.46508911
  -Hartree energ DENC   =    -19292.01576715
  -exchange      EXHF   =         0.00000000
  -V(xc)+E(xc)   XCENC  =      -330.58328835
  PAW double counting   =      8873.12721117    -8188.75509675
  entropy T*S    EENTRO =         0.00000000
  eigenvalues    EBANDS =      -434.84457452
  atomic energy  EATOM  =      8906.56515536
  ---------------------------------------------------
  free energy    TOTEN  =       356.60827655 eV

  energy without entropy =      356.60827655  energy(sigma->0) =      356.60827655


--------------------------------------------------------------------------------------------------------




----------------------------------------- Iteration    1(   3)  ---------------------------------------


     EDDAV:  cpu time    0.64: real time    0.64
       DOS:  cpu time    0.00: real time    0.00
    --------------------------------------------
      LOOP:  cpu time    0.64: real time    0.65

 eigenvalue-minimisations  :   432
 total energy-change (2. order) :-0.3423914E+03  (-0.3236539E+03)
 number of electron     110.0000000 magnetization      11.0000000
 augmentation part      110.0000000 magnetization      11.0000000

 Free energy of the ion-electron system (eV)
  ---------------------------------------------------
  alpha Z        PSCENC =        13.64954768
  Ewald energy   TEWEN  =     10809.46508911
  -Hartree energ DENC   =    -19292.01576715
  -exchange      EXHF   =         0.00000000
  -V(xc)+E(xc)   XCENC  =      -330.58328835
  PAW double counting   =      8873.12721117    -8188.75509675
  entropy T*S    EENTRO =         0.00000000
  eigenvalues    EBANDS =      -777.23599104
  atomic energy  EATOM  =      8906.56515536
  ---------------------------------------------------
  free energy    TOTEN  =        14.21686003 eV

  energy without entropy =       14.21686003  energy(sigma->0) =       14.21686003


--------------------------------------------------------------------------------------------------------




----------------------------------------- Iteration    1(   4)  ---------------------------------------


     EDDAV:  cpu time    0.58: real time    0.58
       DOS:  cpu time    0.00: real time    0.00
    --------------------------------------------
      LOOP:  cpu time    0.58: real time    0.59

 eigenvalue-minimisations  :   376
 total energy-change (2. order) :-0.5176363E+02  (-0.4547401E+02)
 number of electron     110.0000000 magnetization      11.0000000
 augmentation part      110.0000000 magnetization      11.0000000

 Free energy of the ion-electron system (eV)
  ---------------------------------------------------
  alpha Z        PSCENC =        13.64954768
  Ewald energy   TEWEN  =     10809.46508911
  -Hartree energ DENC   =    -19292.01576715
  -exchange      EXHF   =         0.00000000
  -V(xc)+E(xc)   XCENC  =      -330.58328835
  PAW double counting   =      8873.12721117    -8188.75509675
  entropy T*S    EENTRO =        -0.00000000
  eigenvalues    EBANDS =      -828.99961617
  atomic energy  EATOM  =      8906.56515536
  ---------------------------------------------------
  free energy    TOTEN  =       -37.54676510 eV

  energy without entropy =      -37.54676510  energy(sigma->0) =      -37.54676510


--------------------------------------------------------------------------------------------------------




----------------------------------------- Iteration    1(   5)  ---------------------------------------


     EDDAV:  cpu time    0.58: real time    0.58
       DOS:  cpu time    0.00: real time    0.00
    CHARGE:  cpu time    0.04: real time    0.04
    MIXING:  cpu time    0.00: real time    0.00
    --------------------------------------------
      LOOP:  cpu time    0.62: real time    0.63

 eigenvalue-minimisations  :   376
 total energy-change (2. order) :-0.4026559E+01  (-0.3347608E+01)
 number of electron     110.0000252 magnetization       9.7767489
 augmentation part       47.1336302 magnetization       8.0758124

 Broyden mixing:
  rms(total) = 0.22517E+01    rms(broyden)= 0.22486E+01
  rms(prec ) = 0.23355E+01
  weight for this iteration     100.00

 Free energy of the ion-electron system (eV)
  ---------------------------------------------------
  alpha Z        PSCENC =        13.64954768
  Ewald energy   TEWEN  =     10809.46508911
  -Hartree energ DENC   =    -19292.01576715
  -exchange      EXHF   =         0.00000000
  -V(xc)+E(xc)   XCENC  =      -330.58328835
  PAW double counting   =      8873.12721117    -8188.75509675
  entropy T*S    EENTRO =         0.00000000
  eigenvalues    EBANDS =      -833.02617530
  atomic energy  EATOM  =      8906.56515536
  ---------------------------------------------------
  free energy    TOTEN  =       -41.57332423 eV

  energy without entropy =      -41.57332423  energy(sigma->0) =      -41.57332423


--------------------------------------------------------------------------------------------------------




----------------------------------------- Iteration    1(   6)  ---------------------------------------


    POTLOK:  cpu time    0.15: real time    0.15
    SETDIJ:  cpu time    0.01: real time    0.01
     EDDAV:  cpu time    0.48: real time    0.48
       DOS:  cpu time    0.00: real time    0.00
    CHARGE:  cpu time    0.03: real time    0.03
    MIXING:  cpu time    0.00: real time    0.00
    --------------------------------------------
      LOOP:  cpu time    0.67: real time    0.68

 eigenvalue-minimisations  :   288
 total energy-change (2. order) : 0.7223543E+01  (-0.1906126E+01)
 number of electron     110.0000263 magnetization       9.1660600
 augmentation part       46.8534941 magnetization       5.2884695

 Broyden mixing:
  rms(total) = 0.13286E+01    rms(broyden)= 0.13264E+01
  rms(prec ) = 0.14401E+01
  weight for this iteration     100.00

 eigenvalues of (default mixing * dielectric matrix)
  average eigenvalue GAMMA=   0.8050
  0.8050

 Free energy of the ion-electron system (eV)
  ---------------------------------------------------
  alpha Z        PSCENC =        13.64954768
  Ewald energy   TEWEN  =     10809.46508911
  -Hartree energ DENC   =    -19362.74236393
  -exchange      EXHF   =         0.00000000
  -V(xc)+E(xc)   XCENC  =      -327.17328698
  PAW double counting   =      9577.21281020    -8899.13400147
  entropy T*S    EENTRO =         0.00000000
  eigenvalues    EBANDS =      -752.19273077
  atomic energy  EATOM  =      8906.56515536
  ---------------------------------------------------
  free energy    TOTEN  =       -34.34978080 eV

  energy without entropy =      -34.34978080  energy(sigma->0) =      -34.34978080


--------------------------------------------------------------------------------------------------------




----------------------------------------- Iteration    1(   7)  ---------------------------------------


    POTLOK:  cpu time    0.15: real time    0.15
    SETDIJ:  cpu time    0.01: real time    0.01
     EDDAV:  cpu time    0.52: real time    0.53
       DOS:  cpu time    0.00: real time    0.00
    CHARGE:  cpu time    0.03: real time    0.03
    MIXING:  cpu time    0.00: real time    0.00
    --------------------------------------------
      LOOP:  cpu time    0.72: real time    0.73

 eigenvalue-minimisations  :   328
 total energy-change (2. order) :-0.2351330E+01  (-0.3058642E+01)
 number of electron     110.0000252 magnetization       8.6934477
 augmentation part       46.4946735 magnetization       4.8907612

 Broyden mixing:
  rms(total) = 0.18750E+01    rms(broyden)= 0.18705E+01
  rms(prec ) = 0.21799E+01
  weight for this iteration     100.00

 eigenvalues of (default mixing * dielectric matrix)
  average eigenvalue GAMMA=   0.7234
  0.3351  1.1117

 Free energy of the ion-electron system (eV)
  ---------------------------------------------------
  alpha Z        PSCENC =        13.64954768
  Ewald energy   TEWEN  =     10809.46508911
  -Hartree energ DENC   =    -19381.18364257
  -exchange      EXHF   =         0.00000000
  -V(xc)+E(xc)   XCENC  =      -325.76824534
  PAW double counting   =      9907.68718704    -9233.23990966
  entropy T*S    EENTRO =         0.00000000
  eigenvalues    EBANDS =      -733.87629235
  atomic energy  EATOM  =      8906.56515536
  ---------------------------------------------------
  free energy    TOTEN  =       -36.70111072 eV

  energy without entropy =      -36.70111072  energy(sigma->0) =      -36.70111072


--------------------------------------------------------------------------------------------------------




----------------------------------------- Iteration    1(   8)  ---------------------------------------


    POTLOK:  cpu time    0.15: real time    0.15
    SETDIJ:  cpu time    0.00: real time    0.01
     EDDAV:  cpu time    0.50: real time    0.50
       DOS:  cpu time    0.00: real time    0.00
    CHARGE:  cpu time    0.03: real time    0.03
    MIXING:  cpu time    0.00: real time    0.00
    --------------------------------------------
      LOOP:  cpu time    0.69: real time    0.75

 eigenvalue-minimisations  :   312
 total energy-change (2. order) : 0.1541935E+01  (-0.1664230E+01)
 number of electron     110.0000228 magnetization       8.4653512
 augmentation part       46.8816092 magnetization       5.7047104

 Broyden mixing:
  rms(total) = 0.18474E+01    rms(broyden)= 0.18425E+01
  rms(prec ) = 0.23389E+01
  weight for this iteration     100.00

 eigenvalues of (default mixing * dielectric matrix)
  average eigenvalue GAMMA=   0.6306
  1.2950  0.3397  0.2571

 Free energy of the ion-electron system (eV)
  ---------------------------------------------------
  alpha Z        PSCENC =        13.64954768
  Ewald energy   TEWEN  =     10809.46508911
  -Hartree energ DENC   =    -19390.08492341
  -exchange      EXHF   =         0.00000000
  -V(xc)+E(xc)   XCENC  =      -325.98050519
  PAW double counting   =     10122.73190409    -9451.27572000
  entropy T*S    EENTRO =         0.00000000
  eigenvalues    EBANDS =      -720.22972367
  atomic energy  EATOM  =      8906.56515536
  ---------------------------------------------------
  free energy    TOTEN  =       -35.15917604 eV

  energy without entropy =      -35.15917604  energy(sigma->0) =      -35.15917604


--------------------------------------------------------------------------------------------------------




----------------------------------------- Iteration    1(   9)  ---------------------------------------


    POTLOK:  cpu time    0.15: real time    0.15
    SETDIJ:  cpu time    0.00: real time    0.01
     EDDAV:  cpu time    0.52: real time    0.52
       DOS:  cpu time    0.00: real time    0.00
    CHARGE:  cpu time    0.04: real time    0.03
    MIXING:  cpu time    0.00: real time    0.00
    --------------------------------------------
      LOOP:  cpu time    0.72: real time    0.72

 eigenvalue-minimisations  :   320
 total energy-change (2. order) : 0.1752228E+01  (-0.1751819E+01)
 number of electron     110.0000257 magnetization       8.1499171
 augmentation part       46.8026516 magnetization       4.2981657

 Broyden mixing:
  rms(total) = 0.92522E+00    rms(broyden)= 0.91950E+00
  rms(prec ) = 0.10923E+01
  weight for this iteration     100.00

 eigenvalues of (default mixing * dielectric matrix)
  average eigenvalue GAMMA=   0.6426
  1.5699  0.4755  0.3945  0.1304

 Free energy of the ion-electron system (eV)
  ---------------------------------------------------
  alpha Z        PSCENC =        13.64954768
  Ewald energy   TEWEN  =     10809.46508911
  -Hartree energ DENC   =    -19396.50820362
  -exchange      EXHF   =         0.00000000
  -V(xc)+E(xc)   XCENC  =      -325.72434511
  PAW double counting   =     10183.76766057    -9512.95538586
  entropy T*S    EENTRO =         0.00000000
  eigenvalues    EBANDS =      -711.66646588
  atomic energy  EATOM  =      8906.56515536
  ---------------------------------------------------
  free energy    TOTEN  =       -33.40694775 eV

  energy without entropy =      -33.40694775  energy(sigma->0) =      -33.40694775


--------------------------------------------------------------------------------------------------------




----------------------------------------- Iteration    1(  10)  ---------------------------------------


    POTLOK:  cpu time    0.15: real time    0.15
    SETDIJ:  cpu time    0.00: real time    0.01
     EDDAV:  cpu time    0.48: real time    0.48
       DOS:  cpu time    0.00: real time    0.00
    CHARGE:  cpu time    0.03: real time    0.03
    MIXING:  cpu time    0.00: real time    0.00
    --------------------------------------------
      LOOP:  cpu time    0.68: real time    2.25

 eigenvalue-minimisations  :   304
 total energy-change (2. order) :-0.9468544E-01  (-0.2774646E+00)
 number of electron     110.0000261 magnetization       7.8414090
 augmentation part       46.7474439 magnetization       4.0282924

 Broyden mixing:
  rms(total) = 0.58963E+00    rms(broyden)= 0.58610E+00
  rms(prec ) = 0.68838E+00
  weight for this iteration     100.00

 eigenvalues of (default mixing * dielectric matrix)
  average eigenvalue GAMMA=   0.6397
  1.7888  0.6351  0.3148  0.3148  0.1454

 Free energy of the ion-electron system (eV)
  ---------------------------------------------------
  alpha Z        PSCENC =        13.64954768
  Ewald energy   TEWEN  =     10809.46508911
  -Hartree energ DENC   =    -19402.28983150
  -exchange      EXHF   =         0.00000000
  -V(xc)+E(xc)   XCENC  =      -326.08769485
  PAW double counting   =     10264.42445806    -9594.45250047
  entropy T*S    EENTRO =         0.00000000
  eigenvalues    EBANDS =      -704.77585659
  atomic energy  EATOM  =      8906.56515536
  ---------------------------------------------------
  free energy    TOTEN  =       -33.50163320 eV

  energy without entropy =      -33.50163320  energy(sigma->0) =      -33.50163320


--------------------------------------------------------------------------------------------------------




----------------------------------------- Iteration    1(  11)  ---------------------------------------


    POTLOK:  cpu time    0.15: real time    0.15
    SETDIJ:  cpu time    0.00: real time    0.01
     EDDAV:  cpu time    0.49: real time    0.49
       DOS:  cpu time    0.00: real time    0.00
    CHARGE:  cpu time    0.04: real time    0.03
    MIXING:  cpu time    0.00: real time    0.01
    --------------------------------------------
      LOOP:  cpu time    0.69: real time    0.69

 eigenvalue-minimisations  :   312
 total energy-change (2. order) :-0.5387238E+00  (-0.1558154E+00)
 number of electron     110.0000260 magnetization       7.6703649
 augmentation part       46.7410532 magnetization       3.8955653

 Broyden mixing:
  rms(total) = 0.41244E+00    rms(broyden)= 0.40997E+00
  rms(prec ) = 0.48576E+00
  weight for this iteration     100.00

 eigenvalues of (default mixing * dielectric matrix)
  average eigenvalue GAMMA=   0.6107
  1.8472  0.6504  0.3840  0.3840  0.2568  0.1419

 Free energy of the ion-electron system (eV)
  ---------------------------------------------------
  alpha Z        PSCENC =        13.64954768
  Ewald energy   TEWEN  =     10809.46508911
  -Hartree energ DENC   =    -19406.11663820
  -exchange      EXHF   =         0.00000000
  -V(xc)+E(xc)   XCENC  =      -326.54002369
  PAW double counting   =     10317.27632664    -9648.00059365
  entropy T*S    EENTRO =         0.00000000
  eigenvalues    EBANDS =      -700.33922021
  atomic energy  EATOM  =      8906.56515536
  ---------------------------------------------------
  free energy    TOTEN  =       -34.04035695 eV

  energy without entropy =      -34.04035695  energy(sigma->0) =      -34.04035695


--------------------------------------------------------------------------------------------------------




----------------------------------------- Iteration    1(  12)  ---------------------------------------


    POTLOK:  cpu time    0.15: real time    0.15
    SETDIJ:  cpu time    0.00: real time    0.01
     EDDAV:  cpu time    0.48: real time    0.48
       DOS:  cpu time    0.00: real time    0.00
    CHARGE:  cpu time    0.03: real time    0.03
    MIXING:  cpu time    0.01: real time    0.01
    --------------------------------------------
      LOOP:  cpu time    0.68: real time    0.92

 eigenvalue-minimisations  :   304
 total energy-change (2. order) :-0.4449460E+00  (-0.5875997E-01)
 number of electron     110.0000252 magnetization       7.4469990
 augmentation part       46.7493912 magnetization       3.7220753

 Broyden mixing:
  rms(total) = 0.28422E+00    rms(broyden)= 0.28301E+00
  rms(prec ) = 0.33816E+00
  weight for this iteration     100.00

 eigenvalues of (default mixing * dielectric matrix)
  average eigenvalue GAMMA=   0.6065
  1.8791  0.5963  0.5157  0.5157  0.3795  0.1436  0.2156

 Free energy of the ion-electron system (eV)
  ---------------------------------------------------
  alpha Z        PSCENC =        13.64954768
  Ewald energy   TEWEN  =     10809.46508911
  -Hartree energ DENC   =    -19407.02225721
  -exchange      EXHF   =         0.00000000
  -V(xc)+E(xc)   XCENC  =      -326.92254498
  PAW double counting   =     10333.44304855    -9664.53486484
  entropy T*S    EENTRO =         0.00000000
  eigenvalues    EBANDS =      -699.12847662
  atomic energy  EATOM  =      8906.56515536
  ---------------------------------------------------
  free energy    TOTEN  =       -34.48530296 eV

  energy without entropy =      -34.48530296  energy(sigma->0) =      -34.48530296


--------------------------------------------------------------------------------------------------------




----------------------------------------- Iteration    1(  13)  ---------------------------------------


    POTLOK:  cpu time    0.15: real time    0.15
    SETDIJ:  cpu time    0.00: real time    0.01
     EDDAV:  cpu time    0.50: real time    0.50
       DOS:  cpu time    0.00: real time    0.00
    CHARGE:  cpu time    0.04: real time    0.03
    MIXING:  cpu time    0.00: real time    0.01
    --------------------------------------------
      LOOP:  cpu time    0.69: real time    0.74

 eigenvalue-minimisations  :   312
 total energy-change (2. order) :-0.6842767E+00  (-0.3533891E-01)
 number of electron     110.0000254 magnetization       7.2450080
 augmentation part       46.8185930 magnetization       3.6344946

 Broyden mixing:
  rms(total) = 0.19015E+00    rms(broyden)= 0.18906E+00
  rms(prec ) = 0.21923E+00
  weight for this iteration     100.00

 eigenvalues of (default mixing * dielectric matrix)
  average eigenvalue GAMMA=   0.6282
  1.8704  0.7545  0.7545  0.5138  0.5138  0.1431  0.2689  0.2065

 Free energy of the ion-electron system (eV)
  ---------------------------------------------------
  alpha Z        PSCENC =        13.64954768
  Ewald energy   TEWEN  =     10809.46508911
  -Hartree energ DENC   =    -19408.14397233
  -exchange      EXHF   =         0.00000000
  -V(xc)+E(xc)   XCENC  =      -327.48316802
  PAW double counting   =     10344.62858627    -9676.09175022
  entropy T*S    EENTRO =         0.00000000
  eigenvalues    EBANDS =      -697.75906754
  atomic energy  EATOM  =      8906.56515536
  ---------------------------------------------------
  free energy    TOTEN  =       -35.16957969 eV

  energy without entropy =      -35.16957969  energy(sigma->0) =      -35.16957969


--------------------------------------------------------------------------------------------------------




----------------------------------------- Iteration    1(  14)  ---------------------------------------


    POTLOK:  cpu time    0.15: real time    0.15
    SETDIJ:  cpu time    0.01: real time    0.01
     EDDAV:  cpu time    0.49: real time    0.49
       DOS:  cpu time    0.00: real time    0.00
    CHARGE:  cpu time    0.03: real time    0.03
    MIXING:  cpu time    0.01: real time    0.01
    --------------------------------------------
      LOOP:  cpu time    0.69: real time    0.69

 eigenvalue-minimisations  :   304
 total energy-change (2. order) :-0.6670688E+00  (-0.2206275E-01)
 number of electron     110.0000254 magnetization       7.2013540
 augmentation part       46.9260670 magnetization       3.7952618

 Broyden mixing:
  rms(total) = 0.17038E+00    rms(broyden)= 0.16907E+00
  rms(prec ) = 0.18642E+00
  weight for this iteration     100.00

 eigenvalues of (default mixing * dielectric matrix)
  average eigenvalue GAMMA=   0.5905
  1.8681  0.7307  0.7307  0.6346  0.3808  0.3129  0.3129  0.1433  0.2004

 Free energy of the ion-electron system (eV)
  ---------------------------------------------------
  alpha Z        PSCENC =        13.64954768
  Ewald energy   TEWEN  =     10809.46508911
  -Hartree energ DENC   =    -19412.45951230
  -exchange      EXHF   =         0.00000000
  -V(xc)+E(xc)   XCENC  =      -327.95340759
  PAW double counting   =     10350.22319938    -9681.78098044
  entropy T*S    EENTRO =         0.00000000
  eigenvalues    EBANDS =      -693.54573974
  atomic energy  EATOM  =      8906.56515536
  ---------------------------------------------------
  free energy    TOTEN  =       -35.83664853 eV

  energy without entropy =      -35.83664853  energy(sigma->0) =      -35.83664853


--------------------------------------------------------------------------------------------------------




----------------------------------------- Iteration    1(  15)  ---------------------------------------


    POTLOK:  cpu time    0.15: real time    0.15
    SETDIJ:  cpu time    0.01: real time    0.01
     EDDAV:  cpu time    0.54: real time    0.54
       DOS:  cpu time    0.00: real time    0.00
    CHARGE:  cpu time    0.03: real time    0.03
    MIXING:  cpu time    0.01: real time    0.01
    --------------------------------------------
      LOOP:  cpu time    0.74: real time    0.74

 eigenvalue-minimisations  :   344
 total energy-change (2. order) :-0.1666760E+00  (-0.4509153E-02)
 number of electron     110.0000252 magnetization       7.1065140
 augmentation part       46.8890933 magnetization       3.7398899

 Broyden mixing:
  rms(total) = 0.13550E+00    rms(broyden)= 0.13530E+00
  rms(prec ) = 0.15162E+00
  weight for this iteration     100.00

 eigenvalues of (default mixing * dielectric matrix)
  average eigenvalue GAMMA=   0.6465
  1.8453  0.9466  0.9466  0.7449  0.4561  0.4561  0.4527  0.2706  0.1432  0.2029

 Free energy of the ion-electron system (eV)
  ---------------------------------------------------
  alpha Z        PSCENC =        13.64954768
  Ewald energy   TEWEN  =     10809.46508911
  -Hartree energ DENC   =    -19415.49973730
  -exchange      EXHF   =         0.00000000
  -V(xc)+E(xc)   XCENC  =      -328.04140011
  PAW double counting   =     10354.04623853    -9685.50063292
  entropy T*S    EENTRO =         0.00000000
  eigenvalues    EBANDS =      -690.68758488
  atomic energy  EATOM  =      8906.56515536
  ---------------------------------------------------
  free energy    TOTEN  =       -36.00332454 eV

  energy without entropy =      -36.00332454  energy(sigma->0) =      -36.00332454


--------------------------------------------------------------------------------------------------------




----------------------------------------- Iteration    1(  16)  ---------------------------------------


    POTLOK:  cpu time    0.15: real time    0.15
    SETDIJ:  cpu time    0.00: real time    0.01
     EDDAV:  cpu time    0.52: real time    0.52
       DOS:  cpu time    0.00: real time    0.00
    CHARGE:  cpu time    0.03: real time    0.03
    MIXING:  cpu time    0.01: real time    0.01
    --------------------------------------------
      LOOP:  cpu time    0.72: real time    0.72

 eigenvalue-minimisations  :   328
 total energy-change (2. order) :-0.3563780E+00  (-0.6359291E-02)
 number of electron     110.0000253 magnetization       6.8609875
 augmentation part       46.8422017 magnetization       3.5328276

 Broyden mixing:
  rms(total) = 0.12340E+00    rms(broyden)= 0.12326E+00
  rms(prec ) = 0.14652E+00
  weight for this iteration     100.00

 eigenvalues of (default mixing * dielectric matrix)
  average eigenvalue GAMMA=   0.7114
  1.9177  1.2851  1.2851  0.9105  0.5285  0.5285  0.4695  0.1432  0.2025  0.2964
  0.2582

 Free energy of the ion-electron system (eV)
  ---------------------------------------------------
  alpha Z        PSCENC =        13.64954768
  Ewald energy   TEWEN  =     10809.46508911
  -Hartree energ DENC   =    -19419.79895961
  -exchange      EXHF   =         0.00000000
  -V(xc)+E(xc)   XCENC  =      -328.26090142
  PAW double counting   =     10356.53151751    -9687.82095161
  entropy T*S    EENTRO =         0.00000000
  eigenvalues    EBANDS =      -686.69019954
  atomic energy  EATOM  =      8906.56515536
  ---------------------------------------------------
  free energy    TOTEN  =       -36.35970252 eV

  energy without entropy =      -36.35970252  energy(sigma->0) =      -36.35970252


--------------------------------------------------------------------------------------------------------




----------------------------------------- Iteration    1(  17)  ---------------------------------------


    POTLOK:  cpu time    0.15: real time    0.15
    SETDIJ:  cpu time    0.00: real time    0.01
     EDDAV:  cpu time    0.53: real time    0.53
       DOS:  cpu time    0.00: real time    0.00
    CHARGE:  cpu time    0.03: real time    0.03
    MIXING:  cpu time    0.00: real time    0.01
    --------------------------------------------
      LOOP:  cpu time    0.73: real time    0.73

 eigenvalue-minimisations  :   336
 total energy-change (2. order) :-0.7712916E+00  (-0.2255006E-01)
 number of electron     110.0000251 magnetization       6.6770671
 augmentation part       46.8637554 magnetization       3.5045430

 Broyden mixing:
  rms(total) = 0.10594E+00    rms(broyden)= 0.10495E+00
  rms(prec ) = 0.12332E+00
  weight for this iteration     100.00

 eigenvalues of (default mixing * dielectric matrix)
  average eigenvalue GAMMA=   0.7080
  1.9087  1.3296  1.2094  1.2094  0.6292  0.4846  0.4846  0.3861  0.1432  0.2842
  0.2024  0.2244

 Free energy of the ion-electron system (eV)
  ---------------------------------------------------
  alpha Z        PSCENC =        13.64954768
  Ewald energy   TEWEN  =     10809.46508911
  -Hartree energ DENC   =    -19426.15786771
  -exchange      EXHF   =         0.00000000
  -V(xc)+E(xc)   XCENC  =      -328.81235777
  PAW double counting   =     10357.21413805    -9688.36719394
  entropy T*S    EENTRO =         0.00000000
  eigenvalues    EBANDS =      -680.68750488
  atomic energy  EATOM  =      8906.56515536
  ---------------------------------------------------
  free energy    TOTEN  =       -37.13099410 eV

  energy without entropy =      -37.13099410  energy(sigma->0) =      -37.13099410


--------------------------------------------------------------------------------------------------------




----------------------------------------- Iteration    1(  18)  ---------------------------------------


    POTLOK:  cpu time    0.15: real time    0.15
    SETDIJ:  cpu time    0.01: real time    0.01
     EDDAV:  cpu time    0.53: real time    0.53
       DOS:  cpu time    0.00: real time    0.00
    CHARGE:  cpu time    0.03: real time    0.03
    MIXING:  cpu time    0.01: real time    0.01
    --------------------------------------------
      LOOP:  cpu time    0.73: real time    0.73

 eigenvalue-minimisations  :   336
 total energy-change (2. order) :-0.4913549E+00  (-0.9200411E-02)
 number of electron     110.0000252 magnetization       6.5204372
 augmentation part       46.8255305 magnetization       3.3743466

 Broyden mixing:
  rms(total) = 0.48825E-01    rms(broyden)= 0.48499E-01
  rms(prec ) = 0.55721E-01
  weight for this iteration     100.00

 eigenvalues of (default mixing * dielectric matrix)
  average eigenvalue GAMMA=   0.7269
  1.8355  1.6524  1.1690  1.1690  0.7470  0.7470  0.4675  0.4675  0.3502  0.1432
  0.2799  0.2027  0.2186

 Free energy of the ion-electron system (eV)
  ---------------------------------------------------
  alpha Z        PSCENC =        13.64954768
  Ewald energy   TEWEN  =     10809.46508911
  -Hartree energ DENC   =    -19429.78532577
  -exchange      EXHF   =         0.00000000
  -V(xc)+E(xc)   XCENC  =      -329.18089220
  PAW double counting   =     10354.99165641    -9686.06504180
  entropy T*S    EENTRO =         0.00000000
  eigenvalues    EBANDS =      -677.26253780
  atomic energy  EATOM  =      8906.56515536
  ---------------------------------------------------
  free energy    TOTEN  =       -37.62234900 eV

  energy without entropy =      -37.62234900  energy(sigma->0) =      -37.62234900


--------------------------------------------------------------------------------------------------------




----------------------------------------- Iteration    1(  19)  ---------------------------------------


    POTLOK:  cpu time    0.15: real time    0.15
    SETDIJ:  cpu time    0.00: real time    0.01
     EDDAV:  cpu time    0.54: real time    0.53
       DOS:  cpu time    0.00: real time    0.00
    CHARGE:  cpu time    0.03: real time    0.03
    MIXING:  cpu time    0.01: real time    0.01
    --------------------------------------------
      LOOP:  cpu time    0.73: real time    0.73

 eigenvalue-minimisations  :   336
 total energy-change (2. order) :-0.3840031E+00  (-0.5186540E-02)
 number of electron     110.0000252 magnetization       6.4428582
 augmentation part       46.8656004 magnetization       3.3624468

 Broyden mixing:
  rms(total) = 0.48648E-01    rms(broyden)= 0.48203E-01
  rms(prec ) = 0.54108E-01
  weight for this iteration     100.00

 eigenvalues of (default mixing * dielectric matrix)
  average eigenvalue GAMMA=   0.7345
  1.8712  1.8712  1.2301  1.2301  0.7520  0.7520  0.4700  0.4700  0.4769  0.1432
  0.3133  0.2783  0.2027  0.2217

 Free energy of the ion-electron system (eV)
  ---------------------------------------------------
  alpha Z        PSCENC =        13.64954768
  Ewald energy   TEWEN  =     10809.46508911
  -Hartree energ DENC   =    -19431.76223138
  -exchange      EXHF   =         0.00000000
  -V(xc)+E(xc)   XCENC  =      -329.50175427
  PAW double counting   =     10350.21064347    -9681.27542456
  entropy T*S    EENTRO =         0.00000000
  eigenvalues    EBANDS =      -675.35737754
  atomic energy  EATOM  =      8906.56515536
  ---------------------------------------------------
  free energy    TOTEN  =       -38.00635213 eV

  energy without entropy =      -38.00635213  energy(sigma->0) =      -38.00635213


--------------------------------------------------------------------------------------------------------




----------------------------------------- Iteration    1(  20)  ---------------------------------------


    POTLOK:  cpu time    0.15: real time    0.15
    SETDIJ:  cpu time    0.00: real time    0.01
     EDDAV:  cpu time    0.56: real time    0.55
       DOS:  cpu time    0.00: real time    0.00
    CHARGE:  cpu time    0.03: real time    0.03
    MIXING:  cpu time    0.01: real time    0.01
    --------------------------------------------
      LOOP:  cpu time    0.75: real time    0.76

 eigenvalue-minimisations  :   352
 total energy-change (2. order) :-0.1754841E+00  (-0.1609597E-02)
 number of electron     110.0000252 magnetization       6.3806904
 augmentation part       46.8789387 magnetization       3.3312897

 Broyden mixing:
  rms(total) = 0.43685E-01    rms(broyden)= 0.43461E-01
  rms(prec ) = 0.48161E-01
  weight for this iteration     100.00

 eigenvalues of (default mixing * dielectric matrix)
  average eigenvalue GAMMA=   0.7434
  1.8969  1.8969  1.3839  1.3839  0.7658  0.7658  0.6055  0.4875  0.4875  0.1432
  0.3316  0.2898  0.2898  0.2028  0.2207

 Free energy of the ion-electron system (eV)
  ---------------------------------------------------
  alpha Z        PSCENC =        13.64954768
  Ewald energy   TEWEN  =     10809.46508911
  -Hartree energ DENC   =    -19432.94704754
  -exchange      EXHF   =         0.00000000
  -V(xc)+E(xc)   XCENC  =      -329.64986793
  PAW double counting   =     10347.30545279    -9678.34472238
  entropy T*S    EENTRO =         0.00000000
  eigenvalues    EBANDS =      -674.22544333
  atomic energy  EATOM  =      8906.56515536
  ---------------------------------------------------
  free energy    TOTEN  =       -38.18183624 eV

  energy without entropy =      -38.18183624  energy(sigma->0) =      -38.18183624


--------------------------------------------------------------------------------------------------------




----------------------------------------- Iteration    1(  21)  ---------------------------------------


    POTLOK:  cpu time    0.15: real time    0.15
    SETDIJ:  cpu time    0.01: real time    0.01
     EDDAV:  cpu time    0.53: real time    0.53
       DOS:  cpu time    0.00: real time    0.00
    CHARGE:  cpu time    0.03: real time    0.03
    MIXING:  cpu time    0.01: real time    0.01
    --------------------------------------------
      LOOP:  cpu time    0.73: real time    0.73

 eigenvalue-minimisations  :   336
 total energy-change (2. order) :-0.1316956E+00  (-0.6645757E-03)
 number of electron     110.0000252 magnetization       6.2612516
 augmentation part       46.8779957 magnetization       3.2322441

 Broyden mixing:
  rms(total) = 0.36135E-01    rms(broyden)= 0.36049E-01
  rms(prec ) = 0.40433E-01
  weight for this iteration     100.00

 eigenvalues of (default mixing * dielectric matrix)
  average eigenvalue GAMMA=   0.8171
  2.0738  2.0738  2.0663  1.1991  0.9674  0.9674  0.6611  0.6611  0.4623  0.4623
  0.1432  0.3535  0.2877  0.2718  0.2027  0.2205

 Free energy of the ion-electron system (eV)
  ---------------------------------------------------
  alpha Z        PSCENC =        13.64954768
  Ewald energy   TEWEN  =     10809.46508911
  -Hartree energ DENC   =    -19434.34292428
  -exchange      EXHF   =         0.00000000
  -V(xc)+E(xc)   XCENC  =      -329.75810109
  PAW double counting   =     10345.33137790    -9676.32091999
  entropy T*S    EENTRO =         0.00000000
  eigenvalues    EBANDS =      -672.90275657
  atomic energy  EATOM  =      8906.56515536
  ---------------------------------------------------
  free energy    TOTEN  =       -38.31353188 eV

  energy without entropy =      -38.31353188  energy(sigma->0) =      -38.31353188


--------------------------------------------------------------------------------------------------------




----------------------------------------- Iteration    1(  22)  ---------------------------------------


    POTLOK:  cpu time    0.15: real time    0.15
    SETDIJ:  cpu time    0.01: real time    0.01
     EDDAV:  cpu time    0.55: real time    0.55
       DOS:  cpu time    0.00: real time    0.00
    CHARGE:  cpu time    0.03: real time    0.03
    MIXING:  cpu time    0.01: real time    0.01
    --------------------------------------------
      LOOP:  cpu time    0.75: real time    0.76

 eigenvalue-minimisations  :   352
 total energy-change (2. order) :-0.2111857E+00  (-0.1834727E-02)
 number of electron     110.0000252 magnetization       6.1712513
 augmentation part       46.8715951 magnetization       3.1802653

 Broyden mixing:
  rms(total) = 0.26600E-01    rms(broyden)= 0.26420E-01
  rms(prec ) = 0.29882E-01
  weight for this iteration     100.00

 eigenvalues of (default mixing * dielectric matrix)
  average eigenvalue GAMMA=   0.8400
  2.3265  2.3265  2.1857  1.0337  1.0337  1.0603  0.7350  0.7350  0.4618  0.4618
  0.4500  0.1432  0.3447  0.2855  0.2725  0.2028  0.2205

 Free energy of the ion-electron system (eV)
  ---------------------------------------------------
  alpha Z        PSCENC =        13.64954768
  Ewald energy   TEWEN  =     10809.46508911
  -Hartree energ DENC   =    -19437.21606699
  -exchange      EXHF   =         0.00000000
  -V(xc)+E(xc)   XCENC  =      -329.92259282
  PAW double counting   =     10342.33354660    -9673.21467411
  entropy T*S    EENTRO =         0.00000000
  eigenvalues    EBANDS =      -670.18472239
  atomic energy  EATOM  =      8906.56515536
  ---------------------------------------------------
  free energy    TOTEN  =       -38.52471757 eV

  energy without entropy =      -38.52471757  energy(sigma->0) =      -38.52471757


--------------------------------------------------------------------------------------------------------




----------------------------------------- Iteration    1(  23)  ---------------------------------------


    POTLOK:  cpu time    0.15: real time    0.15
    SETDIJ:  cpu time    0.01: real time    0.01
     EDDAV:  cpu time    0.55: real time    0.55
       DOS:  cpu time    0.00: real time    0.00
    CHARGE:  cpu time    0.03: real time    0.03
    MIXING:  cpu time    0.01: real time    0.01
    --------------------------------------------
      LOOP:  cpu time    0.75: real time    0.76

 eigenvalue-minimisations  :   352
 total energy-change (2. order) :-0.1111726E+00  (-0.8156324E-03)
 number of electron     110.0000252 magnetization       6.1089238
 augmentation part       46.8610534 magnetization       3.1329289

 Broyden mixing:
  rms(total) = 0.10923E-01    rms(broyden)= 0.10844E-01
  rms(prec ) = 0.13231E-01
  weight for this iteration     100.00

 eigenvalues of (default mixing * dielectric matrix)
  average eigenvalue GAMMA=   0.8557
  2.8276  2.0644  2.0644  1.0672  1.0672  1.0739  1.0739  0.6909  0.6909  0.4637
  0.4637  0.1432  0.3841  0.3465  0.2857  0.2723  0.2028  0.2205

 Free energy of the ion-electron system (eV)
  ---------------------------------------------------
  alpha Z        PSCENC =        13.64954768
  Ewald energy   TEWEN  =     10809.46508911
  -Hartree energ DENC   =    -19439.22921200
  -exchange      EXHF   =         0.00000000
  -V(xc)+E(xc)   XCENC  =      -330.00351524
  PAW double counting   =     10340.36172260    -9671.16855583
  entropy T*S    EENTRO =         0.00000000
  eigenvalues    EBANDS =      -668.27612184
  atomic energy  EATOM  =      8906.56515536
  ---------------------------------------------------
  free energy    TOTEN  =       -38.63589016 eV

  energy without entropy =      -38.63589016  energy(sigma->0) =      -38.63589016


--------------------------------------------------------------------------------------------------------




----------------------------------------- Iteration    1(  24)  ---------------------------------------


    POTLOK:  cpu time    0.15: real time    0.15
    SETDIJ:  cpu time    0.00: real time    0.01
     EDDAV:  cpu time    0.50: real time    0.50
       DOS:  cpu time    0.00: real time    0.00
    CHARGE:  cpu time    0.03: real time    0.03
    MIXING:  cpu time    0.01: real time    0.01
    --------------------------------------------
      LOOP:  cpu time    0.70: real time    0.71

 eigenvalue-minimisations  :   312
 total energy-change (2. order) :-0.5425142E-01  (-0.4260638E-03)
 number of electron     110.0000252 magnetization       6.0736773
 augmentation part       46.8564311 magnetization       3.1088458

 Broyden mixing:
  rms(total) = 0.84559E-02    rms(broyden)= 0.84127E-02
  rms(prec ) = 0.10436E-01
  weight for this iteration     100.00

 eigenvalues of (default mixing * dielectric matrix)
  average eigenvalue GAMMA=   0.9027
  3.5928  1.9361  1.8680  1.8680  1.0529  1.0529  0.8665  0.8665  0.6397  0.6352
  0.4657  0.4657  0.1432  0.3798  0.3373  0.2855  0.2716  0.2028  0.2205

 Free energy of the ion-electron system (eV)
  ---------------------------------------------------
  alpha Z        PSCENC =        13.64954768
  Ewald energy   TEWEN  =     10809.46508911
  -Hartree energ DENC   =    -19440.55115881
  -exchange      EXHF   =         0.00000000
  -V(xc)+E(xc)   XCENC  =      -330.03964923
  PAW double counting   =     10339.25023383    -9670.02429382
  entropy T*S    EENTRO =         0.00000000
  eigenvalues    EBANDS =      -667.00506569
  atomic energy  EATOM  =      8906.56515536
  ---------------------------------------------------
  free energy    TOTEN  =       -38.69014157 eV

  energy without entropy =      -38.69014157  energy(sigma->0) =      -38.69014157


--------------------------------------------------------------------------------------------------------




----------------------------------------- Iteration    1(  25)  ---------------------------------------


    POTLOK:  cpu time    0.15: real time    0.15
    SETDIJ:  cpu time    0.00: real time    0.01
     EDDAV:  cpu time    0.50: real time    0.51
       DOS:  cpu time    0.00: real time    0.00
    CHARGE:  cpu time    0.03: real time    0.03
    MIXING:  cpu time    0.01: real time    0.01
    --------------------------------------------
      LOOP:  cpu time    0.71: real time    0.71

 eigenvalue-minimisations  :   312
 total energy-change (2. order) :-0.2287601E-01  (-0.1393332E-03)
 number of electron     110.0000252 magnetization       6.0489663
 augmentation part       46.8563847 magnetization       3.0883049

 Broyden mixing:
  rms(total) = 0.62395E-02    rms(broyden)= 0.62209E-02
  rms(prec ) = 0.80324E-02
  weight for this iteration     100.00

 eigenvalues of (default mixing * dielectric matrix)
  average eigenvalue GAMMA=   0.9120
  3.8592  1.9627  1.9627  1.9508  1.0644  1.0644  0.9219  0.9219  0.6454  0.6454
  0.4644  0.4644  0.4664  0.1432  0.3841  0.3386  0.2855  0.2716  0.2028  0.2205

 Free energy of the ion-electron system (eV)
  ---------------------------------------------------
  alpha Z        PSCENC =        13.64954768
  Ewald energy   TEWEN  =     10809.46508911
  -Hartree energ DENC   =    -19441.14265702
  -exchange      EXHF   =         0.00000000
  -V(xc)+E(xc)   XCENC  =      -330.05800384
  PAW double counting   =     10338.61789696    -9669.39485111
  entropy T*S    EENTRO =         0.00000000
  eigenvalues    EBANDS =      -666.41519470
  atomic energy  EATOM  =      8906.56515536
  ---------------------------------------------------
  free energy    TOTEN  =       -38.71301758 eV

  energy without entropy =      -38.71301758  energy(sigma->0) =      -38.71301758


--------------------------------------------------------------------------------------------------------




----------------------------------------- Iteration    1(  26)  ---------------------------------------


    POTLOK:  cpu time    0.15: real time    0.15
    SETDIJ:  cpu time    0.00: real time    0.01
     EDDAV:  cpu time    0.45: real time    0.45
       DOS:  cpu time    0.00: real time    0.00
    CHARGE:  cpu time    0.03: real time    0.03
    MIXING:  cpu time    0.01: real time    0.01
    --------------------------------------------
      LOOP:  cpu time    0.65: real time    1.36

 eigenvalue-minimisations  :   264
 total energy-change (2. order) :-0.1289403E-01  (-0.5537876E-04)
 number of electron     110.0000252 magnetization       6.0255963
 augmentation part       46.8572000 magnetization       3.0672165

 Broyden mixing:
  rms(total) = 0.46884E-02    rms(broyden)= 0.46679E-02
  rms(prec ) = 0.61552E-02
  weight for this iteration     100.00

 eigenvalues of (default mixing * dielectric matrix)
  average eigenvalue GAMMA=   0.9110
  3.9953  1.9666  1.9666  1.9218  1.0648  1.0648  0.9915  0.9915  0.7280  0.7280
  0.5787  0.4654  0.4654  0.1432  0.3799  0.3609  0.3376  0.2028  0.2205  0.2853
  0.2717

 Free energy of the ion-electron system (eV)
  ---------------------------------------------------
  alpha Z        PSCENC =        13.64954768
  Ewald energy   TEWEN  =     10809.46508911
  -Hartree energ DENC   =    -19441.55884015
  -exchange      EXHF   =         0.00000000
  -V(xc)+E(xc)   XCENC  =      -330.07035293
  PAW double counting   =     10338.01131430    -9668.79048194
  entropy T*S    EENTRO =         0.00000000
  eigenvalues    EBANDS =      -665.99734303
  atomic energy  EATOM  =      8906.56515536
  ---------------------------------------------------
  free energy    TOTEN  =       -38.72591161 eV

  energy without entropy =      -38.72591161  energy(sigma->0) =      -38.72591161


--------------------------------------------------------------------------------------------------------




----------------------------------------- Iteration    1(  27)  ---------------------------------------


    POTLOK:  cpu time    0.15: real time    0.15
    SETDIJ:  cpu time    0.01: real time    0.01
     EDDAV:  cpu time    0.45: real time    0.45
       DOS:  cpu time    0.00: real time    0.00
    CHARGE:  cpu time    0.03: real time    0.03
    MIXING:  cpu time    0.01: real time    0.01
    --------------------------------------------
      LOOP:  cpu time    0.65: real time    1.07

 eigenvalue-minimisations  :   264
 total energy-change (2. order) :-0.9122116E-02  (-0.4775438E-04)
 number of electron     110.0000252 magnetization       6.0043626
 augmentation part       46.8599094 magnetization       3.0501699

 Broyden mixing:
  rms(total) = 0.33370E-02    rms(broyden)= 0.33003E-02
  rms(prec ) = 0.45310E-02
  weight for this iteration     100.00

 eigenvalues of (default mixing * dielectric matrix)
  average eigenvalue GAMMA=   0.9281
  4.4225  1.9962  1.9962  1.3487  1.3487  1.0731  1.0731  0.9730  0.9730  0.7368
  0.7368  0.6313  0.4647  0.4647  0.1432  0.2028  0.2205  0.3812  0.2716  0.2854
  0.3370  0.3370

 Free energy of the ion-electron system (eV)
  ---------------------------------------------------
  alpha Z        PSCENC =        13.64954768
  Ewald energy   TEWEN  =     10809.46508911
  -Hartree energ DENC   =    -19441.99992210
  -exchange      EXHF   =         0.00000000
  -V(xc)+E(xc)   XCENC  =      -330.07955301
  PAW double counting   =     10337.45328826    -9668.23283993
  entropy T*S    EENTRO =        -0.00000000
  eigenvalues    EBANDS =      -665.55579911
  atomic energy  EATOM  =      8906.56515536
  ---------------------------------------------------
  free energy    TOTEN  =       -38.73503373 eV

  energy without entropy =      -38.73503373  energy(sigma->0) =      -38.73503373


--------------------------------------------------------------------------------------------------------




----------------------------------------- Iteration    1(  28)  ---------------------------------------


    POTLOK:  cpu time    0.15: real time    0.15
    SETDIJ:  cpu time    0.00: real time    0.01
     EDDAV:  cpu time    0.44: real time    0.44
       DOS:  cpu time    0.00: real time    0.00
    CHARGE:  cpu time    0.03: real time    0.03
    MIXING:  cpu time    0.01: real time    0.01
    --------------------------------------------
      LOOP:  cpu time    0.64: real time    0.64

 eigenvalue-minimisations  :   256
 total energy-change (2. order) :-0.3772690E-02  (-0.4212089E-04)
 number of electron     110.0000252 magnetization       5.9918412
 augmentation part       46.8601474 magnetization       3.0423040

 Broyden mixing:
  rms(total) = 0.21975E-02    rms(broyden)= 0.21422E-02
  rms(prec ) = 0.30740E-02
  weight for this iteration     100.00

 eigenvalues of (default mixing * dielectric matrix)
  average eigenvalue GAMMA=   0.9618
  4.9497  2.1588  1.7168  1.7168  1.3525  1.3525  1.0917  1.0917  0.8410  0.8410
  0.6608  0.6608  0.5777  0.4646  0.4646  0.1432  0.2028  0.2205  0.3852  0.2716
  0.2854  0.3389  0.3327

 Free energy of the ion-electron system (eV)
  ---------------------------------------------------
  alpha Z        PSCENC =        13.64954768
  Ewald energy   TEWEN  =     10809.46508911
  -Hartree energ DENC   =    -19442.58161533
  -exchange      EXHF   =         0.00000000
  -V(xc)+E(xc)   XCENC  =      -330.08042529
  PAW double counting   =     10337.23610712    -9668.00794799
  entropy T*S    EENTRO =         0.00000000
  eigenvalues    EBANDS =      -664.98471708
  atomic energy  EATOM  =      8906.56515536
  ---------------------------------------------------
  free energy    TOTEN  =       -38.73880642 eV

  energy without entropy =      -38.73880642  energy(sigma->0) =      -38.73880642


--------------------------------------------------------------------------------------------------------




----------------------------------------- Iteration    1(  29)  ---------------------------------------


    POTLOK:  cpu time    0.15: real time    0.15
    SETDIJ:  cpu time    0.00: real time    0.01
     EDDAV:  cpu time    0.38: real time    0.38
       DOS:  cpu time    0.00: real time    0.00
    CHARGE:  cpu time    0.03: real time    0.03
    MIXING:  cpu time    0.01: real time    0.01
    --------------------------------------------
      LOOP:  cpu time    0.58: real time    0.62

 eigenvalue-minimisations  :   208
 total energy-change (2. order) : 0.2931721E-03  (-0.2085066E-04)
 number of electron     110.0000252 magnetization       5.9882592
 augmentation part       46.8591381 magnetization       3.0419483

 Broyden mixing:
  rms(total) = 0.14484E-02    rms(broyden)= 0.14138E-02
  rms(prec ) = 0.21509E-02
  weight for this iteration     100.00

 eigenvalues of (default mixing * dielectric matrix)
  average eigenvalue GAMMA=   0.9876
  5.2592  2.2722  1.8113  1.8113  1.4573  1.4573  1.0846  1.0846  0.9029  0.9029
  0.7055  0.7055  0.5688  0.5688  0.4648  0.4648  0.1432  0.3852  0.2028  0.2205
  0.2716  0.2854  0.3391  0.3319

 Free energy of the ion-electron system (eV)
  ---------------------------------------------------
  alpha Z        PSCENC =        13.64954768
  Ewald energy   TEWEN  =     10809.46508911
  -Hartree energ DENC   =    -19443.06375319
  -exchange      EXHF   =         0.00000000
  -V(xc)+E(xc)   XCENC  =      -330.07612394
  PAW double counting   =     10337.28315215    -9668.04589599
  entropy T*S    EENTRO =         0.00000000
  eigenvalues    EBANDS =      -664.51568443
  atomic energy  EATOM  =      8906.56515536
  ---------------------------------------------------
  free energy    TOTEN  =       -38.73851325 eV

  energy without entropy =      -38.73851325  energy(sigma->0) =      -38.73851325


--------------------------------------------------------------------------------------------------------




----------------------------------------- Iteration    1(  30)  ---------------------------------------


    POTLOK:  cpu time    0.15: real time    0.15
    SETDIJ:  cpu time    0.01: real time    0.01
     EDDAV:  cpu time    0.39: real time    0.39
       DOS:  cpu time    0.00: real time    0.00
    CHARGE:  cpu time    0.03: real time    0.03
    MIXING:  cpu time    0.01: real time    0.01
    --------------------------------------------
      LOOP:  cpu time    0.60: real time    0.60

 eigenvalue-minimisations  :   216
 total energy-change (2. order) :-0.4967772E-03  (-0.8213151E-05)
 number of electron     110.0000252 magnetization       5.9878614
 augmentation part       46.8584800 magnetization       3.0422029

 Broyden mixing:
  rms(total) = 0.13266E-02    rms(broyden)= 0.13213E-02
  rms(prec ) = 0.18201E-02
  weight for this iteration     100.00

 eigenvalues of (default mixing * dielectric matrix)
  average eigenvalue GAMMA=   1.0073
  5.4886  2.4215  1.9477  1.9477  1.5076  1.5076  1.0784  1.0784  0.9044  0.9044
  0.7936  0.7936  0.5957  0.5957  0.1432  0.4645  0.4645  0.5097  0.2028  0.2205
  0.3855  0.2716  0.2854  0.3389  0.3323

 Free energy of the ion-electron system (eV)
  ---------------------------------------------------
  alpha Z        PSCENC =        13.64954768
  Ewald energy   TEWEN  =     10809.46508911
  -Hartree energ DENC   =    -19443.33248142
  -exchange      EXHF   =         0.00000000
  -V(xc)+E(xc)   XCENC  =      -330.07458395
  PAW double counting   =     10337.47820556    -9668.23950461
  entropy T*S    EENTRO =         0.00000000
  eigenvalues    EBANDS =      -664.25043776
  atomic energy  EATOM  =      8906.56515536
  ---------------------------------------------------
  free energy    TOTEN  =       -38.73901003 eV

  energy without entropy =      -38.73901003  energy(sigma->0) =      -38.73901003


--------------------------------------------------------------------------------------------------------




----------------------------------------- Iteration    1(  31)  ---------------------------------------


    POTLOK:  cpu time    0.15: real time    0.15
    SETDIJ:  cpu time    0.00: real time    0.01
     EDDAV:  cpu time    0.36: real time    0.36
       DOS:  cpu time    0.00: real time    0.00
    CHARGE:  cpu time    0.03: real time    0.03
    MIXING:  cpu time    0.01: real time    0.01
    --------------------------------------------
      LOOP:  cpu time    0.57: real time    0.57

 eigenvalue-minimisations  :   192
 total energy-change (2. order) :-0.1121430E-02  (-0.6009432E-05)
 number of electron     110.0000252 magnetization       5.9900988
 augmentation part       46.8578473 magnetization       3.0440867

 Broyden mixing:
  rms(total) = 0.13670E-02    rms(broyden)= 0.13647E-02
  rms(prec ) = 0.16691E-02
  weight for this iteration     100.00

 eigenvalues of (default mixing * dielectric matrix)
  average eigenvalue GAMMA=   1.0121
  5.5402  2.5832  2.0274  2.0274  1.4588  1.4588  1.0887  1.0887  0.9277  0.9277
  0.8723  0.8723  0.6507  0.6507  0.5475  0.4647  0.4647  0.1432  0.4829  0.2028
  0.2205  0.3853  0.2716  0.2854  0.3390  0.3322

 Free energy of the ion-electron system (eV)
  ---------------------------------------------------
  alpha Z        PSCENC =        13.64954768
  Ewald energy   TEWEN  =     10809.46508911
  -Hartree energ DENC   =    -19443.54333040
  -exchange      EXHF   =         0.00000000
  -V(xc)+E(xc)   XCENC  =      -330.07448486
  PAW double counting   =     10337.65674905    -9668.41968148
  entropy T*S    EENTRO =         0.00000000
  eigenvalues    EBANDS =      -664.03917591
  atomic energy  EATOM  =      8906.56515536
  ---------------------------------------------------
  free energy    TOTEN  =       -38.74013146 eV

  energy without entropy =      -38.74013146  energy(sigma->0) =      -38.74013146


--------------------------------------------------------------------------------------------------------




----------------------------------------- Iteration    1(  32)  ---------------------------------------


    POTLOK:  cpu time    0.15: real time    0.15
    SETDIJ:  cpu time    0.00: real time    0.01
     EDDAV:  cpu time    0.38: real time    0.37
       DOS:  cpu time    0.00: real time    0.00
    CHARGE:  cpu time    0.03: real time    0.03
    MIXING:  cpu time    0.01: real time    0.01
    --------------------------------------------
      LOOP:  cpu time    0.58: real time    0.58

 eigenvalue-minimisations  :   200
 total energy-change (2. order) :-0.1246488E-02  (-0.5036419E-05)
 number of electron     110.0000252 magnetization       5.9922897
 augmentation part       46.8582632 magnetization       3.0452541

 Broyden mixing:
  rms(total) = 0.79716E-03    rms(broyden)= 0.79054E-03
  rms(prec ) = 0.10382E-02
  weight for this iteration     100.00

 eigenvalues of (default mixing * dielectric matrix)
  average eigenvalue GAMMA=   1.0248
  5.6299  2.7971  2.0171  2.0171  1.3882  1.3882  1.0907  1.0907  1.1291  1.1291
  0.9057  0.9057  0.6897  0.6897  0.6586  0.1432  0.5783  0.4647  0.4647  0.4559
  0.2028  0.2205  0.3852  0.2716  0.2854  0.3322  0.3389

 Free energy of the ion-electron system (eV)
  ---------------------------------------------------
  alpha Z        PSCENC =        13.64954768
  Ewald energy   TEWEN  =     10809.46508911
  -Hartree energ DENC   =    -19443.57633715
  -exchange      EXHF   =         0.00000000
  -V(xc)+E(xc)   XCENC  =      -330.07655812
  PAW double counting   =     10337.65246562    -9668.42111955
  entropy T*S    EENTRO =         0.00000000
  eigenvalues    EBANDS =      -663.99962090
  atomic energy  EATOM  =      8906.56515536
  ---------------------------------------------------
  free energy    TOTEN  =       -38.74137794 eV

  energy without entropy =      -38.74137794  energy(sigma->0) =      -38.74137794


--------------------------------------------------------------------------------------------------------




----------------------------------------- Iteration    1(  33)  ---------------------------------------


    POTLOK:  cpu time    0.15: real time    0.15
    SETDIJ:  cpu time    0.01: real time    0.01
     EDDAV:  cpu time    0.35: real time    0.35
       DOS:  cpu time    0.00: real time    0.00
    CHARGE:  cpu time    0.04: real time    0.03
    MIXING:  cpu time    0.01: real time    0.01
    --------------------------------------------
      LOOP:  cpu time    0.56: real time    0.56

 eigenvalue-minimisations  :   184
 total energy-change (2. order) :-0.1004419E-02  (-0.4199554E-05)
 number of electron     110.0000252 magnetization       5.9952717
 augmentation part       46.8585211 magnetization       3.0475682

 Broyden mixing:
  rms(total) = 0.58352E-03    rms(broyden)= 0.57858E-03
  rms(prec ) = 0.76083E-03
  weight for this iteration     100.00

 eigenvalues of (default mixing * dielectric matrix)
  average eigenvalue GAMMA=   1.0534
  5.7429  3.1640  1.9976  1.9976  1.7012  1.4602  1.4602  1.0853  1.0853  0.9319
  0.9319  0.9279  0.9279  0.6783  0.6783  0.5872  0.5872  0.1432  0.4647  0.4647
  0.2028  0.2205  0.4400  0.3852  0.2716  0.2854  0.3389  0.3322

 Free energy of the ion-electron system (eV)
  ---------------------------------------------------
  alpha Z        PSCENC =        13.64954768
  Ewald energy   TEWEN  =     10809.46508911
  -Hartree energ DENC   =    -19443.63492319
  -exchange      EXHF   =         0.00000000
  -V(xc)+E(xc)   XCENC  =      -330.07785829
  PAW double counting   =     10337.59672253    -9668.36843355
  entropy T*S    EENTRO =         0.00000000
[...]
     10      -7.4479      1.00000
     11      -7.4178      1.00000
     12      -7.3949      1.00000
     13      -7.2885      1.00000
     14      -7.2406      1.00000
     15      -7.1567      1.00000
     16      -6.8768      1.00000
     17      -6.8645      1.00000
     18      -6.5919      1.00000
     19      -6.5827      1.00000
     20      -6.4827      1.00000
     21      -6.4335      1.00000
     22      -6.3021      1.00000
     23      -6.2777      1.00000
     24      -6.2107      1.00000
     25      -6.1903      1.00000
     26      -6.1242      1.00000
     27      -5.9752      1.00000
     28      -5.9538      1.00000
     29      -5.7088      1.00000
     30      -5.5784      1.00000
     31      -5.4944      1.00000
     32      -5.4891      1.00000
     33      -5.4592      1.00000
     34      -5.4142      1.00000
     35      -5.3694      1.00000
     36      -5.2242      1.00000
     37      -5.1986      1.00000
     38      -5.1040      1.00000
     39      -5.0737      1.00000
     40      -5.0377      1.00000
     41      -5.0329      1.00000
     42      -4.9495      1.00000
     43      -4.9091      1.00000
     44      -4.8891      1.00000
     45      -4.8006      1.00000
     46      -4.7676      1.00000
     47      -4.7000      1.00000
     48      -4.6704      1.00000
     49      -4.6102      1.00000
     50      -4.5566      1.00000
     51      -4.5225      1.00000
     52      -4.4869      1.00000
     53      -4.4565      1.00000
     54      -4.4485      1.00000
     55      -4.3822      1.00000
     56      -4.3424      1.00000
     57      -4.3347      1.00000
     58      -4.1274      1.00000
     59      -4.0403      0.00000
     60      -2.7289      0.00000
     61      -2.5878      0.00000
     62      -2.2022      0.00000
     63      -2.1159      0.00000
     64      -1.9444      0.00000
     65      -1.8565      0.00000
     66      -0.6975      0.00000
     67      -0.4432      0.00000
     68      -0.3163      0.00000
     69      -0.1688      0.00000
     70      -0.1189      0.00000
     71       0.0699      0.00000
     72       0.2556      0.00000

 spin component 2

 k-point     1 :       0.0000    0.0000    0.0000
  band No.  band energies     occupation 
      1      -8.2471      1.00000
      2      -7.8851      1.00000
      3      -7.6020      1.00000
      4      -7.5917      1.00000
      5      -7.4649      1.00000
      6      -7.3558      1.00000
      7      -7.2817      1.00000
      8      -7.1950      1.00000
      9      -7.1216      1.00000
     10      -7.0828      1.00000
     11      -7.0606      1.00000
     12      -7.0554      1.00000
     13      -6.9793      1.00000
     14      -6.8898      1.00000
     15      -6.8341      1.00000
     16      -6.6508      1.00000
     17      -6.5197      1.00000
     18      -6.2813      1.00000
     19      -6.2312      1.00000
     20      -6.1766      1.00000
     21      -6.0907      1.00000
     22      -5.9942      1.00000
     23      -5.9185      1.00000
     24      -5.9008      1.00000
     25      -5.7851      1.00000
     26      -5.7458      1.00000
     27      -5.6812      1.00000
     28      -5.6675      1.00000
     29      -5.4334      1.00000
     30      -5.2537      1.00000
     31      -5.2455      1.00000
     32      -5.2171      1.00000
     33      -5.1920      1.00000
     34      -5.0910      1.00000
     35      -5.0503      1.00000
     36      -4.9303      1.00000
     37      -4.9069      1.00000
     38      -4.8925      1.00000
     39      -4.7829      1.00000
     40      -4.7623      1.00000
     41      -4.6646      1.00000
     42      -4.6366      1.00000
     43      -4.5591      1.00000
     44      -4.5411      1.00000
     45      -4.4683      1.00000
     46      -4.4367      1.00000
     47      -4.3747      1.00000
     48      -4.3034      1.00000
     49      -4.2413      1.00000
     50      -4.1729      1.00000
     51      -4.1640      1.00000
     52      -4.1487      1.00000
     53      -4.0635      0.00000
     54      -4.0110      0.00000
     55      -3.9732      0.00000
     56      -3.8675      0.00000
     57      -3.8611      0.00000
     58      -3.8315      0.00000
     59      -3.7520      0.00000
     60      -2.5579      0.00000
     61      -2.4223      0.00000
     62      -1.9998      0.00000
     63      -1.8847      0.00000
     64      -1.7188      0.00000
     65      -1.6725      0.00000
     66      -0.5852      0.00000
     67      -0.3415      0.00000
     68      -0.2149      0.00000
     69      -0.0206      0.00000
     70       0.0992      0.00000
     71       0.2551      0.00000
     72       0.3303      0.00000


--------------------------------------------------------------------------------------------------------


 soft charge-density along one line, spin component           1
         0         1         2         3         4         5         6         7         8         9
 total charge-density along one line
 
 soft charge-density along one line, spin component           2
         0         1         2         3         4         5         6         7         8         9
 total charge-density along one line
 
 pseudopotential strength for first ion, spin component:           1
 -8.652   0.035  -0.044   0.040   0.009  -8.616   0.034  -0.042
  0.035  -8.650  -0.001   0.072  -0.048   0.034  -8.614  -0.001
 -0.044  -0.001  -8.628  -0.018   0.013  -0.042  -0.001  -8.593
  0.040   0.072  -0.018  -8.637   0.015   0.038   0.068  -0.017
  0.009  -0.048   0.013   0.015  -8.611   0.009  -0.046   0.012
 -8.616   0.034  -0.042   0.038   0.009  -8.557   0.032  -0.040
  0.034  -8.614  -0.001   0.068  -0.046   0.032  -8.556  -0.001
 -0.042  -0.001  -8.593  -0.017   0.012  -0.040  -0.001  -8.536
  0.038   0.068  -0.017  -8.601   0.015   0.036   0.065  -0.016
  0.009  -0.046   0.012   0.015  -8.577   0.009  -0.044   0.012
 -0.027  -0.019   0.000  -0.008   0.002  -0.026  -0.018   0.000
 -0.047  -0.032   0.000  -0.014   0.004  -0.045  -0.031   0.000
  0.020   0.017  -0.007   0.001  -0.012   0.019   0.016  -0.007
  0.001   0.013   0.018   0.020   0.000   0.001   0.012   0.017
  0.013   0.001  -0.011   0.017   0.020   0.013   0.001  -0.011
  0.023   0.018  -0.008   0.001  -0.013   0.022   0.017  -0.008
  0.001   0.013   0.019   0.023   0.000   0.001   0.013   0.018
  0.014   0.001  -0.013   0.018   0.022   0.014   0.001  -0.012
 pseudopotential strength for first ion, spin component:           2
 -8.424   0.007  -0.035   0.019  -0.008  -8.397   0.006  -0.033
  0.007  -8.414   0.018   0.027  -0.021   0.006  -8.388   0.017
 -0.035   0.018  -8.433   0.011   0.006  -0.033   0.017  -8.406
  0.019   0.027   0.011  -8.431   0.005   0.018   0.026   0.010
 -0.008  -0.021   0.006   0.005  -8.428  -0.007  -0.020   0.006
 -8.397   0.006  -0.033   0.018  -0.007  -8.349   0.006  -0.032
  0.006  -8.388   0.017   0.026  -0.020   0.006  -8.339   0.016
 -0.033   0.017  -8.406   0.010   0.006  -0.032   0.016  -8.357
  0.018   0.026   0.010  -8.404   0.005   0.017   0.025   0.010
 -0.007  -0.020   0.006   0.005  -8.401  -0.007  -0.019   0.005
 -0.012  -0.008   0.001  -0.002   0.003  -0.012  -0.007   0.001
 -0.021  -0.012   0.003  -0.003   0.006  -0.020  -0.012   0.003
  0.023   0.018  -0.008  -0.000  -0.014   0.022   0.017  -0.007
 -0.000   0.015   0.021   0.023  -0.000  -0.000   0.014   0.020
  0.014  -0.000  -0.012   0.018   0.022   0.014  -0.000  -0.012
  0.026   0.021  -0.009  -0.000  -0.016   0.025   0.020  -0.008
 -0.000   0.017   0.024   0.026  -0.000  -0.000   0.016   0.022
  0.016  -0.000  -0.014   0.020   0.025   0.015  -0.000  -0.014
 total augmentation occupancy for first ion, spin component:           1
  2.110   0.127  -0.133   0.066  -0.014  -0.832  -0.020   0.096  -0.000   0.010   0.425  -0.106   0.063  -0.058   0.053   0.022
  0.127   2.118   0.101   0.101  -0.274  -0.017  -0.755  -0.133   0.095   0.165   0.212  -0.067   0.081   0.086  -0.066   0.019
 -0.133   0.101   2.597  -0.037   0.071   0.089  -0.132  -1.185  -0.049  -0.018  -0.031   0.015  -0.091   0.204  -0.099  -0.007
  0.066   0.101  -0.037   2.165   0.213   0.003   0.097  -0.047  -0.750  -0.195  -0.003  -0.015  -0.055   0.064   0.099   0.005
 -0.014  -0.274   0.071   0.213   2.672   0.011   0.162  -0.019  -0.194  -1.167  -0.149   0.023  -0.202   0.020   0.177  -0.013
 -0.832  -0.017   0.089   0.003   0.011   1.334  -0.042  -0.075  -0.043  -0.002  -0.257   0.010  -0.105   0.078  -0.103   0.011
 -0.020  -0.755  -0.132   0.097   0.162  -0.042   1.185   0.148  -0.216  -0.108  -0.097  -0.005  -0.112  -0.125   0.085   0.009
  0.096  -0.133  -1.185  -0.047  -0.019  -0.075   0.148   1.612   0.098  -0.019  -0.028   0.004   0.120  -0.284   0.135  -0.008
 -0.000   0.095  -0.049  -0.750  -0.194  -0.043  -0.216   0.098   1.158   0.184   0.011  -0.010   0.080  -0.103  -0.144  -0.005
  0.010   0.165  -0.018  -0.195  -1.167  -0.002  -0.108  -0.019   0.184   1.525   0.085  -0.004   0.242  -0.022  -0.240  -0.012
  0.425   0.212  -0.031  -0.003  -0.149  -0.257  -0.097  -0.028   0.011   0.085   1.700  -0.238  -0.159  -0.179  -0.181   0.022
 -0.106  -0.067   0.015  -0.015   0.023   0.010  -0.005   0.004  -0.010  -0.004  -0.238   0.041   0.029   0.028   0.027  -0.006
  0.063   0.081  -0.091  -0.055  -0.202  -0.105  -0.112   0.120   0.080   0.242  -0.159   0.029   0.126  -0.007  -0.026  -0.008
 -0.058   0.086   0.204   0.064   0.020   0.078  -0.125  -0.284  -0.103  -0.022  -0.179   0.028  -0.007   0.116  -0.002  -0.000
  0.053  -0.066  -0.099   0.099   0.177  -0.103   0.085   0.135  -0.144  -0.240  -0.181   0.027  -0.026  -0.002   0.125  -0.000
  0.022   0.019  -0.007   0.005  -0.013   0.011   0.009  -0.008  -0.005  -0.012   0.022  -0.006  -0.008  -0.000  -0.000   0.002
  0.004   0.017   0.019   0.022  -0.001  -0.006   0.009   0.019   0.011   0.001   0.018  -0.003  -0.000  -0.008  -0.001   0.000
  0.015   0.004  -0.011   0.018   0.018   0.010  -0.005  -0.009   0.011   0.016   0.019  -0.004  -0.000  -0.001  -0.009   0.000
 total augmentation occupancy for first ion, spin component:           2
  0.625  -0.180   0.108  -0.158  -0.107  -0.283   0.087  -0.063   0.079   0.054   0.092  -0.046   0.019  -0.010   0.000   0.005
 -0.180   0.660   0.061  -0.300   0.191   0.085  -0.303  -0.019   0.149  -0.095   0.122  -0.029   0.012   0.030  -0.021   0.003
  0.108   0.061   0.396   0.164  -0.067  -0.055  -0.019  -0.167  -0.077   0.035   0.134   0.001   0.001   0.032   0.004   0.001
 -0.158  -0.300   0.164   0.483  -0.095   0.077   0.145  -0.080  -0.219   0.054   0.036  -0.008  -0.020   0.011   0.005  -0.004
 -0.107   0.191  -0.067  -0.095   0.372   0.053  -0.093   0.039   0.051  -0.164  -0.034  -0.003  -0.022  -0.006   0.016  -0.003
 -0.283   0.085  -0.055   0.077   0.053   0.080  -0.036   0.030  -0.031  -0.025  -0.012   0.002  -0.009   0.003   0.004  -0.003
  0.087  -0.303  -0.019   0.145  -0.093  -0.036   0.103   0.003  -0.063   0.039  -0.036   0.001  -0.003  -0.011   0.008  -0.001
 -0.063  -0.019  -0.167  -0.080   0.039   0.030   0.003   0.036   0.034  -0.017  -0.068   0.004  -0.004  -0.008  -0.004  -0.000
  0.079   0.149  -0.077  -0.219   0.051  -0.031  -0.063   0.034   0.064  -0.026   0.000  -0.005   0.008  -0.004   0.002   0.002
  0.054  -0.095   0.035   0.054  -0.164  -0.025   0.039  -0.017  -0.026   0.029   0.023  -0.002   0.008   0.004  -0.005   0.001
  0.092   0.122   0.134   0.036  -0.034  -0.012  -0.036  -0.068   0.000   0.023   0.040  -0.004   0.013   0.026  -0.014   0.003
 -0.046  -0.029   0.001  -0.008  -0.003   0.002   0.001   0.004  -0.005  -0.002  -0.004   0.005  -0.001  -0.002   0.001  -0.001
  0.019   0.012   0.001  -0.020  -0.022  -0.009  -0.003  -0.004   0.008   0.008   0.013  -0.001   0.003   0.000  -0.003   0.000
 -0.010   0.030   0.032   0.011  -0.006   0.003  -0.011  -0.008  -0.004   0.004   0.026  -0.002   0.000   0.002  -0.002   0.000
  0.000  -0.021   0.004   0.005   0.016   0.004   0.008  -0.004   0.002  -0.005  -0.014   0.001  -0.003  -0.002  -0.000  -0.000
  0.005   0.003   0.001  -0.004  -0.003  -0.003  -0.001  -0.000   0.002   0.001   0.003  -0.001   0.000   0.000  -0.000   0.000
 -0.002   0.004   0.009   0.004  -0.000   0.001  -0.001  -0.003  -0.002   0.000   0.003  -0.000  -0.000   0.001  -0.000  -0.000
  0.002  -0.002  -0.000   0.002   0.002  -0.001   0.001   0.000  -0.001  -0.001   0.001  -0.001  -0.000  -0.000   0.000  -0.000


------------------------ aborting loop because EDIFF is reached ----------------------------------------


    CHARGE:  cpu time    0.03: real time    0.03
    FORLOC:  cpu time    0.00: real time    0.00
    FORNL :  cpu time    0.21: real time    0.20
    STRESS:  cpu time    0.24: real time    0.24
    FORCOR:  cpu time    0.15: real time    0.15
    FORHAR:  cpu time    0.02: real time    0.02
    MIXING:  cpu time    0.00: real time    0.00
    OFIELD:  cpu time    0.00: real time    0.00

  FORCE on cell =-STRESS in cart. coord.  units (eV):
  Direction    XX          YY          ZZ          XY          YZ          ZX
  --------------------------------------------------------------------------------------
  Alpha Z    13.64955    13.64955    13.64955
  Ewald    2931.01707  4373.31012  3230.69975   420.59988  -884.56039  -115.61330
  Hartree  5868.48963  7163.69948  6159.39761   367.53336  -736.10922  -127.67232
  E(xc)    -575.15237  -574.34280  -574.80850     0.09375    -0.63773     0.02283
  Local  -10479.75534-13216.60425-11070.79666  -789.58566  1614.30843   247.50263
  n-local  -100.13690   -88.35092   -94.72397     3.05467    -3.46657    -4.16087
  augment   819.62259   813.20421   816.60263    -0.88984     3.76313     0.78392
  Kinetic  1519.11125  1512.14649  1516.78161    -0.81360     6.72325    -0.90061
  Fock        0.00000     0.00000     0.00000     0.00000     0.00000     0.00000
  -------------------------------------------------------------------------------------
  Total      -3.15451    -3.28811    -3.19798    -0.00744     0.02092    -0.03771
  in kB      -0.87477    -0.91182    -0.88682    -0.00206     0.00580    -0.01046
  external pressure =       -0.89 kB  Pullay stress =        0.00 kB


 VOLUME and BASIS-vectors are now :
 -----------------------------------------------------------------------------
  energy-cutoff  :      250.93
  volume of cell :     5777.63
      direct lattice vectors                 reciprocal lattice vectors
    17.943888000  0.000000000  0.000000000     0.055729282  0.000000000  0.000000000
     0.000000000 17.943888000  0.000000000     0.000000000  0.055729282  0.000000000
     0.000000000  0.000000000 17.943888000     0.000000000  0.000000000  0.055729282

  length of vectors
    17.943888000 17.943888000 17.943888000     0.055729282  0.055729282  0.055729282


 FORCES acting on ions
    electron-ion (+dipol)            ewald-force                    non-local-force                 convergence-correction
 -----------------------------------------------------------------------------------------------
   -.479E+03 -.570E+03 -.482E+03   0.475E+03 0.567E+03 0.479E+03   0.355E+01 0.279E+01 0.334E+01   0.131E-01 -.511E-01 0.492E-01
   -.674E+03 0.286E+03 -.507E+03   0.668E+03 -.284E+03 0.504E+03   0.539E+01 -.146E+01 0.345E+01   -.630E-01 -.654E-01 0.190E-01
   0.760E+03 0.466E+03 0.175E+02   -.753E+03 -.463E+03 -.164E+02   -.676E+01 -.273E+01 -.112E+01   0.522E-01 -.345E-01 0.370E-01
   0.697E+03 -.147E+03 0.417E+03   -.694E+03 0.146E+03 -.415E+03   -.341E+01 0.854E+00 -.203E+01   -.194E-01 -.101E+00 0.313E-01
   -.146E+03 0.683E+03 0.374E+03   0.145E+03 -.680E+03 -.372E+03   0.111E+01 -.281E+01 -.198E+01   -.399E-01 -.695E-01 0.751E-01
   -.121E+03 -.746E+03 0.472E+03   0.120E+03 0.741E+03 -.469E+03   0.725E+00 0.479E+01 -.305E+01   0.662E-02 0.203E-02 -.175E-01
   -.831E+03 -.137E+02 0.308E+03   0.825E+03 0.140E+02 -.307E+03   0.542E+01 -.277E+00 -.105E+01   -.640E-02 -.616E-01 0.289E-01
   0.297E+02 0.723E+03 -.502E+03   -.300E+02 -.717E+03 0.497E+03   0.336E+00 -.585E+01 0.431E+01   -.148E-01 0.157E-01 -.237E-01
   0.474E+03 -.709E+03 -.283E+03   -.470E+03 0.704E+03 0.281E+03   -.466E+01 0.514E+01 0.228E+01   -.120E-01 -.382E-01 0.340E-01
   0.344E+03 -.797E+02 -.704E+03   -.342E+03 0.789E+02 0.701E+03   -.129E+01 0.908E+00 0.321E+01   0.276E-02 -.125E+00 0.210E-01
   -.544E+02 0.109E+03 0.889E+03   0.548E+02 -.108E+03 -.882E+03   -.433E+00 -.138E+01 -.711E+01   -.183E-01 -.595E-01 0.356E-02
 -----------------------------------------------------------------------------------------------
   0.107E+00 0.765E+00 -.501E+00   0.995E-13 0.369E-12 0.114E-12   -.420E-01 -.270E-01 0.259E+00   -.990E-01 -.588E+00 0.258E+00
 
 
 POSITION                                       TOTAL-FORCE (eV/Angst)
 -----------------------------------------------------------------------------------
     10.21359     10.67131     10.05860         0.018017     -0.012880     -0.003135
     10.72007      8.04731     10.42028        -0.005269     -0.011962     -0.007367
      6.69825      7.16517      9.20578         0.018345      0.019868      0.013466
      7.48515      9.40086      7.99601         0.000170     -0.001235      0.004155
      9.19023      7.38848      8.30972        -0.010955     -0.017593      0.002810
      9.36850     11.16754      7.61562        -0.003339      0.021490     -0.015764
     11.10525      9.23012      8.03351        -0.012517     -0.009816     -0.006626
      8.68946      6.33952     10.70742         0.007347      0.020568     -0.014100
      7.71152     11.42303      9.70941        -0.004550      0.021645      0.020760
      8.20217      8.93889     10.50008         0.005357     -0.020997      0.013592
      9.30720      8.91917      6.13495        -0.012605     -0.009087     -0.007792
 -----------------------------------------------------------------------------------
    total drift:                               -0.033963      0.150251      0.016473


--------------------------------------------------------------------------------------------------------



  FREE ENERGIE OF THE ION-ELECTRON SYSTEM (eV)
  ---------------------------------------------------
  free  energy   TOTEN  =       -40.69801875 eV

  energy  without entropy=      -40.69801875  energy(sigma->0) =      -40.69801875
 
 d Force = 0.6566380E-06[ 0.615E-06, 0.698E-06]  d Energy = 0.1111174E-03-0.110E-03
 d Force = 0.1466706E+00[ 0.147E+00, 0.147E+00]  d Ewald  = 0.1466706E+00 0.198E-09


--------------------------------------------------------------------------------------------------------


    POTLOK:  cpu time    0.16: real time    0.16


--------------------------------------------------------------------------------------------------------




--------------------------------------------------------------------------------------------------------


  
 reached required accuracy - stopping structural energy minimisation
     LOOP+:  cpu time    3.90: real time    6.74
    4ORBIT:  cpu time    0.00: real time    0.00

 total amount of memory used by VASP on root node    47854. kBytes
========================================================================

   base      :      30000. kBytes
   nonl-proj :       1044. kBytes
   fftplans  :       4207. kBytes
   grid      :      10682. kBytes
   one-center:         31. kBytes
   wavefun   :       1890. kBytes
 
  
  
 General timing and accounting informations for this job:
 ========================================================
  
                  Total CPU time used (sec):      388.464
                            User time (sec):      381.092
                          System time (sec):        7.372
                         Elapsed time (sec):      571.000
  
                   Maximum memory used (kb):       55120.
                   Average memory used (kb):           0.
  
                          Minor page faults:      1253753
                          Major page faults:            0
                 Voluntary context switches:        12530
