unknown system                          
           1
    20.992564    0.000000    0.000000
     0.000000   20.992564    0.000000
     0.000000    0.000000   20.992564
   Ag
  20
Direct configuration=     1
   0.50000000  0.50000000  0.36719283
   0.50000000  0.56317327  0.48924934
   0.50000000  0.30963345  0.49398054
   0.37694490  0.50000000  0.44976516
   0.42569040  0.38391299  0.39099878
   0.42569040  0.61608701  0.39099878
   0.38009754  0.38517377  0.52548055
   0.38009754  0.61482623  0.52548055
   0.50000000  0.69036655  0.49398054
   0.50000000  0.60857564  0.61328268
   0.61990246  0.61482623  0.52548055
   0.57430960  0.61608701  0.39099878
   0.58525657  0.50000000  0.58914399
   0.62305510  0.50000000  0.44976516
   0.50000000  0.43682673  0.48924934
   0.57430960  0.38391299  0.39099878
   0.41474343  0.50000000  0.58914399
   0.61990246  0.38517377  0.52548055
   0.50000000  0.50000000  0.69604642
   0.50000000  0.39142436  0.61328268
Direct configuration=     2
   0.50000000  0.50000000  0.36735517
   0.50000000  0.56320477  0.48923983
   0.50000000  0.30980083  0.49397629
   0.37709209  0.50000000  0.44982303
   0.42576872  0.38399418  0.39111328
   0.42576872  0.61600582  0.39111328
   0.38021576  0.38525292  0.52542769
   0.38021576  0.61474708  0.52542769
   0.50000000  0.69019917  0.49397629
   0.50000000  0.60845024  0.61317360
   0.61978424  0.61474708  0.52542769
   0.57423128  0.61600582  0.39111328
   0.58514687  0.50000000  0.58907276
   0.62290791  0.50000000  0.44982303
   0.50000000  0.43679523  0.48923983
   0.57423128  0.38399418  0.39111328
   0.41485313  0.50000000  0.58907276
   0.61978424  0.38525292  0.52542769
   0.50000000  0.50000000  0.69590990
   0.50000000  0.39154976  0.61317360
Direct configuration=     3
   0.50000000  0.50000000  0.36784217
   0.50000000  0.56329924  0.48921131
   0.50000000  0.31030295  0.49396355
   0.37753363  0.50000000  0.44999664
   0.42600367  0.38423776  0.39145678
   0.42600367  0.61576224  0.39145678
   0.38057043  0.38549038  0.52526912
   0.38057043  0.61450962  0.52526912
   0.50000000  0.68969705  0.49396355
   0.50000000  0.60807406  0.61284636
   0.61942957  0.61450962  0.52526912
   0.57399633  0.61576224  0.39145678
   0.58481777  0.50000000  0.58885908
   0.62246637  0.50000000  0.44999664
   0.50000000  0.43670076  0.48921131
   0.57399633  0.38423776  0.39145678
   0.41518223  0.50000000  0.58885908
   0.61942957  0.38549038  0.52526912
   0.50000000  0.50000000  0.69550033
   0.50000000  0.39192594  0.61284636
Direct configuration=     4
   0.50000000  0.50000000  0.36881617
   0.50000000  0.56348819  0.48915428
   0.50000000  0.31130721  0.49393808
   0.37841672  0.50000000  0.45034386
   0.42647356  0.38472491  0.39214377
   0.42647356  0.61527509  0.39214377
   0.38127976  0.38596530  0.52495199
   0.38127976  0.61403470  0.52495199
   0.50000000  0.68869279  0.49393808
   0.50000000  0.60732171  0.61219187
   0.61872024  0.61403470  0.52495199
   0.57352644  0.61527509  0.39214377
   0.58415957  0.50000000  0.58843170
   0.62158328  0.50000000  0.45034386
   0.50000000  0.43651181  0.48915428
   0.57352644  0.38472491  0.39214377
   0.41584043  0.50000000  0.58843170
   0.61872024  0.38596530  0.52495199
   0.50000000  0.50000000  0.69468119
   0.50000000  0.39267829  0.61219187
Direct configuration=     5
   0.50000000  0.50000000  0.37076418
   0.50000000  0.56386608  0.48904021
   0.50000000  0.31331572  0.49388713
   0.38018291  0.50000000  0.45103829
   0.42741336  0.38569922  0.39351776
   0.42741336  0.61430078  0.39351776
   0.38269842  0.38691514  0.52431773
   0.38269842  0.61308486  0.52431773
   0.50000000  0.68668428  0.49388713
   0.50000000  0.60581699  0.61088289
   0.61730158  0.61308486  0.52431773
   0.57258664  0.61430078  0.39351776
   0.58284317  0.50000000  0.58757694
   0.61981709  0.50000000  0.45103829
   0.50000000  0.43613392  0.48904021
   0.57258664  0.38569922  0.39351776
   0.41715683  0.50000000  0.58757694
   0.61730158  0.38691514  0.52431773
   0.50000000  0.50000000  0.69304292
   0.50000000  0.39418301  0.61088289
Direct configuration=     6
   0.50000000  0.50000000  0.37000490
   0.50000000  0.56371879  0.48908467
   0.50000000  0.31253285  0.49390699
   0.37949450  0.50000000  0.45076762
   0.42704705  0.38531946  0.39298222
   0.42704705  0.61468054  0.39298222
   0.38214547  0.38654491  0.52456495
   0.38214547  0.61345509  0.52456495
   0.50000000  0.68746715  0.49390699
   0.50000000  0.60640349  0.61139310
   0.61785453  0.61345509  0.52456495
   0.57295295  0.61468054  0.39298222
   0.58335627  0.50000000  0.58791010
   0.62050550  0.50000000  0.45076762
   0.50000000  0.43628121  0.48908467
   0.57295295  0.38531946  0.39298222
   0.41664373  0.50000000  0.58791010
   0.61785453  0.38654491  0.52456495
   0.50000000  0.50000000  0.69368148
   0.50000000  0.39359651  0.61139310
Direct configuration=     7
   0.50000000  0.50000000  0.37031786
   0.50000000  0.56278341  0.48917475
   0.50000000  0.31247780  0.49392444
   0.37986443  0.50000000  0.45091166
   0.42715502  0.38541985  0.39308032
   0.42715502  0.61458015  0.39308032
   0.38228153  0.38668084  0.52453545
   0.38228153  0.61331916  0.52453545
   0.50000000  0.68752220  0.49392444
   0.50000000  0.60620781  0.61122322
   0.61771847  0.61331916  0.52453545
   0.57284498  0.61458015  0.39308032
   0.58311929  0.50000000  0.58766391
   0.62013557  0.50000000  0.45091166
   0.50000000  0.43721659  0.48917475
   0.57284498  0.38541985  0.39308032
   0.41688071  0.50000000  0.58766391
   0.61771847  0.38668084  0.52453545
   0.50000000  0.50000000  0.69342311
   0.50000000  0.39379219  0.61122322
Direct configuration=     8
   0.50000000  0.50000000  0.37040022
   0.50000000  0.56253725  0.48919845
   0.50000000  0.31246331  0.49392903
   0.37996178  0.50000000  0.45094956
   0.42718344  0.38544627  0.39310614
   0.42718344  0.61455373  0.39310614
   0.38231734  0.38671661  0.52452768
   0.38231734  0.61328339  0.52452768
   0.50000000  0.68753669  0.49392903
   0.50000000  0.60615632  0.61117852
   0.61768266  0.61328339  0.52452768
   0.57281656  0.61455373  0.39310614
   0.58305693  0.50000000  0.58759912
   0.62003822  0.50000000  0.45094956
   0.50000000  0.43746275  0.48919845
   0.57281656  0.38544627  0.39310614
   0.41694307  0.50000000  0.58759912
   0.61768266  0.38671661  0.52452768
   0.50000000  0.50000000  0.69335512
   0.50000000  0.39384368  0.61117852
Direct configuration=     9
   0.50000000  0.50000000  0.37031865
   0.50000000  0.56251238  0.48929187
   0.50000000  0.31250717  0.49394231
   0.38000524  0.50000000  0.45095868
   0.42720240  0.38542219  0.39307399
   0.42720240  0.61457781  0.39307399
   0.38229661  0.38670915  0.52456786
   0.38229661  0.61329085  0.52456786
   0.50000000  0.68749283  0.49394231
   0.50000000  0.60620630  0.61116154
   0.61770339  0.61329085  0.52456786
   0.57279760  0.61457781  0.39307399
   0.58305100  0.50000000  0.58753280
   0.61999476  0.50000000  0.45095868
   0.50000000  0.43748762  0.48929187
   0.57279760  0.38542219  0.39307399
   0.41694900  0.50000000  0.58753280
   0.61770339  0.38670915  0.52456786
   0.50000000  0.50000000  0.69333954
   0.50000000  0.39379370  0.61116154
Direct configuration=    10
   0.50000000  0.50000000  0.37021698
   0.50000000  0.56248138  0.48940829
   0.50000000  0.31256182  0.49395886
   0.38005940  0.50000000  0.45097005
   0.42722604  0.38539217  0.39303393
   0.42722604  0.61460783  0.39303393
   0.38227078  0.38669986  0.52461793
   0.38227078  0.61330014  0.52461793
   0.50000000  0.68743818  0.49395886
   0.50000000  0.60626860  0.61114038
   0.61772922  0.61330014  0.52461793
   0.57277396  0.61460783  0.39303393
   0.58304362  0.50000000  0.58745014
   0.61994060  0.50000000  0.45097005
   0.50000000  0.43751862  0.48940829
   0.57277396  0.38539217  0.39303393
   0.41695638  0.50000000  0.58745014
   0.61772922  0.38669986  0.52461793
   0.50000000  0.50000000  0.69332012
   0.50000000  0.39373140  0.61114038
Direct configuration=    11
   0.50000000  0.50000000  0.37023877
   0.50000000  0.56235902  0.48940920
   0.50000000  0.31258128  0.49396942
   0.38015548  0.50000000  0.45098524
   0.42727792  0.38540247  0.39304710
   0.42727792  0.61459753  0.39304710
   0.38226829  0.38670637  0.52463931
   0.38226829  0.61329363  0.52463931
   0.50000000  0.68741872  0.49396942
   0.50000000  0.60628792  0.61113960
   0.61773171  0.61329363  0.52463931
   0.57272208  0.61459753  0.39304710
   0.58300208  0.50000000  0.58738186
   0.61984452  0.50000000  0.45098524
   0.50000000  0.43764098  0.48940920
   0.57272208  0.38540247  0.39304710
   0.41699792  0.50000000  0.58738186
   0.61773171  0.38670637  0.52463931
   0.50000000  0.50000000  0.69324493
   0.50000000  0.39371208  0.61113960
Direct configuration=    12
   0.50000000  0.50000000  0.37025662
   0.50000000  0.56225883  0.48940994
   0.50000000  0.31259721  0.49397806
   0.38023416  0.50000000  0.45099768
   0.42732040  0.38541090  0.39305789
   0.42732040  0.61458910  0.39305789
   0.38226626  0.38671170  0.52465681
   0.38226626  0.61328830  0.52465681
   0.50000000  0.68740279  0.49397806
   0.50000000  0.60630374  0.61113897
   0.61773374  0.61328830  0.52465681
   0.57267960  0.61458910  0.39305789
   0.58296806  0.50000000  0.58732596
   0.61976584  0.50000000  0.45099768
   0.50000000  0.43774117  0.48940994
   0.57267960  0.38541090  0.39305789
   0.41703194  0.50000000  0.58732596
   0.61773374  0.38671170  0.52465681
   0.50000000  0.50000000  0.69318336
   0.50000000  0.39369626  0.61113897
