13
Energy = -33.31672552 eV
Cu 8.546366000000026 6.916654230769278 7.94957799999991
Cu 6.617208000000052 9.4837822307692 10.373890999999903
Cu 9.589239000000042 8.569175230769279 6.456863999999941
Cu 10.217054000000001 11.220582230769233 11.76466300000002
Cu 10.40029900000008 8.918055230769161 11.156678000000047
Cu 8.305067999999876 9.607205230769178 12.157661999999942
Cu 11.747759999999895 9.60302923076918 7.284507000000106
Cu 9.641471999999949 10.654610230769356 7.687462000000021
Cu 11.260788999999999 10.592547230769226 9.554456999999916
Cu 10.23654999999991 8.468976230769371 8.766466999999887
Cu 8.813486000000065 10.45867723076928 9.971516999999968
Cu 8.387350999999983 7.903203230769227 10.25460299999999
Cu 7.792544999999979 9.158689230769292 8.176837999999947
