13
Energy = -31.49346522 eV
Cu 9.058204418992078 9.02050929942861 6.192580572447438
Cu 10.812946252414548 7.315550310488299 9.593739928991118
Cu 5.902684598155731 5.831065578102006 10.528898678554773
Cu 8.904975930003214 10.752739943815188 8.150832448953157
Cu 7.303932082196736 8.81007015460106 8.004005171804549
Cu 7.17593405911683 10.34894253147555 9.875470808986648
Cu 7.4412602270727115 7.132817809242066 6.262634558524316
Cu 10.661351074280113 9.092864495048383 8.011350468995468
Cu 6.834959526351176 6.375943262936255 8.45034512129089
Cu 10.645349541839764 10.848319515026882 6.4628574273078705
Cu 8.9973805616152 8.865396336608217 9.809369709682535
Cu 6.676373336142868 8.041497094629579 10.32311662378641
Cu 9.139330045246522 7.1670234513966795 7.88954384826267
