13
Energy = -32.44910473 eV
Cu 8.201622847930748 6.500449514067879 7.309961681662531
Cu 7.620121262697871 8.666522669522141 6.3514091108854664
Cu 10.421740858082014 5.984613134363136 8.050990502106657
Cu 6.9214740677446045 8.191581573217904 8.537390540982967
Cu 6.027121092168874 10.139989326538817 7.507320691295982
Cu 7.070078307330003 7.4790805888471 10.798558831183515
Cu 9.114506993035796 7.485823960534202 9.509957092015453
Cu 11.50116417352378 7.791579120332178 9.204630452813188
Cu 9.855737569422814 8.338309109250567 7.39980395540351
Cu 8.375378836493965 10.31083354599713 7.9640215568217085
Cu 10.251752195440961 9.803994273183504 9.44060599649534
Cu 7.928145193369326 9.634912677636123 10.246773195496763
Cu 8.869343115967645 11.753374668584593 9.846956153007802
