14
Energy = -34.57188867 eV
Cu 13.19971214204894 12.483846514205268 10.547366054555914
Cu 11.083921 9.762435064834587 11.974559806336028
Cu 13.177758284338939 11.083921 12.604123827559311
Cu 8.96812985795106 9.68399548579473 10.547366054555914
Cu 11.083921 12.405406935165413 11.974559806336028
Cu 8.990083715661063 11.083921 12.604123827559311
Cu 11.083921 11.083921 9.820964325571737
Cu 8.96812985795106 12.483846514205268 10.547366054555914
Cu 11.083921 13.560287464836279 9.860308868494558
Cu 11.083921 8.607554535163722 9.860308868494558
Cu 13.19971214204894 9.68399548579473 10.547366054555914
Cu 15.07362830856076 11.083921 10.153516272825954
Cu 7.094213691439241 11.083921 10.153516272825954
Cu 11.083921 11.083921 13.979448033623806
