14
Energy = -35.67084158 eV
Cu 9.97063370757992 10.80027497950759 9.8969065
Cu 11.223480636486434 12.443883319464634 11.143297632004808
Cu 11.190500718025016 10.061978046540968 11.83353573370433
Cu 12.455361958966028 10.774687953879262 9.8969065
Cu 7.4761877625095385 8.05192706648987 9.8969065
Cu 7.5935718693721626 10.494162594049682 9.8969065
Cu 8.93375270881214 9.162912976045435 8.31969508216809
Cu 9.264678128340822 6.849473798845446 8.688956553473105
Cu 10.714550680474632 8.438450941450183 9.8969065
Cu 11.223480636486434 12.443883319464634 8.650515367995183
Cu 11.190500718025016 10.061978046540968 7.96027726629567
Cu 8.93375270881214 9.162912976045435 11.474117917831903
Cu 9.264678128340822 6.849473798845446 11.104856446526895
Cu 9.121560637768475 12.960691438531866 9.8969065
