16
Energy = -42.06876841 eV
Cu 10.724316 13.94829590982345 10.724316
Cu 10.724316 9.508533243361901 12.075617016065936
Cu 10.724316 11.940098756638095 12.075617016065936
Cu 8.662686426468419 10.724316 12.504632017173467
Cu 8.74953064961634 12.463239124598452 10.724316
Cu 12.785945573531581 10.724316 12.504632017173467
Cu 10.724316 11.940098756638095 9.37301498393406
Cu 10.724316 9.508533243361901 9.37301498393406
Cu 8.662686426468419 10.724316 8.943999982826535
Cu 12.785945573531581 10.724316 8.943999982826535
Cu 12.699101350383655 12.463239124598452 10.724316
Cu 12.699101350383655 8.985392875401553 10.724316
Cu 8.74953064961634 8.985392875401553 10.724316
Cu 7.078257172036847 10.724316 10.724316
Cu 10.724316 7.500336090176546 10.724316
Cu 14.370374827963154 10.724316 10.724316
