17
Energy = -44.40821702 eV
Cu 11.679233800284027 8.842224107365148 8.94135292021201
Cu 10.824174671944256 11.220584403610648 9.010953935483565
Cu 10.09456194137074 9.747008657069369 7.083924420072412
Cu 12.451012358065176 8.086547495715536 11.136985958447559
Cu 8.082098154898341 10.553697995825113 5.978643763062788
Cu 10.954169518518874 9.991298097067142 11.164628277992366
Cu 9.80784758264126 7.416382145918724 8.027077371548444
Cu 8.464877038056748 11.402263840816152 8.229871627899056
Cu 7.7615919481254 8.733835333256698 7.550611385617378
Cu 9.356287382111704 9.363515611011819 9.36030162125909
Cu 8.908218462175805 11.311784044305568 10.675056339417017
Cu 10.24669999233652 7.320124133924328 10.473901917152272
Cu 6.262178520862921 10.635563566447104 7.56030779480816
Cu 10.62996017282713 8.153966116842852 12.717502681249266
Cu 7.03012270838188 9.885814747009652 9.758108965680131
Cu 8.611909608186183 8.98780764262267 11.630151656208694
Cu 7.889560657056996 7.507275272724181 9.704040865440671
