23
Energy = -63.11288013 eV
Cu 9.838926713479054 7.363997498489298 9.25283300332957
Cu 9.181486674775451 11.988570084029144 12.636454578152332
Cu 9.173088967400673 9.551787025712 8.422951687287954
Cu 12.81349135575205 11.455549251524001 9.556954709647153
Cu 9.977395940570958 8.698331213548988 11.261675638901607
Cu 11.451988297075294 9.354868028277005 9.294826817973016
Cu 11.616692585206954 13.585760118598557 8.913359009154732
Cu 7.831754224685504 8.562823482663937 10.100054404516186
Cu 13.447965520625853 11.864466201868353 11.947469115308886
Cu 12.75643265644487 14.099190074850384 12.684178674312404
Cu 13.483249137919607 13.69013814924525 10.412858537074007
Cu 12.765122635195 10.168420987425387 13.48357497155885
Cu 10.234634472845077 14.182005817308752 12.785688919512324
Cu 11.844050292181434 8.11243717008108 12.753797968087556
Cu 11.469067962017485 12.200963650866903 13.497577605110228
Cu 11.407321608730287 14.969036784828695 10.8874400545497
Cu 9.82074181481797 13.121276119803914 10.56442902286899
Cu 10.434094880446725 11.527305337070478 8.83324318644394
Cu 11.887140517142788 7.271825977387707 10.513683748203754
Cu 8.811742934036753 10.808663183310978 10.51588293249452
Cu 10.319925320442977 9.972357676303128 13.394887931502018
Cu 11.136216791082797 10.959123506962776 11.324690094942618
Cu 13.100544881708792 9.494816511944626 11.13375700549146
