26
Energy = -72.74759224 eV
Cu 11.603917064746298 8.335096548806478 8.734281196764563
Cu 11.624363437093427 8.970729774319508 11.047189828079128
Cu 12.548703025808368 10.756127975345434 9.582901380181966
Cu 9.409179288361003 8.807948201935474 12.04912787920054
Cu 10.29470583044278 10.956688932226822 10.967432463107825
Cu 12.065812824903439 12.095474471702108 7.550382599034405
Cu 9.693179021670566 6.944406416542939 8.099689496468036
Cu 10.271443555967574 7.024938544029286 10.510715484822153
Cu 8.481452514600875 6.520390959730551 12.145281212850822
Cu 11.976187677554428 9.83344470516822 6.770424001436333
Cu 10.602004047526721 12.791480391300047 9.326036667715426
Cu 10.512352225261035 10.507123138420466 8.557460490675348
Cu 8.812613832931172 12.870975267944287 11.148688500440377
Cu 8.964308807819469 8.978434484807465 9.564745599494291
Cu 11.412178049162941 7.401758515520583 6.487700341537712
Cu 7.932184314859269 6.558183004126018 9.735033634256702
Cu 7.893769654868921 10.637541714762458 11.27298320341821
Cu 9.731262474408542 11.732962217612364 6.786293124054909
Cu 7.079442665587652 8.343196680029221 11.26857967092733
Cu 8.39757387542508 11.636356276879628 9.102070313015373
Cu 6.211339871736875 6.099914016495972 11.340782063472503
Cu 7.4607303366401245 8.021257549739728 7.770895415011813
Cu 9.624183014949967 9.02479248849053 6.818481844990123
Cu 5.677147212711441 7.518462592822341 9.416697520839243
Cu 6.590883119533475 9.813719504839124 9.300552985948778
Cu 7.685544640130187 10.375058011104436 7.202035466957044
