24
Energy = -66.10024164 eV
Cu 12.473716615349538 12.608847427120788 7.066499435612994
Cu 13.189780718346837 9.673144644651934 12.712754467817156
Cu 11.549771598970842 10.628486921462693 8.154456702500402
Cu 10.501197414997025 8.954351077843423 9.776164185571755
Cu 9.771173647180044 7.8901931014695235 13.158313257656888
Cu 8.216326235954531 8.049788458151832 9.161214539044305
Cu 12.234703719124228 11.839242466994582 11.851176280140324
Cu 11.835319705295289 7.866087327849763 11.626163450696255
Cu 9.697472211052952 6.981402409394537 10.877445082769604
Cu 8.4687474129984 9.026765338336977 11.4707062108668
Cu 7.596039087931051 11.327195845021356 11.738581759274458
Cu 12.850801950901486 12.201286361042957 9.462852554224643
Cu 9.760762224460471 12.137095815813298 12.380081653536658
Cu 9.646842000456967 9.151382209942867 7.518974267857459
Cu 12.639634337454222 9.937167884417985 10.397541580375822
Cu 10.71417310697236 13.109275310544898 8.56907138274691
Cu 10.490181814337005 11.343484255810827 10.221117156666564
Cu 8.73044912543102 10.121393635738134 13.582362348138705
Cu 10.793383641047626 9.927911697234746 12.295810870599675
Cu 8.646144453662862 12.78974296384361 9.997384701619392
Cu 10.309749429616879 6.96345215151092 8.467711477898774
Cu 7.36379268550958 9.81665803753383 7.351223434847903
Cu 9.158138617742996 11.531455874168415 7.77453971164932
Cu 8.09784876425308 10.406371945939977 9.562698800127444
