20
Energy = -55.24860843 eV
Cu 8.845501762554711 7.951380420230767 6.735530811531244
Cu 10.976234239430486 9.000205707253697 7.49318435045775
Cu 11.105161305727075 11.322355612037011 8.224135475864818
Cu 8.816204239289107 10.263711815620674 7.492678142254797
Cu 7.654586121099136 8.503178738192238 8.752381515087754
Cu 13.13450982324055 9.885885338843774 8.184827658594912
Cu 7.523944968413027 10.7925557948548 9.656563733545157
Cu 9.881287415970265 7.393473807882683 8.890569146835636
Cu 8.947117685078675 12.42415725533132 8.541541399966453
Cu 9.785228318787667 9.807596827789919 9.702417725438798
Cu 11.906874499246792 8.563452863502008 9.828127465829636
Cu 8.111171277673089 6.5772697457976435 10.275825131038522
Cu 8.031837433181916 12.939325907536325 10.687978543723357
Cu 10.362481328264936 12.086798341835873 10.521754973757831
Cu 12.466009457932296 10.896045256516986 10.23441016679402
Cu 7.940368403409867 8.805666120046727 11.13784944159467
Cu 10.135171743556887 7.664170443696136 11.291516205270439
Cu 8.723119325994345 10.93784501235296 11.898045435380606
Cu 10.986538958997635 9.904483270781023 11.842231140907161
Cu 9.251796560778429 8.865586588524328 13.193576404753049
