35
Energy = -101.37277358 eV
Cu 11.27865368743779 11.115560741363264 14.407602715983215
Cu 12.961502569248301 10.328062040156787 12.822011582738048
Cu 10.137144399995366 8.961673455566977 14.047657921814867
Cu 12.653836321111042 12.795436994899662 13.284387140003533
Cu 8.873248655026075 11.121465634756811 14.233917212829228
Cu 14.245131488976792 8.327052842596576 12.088019945666147
Cu 11.876297975953563 8.182087169067557 12.246218938794215
Cu 7.936977252634251 9.493289796362408 12.719607623527004
Cu 9.468545303594052 7.893939064334518 11.869069299488306
Cu 10.2204138952715 12.687331806295173 12.872716245281788
Cu 12.438962988626576 11.953375388360195 11.056994278126925
Cu 10.42131460025832 10.290060255759457 12.114257506943463
Cu 11.513049527907466 14.15584895216562 11.519408312642254
Cu 13.065356959332954 7.379709605508664 10.075608425508193
Cu 10.97020292246703 6.385098240088083 10.77428353885886
Cu 8.171199446491915 11.755115096007962 11.948685470681315
Cu 13.285760770986112 9.767770787577682 10.414107710700167
Cu 10.49413812969188 15.459172616103217 9.751320093705143
Cu 11.867784700883997 13.491621057352406 9.216350041862512
Cu 11.948515490800414 11.054023853103967 8.800057212425225
Cu 10.084780944351943 11.865836986278786 10.306665653608938
Cu 9.013575913951682 13.912685413447708 11.01531384636025
Cu 10.951622317714795 8.901224701638318 10.006840558374458
Cu 11.243872431007436 6.844556792561557 8.398831297001445
Cu 7.220375076217012 7.905898698556333 11.010373047232854
Cu 7.742202619463037 12.147954839477128 9.618104542749448
Cu 8.575288359338762 9.78038080721404 10.165564980021054
Cu 9.031953677049716 7.244740530352439 9.536788830104568
Cu 11.131433333749825 14.996773353925299 7.4622200548266955
Cu 12.58903400982803 8.823246984931016 8.12647584947146
Cu 9.388321895109 13.617355663721884 8.553556542200312
Cu 11.044052174213975 12.599904091536766 7.080388023407666
Cu 9.36340506814405 11.121472346216475 8.065914368631027
Cu 9.836273058285476 8.767139774893261 7.838846383836747
Cu 11.26466467579347 10.237800244379075 6.602585390434065
