33
Energy = -94.03253444 eV
Cu 12.097199952427824 8.281718543161968 8.083938402763486
Cu 10.067280905318443 9.907988329302396 12.161450586067527
Cu 7.956820643869928 11.23496888299994 11.640879713870905
Cu 9.583821136600536 7.583654135544488 11.669569074500563
Cu 14.309751744655212 11.476949710057914 12.096843868741082
Cu 14.739633852619583 11.204874032435644 9.692677983636608
Cu 8.636009371967889 9.304810237166853 10.148046567755449
Cu 9.88238150722409 7.619630051754542 8.888560968991063
Cu 13.60897166164747 13.221652214429007 10.554499888758986
Cu 13.598357414057835 9.344883440840508 10.949432911924218
Cu 11.315476973926328 12.542526480482776 8.65665518186317
Cu 9.80021148797137 11.445363941146724 10.132427820685635
Cu 7.983293736334594 13.14885678138875 13.218966288022207
Cu 12.693185616253922 10.583369688837935 8.609138988827478
Cu 9.942562062454956 14.727023144737025 12.694791702281162
Cu 13.698657307381776 12.87685548167853 8.176487723649306
Cu 12.57783537464101 10.098166598644294 13.119326833651371
Cu 10.319368232898125 10.073331988549578 8.227068160240808
Cu 9.973191357032857 13.262284261282591 14.705701053886932
Cu 10.207877184907627 15.614560424736377 10.370875674083067
Cu 8.7604199477631 13.58506240785756 10.874836124357191
Cu 10.331602060401588 8.700551115142106 14.104668044787452
Cu 12.061893668330518 11.323683302446735 11.063001113311492
Cu 8.679845420116514 10.877697459421764 14.044763812366247
Cu 12.272947167647795 14.752650924871304 9.077510051670224
Cu 14.398742702983537 8.917037445769974 8.696577057195698
Cu 10.09830457393355 12.26164939856849 12.545658147466128
Cu 11.278823705715189 9.076249975830919 10.214326200551607
Cu 12.411341320611788 12.710026194585751 13.103608250686966
Cu 11.254295525263391 13.623053984260492 10.918673797965742
Cu 11.00329374658615 11.082179949997485 14.54616370949867
Cu 7.945108247823395 6.928212370146815 10.066382461028601
Cu 11.87957210486774 7.9765548181582355 12.314569551148955
