47
Energy = -139.84823816 eV
Cu 9.777811687900423 11.097721576027025 6.070028254159333
Cu 12.321740419136217 11.224632411232593 6.3151379581890925
Cu 11.40715132244886 9.149171987226408 5.515011436022833
Cu 12.378297819830308 13.511630304311822 9.202864137388696
Cu 9.15536132000917 8.793352209485265 6.52854278429051
Cu 7.389023255199093 10.616794141367075 6.544576953312559
Cu 13.287231503076764 9.096205543250683 7.271129597326836
Cu 8.355830870650724 12.744541269702227 7.673372643723532
Cu 10.774340667257293 12.451530232487533 7.768873259010151
Cu 9.846885224766792 13.952393956118605 9.508980435494761
Cu 12.838765200768801 11.172022203315759 8.68432914606796
Cu 8.848184889426943 10.542568771079477 8.500653920866991
Cu 11.009334826974067 9.802635231717318 7.903049284569562
Cu 11.937352526597518 13.3520064560393 11.551799484303363
Cu 9.414259276554805 7.889211887450132 8.767854414265198
Cu 13.901621759212087 12.101618334529535 10.626498073299963
Cu 11.41704993850689 7.451488186706867 7.239607250831588
Cu 7.181531934253563 8.741104238167804 8.142944924307779
Cu 8.084472150782593 12.30410310421586 10.186201477901399
Cu 6.423818771981802 11.236580524286303 8.705725102172554
Cu 10.632773891388176 11.778672104508251 10.140302585731828
Cu 11.736793794224733 8.231643207083586 9.766049672448164
Cu 14.109675917563301 9.291121724943928 9.60899178045117
Cu 13.471222112372917 7.058348631354471 8.685560927800127
Cu 8.674334591367987 5.650701048797022 9.21417227332544
Cu 14.581264623834498 10.092082395389143 11.994006769896215
Cu 9.563865087082014 13.242362443341088 11.967216149144631
Cu 13.283967492031046 11.933227608115622 12.96879768886936
Cu 12.34935723470762 10.253555184278328 11.102734306687445
Cu 7.272201216746109 13.146174121970713 12.48897245643615
Cu 7.4913908191257415 7.384920204683312 10.501246374979186
Cu 5.9793295764076015 11.464757050567187 11.230981683733784
Cu 7.4037342728036 9.73299281503548 10.343751821987656
Cu 11.13643292547999 5.945509133119062 9.076550121788502
Cu 9.852210652565685 9.58910291673557 10.611860037718962
Cu 10.86242238365 11.364378064997938 12.748956754594207
Cu 9.854292693466782 6.879796012427131 10.945087194201626
Cu 13.401169304797168 7.973778899453552 11.542585709035054
Cu 8.39421629117516 10.883903318900105 12.258349925488078
Cu 12.651340373812666 9.671146896844116 13.566316096547444
Cu 6.299136219812537 11.355598099632074 13.699324825069137
Cu 11.089503333435278 8.401268567544706 12.326484902545726
Cu 8.795787030290708 11.995576329980297 14.257290640813393
Cu 6.3524936690671865 9.191111377728301 12.433236322189652
Cu 8.631264981523941 8.37277375749768 12.508493734744201
Cu 10.123845562284544 9.647578924637607 14.191372615101459
Cu 7.75682720143013 9.653875146083507 14.448131550291029
