45
Energy = -133.9110241 eV
Cu 7.546576418271794 10.495095594326296 8.591614769080362
Cu 6.343186461509251 6.638729611169219 5.381998684505568
Cu 8.955602565564915 11.102835595193508 6.5893399147338245
Cu 4.692510875019059 5.589910294544907 6.96705494411937
Cu 9.03917697217267 10.990924828000908 11.656926583796405
Cu 10.396977602108826 6.8766914497895355 4.490423864905061
Cu 6.662391043239038 11.405030873480754 5.584393267328203
Cu 8.179776244428464 10.183148035323443 4.235085735880803
Cu 6.884035225712887 12.575442950361237 7.667770054228952
Cu 7.28659084251886 5.540533245931663 10.066413825916262
Cu 5.126179291461305 9.153471968833141 9.483466711034495
Cu 7.1513777688516305 8.145898067972494 8.723210326557135
Cu 9.35961865911381 8.974129174906537 7.868482924909454
Cu 5.645156964137827 11.713579911862487 9.67568545723106
Cu 11.310867347516309 7.534473667064428 6.983912082438089
Cu 8.45288943973071 5.276572933329835 4.922506051376057
Cu 7.452820812156618 9.041326740416963 6.381947242367664
Cu 11.254562673759255 8.776240012547703 9.364071043405689
Cu 5.861220649582134 9.07590014468555 4.741191595394966
Cu 11.173139373865501 6.649670362517638 10.548104678220088
Cu 10.673331005084409 5.1269022886566304 6.077015293213653
Cu 11.174358158478709 5.4177872288311875 8.397580508661477
Cu 5.2352117168002605 8.028221898266958 7.128949174742506
Cu 8.925472829009115 6.759807198476437 11.54860820579389
Cu 9.907239291909297 10.980671148721699 9.20603671128848
Cu 8.136414526886599 7.767731869217368 4.242365600608378
Cu 6.791914322177038 10.106258380362332 11.056967094642015
Cu 8.875480099939526 8.931959983768168 10.284775747420436
Cu 11.33691884174513 10.12623789767132 7.247475930676137
Cu 9.980804695778152 9.0842553831671 5.447709180219089
Cu 6.954945283898035 6.046462115519868 7.660852079074896
Cu 10.575780309601074 8.67102563078642 11.882073408170424
Cu 7.996087433841292 12.434105406834174 9.971705576231411
Cu 9.599445748481097 4.7246016053386635 10.16391291689956
Cu 5.4255481232283795 10.476778546388529 7.402859070265996
Cu 6.830740305063626 12.216168943881751 12.036330138453902
Cu 9.186221854339774 6.757410054823223 8.9785369600618
Cu 6.602737381845102 7.680710529606895 11.075760023129293
Cu 6.69221695664058 4.1901248200364964 6.252989212249091
Cu 8.938744469658433 6.951260237611169 6.508817263344268
Cu 12.897450310206562 7.091065558844908 8.800855447564379
Cu 8.879635993025273 4.578146619620925 7.69844847490045
Cu 5.80648620925699 4.193472250110413 8.659884297565494
Cu 5.162566918269551 6.607169100551908 9.2683769364348
Cu 8.200125884121952 8.872595740654937 12.638050890965163
