45
Energy = -133.57600669 eV
Cu 11.55632607054276 12.855363562805787 10.124697807699516
Cu 13.906896963853722 12.225974153347375 9.796710580939306
Cu 13.252728009748015 12.77026148814017 12.084056035480744
Cu 10.925214653339422 11.412717574512063 6.046429499822201
Cu 12.240249206560959 11.856768202925124 8.045931237935777
Cu 13.661050445454942 10.422403827749639 11.408555393343391
Cu 11.21153767225823 14.0565619000852 12.279461468492293
Cu 12.667814517033092 9.798505406477947 6.644520616601958
Cu 9.581717705439992 12.603338017089392 8.366819717502574
Cu 13.544676840445765 9.950817817898843 8.989322773358944
Cu 9.357992829922585 13.762761699127918 10.761397491366525
Cu 11.205954370673833 11.446260987815828 12.206455977203525
Cu 11.330405816842386 12.719434602991745 14.294505232295103
Cu 10.363525050404524 8.966089936914349 6.031551337113675
Cu 13.062759854736465 10.968948652008121 13.76539961977167
Cu 9.592723150469357 11.251668420050523 10.347727262432969
Cu 13.957540610932703 7.93629209543594 7.749845902545927
Cu 11.494552892910539 9.730199670867602 10.358265473795209
Cu 8.626199529564186 10.768394844307252 6.45035017553086
Cu 10.316443197211893 10.301901498267808 8.131868046635205
Cu 9.257938385090982 14.034674424239036 13.687787392246141
Cu 12.216959336927669 7.4034341203150476 6.056222740683784
Cu 7.4066402892220955 12.422112163211626 10.209892821970127
Cu 12.121727621213909 8.997126318391015 12.625767854114763
Cu 7.317409633937979 14.01444564072673 12.133490022788447
Cu 8.688029189710372 12.005063516660439 12.484552923159644
Cu 11.605401771270477 8.256041289515466 8.292728069555677
Cu 12.505572589651917 6.0095713824639985 8.068505058780856
Cu 7.833724420075276 10.552409111650437 8.724687362806579
Cu 10.739176716428291 10.24033806892567 14.323883621872737
Cu 9.600156552820609 9.538266183939843 12.267986944069595
Cu 12.830539191241105 7.712942006817735 10.33196639270014
Cu 10.107525434122845 6.64515675173657 7.202536485502695
Cu 9.37591238440807 8.647429892091209 9.754943693088789
Cu 9.148357290564626 11.882847986667324 14.991745863745843
Cu 6.154038913180163 11.776307488292534 12.241500932004096
Cu 7.078601457289835 12.720477735603481 14.235425225797073
Cu 8.430727411989517 8.454277678045115 7.483316649837529
Cu 7.431667145922034 10.042717937984373 11.168411609335264
Cu 10.584562242512687 7.43187022042176 11.657582477022709
Cu 10.730224785806499 6.310237744053771 9.597006502059335
Cu 7.680122021809896 10.223901941894328 13.692078235581114
Cu 6.894188647154825 8.408053395015427 9.467919078379152
Cu 8.088875548991835 7.689262357448532 11.547027779608099
Cu 8.388068936202144 6.515210976222006 9.101138974311235
