48
Energy = -143.93191089 eV
Cu 8.547207965685088 8.78834894967363 5.538330513025464
Cu 6.470100690939915 9.75222884115299 5.075942221091158
Cu 10.380329521597607 7.178361367087759 5.734404100665467
Cu 4.644543806530864 8.673064299986775 6.0710084080071285
Cu 10.456825657657498 10.026104949909087 6.348336138812289
Cu 8.282322776470599 11.334455102682885 5.677442148947031
Cu 6.849094180824481 6.946126461455992 6.0559884063554
Cu 14.274473960581487 9.02346131670551 8.085652915627152
Cu 6.039869204340201 11.13604071122466 6.9936183715841675
Cu 6.5515884862901865 8.686300557952958 7.538181654272089
Cu 12.375951519140685 10.782970285755523 7.807077534870714
Cu 11.94712318180551 8.25064974315484 7.332090490143088
Cu 8.714370833535051 5.526919302050067 7.017283633628326
Cu 4.76734791352077 7.093817301551223 7.886091584956409
Cu 11.033377257242739 5.873575945193051 7.8197050152520875
Cu 7.589435069771038 12.462154993086099 8.636781232382733
Cu 10.017997754795761 12.033652591787702 8.220948956961857
Cu 9.117746083740155 7.755063568564475 7.641250897893283
Cu 8.342281121913576 10.257794544145284 7.731421795861987
Cu 4.389474679366091 9.638407280026364 8.362234306519849
Cu 10.364805481574388 9.68470337996403 8.756426630139579
Cu 7.050218728170222 6.519467850001665 8.644298623653585
Cu 5.004490044709422 12.111813166714647 8.984278035937901
Cu 12.532292215680009 9.164868279535732 9.636517010848522
Cu 14.014291895793887 10.946009415251858 9.798092232345768
Cu 10.796221769364763 7.454010026382393 9.540220702111165
Cu 9.086156354712285 5.812948871615709 9.645714057471903
Cu 6.538807066738136 10.334310199458987 9.342151519832273
Cu 11.520493584331497 5.379994435998954 10.345698011452201
Cu 8.291622395774267 8.512799009675662 9.768980322319207
Cu 5.650379453689673 8.122807590058136 9.979491921527327
Cu 6.637437992388664 12.129750197768459 10.925591495408938
Cu 13.167310191437956 6.855875959936334 9.095847145970868
Cu 14.554546231935936 8.501346293629116 10.575268773077934
Cu 11.493223240285065 11.480976420348703 10.173739133742723
Cu 8.79284804443165 10.800482366480011 10.411087106353339
Cu 4.6066674052565215 10.395702968721686 10.734092224402012
Cu 10.595373562045724 9.226327183021889 11.126302475886671
Cu 12.453996709702777 7.465938458544665 11.50919131423595
Cu 9.323759329387673 13.011557610006538 10.557482479695114
Cu 7.51587081304643 7.080363366132044 11.4343165670286
Cu 9.994496040889508 6.935758048658838 11.843002664333872
Cu 12.829260375014469 10.04138097008514 11.888494448927576
Cu 6.782392080101851 9.588606105810012 11.667317742522636
Cu 8.827571207684333 9.01528041590948 12.722841791321478
Cu 10.526028237941363 11.16067993235733 12.457458032609866
Cu 8.143955200913304 11.447207822369457 12.672823866768095
Cu 11.252791772018732 8.738304633186234 13.32825243398621
