45
Energy = -134.2381619 eV
Cu 9.231577378545326 11.355202359965409 9.570471989369945
Cu 8.411881337921844 8.919999055257026 10.611080934197792
Cu 8.951414681375956 5.030376483748246 7.848208072835641
Cu 10.180640454519455 10.230775238848409 11.592056439905033
Cu 6.563647053280438 11.151849471367848 5.441613283899927
Cu 7.6063516919760055 8.94977179865372 4.7999888881205734
Cu 12.712569724321476 11.251075436562951 7.391617303117724
Cu 8.82152672250829 6.8243605311571125 9.3929027098114
Cu 6.0166268830360226 9.030070037100295 11.185930322615476
Cu 5.544760404618626 11.389431302837039 7.687367192963241
Cu 9.49009858141061 9.005627531772086 8.440447418744322
Cu 11.489394903708089 10.344161897838594 9.414403212688086
Cu 13.719417958463458 9.629025011528375 8.93323879096563
Cu 7.026956651534771 10.440718111234386 9.251797143666451
Cu 8.002005912364622 12.161582965584174 7.44996925575634
Cu 4.966916867471154 7.0528429718461 10.004855983909819
Cu 6.123516766571013 7.13249077583419 5.248599719289929
Cu 11.466805991206094 10.540960701744666 5.340723787722618
Cu 10.571980053685298 6.9417097220550525 7.565466426723629
Cu 6.68966200133899 5.572665723732718 8.94865403081631
Cu 5.198390211287495 11.283779947409549 10.476173263898405
Cu 5.1946893018889115 6.9435818091348915 7.512704624369621
Cu 7.618736895842625 11.018602833461554 11.544891572959532
Cu 9.586439147934442 6.434169679283647 11.798957159581654
Cu 12.17539600321414 6.588893932391476 11.514307848026574
Cu 10.922780951298313 8.242920779833144 12.820662548386274
Cu 6.8734469003731204 5.231008744301634 6.515441198430294
Cu 10.700573017534504 8.105448976757001 10.367222891577388
Cu 10.255884717428394 11.072710533269703 7.319964559530239
Cu 12.722812524996318 9.05192461368542 11.189277977479573
Cu 11.900193407155486 9.011156372987246 7.300523911872755
Cu 9.025614093783634 11.003274590695893 5.211698574631489
Cu 9.855383881291559 8.718764892651496 5.876406852751659
Cu 8.074060787577885 7.3071502933586645 7.001904685509607
Cu 12.613916634977524 7.45586700565324 9.129450086295762
Cu 10.846034559647345 5.603579220398436 9.67316731949739
Cu 5.490812723241852 9.162243845466973 6.477444515790755
Cu 7.7719869193807005 9.828885841791463 7.031910870517379
Cu 4.736562549877649 9.310413262624273 8.899176259528623
Cu 7.15194553087953 6.775494144580777 11.236104267617502
Cu 8.410130010703224 8.437809316307085 12.862592621061031
Cu 6.812978360173016 8.102670950157501 8.89385228731372
Cu 7.073761901402689 12.746434317722793 9.690343686046011
Cu 8.516217691848627 4.6785700600111815 10.360007935065592
Cu 8.561704571196149 6.608152222189732 4.854624889934882
