52
Energy = -156.80859528 eV
Cu 12.781090249137941 13.87571546838173 13.587388283332823
Cu 14.210314453267172 13.137810453989305 11.69598567120103
Cu 10.669212504438155 15.115768091543927 13.243162664924386
Cu 11.345223200307574 14.504032792524002 15.471801380882964
Cu 11.272486007252809 14.89174763206633 8.995457179836503
Cu 10.065190060537436 15.711101613031664 10.937265686489217
Cu 14.34987932374642 10.623916578563373 11.14095204092749
Cu 15.36961428527212 12.280064275407552 9.693770442119611
Cu 12.141477172795794 14.482317614675367 11.297844573134231
Cu 13.422215902976138 13.694363490907412 9.320819752895977
Cu 12.959077577526065 11.44014706790985 13.050093609688176
Cu 13.475418878097905 11.130815714620223 8.709578205739101
Cu 15.562271469801455 9.917846905281325 9.15625676015873
Cu 10.663484950032865 12.630281976840992 12.637980770731394
Cu 14.576033455526243 8.167200071278286 10.582010617892852
Cu 12.252902041060167 12.004402138303593 10.722364486614694
Cu 11.631015769987224 12.607994871382619 8.036635983180208
Cu 9.582297618711639 13.840359303410223 7.549775932380803
Cu 9.390425472931495 13.344018249836761 14.555694221891228
Cu 11.591494788080611 12.154934945784433 15.002462442024957
Cu 8.664934988442756 14.164981116735142 12.151513786982433
Cu 8.32522789286958 14.615808922707233 9.58745861100749
Cu 13.15660354904172 8.983004615149499 12.541548979239204
Cu 13.689581718944732 8.682100982014324 8.153247601158288
Cu 10.091590887460303 13.143602310765745 10.246307806793725
Cu 12.360986856876497 9.133010560946452 10.177786554593236
Cu 7.105244290072758 12.794413434776162 10.843368805217077
Cu 12.31934262019513 7.331404461463483 14.162850633331129
Cu 10.951112700550519 10.26273474492145 12.008321023743383
Cu 8.271516180551208 12.250085670394384 8.723127134386804
Cu 11.90437948104417 9.755149995801508 14.478976436904196
Cu 13.123639609798158 6.64587919310018 9.34549954306756
Cu 11.808904030003726 10.039337028802588 7.300510402232975
Cu 10.664209135823635 10.80402535275424 9.32366993227164
Cu 9.70019400669672 10.788826397917688 14.309744036443384
Cu 9.887466423010146 8.72507768071635 10.36161732997972
Cu 8.103326123881189 11.950744766986015 13.006677574887554
Cu 8.726433457470945 10.930895143842275 10.81675368991526
Cu 9.768953262538849 11.346129182653604 6.987171212029217
Cu 12.89900063964604 6.685477806363401 11.758874143046368
Cu 10.795487404451526 7.707629679051865 12.401136481092797
Cu 6.490749936072987 10.78452839443172 9.494973457790218
Cu 11.305559183502838 7.824764405748092 8.239353092385395
Cu 8.667909873535047 9.179925865397129 12.611343863453875
Cu 6.583589824681235 10.460072619134838 11.895034356811662
Cu 9.967478381973422 8.35276823520024 14.568158733480274
Cu 8.498132578652642 9.759844417260158 8.462732114472956
Cu 10.876940806416757 6.467121464423526 10.245244701901477
Cu 9.76024456810993 8.80837127081832 6.679076186420304
Cu 8.915287926414813 7.31961310053615 8.692661135530194
Cu 7.414680989341922 8.673528258645653 10.390117613022971
Cu 8.73236045929459 6.885976939088812 11.380969391315963
