52
Energy = -157.06766033 eV
Cu 11.610373643200736 8.247757301850442 5.585768968612041
Cu 10.526730004845847 6.293299253757489 6.520532566937908
Cu 9.14079711986147 8.366327471490806 5.656712176052327
Cu 8.088307977521573 10.492472142363223 6.9177293939141595
Cu 11.734348732529513 12.068907687459873 7.278387847546071
Cu 10.453534255923703 10.324145013287966 6.2126275890185845
Cu 9.55408200099705 12.559049598310429 6.311286246006259
Cu 7.950939053565752 7.924101853070096 7.68453358011284
Cu 8.894217659635549 5.724032648563377 8.226197394250386
Cu 12.69881863585982 9.766717071156828 7.148298310480404
Cu 12.688912085127406 7.290953306799841 7.606170514282779
Cu 6.835676260851359 11.378602734356637 9.228309491027764
Cu 10.429539326774165 8.325243123818018 7.793991896094801
Cu 11.208746672124082 5.781264482797894 8.8790445674763
Cu 11.873479576397342 13.4541168702805 9.249523595166453
Cu 6.411061859780495 8.973443479003173 9.196856703455511
Cu 12.242233453621031 14.252775051255291 11.552204098236404
Cu 9.641760351333348 12.154346867384378 8.759275124189507
Cu 9.603889302329385 14.39591743613175 8.176588404217155
Cu 13.454988837188818 11.363715311358717 8.932862853880561
Cu 8.822580779086685 9.846365243042781 9.096186782087305
Cu 7.102654246819732 6.508201344825711 9.69196714180026
Cu 11.294911942450298 10.332287449997207 9.089018251955405
Cu 7.568831643361566 12.951807218892139 7.540927647809444
Cu 13.78038777110853 8.915886198934592 9.246391259224021
Cu 9.245790838071262 7.605323497017488 9.925286604792566
Cu 9.366362238866408 5.382945709943245 10.689937370982609
Cu 11.668315164214912 8.003437230260165 9.996293193840453
Cu 7.751226091795324 13.738668593498666 9.810456634917205
Cu 7.740959919754418 9.25118811248 11.222896388356718
Cu 9.930514279165731 14.195056325658538 10.69152459893671
Cu 11.116986615971237 12.027270894541392 11.057908847274549
Cu 8.619158355076985 11.631309233594449 10.941751090799778
Cu 13.619983296219162 12.3959021737625 11.063535234163869
Cu 13.53291039744233 6.501656235968225 9.785509812365383
Cu 5.694625444668387 7.778005565571428 11.196818940904874
Cu 12.942886280179309 7.726821408003079 12.011307290371224
Cu 10.179976255878058 9.672946523249115 11.20925309542302
Cu 12.8236306744112 10.105118935168449 11.2159252694617
Cu 11.77794613669506 5.677105866352155 11.219588958645778
Cu 6.256371361874757 12.586446648217086 11.323023292632381
Cu 5.591506538700497 10.277551236406198 11.251221069026583
Cu 7.931579669433145 6.947226362702686 12.067264547065456
Cu 12.328308096306115 11.803947832316029 13.129875017910626
Cu 8.248003686451291 13.446259089260046 12.44712284422561
Cu 11.537155355504948 9.4244604313511 13.199621086097881
Cu 10.573707731651563 13.597092308323456 13.089641364702144
Cu 10.389098101629404 7.357789915329563 12.217028531103729
Cu 7.34152353546793 11.102471005825919 13.004624945313969
Cu 9.82602975363936 11.334708417063847 13.194734528748048
Cu 6.503965350362511 8.80186941703913 13.246618265058407
Cu 8.95554307606156 9.041552308695213 13.315706210833886
