53
Energy = -159.37698841 eV
Cu 12.534285577684482 8.6465093981284 6.816142323732693
Cu 11.160112837676825 12.477804573700487 6.522188838604816
Cu 13.321480578917695 11.080852952901079 6.793282814742557
Cu 10.898060124397324 10.183182417472425 5.950315396261344
Cu 10.290465467035322 8.634630298697196 7.736270386251393
Cu 9.183722944129528 11.203867236137892 7.511237118843412
Cu 13.676291819539534 9.479850106865868 8.797766476322238
Cu 12.093093192134189 7.4463189623575 8.892557751918991
Cu 14.86322438373828 11.773962274462924 8.633224781998013
Cu 11.503396668596322 10.703115974228773 8.276365057561001
Cu 12.739423189081728 13.052366043206922 8.26407864936395
Cu 10.274228757527847 13.851516547303781 8.299512600032529
Cu 7.9926992472873915 8.575738904228068 8.208383508740576
Cu 7.0456847965543785 10.750946396115518 8.786720103761581
Cu 11.613205705754423 6.669114757181932 11.14835857248746
Cu 9.304494824153108 10.241910998596422 9.72752925242904
Cu 13.60587516481367 7.964913536365674 10.775141788509194
Cu 13.139989021637293 11.399037533764606 10.217486905396749
Cu 8.406673495540176 12.622580049885942 9.59990755243749
Cu 15.459720885475813 11.672691671417383 11.109910454192178
Cu 9.69787674021243 7.735451590921394 9.988917636708587
Cu 11.972149158512869 14.674693642602568 9.93719734754708
Cu 11.577086712001378 9.390831063455432 10.41085794322091
Cu 10.894418699436219 12.321639600483085 10.023994056565796
Cu 14.199477231971057 13.634098994768319 10.220853781305228
Cu 9.531906527210413 14.485249045792616 10.629141834023644
Cu 9.432027372010449 5.622498009571447 11.18501302591975
Cu 12.095868439330273 8.551230579078121 12.69716552350532
Cu 7.639273457539573 6.599881108538726 9.73335425297621
Cu 15.183872113074859 11.199256028643724 13.668683195446125
Cu 7.174300703184427 8.91104911995098 10.43434697884844
Cu 9.530381119643868 9.414010630171262 12.06308449906327
Cu 13.660073359547145 12.588182477127258 12.474887742379106
Cu 11.329475754751625 13.58628417268233 12.133388756181024
Cu 11.64754760627873 11.08774954514492 12.218354059269364
Cu 13.949512487503855 9.989944288531463 12.061889893207168
Cu 7.714277938960629 13.511001260087209 12.163733365507012
Cu 7.1124295390259595 11.218522150057 11.234298969373334
Cu 13.300270874413133 15.007051646804094 12.080291306794253
Cu 9.2563729048506 15.232037574685004 12.93384732540588
Cu 11.130110169973042 8.559532902833316 14.87955824491429
Cu 9.436450875170875 11.924680049345543 11.83042202290936
Cu 11.139928601669677 16.091338630184744 11.753966686020352
Cu 12.022231097731098 12.611757489143542 14.317190308470328
Cu 10.189865503921338 7.0865586667955816 13.100316573876892
Cu 8.008944332064317 7.336719732444549 12.103350113847096
Cu 6.8524329028381405 9.332560628254884 12.782223382369652
Cu 11.49539724715515 15.026824187610096 14.00982120970155
Cu 12.864776731099619 10.306883355953095 14.289891056340721
Cu 9.620151019989903 13.133649693992654 14.030688740183178
Cu 8.730621667655047 8.779963795076576 14.227539356457292
Cu 10.322571219217823 10.743417770714188 14.273800288859306
Cu 7.968259815996735 11.284288242649895 13.649693890423059
