53
Energy = -160.07549033 eV
Cu 9.866442790659892 10.657347530179976 15.226279183831602
Cu 10.398822630159225 6.756578902018184 12.47698092493029
Cu 7.9118818930782755 7.432156149569742 13.301062663031992
Cu 9.903182415144093 8.716465502765102 13.792796065665296
Cu 7.777954242914722 9.993379132678486 14.100585449038977
Cu 11.923747841629202 10.088751854667638 14.036510639754232
Cu 11.595797953960796 8.90061842718586 11.963619971913165
Cu 11.128077815817154 12.47574750854917 14.227613933391003
Cu 13.876266859594205 10.103302094177957 12.153832516998673
Cu 8.345654532921623 5.951516695046043 11.424621507100369
Cu 8.585964372008696 12.54190809883022 14.295166287408042
Cu 13.463993744980003 11.909084926966113 13.901229983046205
Cu 10.398830561013252 5.464684322019359 10.3008055012678
Cu 9.785437278774886 7.828443032927998 10.385445913158803
Cu 12.165890369522328 7.2208225111533535 10.259719563169874
Cu 9.57782815079091 11.105184588506376 12.680917502834989
Cu 8.235927636675626 9.254372934546476 11.813864115376868
Cu 6.659853859097473 7.577030415294779 10.990296783172102
Cu 7.069163356624043 11.805097775524313 12.539442631660968
Cu 14.507429879970482 12.550348748862437 11.878932570299886
Cu 14.386719203360386 8.464240896917074 10.252918035515826
Cu 14.863873245497789 11.065511129161834 10.07019779716075
Cu 12.468479946438107 13.777098172118588 12.489522822825696
Cu 11.889969603394897 11.512095117767306 11.89676380924824
Cu 10.221191268413373 10.238941944584436 10.41446645793581
Cu 8.271898734040583 6.546694741747353 9.035720846487933
Cu 12.66811252253566 10.029931461457927 9.864581852845221
Cu 9.975553993761409 13.599574064186042 12.421326046215455
Cu 7.765034765032618 8.95156767562935 9.34347428202067
Cu 12.95966158148075 12.91967417774855 10.089759799888192
Cu 11.306564713225384 14.721039494695935 10.5257868431514
Cu 6.029559744865485 10.000436758607973 10.989680967931955
Cu 10.891686510713681 9.069365780506907 8.404534138443282
Cu 14.666450593891936 9.670981804727752 8.148098813909161
Cu 13.04434585504416 7.863408499115697 8.097407403712161
Cu 8.0425715084413 11.29452697399492 10.392876260719737
Cu 10.700092804062482 6.667003408945911 8.225017870766635
Cu 11.30358363077071 8.060332697364657 6.259841484700021
Cu 10.167957870166337 12.653873976114495 10.148201993687543
Cu 8.034233141230802 13.709507051883415 10.943252362091727
Cu 11.34222239369367 11.46467168787546 8.366076137622597
Cu 8.960212160510082 8.288587749979442 7.265685788358904
Cu 5.941324343459724 12.472424495832634 10.426398295445441
Cu 13.725666782899262 11.960719207748552 7.993192844130999
Cu 6.389917099376128 10.843882892416904 8.624859394831681
Cu 11.747229095328375 13.87787827325259 8.187301107413823
Cu 9.453650548955332 14.596030062505339 8.900058265046974
Cu 12.737513281891129 9.998652613348748 6.767547290691931
Cu 8.850035318916198 10.745052333593986 8.093946129686307
Cu 7.701788041418322 12.929870291671795 8.56845816567162
Cu 10.370613367863502 10.401018424921476 6.260940197077428
Cu 12.013954229715777 12.316905594062668 6.214178898414053
Cu 9.729444418984034 12.848492170840238 7.124842871748354
