unknown system                          
           1
    23.709067    0.000000    0.000000
     0.000000   23.709067    0.000000
     0.000000    0.000000   23.709067
   Ag
  36
Direct configuration=     1
   0.41145166  0.45037608  0.41231225
   0.64197340  0.49297151  0.42000927
   0.54680086  0.76347855  0.65564472
   0.72200550  0.55588938  0.48224163
   0.31296916  0.53503594  0.49041840
   0.46674999  0.55301740  0.65689336
   0.66387106  0.38185441  0.42691052
   0.62043571  0.61408020  0.48805564
   0.43396947  0.44080574  0.60055935
   0.64080590  0.52230941  0.55710723
   0.71200767  0.44488275  0.50584977
   0.33248266  0.63559785  0.53610082
   0.44562197  0.64733722  0.52212653
   0.30467239  0.44857505  0.42541962
   0.57068476  0.70915590  0.45956725
   0.55164115  0.34747362  0.43596303
   0.53262830  0.70671878  0.56284007
   0.52944131  0.45173226  0.39452997
   0.57359789  0.55887452  0.35848972
   0.51993991  0.46920196  0.70905495
   0.46694177  0.37033906  0.68654588
   0.52300679  0.36593539  0.58934816
   0.50536251  0.66245010  0.66622447
   0.62739359  0.29151598  0.37945400
   0.38027223  0.53637050  0.58039581
   0.53424279  0.52416743  0.48738708
   0.40282980  0.64595618  0.62684396
   0.59846561  0.41811305  0.51783046
   0.52768091  0.38282380  0.77653359
   0.67230449  0.60388205  0.38807335
   0.54807308  0.59393357  0.57784327
   0.50668606  0.62471607  0.42753032
   0.54282031  0.48116788  0.59886835
   0.47793859  0.41474491  0.49546264
   0.42310796  0.54717378  0.47247063
   0.46243307  0.54065196  0.36240419
Direct configuration=     2
   0.41156400  0.45023507  0.41213392
   0.64202640  0.49302503  0.42010728
   0.54694295  0.76373074  0.65579977
   0.72214185  0.55600635  0.48216533
   0.31275586  0.53500751  0.49037698
   0.46671000  0.55301251  0.65686200
   0.66389103  0.38186060  0.42685012
   0.62035769  0.61402953  0.48808710
   0.43386224  0.44078504  0.60067105
   0.64086394  0.52234512  0.55714916
   0.71213200  0.44487733  0.50597076
   0.33242499  0.63569147  0.53607107
   0.44569573  0.64733644  0.52203572
   0.30435807  0.44837376  0.42529912
   0.57078059  0.70944883  0.45936332
   0.55152341  0.34743148  0.43604705
   0.53266521  0.70684657  0.56280755
   0.52954671  0.45174550  0.39442679
   0.57354523  0.55885354  0.35843742
   0.52001796  0.46927684  0.70907118
   0.46677376  0.37022235  0.68650315
   0.52306745  0.36576741  0.58931056
   0.50540862  0.66237156  0.66639497
   0.62740237  0.29118712  0.37926109
   0.38022770  0.53651929  0.58056642
   0.53434067  0.52412935  0.48728469
   0.40264134  0.64589578  0.62697167
   0.59850377  0.41810109  0.51773394
   0.52778458  0.38270356  0.77685176
   0.67248659  0.60395377  0.38798787
   0.54804048  0.59400273  0.57793018
   0.50664988  0.62466233  0.42754871
   0.54276566  0.48113333  0.59896666
   0.47798301  0.41480254  0.49555925
   0.42309313  0.54722600  0.47245858
   0.46233538  0.54071282  0.36224809
Direct configuration=     3
   0.41190101  0.44981203  0.41159892
   0.64218539  0.49318556  0.42040133
   0.54736923  0.76448733  0.65626492
   0.72255090  0.55635724  0.48193643
   0.31211596  0.53492221  0.49025275
   0.46659003  0.55299781  0.65676791
   0.66395096  0.38187916  0.42666890
   0.62012362  0.61387751  0.48818149
   0.43354054  0.44072293  0.60100613
   0.64103806  0.52245223  0.55727494
   0.71250502  0.44486107  0.50633374
   0.33225198  0.63597234  0.53598181
   0.44591702  0.64733412  0.52176330
   0.30341513  0.44776986  0.42493759
   0.57106809  0.71032763  0.45875153
   0.55117019  0.34730508  0.43629908
   0.53277593  0.70722991  0.56270998
   0.52986289  0.45178523  0.39411726
   0.57338727  0.55879058  0.35828054
   0.52025212  0.46950147  0.70911984
   0.46626974  0.36987225  0.68637496
   0.52324944  0.36526345  0.58919776
   0.50554694  0.66213593  0.66690647
   0.62742870  0.29020052  0.37868237
   0.38009411  0.53696565  0.58107826
   0.53463432  0.52401510  0.48697751
   0.40207596  0.64571458  0.62735478
   0.59861826  0.41806519  0.51744438
   0.52809562  0.38234284  0.77780630
   0.67303288  0.60416893  0.38773141
   0.54794270  0.59421022  0.57819093
   0.50654135  0.62450111  0.42760388
   0.54260168  0.48102969  0.59926157
   0.47811627  0.41497542  0.49584905
   0.42304865  0.54738266  0.47242243
   0.46204233  0.54089540  0.36177979
Direct configuration=     4
   0.41257503  0.44896597  0.41052893
   0.64250337  0.49350664  0.42098943
   0.54822178  0.76600051  0.65719522
   0.72336900  0.55705903  0.48147864
   0.31083616  0.53475162  0.49000429
   0.46635009  0.55296843  0.65657975
   0.66407082  0.38191629  0.42630647
   0.61965548  0.61357348  0.48837025
   0.43289715  0.44059871  0.60167629
   0.64138630  0.52266646  0.55752649
   0.71325105  0.44482855  0.50705970
   0.33190597  0.63653407  0.53580330
   0.44635960  0.64732947  0.52121847
   0.30152925  0.44656207  0.42421454
   0.57164308  0.71208523  0.45752794
   0.55046376  0.34705227  0.43680315
   0.53299736  0.70799661  0.56251484
   0.53049525  0.45186468  0.39349821
   0.57307134  0.55866466  0.35796677
   0.52072043  0.46995073  0.70921718
   0.46526168  0.36917204  0.68611858
   0.52361342  0.36425554  0.58897216
   0.50582359  0.66166468  0.66792949
   0.62748136  0.28822732  0.37752492
   0.37982694  0.53785838  0.58210193
   0.53522161  0.52378661  0.48636316
   0.40094520  0.64535219  0.62812100
   0.59884723  0.41799340  0.51686526
   0.52871769  0.38162141  0.77971536
   0.67412547  0.60459926  0.38721850
   0.54774713  0.59462519  0.57871244
   0.50632428  0.62417867  0.42771422
   0.54227374  0.48082240  0.59985139
   0.47838279  0.41532117  0.49642867
   0.42295967  0.54769599  0.47235013
   0.46145621  0.54126055  0.36084320
Direct configuration=     5
   0.41392308  0.44727384  0.40838895
   0.64313932  0.49414879  0.42216562
   0.54992688  0.76902687  0.65905582
   0.72500520  0.55846260  0.48056305
   0.30827656  0.53441043  0.48950735
   0.46587022  0.55290967  0.65620342
   0.66431054  0.38199056  0.42558162
   0.61871919  0.61296541  0.48874779
   0.43161037  0.44035028  0.60301662
   0.64208277  0.52309491  0.55802961
   0.71474312  0.44476352  0.50851161
   0.33121394  0.63765752  0.53544627
   0.44724477  0.64732017  0.52012879
   0.29775748  0.44414650  0.42276844
   0.57279306  0.71560044  0.45508078
   0.54905090  0.34654666  0.43781130
   0.53344023  0.70953001  0.56212456
   0.53175997  0.45202358  0.39226009
   0.57243948  0.55841282  0.35733924
   0.52165707  0.47084925  0.70941185
   0.46324558  0.36777162  0.68560583
   0.52434138  0.36223971  0.58852096
   0.50637688  0.66072216  0.66997551
   0.62758668  0.28428093  0.37521003
   0.37929259  0.53964383  0.58414928
   0.53639619  0.52332961  0.48513446
   0.39868367  0.64462739  0.62965344
   0.59930517  0.41784982  0.51570701
   0.52996184  0.38017855  0.78353349
   0.67631064  0.60545990  0.38619267
   0.54735598  0.59545513  0.57975544
   0.50589013  0.62353380  0.42793490
   0.54161784  0.48040783  0.60103103
   0.47891585  0.41601269  0.49758790
   0.42278173  0.54832265  0.47220553
   0.46028398  0.54199085  0.35897002
Direct configuration=     6
   0.41342450  0.44789968  0.40918043
   0.64290411  0.49391129  0.42173060
   0.54929625  0.76790756  0.65836768
   0.72440005  0.55794348  0.48090168
   0.30922323  0.53453662  0.48969115
   0.46604770  0.55293140  0.65634260
   0.66422188  0.38196309  0.42584971
   0.61906548  0.61319031  0.48860815
   0.43208629  0.44044216  0.60252090
   0.64182518  0.52293645  0.55784353
   0.71419127  0.44478757  0.50797461
   0.33146988  0.63724201  0.53557832
   0.44691739  0.64732361  0.52053181
   0.29915248  0.44503991  0.42330328
   0.57236774  0.71430033  0.45598587
   0.54957345  0.34673366  0.43743843
   0.53327643  0.70896288  0.56226891
   0.53129221  0.45196481  0.39271801
   0.57267318  0.55850596  0.35757133
   0.52131065  0.47051693  0.70933985
   0.46399124  0.36828957  0.68579547
   0.52407214  0.36298527  0.58868784
   0.50617225  0.66107076  0.66921878
   0.62754772  0.28574051  0.37606620
   0.37949022  0.53898348  0.58339206
   0.53596177  0.52349863  0.48558890
   0.39952010  0.64489546  0.62908667
   0.59913580  0.41790293  0.51613539
   0.52950169  0.38071220  0.78212134
   0.67550245  0.60514159  0.38657208
   0.54750065  0.59514817  0.57936968
   0.50605070  0.62377231  0.42785328
   0.54186043  0.48056116  0.60059474
   0.47871870  0.41575693  0.49715915
   0.42284754  0.54809088  0.47225901
   0.46071753  0.54172074  0.35966282
Direct configuration=     7
   0.41307744  0.44742809  0.40865702
   0.64322072  0.49439048  0.42225727
   0.54965601  0.76807763  0.65869238
   0.72482776  0.55829485  0.48068520
   0.30884764  0.53416950  0.48954136
   0.46594322  0.55289338  0.65638556
   0.66390681  0.38130420  0.42523450
   0.61859665  0.61351011  0.48814089
   0.43164708  0.44043266  0.60293145
   0.64195258  0.52297748  0.55798033
   0.71454459  0.44489568  0.50830187
   0.33142271  0.63738114  0.53528526
   0.44690931  0.64757209  0.52102037
   0.29878154  0.44455877  0.42291028
   0.57263407  0.71480432  0.45533940
   0.54976357  0.34609468  0.43729182
   0.53361866  0.70965245  0.56250751
   0.53168060  0.45192313  0.39226961
   0.57291653  0.55852046  0.35753661
   0.52154033  0.46974614  0.71026841
   0.46412393  0.36810740  0.68642015
   0.52416036  0.36250418  0.58863839
   0.50636745  0.66161753  0.66948835
   0.62726446  0.28531651  0.37599176
   0.37881095  0.53946657  0.58334787
   0.53633848  0.52343023  0.48545705
   0.39913983  0.64485820  0.62958218
   0.59930326  0.41808555  0.51594606
   0.52935853  0.38065995  0.78231756
   0.67584261  0.60525726  0.38639784
   0.54736665  0.59520229  0.57957530
   0.50647761  0.62398266  0.42784733
   0.54192193  0.48032448  0.60027776
   0.47876104  0.41635743  0.49754201
   0.42231645  0.54769899  0.47217033
   0.46026887  0.54181379  0.35907321
Direct configuration=     8
   0.41216111  0.44618298  0.40727510
   0.64405666  0.49565569  0.42364781
   0.55060588  0.76852665  0.65954970
   0.72595703  0.55922257  0.48011361
   0.30785599  0.53320021  0.48914590
   0.46566736  0.55279300  0.65649897
   0.66307494  0.37956455  0.42361018
   0.61735880  0.61435447  0.48690720
   0.43048747  0.44040758  0.60401540
   0.64228896  0.52308580  0.55834152
   0.71547744  0.44518112  0.50916593
   0.33129817  0.63774848  0.53451150
   0.44688797  0.64822812  0.52231029
   0.29780219  0.44328846  0.42187265
   0.57333724  0.71613499  0.45363253
   0.55026553  0.34440761  0.43690473
   0.53452224  0.71147310  0.56313749
   0.53270605  0.45181310  0.39108573
   0.57355905  0.55855874  0.35744495
   0.52214676  0.46771105  0.71272006
   0.46447427  0.36762643  0.68806947
   0.52439327  0.36123397  0.58850783
   0.50688286  0.66306116  0.67020006
   0.62651659  0.28419703  0.37579521
   0.37701751  0.54074206  0.58323120
   0.53733311  0.52324963  0.48510894
   0.39813583  0.64475983  0.63089048
   0.59974539  0.41856774  0.51544619
   0.52898055  0.38052201  0.78283563
   0.67674072  0.60556268  0.38593783
   0.54701288  0.59534518  0.58011817
   0.50760478  0.62453803  0.42783163
   0.54208432  0.47969958  0.59944087
   0.47887286  0.41794291  0.49855284
   0.42091420  0.54666430  0.47193620
   0.45908429  0.54205947  0.35751648
Direct configuration=     9
   0.41194244  0.44601058  0.40705273
   0.64445229  0.49563377  0.42433395
   0.55094280  0.76841220  0.65986734
   0.72605665  0.55945312  0.48021343
   0.30768065  0.53269709  0.48898170
   0.46595443  0.55231155  0.65672084
   0.66274948  0.37982274  0.42342707
   0.61706291  0.61463483  0.48632845
   0.43030467  0.44058846  0.60452055
   0.64240146  0.52346567  0.55809123
   0.71534413  0.44520704  0.50884707
   0.33136986  0.63759846  0.53405401
   0.44705401  0.64804614  0.52289762
   0.29800634  0.44312011  0.42158901
   0.57336650  0.71626293  0.45348967
   0.55028490  0.34431806  0.43692077
   0.53504323  0.71178670  0.56293338
   0.53274821  0.45160752  0.39097205
   0.57366955  0.55857587  0.35764850
   0.52213536  0.46757477  0.71249370
   0.46502421  0.36764585  0.68840139
   0.52410554  0.36124917  0.58863013
   0.50666254  0.66367332  0.66991940
   0.62606156  0.28382549  0.37588496
   0.37647459  0.54069791  0.58300921
   0.53723160  0.52348815  0.48499134
   0.39817970  0.64490802  0.63144382
   0.59994445  0.41859137  0.51508928
   0.52870806  0.38019470  0.78311312
   0.67679652  0.60564125  0.38588361
   0.54691684  0.59537952  0.58001915
   0.50776340  0.62459153  0.42804147
   0.54173278  0.47935153  0.59979253
   0.47896796  0.41862020  0.49836642
   0.42098716  0.54634514  0.47177674
   0.45918351  0.54197953  0.35756463
Direct configuration=    10
   0.41131297  0.44551432  0.40641265
   0.64559110  0.49557066  0.42630903
   0.55191262  0.76808276  0.66078166
   0.72634340  0.56011674  0.48050077
   0.30717596  0.53124885  0.48850906
   0.46678076  0.55092567  0.65735948
   0.66181264  0.38056596  0.42289999
   0.61621119  0.61544186  0.48466252
   0.42977849  0.44110911  0.60597464
   0.64272529  0.52455913  0.55737075
   0.71496037  0.44528165  0.50792923
   0.33157623  0.63716665  0.53273713
   0.44753196  0.64752229  0.52458824
   0.29859398  0.44263551  0.42077253
   0.57345072  0.71663120  0.45307844
   0.55034065  0.34406030  0.43696694
   0.53654291  0.71268939  0.56234583
   0.53286957  0.45101574  0.39064483
   0.57398763  0.55862519  0.35823443
   0.52210255  0.46718249  0.71184211
   0.46660721  0.36770177  0.68935681
   0.52327730  0.36129293  0.58898218
   0.50602833  0.66543542  0.66911150
   0.62475176  0.28275602  0.37614330
   0.37491179  0.54057082  0.58237022
   0.53693939  0.52417473  0.48465284
   0.39830597  0.64533456  0.63303663
   0.60051746  0.41865940  0.51406190
   0.52792369  0.37925254  0.78391187
   0.67695716  0.60586745  0.38572755
   0.54664041  0.59547836  0.57973413
   0.50821997  0.62474552  0.42864552
   0.54072086  0.47834966  0.60080479
   0.47924171  0.42056978  0.49782981
   0.42119716  0.54542643  0.47131773
   0.45946910  0.54174944  0.35770323
Direct configuration=    11
   0.41131959  0.44537308  0.40612401
   0.64567343  0.49585439  0.42680593
   0.55244661  0.76806917  0.66111429
   0.72649243  0.56055217  0.48070151
   0.30709005  0.53078746  0.48834371
   0.46669089  0.55097785  0.65734280
   0.66142807  0.38066600  0.42236360
   0.61602887  0.61556436  0.48414501
   0.42951770  0.44126385  0.60651190
   0.64248242  0.52500003  0.55704006
   0.71497756  0.44526973  0.50760503
   0.33181292  0.63682668  0.53218950
   0.44782218  0.64701325  0.52535669
   0.29876644  0.44229629  0.42029897
   0.57346576  0.71696285  0.45281365
   0.55012938  0.34408186  0.43709540
   0.53728265  0.71293821  0.56212505
   0.53293132  0.45086143  0.39061354
   0.57420089  0.55848526  0.35871442
   0.52223431  0.46683691  0.71202561
   0.46713873  0.36762076  0.68953952
   0.52284588  0.36151660  0.58882527
   0.50560880  0.66583317  0.66857185
   0.62425802  0.28242744  0.37638037
   0.37465974  0.54056308  0.58242460
   0.53689210  0.52437041  0.48459533
   0.39823535  0.64509133  0.63350033
   0.60030628  0.41881302  0.51405755
   0.52766303  0.37895423  0.78440842
   0.67706214  0.60592002  0.38562956
   0.54655140  0.59544558  0.57957592
   0.50805901  0.62484577  0.42890385
   0.54086372  0.47811008  0.60054476
   0.47932633  0.42131730  0.49779637
   0.42125673  0.54519498  0.47130558
   0.45978952  0.54160565  0.35792030
Direct configuration=    12
   0.41133947  0.44494937  0.40525808
   0.64592041  0.49670557  0.42829663
   0.55404857  0.76802841  0.66211219
   0.72693950  0.56185846  0.48130374
   0.30683231  0.52940330  0.48784766
   0.46642129  0.55113439  0.65729274
   0.66027438  0.38096614  0.42075444
   0.61548194  0.61593186  0.48259250
   0.42873533  0.44172805  0.60812370
   0.64175382  0.52632275  0.55604799
   0.71502911  0.44523397  0.50663242
   0.33252299  0.63580675  0.53054662
   0.44869285  0.64548614  0.52766202
   0.29928382  0.44127862  0.41887829
   0.57351089  0.71795783  0.45201929
   0.54949557  0.34414652  0.43748077
   0.53950189  0.71368468  0.56146272
   0.53311660  0.45039852  0.39051968
   0.57484068  0.55806546  0.36015438
   0.52262959  0.46580018  0.71257611
   0.46873329  0.36737776  0.69008767
   0.52155161  0.36218763  0.58835453
   0.50435020  0.66702640  0.66695289
   0.62277677  0.28144169  0.37709160
   0.37390360  0.54053987  0.58258774
   0.53675022  0.52495745  0.48442279
   0.39802348  0.64436163  0.63489145
   0.59967276  0.41927388  0.51404453
   0.52688107  0.37805931  0.78589808
   0.67737709  0.60607773  0.38533558
   0.54628439  0.59534726  0.57910130
   0.50757612  0.62514655  0.42967883
   0.54129230  0.47739134  0.59976465
   0.47958017  0.42355987  0.49769604
   0.42143543  0.54450064  0.47126912
   0.46075077  0.54117430  0.35857149
Direct configuration=    13
   0.41137921  0.44410194  0.40352622
   0.64641436  0.49840793  0.43127804
   0.55725249  0.76794688  0.66410799
   0.72783364  0.56447104  0.48250821
   0.30631682  0.52663498  0.48685556
   0.46588207  0.55144747  0.65719263
   0.65796699  0.38156641  0.41753611
   0.61438807  0.61666686  0.47948747
   0.42717059  0.44265645  0.61134729
   0.64029662  0.52896817  0.55406384
   0.71513221  0.44516244  0.50468721
   0.33394313  0.63376690  0.52726086
   0.45043420  0.64243192  0.53227269
   0.30031857  0.43924329  0.41603692
   0.57360113  0.71994778  0.45043057
   0.54822796  0.34427583  0.43825151
   0.54394036  0.71517763  0.56013805
   0.53348714  0.44947268  0.39033196
   0.57612025  0.55722585  0.36303430
   0.52342015  0.46372671  0.71367711
   0.47192241  0.36689176  0.69118396
   0.51896307  0.36352969  0.58741306
   0.50183301  0.66941287  0.66371498
   0.61981429  0.27947020  0.37851405
   0.37239132  0.54049344  0.58291403
   0.53646646  0.52613153  0.48407770
   0.39759976  0.64290224  0.63767369
   0.59840572  0.42019561  0.51401848
   0.52531715  0.37626947  0.78887739
   0.67800698  0.60639315  0.38474762
   0.54575036  0.59515063  0.57815205
   0.50661034  0.62574809  0.43122880
   0.54214947  0.47595387  0.59820444
   0.48008785  0.42804499  0.49749539
   0.42179283  0.54311197  0.47119620
   0.46267328  0.54031160  0.35987387
Direct configuration=    14
   0.41135468  0.44462492  0.40459502
   0.64610952  0.49735733  0.42943809
   0.55527522  0.76799719  0.66287630
   0.72728183  0.56285871  0.48176489
   0.30663495  0.52834342  0.48746782
   0.46621484  0.55125426  0.65725442
   0.65939097  0.38119595  0.41952227
   0.61506314  0.61621326  0.48140370
   0.42813625  0.44208350  0.60935788
   0.64119592  0.52733557  0.55528834
   0.71506858  0.44520658  0.50588768
   0.33306670  0.63502578  0.52928864
   0.44935954  0.64431680  0.52942726
   0.29967998  0.44049937  0.41779045
   0.57354544  0.71871970  0.45141103
   0.54901026  0.34419603  0.43777585
   0.54120120  0.71425627  0.56095555
   0.53325846  0.45004405  0.39044781
   0.57533057  0.55774401  0.36125699
   0.52293226  0.46500633  0.71299764
   0.46995428  0.36719169  0.69050739
   0.52056056  0.36270145  0.58799408
   0.50338647  0.66794009  0.66571323
   0.62164256  0.28068689  0.37763620
   0.37332461  0.54052209  0.58271266
   0.53664158  0.52540696  0.48429067
   0.39786126  0.64380289  0.63595666
   0.59918766  0.41962677  0.51403456
   0.52628231  0.37737405  0.78703874
   0.67761825  0.60619849  0.38511047
   0.54607993  0.59527198  0.57873787
   0.50720636  0.62537685  0.43027226
   0.54162048  0.47684099  0.59916731
   0.47977454  0.42527704  0.49761922
   0.42157227  0.54396898  0.47124120
   0.46148682  0.54084401  0.35907012
Direct configuration=    15
   0.41192970  0.44444986  0.40417418
   0.64588734  0.49789025  0.42964702
   0.55616881  0.76787428  0.66306740
   0.72748678  0.56358690  0.48215679
   0.30685947  0.52769932  0.48723559
   0.46629423  0.55121023  0.65694805
   0.65851805  0.38153134  0.41853796
   0.61501902  0.61646656  0.48094437
   0.42809541  0.44213708  0.61010733
   0.64089985  0.52758289  0.55475693
   0.71511065  0.44522780  0.50557254
   0.33364698  0.63435991  0.52847295
   0.44993163  0.64338056  0.53080025
   0.29962727  0.43984071  0.41695174
   0.57360977  0.71930931  0.45058843
   0.54829896  0.34430258  0.43819461
   0.54240658  0.71426854  0.56100982
   0.53360726  0.44990781  0.39044441
   0.57556265  0.55765668  0.36216281
   0.52334791  0.46498349  0.71317375
   0.47012212  0.36657764  0.69035655
   0.51979425  0.36288993  0.58727387
   0.50316306  0.66838770  0.66459674
   0.62094196  0.28033085  0.37822022
   0.37338606  0.54045042  0.58306584
   0.53683474  0.52570614  0.48403979
   0.39646858  0.64301013  0.63622063
   0.59916780  0.41979902  0.51398915
   0.52603480  0.37714503  0.78822455
   0.67821101  0.60629463  0.38476807
   0.54621154  0.59528453  0.57878923
   0.50646937  0.62587946  0.43054502
   0.54175813  0.47730403  0.59916292
   0.47912821  0.42606800  0.49799257
   0.42123238  0.54382101  0.47167441
   0.46207794  0.54069564  0.35944378
Direct configuration=    16
   0.41319049  0.44406603  0.40325144
   0.64540018  0.49905871  0.43010513
   0.55812809  0.76760477  0.66348641
   0.72793615  0.56518354  0.48301607
   0.30735174  0.52628706  0.48672640
   0.46646830  0.55111369  0.65627630
   0.65660409  0.38226669  0.41637976
   0.61492227  0.61702196  0.47993722
   0.42800585  0.44225456  0.61175058
   0.64025070  0.52812516  0.55359174
   0.71520290  0.44527433  0.50488155
   0.33491931  0.63289992  0.52668447
   0.45118598  0.64132775  0.53381067
   0.29951169  0.43839652  0.41511280
   0.57375082  0.72060210  0.44878480
   0.54673936  0.34453622  0.43911277
   0.54504951  0.71429544  0.56112881
   0.53437202  0.44960908  0.39043694
   0.57607151  0.55746522  0.36414891
   0.52425927  0.46493340  0.71355990
   0.47049013  0.36523127  0.69002580
   0.51811402  0.36330319  0.58569473
   0.50267321  0.66936913  0.66214872
   0.61940583  0.27955022  0.37950075
   0.37352078  0.54029327  0.58384020
   0.53725827  0.52636214  0.48348972
   0.39341501  0.64127192  0.63679941
   0.59912426  0.42017669  0.51388960
   0.52549211  0.37664287  0.79082458
   0.67951069  0.60650542  0.38401730
   0.54650012  0.59531206  0.57890186
   0.50485343  0.62698148  0.43114310
   0.54205994  0.47831929  0.59915330
   0.47771108  0.42780228  0.49881117
   0.42048715  0.54349659  0.47262427
   0.46337403  0.54037032  0.36026308
Direct configuration=    17
   0.41571206  0.44329836  0.40140596
   0.64442586  0.50139565  0.43102134
   0.56204665  0.76706575  0.66432442
   0.72883489  0.56837681  0.48473464
   0.30833629  0.52346254  0.48570802
   0.46681644  0.55092061  0.65493281
   0.65277617  0.38373740  0.41206337
   0.61472877  0.61813275  0.47792293
   0.42782674  0.44248953  0.61503708
   0.63895240  0.52920969  0.55126138
   0.71538738  0.44536737  0.50349957
   0.33746396  0.62997993  0.52310751
   0.45369468  0.63722212  0.53983151
   0.29928053  0.43550814  0.41143491
   0.57403292  0.72318767  0.44517753
   0.54362017  0.34500348  0.44094909
   0.55033537  0.71434924  0.56136678
   0.53590156  0.44901163  0.39042200
   0.57708924  0.55708229  0.36812111
   0.52608199  0.46483322  0.71433219
   0.47122615  0.36253854  0.68936431
   0.51475355  0.36412971  0.58253646
   0.50169351  0.67133200  0.65725269
   0.61633357  0.27798895  0.38206182
   0.37379024  0.53997897  0.58538893
   0.53810534  0.52767413  0.48238958
   0.38730785  0.63779551  0.63795697
   0.59903717  0.42093204  0.51369049
   0.52440672  0.37563856  0.79602463
   0.68211005  0.60692701  0.38251577
   0.54707726  0.59536710  0.57912710
   0.50162156  0.62918551  0.43233924
   0.54266356  0.48034982  0.59913406
   0.47487680  0.43127082  0.50044838
   0.41899668  0.54284774  0.47452399
   0.46596621  0.53971968  0.36190169
Direct configuration=    18
   0.41374773  0.44389638  0.40284361
   0.64518486  0.49957515  0.43030760
   0.55899406  0.76748565  0.66367160
   0.72813476  0.56588922  0.48339586
   0.30756932  0.52566287  0.48650135
   0.46654524  0.55107102  0.65597940
   0.65575815  0.38259171  0.41542588
   0.61487950  0.61726743  0.47949208
   0.42796627  0.44230649  0.61247687
   0.63996379  0.52836483  0.55307675
   0.71524367  0.44529489  0.50457614
   0.33548166  0.63225462  0.52589399
   0.45174038  0.64042044  0.53514123
   0.29946060  0.43775821  0.41430002
   0.57381316  0.72117349  0.44798762
   0.54605005  0.34463948  0.43951858
   0.54621764  0.71430733  0.56118140
   0.53471004  0.44947705  0.39043364
   0.57629642  0.55738060  0.36502673
   0.52466208  0.46491126  0.71373057
   0.47065279  0.36463620  0.68987962
   0.51737138  0.36348584  0.58499678
   0.50245670  0.66980291  0.66106674
   0.61872689  0.27920519  0.38006673
   0.37358033  0.54022382  0.58418246
   0.53744547  0.52665208  0.48324660
   0.39206538  0.64050366  0.63705522
   0.59910501  0.42034362  0.51384560
   0.52525225  0.37642093  0.79197375
   0.68008512  0.60659859  0.38368547
   0.54662766  0.59532422  0.57895163
   0.50413921  0.62746855  0.43140744
   0.54219333  0.47876802  0.59914905
   0.47708473  0.42856879  0.49917298
   0.42015777  0.54335320  0.47304410
   0.46394688  0.54022653  0.36062520
Direct configuration=    19
   0.41422328  0.44365833  0.40249049
   0.64580073  0.49959198  0.43067302
   0.56010403  0.76724256  0.66363685
   0.72805498  0.56647428  0.48375049
   0.30781499  0.52452534  0.48611615
   0.46681650  0.55111817  0.65569295
   0.65438803  0.38346093  0.41450288
   0.61487132  0.61808636  0.47907811
   0.42830280  0.44215056  0.61322628
   0.64018170  0.52817670  0.55260643
   0.71509814  0.44553478  0.50410593
   0.33617865  0.63149092  0.52482560
   0.45210385  0.63959599  0.53672112
   0.29966209  0.43725769  0.41356205
   0.57381213  0.72147310  0.44717736
   0.54495029  0.34474145  0.44026382
   0.54774478  0.71395374  0.56076965
   0.53541283  0.44917286  0.39054797
   0.57619985  0.55834404  0.36552828
   0.52494343  0.46450860  0.71392325
   0.47102688  0.36409870  0.69012566
   0.51665326  0.36353788  0.58413458
   0.50162274  0.66998912  0.65953874
   0.61782285  0.27902631  0.38104605
   0.37363448  0.53952043  0.58435975
   0.53726311  0.52698716  0.48285432
   0.39029936  0.63984101  0.63761762
   0.59912965  0.42045891  0.51361381
   0.52464905  0.37672542  0.79247624
   0.68101247  0.60663560  0.38337051
   0.54781590  0.59533961  0.57931407
   0.50323355  0.62827951  0.43177272
   0.54215611  0.47927623  0.59946420
   0.47594226  0.42938087  0.49971913
   0.42005048  0.54334536  0.47353898
   0.46433370  0.54030974  0.36116523
Direct configuration=    20
   0.41564993  0.44294419  0.40143116
   0.64764831  0.49964246  0.43176927
   0.56343395  0.76651330  0.66353258
   0.72781563  0.56822945  0.48481437
   0.30855202  0.52111276  0.48496055
   0.46763028  0.55125963  0.65483361
   0.65027768  0.38606860  0.41173390
   0.61484676  0.62054315  0.47783622
   0.42931240  0.44168278  0.61547450
   0.64083544  0.52761233  0.55119548
   0.71466155  0.44625444  0.50269529
   0.33826965  0.62919979  0.52162042
   0.45319427  0.63712264  0.54146078
   0.30026654  0.43575613  0.41134815
   0.57380904  0.72237192  0.44474655
   0.54165104  0.34504738  0.44249952
   0.55232621  0.71289299  0.55953439
   0.53752122  0.44826028  0.39089095
   0.57591015  0.56123439  0.36703295
   0.52578750  0.46330063  0.71450128
   0.47214915  0.36248619  0.69086377
   0.51449890  0.36369399  0.58154796
   0.49912085  0.67054778  0.65495472
   0.61511075  0.27848967  0.38398401
   0.37379692  0.53741026  0.58489165
   0.53671604  0.52799242  0.48167749
   0.38500129  0.63785304  0.63930482
   0.59920357  0.42080480  0.51291845
   0.52283946  0.37763891  0.79398373
   0.68379452  0.60674662  0.38242560
   0.55138063  0.59538577  0.58040138
   0.50051655  0.63071240  0.43286857
   0.54204445  0.48080085  0.60040964
   0.47251487  0.43181710  0.50135758
   0.41972860  0.54332186  0.47502365
   0.46549415  0.54055936  0.36278531
Direct configuration=    21
   0.41593931  0.44264383  0.40111178
   0.64773500  0.50095796  0.43062085
   0.56438446  0.76528400  0.66284051
   0.72756970  0.56888076  0.48506044
   0.30877900  0.51948644  0.48461944
   0.46775076  0.55194405  0.65474911
   0.64799831  0.38687049  0.41051341
   0.61488114  0.62138104  0.47762787
   0.43004040  0.44108371  0.61644456
   0.64138557  0.52709286  0.55104055
   0.71538005  0.44607210  0.50266560
   0.33912888  0.62785304  0.52031393
   0.45320702  0.63629357  0.54353722
   0.30099023  0.43529180  0.41047679
   0.57364030  0.72260297  0.44386093
   0.54002112  0.34497154  0.44393217
   0.55441188  0.71209899  0.55835865
   0.53870331  0.44843264  0.39110242
   0.57657328  0.56327502  0.36782107
   0.52566602  0.46255561  0.71447449
   0.47300809  0.36210016  0.69117991
   0.51406120  0.36337901  0.58111355
   0.49738182  0.67114338  0.65306520
   0.61378519  0.27887903  0.38582384
   0.37351245  0.53603761  0.58453171
   0.53636477  0.52858848  0.48140535
   0.38329767  0.63708709  0.64018336
   0.59831073  0.42104530  0.51287060
   0.52177988  0.37852535  0.79373070
   0.68473696  0.60639325  0.38243646
   0.55426311  0.59541532  0.58085207
   0.49960386  0.63173749  0.43379823
   0.54236930  0.48038279  0.60029397
   0.47105814  0.43317670  0.50185070
   0.42017014  0.54358401  0.47519088
   0.46542119  0.54076289  0.36381194
Direct configuration=    22
   0.41644006  0.44212408  0.40055910
   0.64788502  0.50323441  0.42863353
   0.56602930  0.76315671  0.66164290
   0.72714411  0.57000783  0.48548626
   0.30917179  0.51667214  0.48402917
   0.46795926  0.55312840  0.65460288
   0.64405393  0.38825812  0.40840139
   0.61494062  0.62283099  0.47726734
   0.43130019  0.44004703  0.61812322
   0.64233757  0.52619392  0.55077245
   0.71662339  0.44575655  0.50261423
   0.34061577  0.62552253  0.51805310