   9   9   0   0
  0.6791288E+03  0.1828373E-08  0.1828373E-08  0.1828373E-08  0.1000000E-15
  1.000000000000000E-004
  CAR 
 unknown system                          
      0.72533218     -9.70519615  301     -3.26434491      1.00000000
     -9.705  0.0000E+00  0.0000E+00  0.0000E+00  0.0000E+00
     -9.670  0.0000E+00  0.0000E+00  0.0000E+00  0.0000E+00
     -9.636  0.0000E+00  0.0000E+00  0.0000E+00  0.0000E+00
     -9.601  0.0000E+00  0.0000E+00  0.0000E+00  0.0000E+00
     -9.566  0.0000E+00  0.0000E+00  0.0000E+00  0.0000E+00
     -9.531  0.0000E+00  0.0000E+00  0.0000E+00  0.0000E+00
     -9.497  0.0000E+00  0.0000E+00  0.0000E+00  0.0000E+00
     -9.462  0.0000E+00  0.0000E+00  0.0000E+00  0.0000E+00
     -9.427  0.0000E+00  0.0000E+00  0.0000E+00  0.0000E+00
     -9.392  0.0000E+00  0.0000E+00  0.0000E+00  0.0000E+00
     -9.358  0.0000E+00  0.0000E+00  0.0000E+00  0.0000E+00
     -9.323  0.0000E+00  0.0000E+00  0.0000E+00  0.0000E+00
     -9.288  0.0000E+00  0.0000E+00  0.0000E+00  0.0000E+00
     -9.253  0.0000E+00  0.0000E+00  0.0000E+00  0.0000E+00
     -9.218  0.0000E+00  0.0000E+00  0.1000E-02  0.0000E+00
     -9.184  0.0000E+00  0.0000E+00  0.1000E-02  0.1000E-02
     -9.149  0.0000E+00  0.0000E+00  0.1000E-02  0.1000E-02
     -9.114  0.0000E+00  0.0000E+00  0.1000E-02  0.1000E-02
     -9.079  0.0000E+00  0.0000E+00  0.1000E-02  0.1000E-02
     -9.045  0.0000E+00  0.0000E+00  0.1000E-02  0.1000E-02
     -9.010  0.0000E+00  0.0000E+00  0.2000E-02  0.1000E-02
     -8.975  0.0000E+00  0.0000E+00  0.2000E-02  0.2000E-02
     -8.940  0.0000E+00  0.0000E+00  0.3000E-02  0.2000E-02
     -8.906  0.0000E+00  0.0000E+00  0.4000E-02  0.3000E-02
     -8.871  0.0000E+00  0.0000E+00  0.5000E-02  0.4000E-02
     -8.836  0.0000E+00  0.0000E+00  0.5000E-02  0.5000E-02
     -8.801  0.0000E+00  0.0000E+00  0.5000E-02  0.5000E-02
     -8.766  0.0000E+00  0.0000E+00  0.5000E-02  0.5000E-02
     -8.732  0.0000E+00  0.0000E+00  0.5000E-02  0.5000E-02
     -8.697  0.0000E+00  0.0000E+00  0.5000E-02  0.5000E-02
     -8.662  0.0000E+00  0.0000E+00  0.5000E-02  0.5000E-02
     -8.627  0.0000E+00  0.0000E+00  0.6000E-02  0.5000E-02
     -8.593  0.0000E+00  0.0000E+00  0.6000E-02  0.6000E-02
     -8.558  0.0000E+00  0.0000E+00  0.6000E-02  0.6000E-02
     -8.523  0.0000E+00  0.0000E+00  0.6000E-02  0.6000E-02
     -8.488  0.0000E+00  0.0000E+00  0.7000E-02  0.6000E-02
     -8.454  0.0000E+00  0.0000E+00  0.8000E-02  0.7000E-02
     -8.419  0.0000E+00  0.0000E+00  0.9000E-02  0.8000E-02
     -8.384  0.0000E+00  0.0000E+00  0.9000E-02  0.9000E-02
     -8.349  0.0000E+00  0.0000E+00  0.9000E-02  0.9000E-02
     -8.314  0.0000E+00  0.0000E+00  0.9000E-02  0.9000E-02
     -8.280  0.0000E+00  0.0000E+00  0.1100E-01  0.9000E-02
     -8.245  0.0000E+00  0.0000E+00  0.1200E-01  0.1200E-01
     -8.210  0.0000E+00  0.0000E+00  0.1200E-01  0.1200E-01
     -8.175  0.0000E+00  0.0000E+00  0.1300E-01  0.1300E-01
     -8.141  0.0000E+00  0.0000E+00  0.1300E-01  0.1300E-01
     -8.106  0.0000E+00  0.0000E+00  0.1300E-01  0.1300E-01
     -8.071  0.0000E+00  0.0000E+00  0.1300E-01  0.1300E-01
     -8.036  0.0000E+00  0.0000E+00  0.1300E-01  0.1300E-01
     -8.002  0.0000E+00  0.0000E+00  0.1400E-01  0.1400E-01
     -7.967  0.0000E+00  0.0000E+00  0.1700E-01  0.1500E-01
     -7.932  0.0000E+00  0.2876E-01  0.1700E-01  0.1700E-01
     -7.897  0.0000E+00  0.0000E+00  0.1700E-01  0.1700E-01
     -7.862  0.0000E+00  0.0000E+00  0.1700E-01  0.1700E-01
     -7.828  0.0000E+00  0.0000E+00  0.1800E-01  0.1700E-01
     -7.793  0.0000E+00  0.0000E+00  0.1800E-01  0.1800E-01
     -7.758  0.0000E+00  0.0000E+00  0.1800E-01  0.1800E-01
     -7.723  0.0000E+00  0.0000E+00  0.1800E-01  0.1800E-01
     -7.689  0.0000E+00  0.0000E+00  0.1800E-01  0.1800E-01
     -7.654  0.0000E+00  0.0000E+00  0.2000E-01  0.2000E-01
     -7.619  0.0000E+00  0.0000E+00  0.2000E-01  0.2000E-01
     -7.584  0.0000E+00  0.0000E+00  0.2000E-01  0.2000E-01
     -7.550  0.0000E+00  0.0000E+00  0.2100E-01  0.2000E-01
     -7.515  0.0000E+00  0.0000E+00  0.2100E-01  0.2100E-01
     -7.480  0.0000E+00  0.0000E+00  0.2100E-01  0.2100E-01
     -7.445  0.0000E+00  0.0000E+00  0.2200E-01  0.2100E-01
     -7.410  0.0000E+00  0.0000E+00  0.2200E-01  0.2200E-01
     -7.376  0.0000E+00  0.0000E+00  0.2200E-01  0.2200E-01
     -7.341  0.0000E+00  0.0000E+00  0.2200E-01  0.2200E-01
     -7.306  0.0000E+00  0.0000E+00  0.2300E-01  0.2200E-01
     -7.271  0.0000E+00  0.0000E+00  0.2400E-01  0.2300E-01
     -7.237  0.0000E+00  0.0000E+00  0.2600E-01  0.2400E-01
     -7.202  0.0000E+00  0.0000E+00  0.2800E-01  0.2600E-01
     -7.167  0.0000E+00  0.0000E+00  0.2900E-01  0.2900E-01
     -7.132  0.0000E+00  0.0000E+00  0.3000E-01  0.2900E-01
     -7.098  0.0000E+00  0.0000E+00  0.3100E-01  0.3000E-01
     -7.063  0.0000E+00  0.0000E+00  0.3200E-01  0.3000E-01
     -7.028  0.0000E+00  0.0000E+00  0.3200E-01  0.3200E-01
     -6.993  0.0000E+00  0.0000E+00  0.3200E-01  0.3200E-01
     -6.958  0.0000E+00  0.0000E+00  0.3400E-01  0.3200E-01
     -6.924  0.0000E+00  0.0000E+00  0.3600E-01  0.3400E-01
     -6.889  0.0000E+00  0.0000E+00  0.3700E-01  0.3700E-01
     -6.854  0.0000E+00  0.0000E+00  0.3700E-01  0.3700E-01
     -6.819  0.0000E+00  0.0000E+00  0.3800E-01  0.3700E-01
     -6.785  0.0000E+00  0.0000E+00  0.3900E-01  0.3900E-01
     -6.750  0.0000E+00  0.0000E+00  0.4000E-01  0.4000E-01
     -6.715  0.0000E+00  0.0000E+00  0.4200E-01  0.4100E-01
     -6.680  0.0000E+00  0.0000E+00  0.4300E-01  0.4200E-01
     -6.646  0.0000E+00  0.0000E+00  0.4300E-01  0.4300E-01
     -6.611  0.0000E+00  0.0000E+00  0.4500E-01  0.4400E-01
     -6.576  0.0000E+00  0.0000E+00  0.4500E-01  0.4500E-01
     -6.541  0.0000E+00  0.0000E+00  0.4600E-01  0.4500E-01
     -6.507  0.0000E+00  0.0000E+00  0.4600E-01  0.4600E-01
     -6.472  0.0000E+00  0.0000E+00  0.4600E-01  0.4600E-01
     -6.437  0.0000E+00  0.0000E+00  0.4600E-01  0.4600E-01
     -6.402  0.0000E+00  0.0000E+00  0.4600E-01  0.4600E-01
     -6.367  0.0000E+00  0.0000E+00  0.4600E-01  0.4600E-01
     -6.333  0.0000E+00  0.0000E+00  0.4600E-01  0.4600E-01
     -6.298  0.0000E+00  0.0000E+00  0.4600E-01  0.4600E-01
     -6.263  0.0000E+00  0.0000E+00  0.4600E-01  0.4600E-01
     -6.228  0.0000E+00  0.0000E+00  0.4600E-01  0.4600E-01
     -6.194  0.0000E+00  0.0000E+00  0.4600E-01  0.4600E-01
     -6.159  0.0000E+00  0.0000E+00  0.4600E-01  0.4600E-01
     -6.124  0.0000E+00  0.0000E+00  0.4600E-01  0.4600E-01
     -6.089  0.0000E+00  0.0000E+00  0.4600E-01  0.4600E-01
     -6.055  0.0000E+00  0.0000E+00  0.4600E-01  0.4600E-01
     -6.020  0.0000E+00  0.0000E+00  0.4600E-01  0.4600E-01
     -5.985  0.0000E+00  0.0000E+00  0.4600E-01  0.4600E-01
     -5.950  0.0000E+00  0.0000E+00  0.4600E-01  0.4600E-01
     -5.915  0.0000E+00  0.0000E+00  0.4600E-01  0.4600E-01
     -5.881  0.0000E+00  0.0000E+00  0.4600E-01  0.4600E-01
     -5.846  0.0000E+00  0.0000E+00  0.4600E-01  0.4600E-01
     -5.811  0.0000E+00  0.0000E+00  0.4600E-01  0.4600E-01
     -5.776  0.0000E+00  0.0000E+00  0.4600E-01  0.4600E-01
     -5.742  0.0000E+00  0.0000E+00  0.4600E-01  0.4600E-01
     -5.707  0.0000E+00  0.0000E+00  0.4600E-01  0.4600E-01
     -5.672  0.0000E+00  0.0000E+00  0.4600E-01  0.4600E-01
     -5.637  0.0000E+00  0.0000E+00  0.4600E-01  0.4600E-01
     -5.603  0.0000E+00  0.0000E+00  0.4600E-01  0.4600E-01
     -5.568  0.0000E+00  0.0000E+00  0.4700E-01  0.4600E-01
     -5.533  0.0000E+00  0.0000E+00  0.4700E-01  0.4600E-01
     -5.498  0.0000E+00  0.0000E+00  0.4700E-01  0.4600E-01
     -5.463  0.0000E+00  0.0000E+00  0.4700E-01  0.4700E-01
     -5.429  0.0000E+00  0.0000E+00  0.4700E-01  0.4700E-01
     -5.394  0.0000E+00  0.0000E+00  0.4700E-01  0.4700E-01
     -5.359  0.0000E+00  0.0000E+00  0.4700E-01  0.4700E-01
     -5.324  0.0000E+00  0.0000E+00  0.4700E-01  0.4700E-01
     -5.290  0.0000E+00  0.0000E+00  0.4700E-01  0.4700E-01
     -5.255  0.0000E+00  0.0000E+00  0.4700E-01  0.4700E-01
     -5.220  0.0000E+00  0.0000E+00  0.4700E-01  0.4700E-01
     -5.185  0.0000E+00  0.0000E+00  0.4700E-01  0.4700E-01
     -5.151  0.0000E+00  0.0000E+00  0.4700E-01  0.4700E-01
     -5.116  0.0000E+00  0.0000E+00  0.4700E-01  0.4700E-01
     -5.081  0.0000E+00  0.0000E+00  0.4700E-01  0.4700E-01
     -5.046  0.0000E+00  0.0000E+00  0.4700E-01  0.4700E-01
     -5.011  0.0000E+00  0.0000E+00  0.4700E-01  0.4700E-01
     -4.977  0.0000E+00  0.0000E+00  0.4700E-01  0.4700E-01
     -4.942  0.0000E+00  0.0000E+00  0.4700E-01  0.4700E-01
     -4.907  0.0000E+00  0.0000E+00  0.4700E-01  0.4700E-01
     -4.872  0.0000E+00  0.0000E+00  0.4800E-01  0.4700E-01
     -4.838  0.0000E+00  0.0000E+00  0.4900E-01  0.4700E-01
     -4.803  0.0000E+00  0.0000E+00  0.4900E-01  0.4900E-01
     -4.768  0.0000E+00  0.0000E+00  0.4900E-01  0.4900E-01
     -4.733  0.0000E+00  0.0000E+00  0.4900E-01  0.4900E-01
     -4.699  0.0000E+00  0.0000E+00  0.4900E-01  0.4900E-01
     -4.664  0.0000E+00  0.0000E+00  0.4900E-01  0.4900E-01
     -4.629  0.0000E+00  0.0000E+00  0.4900E-01  0.4900E-01
     -4.594  0.0000E+00  0.0000E+00  0.4900E-01  0.4900E-01
     -4.559  0.0000E+00  0.0000E+00  0.4900E-01  0.4900E-01
     -4.525  0.0000E+00  0.0000E+00  0.4900E-01  0.4900E-01
     -4.490  0.0000E+00  0.0000E+00  0.4900E-01  0.4900E-01
     -4.455  0.0000E+00  0.0000E+00  0.4900E-01  0.4900E-01
     -4.420  0.0000E+00  0.0000E+00  0.4900E-01  0.4900E-01
     -4.386  0.0000E+00  0.0000E+00  0.4900E-01  0.4900E-01
     -4.351  0.0000E+00  0.0000E+00  0.4900E-01  0.4900E-01
     -4.316  0.0000E+00  0.0000E+00  0.4900E-01  0.4900E-01
     -4.281  0.0000E+00  0.0000E+00  0.4900E-01  0.4900E-01
     -4.247  0.0000E+00  0.0000E+00  0.4900E-01  0.4900E-01
     -4.212  0.0000E+00  0.0000E+00  0.4900E-01  0.4900E-01
     -4.177  0.0000E+00  0.0000E+00  0.4900E-01  0.4900E-01
     -4.142  0.0000E+00  0.0000E+00  0.4900E-01  0.4900E-01
     -4.107  0.0000E+00  0.0000E+00  0.4900E-01  0.4900E-01
     -4.073  0.0000E+00  0.0000E+00  0.4900E-01  0.4900E-01
     -4.038  0.0000E+00  0.0000E+00  0.4900E-01  0.4900E-01
     -4.003  0.0000E+00  0.0000E+00  0.4900E-01  0.4900E-01
     -3.968  0.0000E+00  0.0000E+00  0.4900E-01  0.4900E-01
     -3.934  0.0000E+00  0.0000E+00  0.4900E-01  0.4900E-01
     -3.899  0.0000E+00  0.0000E+00  0.4900E-01  0.4900E-01
     -3.864  0.0000E+00  0.0000E+00  0.4900E-01  0.4900E-01
     -3.829  0.0000E+00  0.0000E+00  0.4900E-01  0.4900E-01
     -3.795  0.0000E+00  0.0000E+00  0.4900E-01  0.4900E-01
     -3.760  0.0000E+00  0.0000E+00  0.4900E-01  0.4900E-01
     -3.725  0.0000E+00  0.0000E+00  0.4900E-01  0.4900E-01
     -3.690  0.0000E+00  0.0000E+00  0.4900E-01  0.4900E-01
     -3.655  0.0000E+00  0.0000E+00  0.4900E-01  0.4900E-01
     -3.621  0.0000E+00  0.0000E+00  0.4900E-01  0.4900E-01
     -3.586  0.0000E+00  0.0000E+00  0.4900E-01  0.4900E-01
     -3.551  0.0000E+00  0.0000E+00  0.4900E-01  0.4900E-01
     -3.516  0.0000E+00  0.0000E+00  0.4900E-01  0.4900E-01
     -3.482  0.0000E+00  0.0000E+00  0.4900E-01  0.4900E-01
     -3.447  0.0000E+00  0.0000E+00  0.4900E-01  0.4900E-01
     -3.412  0.0000E+00  0.0000E+00  0.4900E-01  0.4900E-01
     -3.377  0.0000E+00  0.0000E+00  0.4900E-01  0.4900E-01
     -3.343  0.0000E+00  0.0000E+00  0.4900E-01  0.4900E-01
     -3.308  0.0000E+00  0.0000E+00  0.4900E-01  0.4900E-01
     -3.273  0.0000E+00  0.0000E+00  0.5000E-01  0.4900E-01
     -3.238  0.0000E+00  0.0000E+00  0.5000E-01  0.4900E-01
     -3.204  0.0000E+00  0.0000E+00  0.5000E-01  0.4900E-01
     -3.169  0.0000E+00  0.0000E+00  0.5000E-01  0.4900E-01
     -3.134  0.0000E+00  0.0000E+00  0.5000E-01  0.4900E-01
     -3.099  0.0000E+00  0.0000E+00  0.5000E-01  0.4900E-01
     -3.064  0.0000E+00  0.0000E+00  0.5000E-01  0.4900E-01
     -3.030  0.0000E+00  0.0000E+00  0.5000E-01  0.4900E-01
     -2.995  0.0000E+00  0.1614E-14  0.5000E-01  0.4900E-01
     -2.960  0.0000E+00  0.0000E+00  0.5000E-01  0.5000E-01
     -2.925  0.0000E+00  0.0000E+00  0.5000E-01  0.5000E-01
     -2.891  0.0000E+00  0.0000E+00  0.5000E-01  0.5000E-01
     -2.856  0.0000E+00  0.0000E+00  0.5000E-01  0.5000E-01
     -2.821  0.0000E+00  0.0000E+00  0.5000E-01  0.5000E-01
     -2.786  0.0000E+00  0.0000E+00  0.5200E-01  0.5000E-01
     -2.752  0.0000E+00  0.0000E+00  0.5200E-01  0.5000E-01
     -2.717  0.0000E+00  0.0000E+00  0.5200E-01  0.5100E-01
     -2.682  0.0000E+00  0.0000E+00  0.5200E-01  0.5200E-01
     -2.647  0.0000E+00  0.0000E+00  0.5200E-01  0.5200E-01
     -2.612  0.0000E+00  0.0000E+00  0.5200E-01  0.5200E-01
     -2.578  0.0000E+00  0.0000E+00  0.5200E-01  0.5200E-01
     -2.543  0.0000E+00  0.0000E+00  0.5300E-01  0.5200E-01
     -2.508  0.0000E+00  0.0000E+00  0.5300E-01  0.5200E-01
     -2.473  0.0000E+00  0.0000E+00  0.5300E-01  0.5300E-01
     -2.439  0.0000E+00  0.0000E+00  0.5300E-01  0.5300E-01
     -2.404  0.0000E+00  0.0000E+00  0.5300E-01  0.5300E-01
     -2.369  0.0000E+00  0.0000E+00  0.5300E-01  0.5300E-01
     -2.334  0.0000E+00  0.0000E+00  0.5300E-01  0.5300E-01
     -2.300  0.0000E+00  0.0000E+00  0.5300E-01  0.5300E-01
     -2.265  0.0000E+00  0.0000E+00  0.5400E-01  0.5300E-01
     -2.230  0.0000E+00  0.0000E+00  0.5400E-01  0.5300E-01
     -2.195  0.0000E+00  0.0000E+00  0.5400E-01  0.5400E-01
     -2.160  0.0000E+00  0.0000E+00  0.5400E-01  0.5400E-01
     -2.126  0.0000E+00  0.0000E+00  0.5400E-01  0.5400E-01
     -2.091  0.0000E+00  0.0000E+00  0.5400E-01  0.5400E-01
     -2.056  0.0000E+00  0.0000E+00  0.5400E-01  0.5400E-01
     -2.021  0.0000E+00  0.0000E+00  0.5400E-01  0.5400E-01
     -1.987  0.0000E+00  0.0000E+00  0.5400E-01  0.5400E-01
     -1.952  0.0000E+00  0.0000E+00  0.5400E-01  0.5400E-01
     -1.917  0.0000E+00  0.0000E+00  0.5400E-01  0.5400E-01
     -1.882  0.0000E+00  0.0000E+00  0.5400E-01  0.5400E-01
     -1.848  0.0000E+00  0.0000E+00  0.5400E-01  0.5400E-01
     -1.813  0.0000E+00  0.0000E+00  0.5400E-01  0.5400E-01
     -1.778  0.0000E+00  0.0000E+00  0.5400E-01  0.5400E-01
     -1.743  0.0000E+00  0.0000E+00  0.5400E-01  0.5400E-01
     -1.708  0.0000E+00  0.0000E+00  0.5400E-01  0.5400E-01
     -1.674  0.0000E+00  0.0000E+00  0.5400E-01  0.5400E-01
     -1.639  0.0000E+00  0.0000E+00  0.5500E-01  0.5400E-01
     -1.604  0.0000E+00  0.0000E+00  0.5500E-01  0.5500E-01
     -1.569  0.0000E+00  0.0000E+00  0.5500E-01  0.5500E-01
     -1.535  0.0000E+00  0.0000E+00  0.5500E-01  0.5500E-01
     -1.500  0.0000E+00  0.0000E+00  0.5500E-01  0.5500E-01
     -1.465  0.0000E+00  0.0000E+00  0.5500E-01  0.5500E-01
     -1.430  0.0000E+00  0.0000E+00  0.5500E-01  0.5500E-01
     -1.396  0.0000E+00  0.0000E+00  0.5500E-01  0.5500E-01
     -1.361  0.0000E+00  0.0000E+00  0.5500E-01  0.5500E-01
     -1.326  0.0000E+00  0.0000E+00  0.5500E-01  0.5500E-01
     -1.291  0.0000E+00  0.0000E+00  0.5500E-01  0.5500E-01
     -1.256  0.0000E+00  0.0000E+00  0.5500E-01  0.5500E-01
     -1.222  0.0000E+00  0.0000E+00  0.5500E-01  0.5500E-01
     -1.187  0.0000E+00  0.0000E+00  0.5500E-01  0.5500E-01
     -1.152  0.0000E+00  0.0000E+00  0.5600E-01  0.5500E-01
     -1.117  0.0000E+00  0.0000E+00  0.5600E-01  0.5500E-01
     -1.083  0.0000E+00  0.0000E+00  0.5600E-01  0.5500E-01
     -1.048  0.0000E+00  0.0000E+00  0.5600E-01  0.5500E-01
     -1.013  0.0000E+00  0.0000E+00  0.5600E-01  0.5500E-01
     -0.978  0.0000E+00  0.0000E+00  0.5600E-01  0.5500E-01
     -0.944  0.0000E+00  0.0000E+00  0.5600E-01  0.5500E-01
     -0.909  0.0000E+00  0.0000E+00  0.5600E-01  0.5500E-01
     -0.874  0.0000E+00  0.0000E+00  0.5600E-01  0.5600E-01
     -0.839  0.0000E+00  0.0000E+00  0.5700E-01  0.5600E-01
     -0.804  0.0000E+00  0.0000E+00  0.5700E-01  0.5600E-01
     -0.770  0.0000E+00  0.0000E+00  0.5700E-01  0.5600E-01
     -0.735  0.0000E+00  0.0000E+00  0.5700E-01  0.5600E-01
     -0.700  0.0000E+00  0.0000E+00  0.5700E-01  0.5600E-01
     -0.665  0.0000E+00  0.0000E+00  0.5700E-01  0.5700E-01
     -0.631  0.0000E+00  0.0000E+00  0.5800E-01  0.5700E-01
     -0.596  0.0000E+00  0.0000E+00  0.5800E-01  0.5700E-01
     -0.561  0.0000E+00  0.0000E+00  0.5800E-01  0.5700E-01
     -0.526  0.0000E+00  0.0000E+00  0.5900E-01  0.5700E-01
     -0.492  0.0000E+00  0.0000E+00  0.5900E-01  0.5900E-01
     -0.457  0.0000E+00  0.0000E+00  0.5900E-01  0.5900E-01
     -0.422  0.0000E+00  0.0000E+00  0.6000E-01  0.5900E-01
     -0.387  0.0000E+00  0.0000E+00  0.6000E-01  0.5900E-01
     -0.352  0.0000E+00  0.0000E+00  0.6000E-01  0.5900E-01
     -0.318  0.0000E+00  0.0000E+00  0.6100E-01  0.6000E-01
     -0.283  0.0000E+00  0.0000E+00  0.6100E-01  0.6000E-01
     -0.248  0.0000E+00  0.0000E+00  0.6100E-01  0.6000E-01
     -0.213  0.0000E+00  0.0000E+00  0.6100E-01  0.6000E-01
     -0.179  0.0000E+00  0.0000E+00  0.6100E-01  0.6100E-01
     -0.144  0.0000E+00  0.0000E+00  0.6100E-01  0.6100E-01
     -0.109  0.0000E+00  0.0000E+00  0.6100E-01  0.6100E-01
     -0.074  0.0000E+00  0.0000E+00  0.6200E-01  0.6100E-01
     -0.040  0.0000E+00  0.0000E+00  0.6200E-01  0.6100E-01
     -0.005  0.0000E+00  0.0000E+00  0.6200E-01  0.6100E-01
      0.030  0.0000E+00  0.0000E+00  0.6200E-01  0.6200E-01
      0.065  0.0000E+00  0.0000E+00  0.6200E-01  0.6200E-01
      0.100  0.0000E+00  0.0000E+00  0.6300E-01  0.6200E-01
      0.134  0.0000E+00  0.0000E+00  0.6300E-01  0.6200E-01
      0.169  0.0000E+00  0.0000E+00  0.6300E-01  0.6300E-01
      0.204  0.0000E+00  0.0000E+00  0.6400E-01  0.6300E-01
      0.239  0.0000E+00  0.0000E+00  0.6400E-01  0.6300E-01
      0.273  0.0000E+00  0.0000E+00  0.6400E-01  0.6400E-01
      0.308  0.0000E+00  0.0000E+00  0.6400E-01  0.6400E-01
      0.343  0.0000E+00  0.0000E+00  0.6400E-01  0.6400E-01
      0.378  0.0000E+00  0.0000E+00  0.6400E-01  0.6400E-01
      0.412  0.0000E+00  0.0000E+00  0.6400E-01  0.6400E-01
      0.447  0.0000E+00  0.0000E+00  0.6400E-01  0.6400E-01
      0.482  0.0000E+00  0.0000E+00  0.6400E-01  0.6400E-01
      0.517  0.0000E+00  0.0000E+00  0.6400E-01  0.6400E-01
      0.551  0.0000E+00  0.0000E+00  0.6400E-01  0.6400E-01
      0.586  0.0000E+00  0.0000E+00  0.6400E-01  0.6400E-01
      0.621  0.0000E+00  0.0000E+00  0.6400E-01  0.6400E-01
      0.656  0.0000E+00  0.0000E+00  0.6400E-01  0.6400E-01
      0.691  0.0000E+00  0.0000E+00  0.6400E-01  0.6400E-01
      0.725  0.0000E+00  0.0000E+00  0.6400E-01  0.6400E-01
