unknown system                          
           1
    23.483091    0.000000    0.000000
     0.000000   23.483091    0.000000
     0.000000    0.000000   23.483091
   Ag
  53
Direct configuration=     1
   0.39673972  0.57211028  0.66561757
   0.50249186  0.62700866  0.68053614
   0.44207245  0.64450672  0.57816714
   0.34144369  0.45460268  0.61359648
   0.31629026  0.49491812  0.51579549
   0.46781194  0.52836042  0.74062569
   0.42892697  0.52593417  0.57871472
   0.43963698  0.43551527  0.67017547
   0.56878554  0.69740713  0.58804691
   0.61759033  0.60350204  0.65144608
   0.49427102  0.70099235  0.49193167
   0.57342203  0.55391840  0.74007235
   0.35089490  0.60386575  0.53302393
   0.52809251  0.52240861  0.63990403
   0.33179572  0.37780597  0.51768071
   0.40791388  0.65872778  0.42859076
   0.34243258  0.55580831  0.42367601
   0.54411255  0.44288507  0.72216042
   0.41630666  0.46602910  0.45211270
   0.44053267  0.41232988  0.55806840
   0.55033073  0.60493073  0.54883854
   0.45165472  0.57248623  0.47819570
   0.31429789  0.43696553  0.41990328
   0.37431425  0.34779930  0.62352368
   0.51661815  0.71759585  0.37890692
   0.60388437  0.70096040  0.46594978
   0.53865812  0.49109507  0.51178815
   0.66915099  0.63771413  0.54583616
   0.52155304  0.62152302  0.40216335
   0.62850593  0.65297291  0.35986182
   0.48089068  0.33034756  0.63041601
   0.63382142  0.48497715  0.67133478
   0.70418055  0.64823921  0.44136167
   0.43262111  0.56078638  0.35752109
   0.61305502  0.57608110  0.45081102
   0.42468218  0.30126695  0.52698917
   0.63375072  0.51859583  0.56115398
   0.39521442  0.34910273  0.42148429
   0.55324706  0.41436264  0.60635541
   0.40216001  0.44216025  0.34274781
   0.51178278  0.39637135  0.46127735
   0.51787782  0.48927425  0.39331965
   0.69590502  0.55366603  0.37687668
   0.71748002  0.54249918  0.48462397
   0.54544721  0.31396060  0.53464205
   0.58901589  0.54565027  0.33339956
   0.63100416  0.46517265  0.43368618
   0.49478666  0.28865490  0.43505348
   0.49835462  0.46962572  0.28662045
   0.62631472  0.39857192  0.52132093
   0.49062796  0.36917204  0.34706218
   0.59309048  0.34556132  0.41681327
   0.59235737  0.42677589  0.33071437
Direct configuration=     2
   0.39626396  0.57251031  0.66607009
   0.50242083  0.62738852  0.68044136
   0.44232918  0.64475656  0.57850072
   0.34118743  0.45477739  0.61397313
   0.31602741  0.49507891  0.51584929
   0.46738667  0.52828489  0.74094215
   0.42914868  0.52550932  0.57815533
   0.43969840  0.43564423  0.67048639
   0.56888466  0.69831848  0.58846695
   0.61788409  0.60375537  0.65121229
   0.49419250  0.70110473  0.49207316
   0.57385270  0.55413060  0.74073769
   0.35052045  0.60392826  0.53288571
   0.52799659  0.52240417  0.63943739
   0.33167422  0.37772230  0.51772002
   0.40758301  0.65905163  0.42835643
   0.34216163  0.55598566  0.42358218
   0.54401257  0.44234442  0.72244513
   0.41655443  0.46598835  0.45242820
   0.44075324  0.41251336  0.55766285
   0.55004097  0.60412208  0.54847054
   0.45195699  0.57233652  0.47831071
   0.31387737  0.43679217  0.41950863
   0.37370827  0.34740654  0.62374171
   0.51661774  0.71901137  0.37850219
   0.60389576  0.70110447  0.46601862
   0.53823850  0.49132799  0.51191535
   0.66910144  0.63769035  0.54622185
   0.52159321  0.62030519  0.40226800
   0.62828928  0.65322183  0.35950841
   0.48130706  0.32998062  0.63072197
   0.63431330  0.48483920  0.67127252
   0.70475368  0.64858263  0.44129779
   0.43268892  0.56072203  0.35718627
   0.61278748  0.57606865  0.45109891
   0.42464469  0.30103509  0.52698336
   0.63401166  0.51855334  0.56126314
   0.39518253  0.34911085  0.42139334
   0.55339062  0.41436459  0.60644099
   0.40191555  0.44221399  0.34250750
   0.51130403  0.39651224  0.46155795
   0.51759754  0.48940620  0.39380400
   0.69613069  0.55344194  0.37632561
   0.71784598  0.54223052  0.48500038
   0.54563241  0.31382233  0.53481389
   0.58913503  0.54579200  0.33300807
   0.63121536  0.46514017  0.43347689
   0.49466794  0.28814511  0.43480868
   0.49817674  0.46983909  0.28604443
   0.62643604  0.39842778  0.52142962
   0.49068746  0.36896327  0.34700819
   0.59378367  0.34527629  0.41656261
   0.59273977  0.42657190  0.33059680
Direct configuration=     3
   0.39483668  0.57371038  0.66742764
   0.50220774  0.62852810  0.68015700
   0.44309934  0.64550606  0.57950146
   0.34041866  0.45530153  0.61510308
   0.31523886  0.49556130  0.51601069
   0.46611085  0.52805829  0.74189152
   0.42981380  0.52423478  0.57647715
   0.43988264  0.43603111  0.67141916
   0.56918204  0.70105254  0.58972706
   0.61876536  0.60451535  0.65051090
   0.49395695  0.70144187  0.49249761
   0.57514470  0.55476718  0.74273371
   0.34939710  0.60411579  0.53247108
   0.52770884  0.52239087  0.63803749
   0.33130971  0.37747129  0.51783797
   0.40659038  0.66002320  0.42765346
   0.34134877  0.55651773  0.42330070
   0.54371264  0.44072245  0.72329928
   0.41729775  0.46586611  0.45337472
   0.44141493  0.41306380  0.55644619
   0.54917168  0.60169611  0.54736652
   0.45286381  0.57188736  0.47865571
   0.31261583  0.43627209  0.41832471
   0.37189035  0.34622826  0.62439580
   0.51661651  0.72325793  0.37728798
   0.60392993  0.70153666  0.46622514
   0.53697964  0.49202675  0.51229694
   0.66895279  0.63761900  0.54737893
   0.52171372  0.61665171  0.40258198
   0.62763933  0.65396860  0.35844818
   0.48255622  0.32887982  0.63163984
   0.63578896  0.48442533  0.67108573
   0.70647305  0.64961286  0.44110614
   0.43289235  0.56052899  0.35618178
   0.61198485  0.57603131  0.45196256
   0.42453221  0.30033952  0.52696595
   0.63479451  0.51842589  0.56159063
   0.39508688  0.34913522  0.42112051
   0.55382129  0.41437043  0.60669772
   0.40118215  0.44237520  0.34178658
   0.50986781  0.39693490  0.46239977
   0.51675672  0.48980205  0.39525707
   0.69680770  0.55276969  0.37467238
   0.71894384  0.54142455  0.48612963
   0.54618801  0.31340751  0.53532943
   0.58949242  0.54621716  0.33183362
   0.63184893  0.46504274  0.43284901
   0.49431177  0.28661577  0.43407429
   0.49764311  0.47047920  0.28431637
   0.62680002  0.39799534  0.52175568
   0.49086596  0.36833697  0.34684620
   0.59586325  0.34442119  0.41581065
   0.59388696  0.42595994  0.33024410
Direct configuration=     4
   0.39198211  0.57611054  0.67014273
   0.50178157  0.63080725  0.67958828
   0.44463968  0.64700507  0.58150296
   0.33888113  0.45634981  0.61736297
   0.31366176  0.49652608  0.51633348
   0.46355923  0.52760510  0.74379026
   0.43114405  0.52168571  0.57312078
   0.44025112  0.43680487  0.67328468
   0.56977679  0.70652065  0.59224728
   0.62052789  0.60603533  0.64910813
   0.49348585  0.70211615  0.49334651
   0.57772872  0.55604034  0.74672574
   0.34715041  0.60449084  0.53164180
   0.52713335  0.52236426  0.63523768
   0.33058068  0.37696927  0.51807387
   0.40460514  0.66196635  0.42624752
   0.33972304  0.55758186  0.42273775
   0.54311276  0.43747850  0.72500756
   0.41878439  0.46562164  0.45526777
   0.44273832  0.41416469  0.55401287
   0.54743311  0.59684418  0.54515848
   0.45467745  0.57098904  0.47934573
   0.31009274  0.43523194  0.41595686
   0.36825450  0.34387169  0.62570398
   0.51661405  0.73175105  0.37485956
   0.60399828  0.70240104  0.46663818
   0.53446193  0.49342427  0.51306013
   0.66865549  0.63747630  0.54969309
   0.52195475  0.60934474  0.40320993
   0.62633942  0.65546214  0.35632773
   0.48505454  0.32667821  0.63347560
   0.63874027  0.48359760  0.67071216
   0.70991180  0.65167332  0.44072283
   0.43329921  0.56014290  0.35417280
   0.61037959  0.57595661  0.45368988
   0.42430724  0.29894838  0.52693112
   0.63636019  0.51817099  0.56224560
   0.39489558  0.34918394  0.42057484
   0.55468264  0.41438212  0.60721120
   0.39971536  0.44269761  0.34034474
   0.50699535  0.39778023  0.46408341
   0.51507509  0.49059375  0.39816319
   0.69816171  0.55142520  0.37136592
   0.72113958  0.53981261  0.48838813
   0.54729920  0.31257787  0.53636049
   0.59020721  0.54706748  0.32948471
   0.63311609  0.46484789  0.43159325
   0.49359943  0.28355707  0.43260550
   0.49657583  0.47175943  0.28086026
   0.62752796  0.39713047  0.52240781
   0.49122297  0.36708437  0.34652223
   0.60002241  0.34271101  0.41430674
   0.59618135  0.42473602  0.32953868
Direct configuration=     5
   0.39322800  0.57506298  0.66895771
   0.50196757  0.62981250  0.67983650
   0.44396739  0.64635082  0.58062939
   0.33955219  0.45589228  0.61637663
   0.31435009  0.49610500  0.51619259
   0.46467290  0.52780290  0.74296155
   0.43056346  0.52279827  0.57458569
   0.44009030  0.43646716  0.67247046
   0.56951721  0.70413406  0.59114732
   0.61975862  0.60537193  0.64972038
   0.49369147  0.70182185  0.49297600
   0.57660091  0.55548466  0.74498340
   0.34813099  0.60432715  0.53200374
   0.52738453  0.52237587  0.63645967
   0.33089887  0.37718838  0.51797091
   0.40547161  0.66111825  0.42686116
   0.34043260  0.55711741  0.42298345
   0.54337458  0.43889434  0.72426197
   0.41813554  0.46572834  0.45444154
   0.44216072  0.41368420  0.55507491
   0.54819192  0.59896183  0.54612219
   0.45388588  0.57138111  0.47904457
   0.31119396  0.43568592  0.41699032
   0.36984139  0.34490023  0.62513302
   0.51661512  0.72804418  0.37591945
   0.60396845  0.70202378  0.46645791
   0.53556080  0.49281432  0.51272703
   0.66878525  0.63753858  0.54868306
   0.52184955  0.61253391  0.40293586
   0.62690677  0.65481027  0.35725321
   0.48396413  0.32763911  0.63267437
   0.63745215  0.48395887  0.67087520
   0.70841094  0.65077402  0.44089013
   0.43312164  0.56031141  0.35504963
   0.61108021  0.57598921  0.45293598
   0.42440543  0.29955555  0.52694632
   0.63567684  0.51828225  0.56195974
   0.39497907  0.34916268  0.42081300
   0.55430670  0.41437702  0.60698709
   0.40035555  0.44255689  0.34097404
   0.50824905  0.39741128  0.46334858
   0.51580905  0.49024821  0.39689480
   0.69757075  0.55201201  0.37280905
   0.72018124  0.54051615  0.48740240
   0.54681421  0.31293997  0.53591048
   0.58989524  0.54669636  0.33050990
   0.63256303  0.46493294  0.43214133
   0.49391034  0.28489206  0.43324656
   0.49704165  0.47120067  0.28236870
   0.62721024  0.39750795  0.52212319
   0.49106715  0.36763107  0.34666363
   0.59820712  0.34345743  0.41496313
   0.59517995  0.42527021  0.32984657
Direct configuration=     6
   0.39341042  0.57490960  0.66878421
   0.50199481  0.62966686  0.67987284
   0.44386896  0.64625503  0.58050149
   0.33965045  0.45582530  0.61623221
   0.31445087  0.49604335  0.51617197
   0.46483595  0.52783186  0.74284021
   0.43047845  0.52296116  0.57480017
   0.44006675  0.43641772  0.67235125
   0.56947920  0.70378463  0.59098627
   0.61964599  0.60527480  0.64981002
   0.49372157  0.70177877  0.49292175
   0.57643579  0.55540330  0.74472830
   0.34827456  0.60430318  0.53205673
   0.52742130  0.52237757  0.63663859
   0.33094545  0.37722046  0.51795584
   0.40559847  0.66099408  0.42695100
   0.34053648  0.55704941  0.42301943
   0.54341291  0.43910164  0.72415281
   0.41804054  0.46574396  0.45432057
   0.44207616  0.41361385  0.55523040
   0.54830302  0.59927188  0.54626329
   0.45376998  0.57143852  0.47900048
   0.31135519  0.43575239  0.41714163
   0.37007373  0.34505082  0.62504942
   0.51661528  0.72750145  0.37607463
   0.60396408  0.70196854  0.46643152
   0.53572169  0.49272501  0.51267826
   0.66880425  0.63754770  0.54853518
   0.52183415  0.61300084  0.40289573
   0.62698984  0.65471483  0.35738871
   0.48380448  0.32777980  0.63255707
   0.63726356  0.48401176  0.67089908
   0.70819120  0.65064235  0.44091462
   0.43309564  0.56033608  0.35517800
   0.61118279  0.57599399  0.45282560
   0.42441980  0.29964445  0.52694854
   0.63557679  0.51829853  0.56191788
   0.39499130  0.34915956  0.42084787
   0.55425166  0.41437627  0.60695428
   0.40044928  0.44253629  0.34106618
   0.50843261  0.39735726  0.46324099
   0.51591651  0.49019762  0.39670909
   0.69748422  0.55209793  0.37302033
   0.72004093  0.54061916  0.48725808
   0.54674321  0.31299299  0.53584459
   0.58984956  0.54664202  0.33066001
   0.63248206  0.46494539  0.43222158
   0.49395586  0.28508751  0.43334042
   0.49710985  0.47111886  0.28258955
   0.62716373  0.39756322  0.52208152
   0.49104434  0.36771112  0.34668433
   0.59794134  0.34356671  0.41505923
   0.59503333  0.42534842  0.32989164
Direct configuration=     7
   0.39291693  0.57523237  0.66863885
   0.50208187  0.63006090  0.67986981
   0.44397184  0.64641967  0.58100801
   0.33937856  0.45605289  0.61687910
   0.31395684  0.49603540  0.51613117
   0.46473727  0.52781142  0.74321380
   0.43006691  0.52297477  0.57507364
   0.43998140  0.43639036  0.67254259
   0.56933969  0.70404060  0.59109800
   0.61986674  0.60548929  0.64969365
   0.49366247  0.70188350  0.49283000
   0.57675038  0.55551053  0.74524642
   0.34806646  0.60460305  0.53191265
   0.52755579  0.52246692  0.63672395
   0.33077008  0.37722058  0.51802618
   0.40532066  0.66123352  0.42667360
   0.34023130  0.55730935  0.42276996
   0.54344786  0.43863324  0.72445311
   0.41740169  0.46572723  0.45443686
   0.44211410  0.41308127  0.55549276
   0.54808341  0.59991534  0.54656271
   0.45355194  0.57193582  0.47884828
   0.31094009  0.43559339  0.41672667
   0.36970229  0.34461269  0.62522706
   0.51683239  0.72775184  0.37623082
   0.60401851  0.70211590  0.46647739
   0.53537341  0.49260033  0.51303001
   0.66874159  0.63755034  0.54880379
   0.52167694  0.61385627  0.40217625
   0.62662213  0.65512526  0.35715123
   0.48394479  0.32739659  0.63302146
   0.63767154  0.48385026  0.67109020
   0.70875642  0.65083769  0.44082058
   0.43284163  0.56015383  0.35448344
   0.61197255  0.57584913  0.45314802
   0.42441029  0.29933486  0.52708302
   0.63594608  0.51805772  0.56201355
   0.39495381  0.34923490  0.42069990
   0.55451980  0.41429438  0.60719820
   0.40014026  0.44264534  0.34075606
   0.50863074  0.39630143  0.46314010
   0.51592845  0.49036847  0.39657287
   0.69769946  0.55193129  0.37269745
   0.72047008  0.54044078  0.48741222
   0.54699376  0.31273822  0.53591927
   0.58987127  0.54650970  0.33000695
   0.63289320  0.46488084  0.43196150
   0.49398843  0.28448808  0.43301331
   0.49703238  0.47142285  0.28214132
   0.62737983  0.39739131  0.52206361
   0.49124881  0.36757423  0.34662548
   0.59844830  0.34338843  0.41504025
   0.59529687  0.42523144  0.32963829
Direct configuration=     8
   0.39143649  0.57620065  0.66820276
   0.50234306  0.63124304  0.67986069
   0.44428048  0.64691358  0.58252757
   0.33856289  0.45673567  0.61881977
   0.31247474  0.49601157  0.51600877
   0.46444121  0.52775011  0.74433456
   0.42883230  0.52301561  0.57589408
   0.43972536  0.43630829  0.67311661
   0.56892117  0.70480850  0.59143318
   0.62052900  0.60613276  0.64934455
   0.49348515  0.70219769  0.49255474
   0.57769415  0.55583222  0.74680077
   0.34744215  0.60550264  0.53148038
   0.52795924  0.52273497  0.63698005
   0.33024395  0.37722094  0.51823722
   0.40448724  0.66195183  0.42584141
   0.33931575  0.55808916  0.42202154
   0.54355271  0.43722807  0.72535402
   0.41548515  0.46567702  0.45478573
   0.44222795  0.41148352  0.55627985
   0.54742458  0.60184572  0.54746096
   0.45289779  0.57342773  0.47839170
   0.30969478  0.43511640  0.41548178
   0.36858800  0.34329831  0.62575999
   0.51748372  0.72850300  0.37669938
   0.60418178  0.70255796  0.46661500
   0.53432856  0.49222627  0.51408526
   0.66855361  0.63755824  0.54960962
   0.52120530  0.61642259  0.40001779
   0.62551901  0.65635655  0.35643879
   0.48436573  0.32624697  0.63441463
   0.63889550  0.48336576  0.67166357
   0.71045210  0.65142371  0.44053847
   0.43207961  0.55960706  0.35239975
   0.61434180  0.57541457  0.45411529
   0.42438176  0.29840610  0.52748647
   0.63705396  0.51733529  0.56230057
   0.39484135  0.34946090  0.42025601
   0.55532424  0.41404871  0.60792996
   0.39921320  0.44297250  0.33982570
   0.50922515  0.39313391  0.46283743
   0.51596429  0.49088102  0.39616422
   0.69834519  0.55143137  0.37172880
   0.72175756  0.53990565  0.48787466
   0.54774544  0.31197390  0.53614332
   0.58993641  0.54611273  0.32804779
   0.63412662  0.46468718  0.43118128
   0.49408616  0.28268977  0.43203199
   0.49679996  0.47233483  0.28079663
   0.62802814  0.39687559  0.52200990
   0.49186224  0.36716358  0.34644893
   0.59996918  0.34285358  0.41498331
   0.59608747  0.42488051  0.32887822
Direct configuration=     9
   0.38847560  0.57813722  0.66733057
   0.50286543  0.63360731  0.67984247
   0.44489776  0.64790140  0.58556668
   0.33693156  0.45810123  0.62270110
   0.30951055  0.49596391  0.51576398
   0.46384910  0.52762749  0.74657607
   0.42636307  0.52309728  0.57753494
   0.43921329  0.43614416  0.67426464
   0.56808413  0.70634431  0.59210354
   0.62185350  0.60741970  0.64864634
   0.49313051  0.70282608  0.49200422
   0.57958170  0.55647560  0.74990948
   0.34619352  0.60730183  0.53061586
   0.52876616  0.52327107  0.63749225
   0.32919170  0.37722167  0.51865928
   0.40282039  0.66338844  0.42417702
   0.33748465  0.55964878  0.42052472
   0.54376242  0.43441771  0.72715583
   0.41165206  0.46557661  0.45548347
   0.44245563  0.40828803  0.55785402
   0.54610692  0.60570649  0.54925747
   0.45158951  0.57641154  0.47747854
   0.30720417  0.43416242  0.41299199
   0.36635942  0.34066954  0.62682583
   0.51878639  0.73000531  0.37763651
   0.60450833  0.70344210  0.46689022
   0.53223887  0.49147815  0.51619575
   0.66817765  0.63757404  0.55122128
   0.52026203  0.62155522  0.39570088
   0.62331278  0.65881912  0.35501391
   0.48520759  0.32394773  0.63720098
   0.64134343  0.48239677  0.67281032
   0.71384345  0.65259575  0.43997424
   0.43055557  0.55851353  0.34823237
   0.61908032  0.57454545  0.45604981
   0.42432469  0.29654857  0.52829336
   0.63926971  0.51589042  0.56287460
   0.39461642  0.34991290  0.41936823
   0.55693311  0.41355736  0.60939349
   0.39735907  0.44362682  0.33796498
   0.51041396  0.38679887  0.46223208
   0.51603596  0.49190613  0.39534691
   0.69963663  0.55043154  0.36979151
   0.72433251  0.53883538  0.48879953
   0.54924878  0.31044528  0.53659142
   0.59006667  0.54531879  0.32412946
   0.63659345  0.46429988  0.42962082
   0.49428160  0.27909316  0.43006936
   0.49633512  0.47415878  0.27810725
   0.62932476  0.39584414  0.52190248
   0.49308909  0.36634228  0.34609582
   0.60301093  0.34178388  0.41486941
   0.59766868  0.42417864  0.32735809
Direct configuration=    10
   0.38957816  0.57741609  0.66765535
   0.50267091  0.63272691  0.67984926
   0.44466790  0.64753356  0.58443499
   0.33753902  0.45759272  0.62125579
   0.31061434  0.49598166  0.51585513
   0.46406959  0.52767315  0.74574139
   0.42728255  0.52306687  0.57692392
   0.43940397  0.43620528  0.67383714
   0.56839583  0.70577241  0.59185391
   0.62136029  0.60694048  0.64890634
   0.49326257  0.70259208  0.49220922
   0.57887882  0.55623602  0.74875187
   0.34665848  0.60663185  0.53093779
   0.52846568  0.52307144  0.63730152
   0.32958353  0.37722140  0.51850211
   0.40344109  0.66285348  0.42479680
   0.33816651  0.55906801  0.42108210
   0.54368433  0.43546422  0.72648488
   0.41307941  0.46561400  0.45522365
   0.44237085  0.40947795  0.55726784
   0.54659758  0.60426883  0.54858849
   0.45207668  0.57530044  0.47781858
   0.30813162  0.43451766  0.41391913
   0.36718929  0.34164843  0.62642894
   0.51830131  0.72944589  0.37728754
   0.60438673  0.70311287  0.46678774
   0.53301702  0.49175673  0.51540986
   0.66831765  0.63756816  0.55062114
   0.52061329  0.61964395  0.39730839
   0.62413433  0.65790211  0.35554450
   0.48489410  0.32480391  0.63616341
   0.64043188  0.48275760  0.67238330
   0.71258059  0.65215931  0.44018435
   0.43112309  0.55892074  0.34978420
   0.61731581  0.57486909  0.45532944
   0.42434594  0.29724027  0.52799289
   0.63844462  0.51642845  0.56266085
   0.39470018  0.34974459  0.41969882
   0.55633400  0.41374033  0.60884851
   0.39804950  0.44338317  0.33865787
   0.50997127  0.38915789  0.46245750
   0.51600927  0.49152441  0.39565126
   0.69915573  0.55080385  0.37051291
   0.72337366  0.53923392  0.48845513
   0.54868897  0.31101450  0.53642456
   0.59001817  0.54561444  0.32558855
   0.63567486  0.46444410  0.43020190
   0.49420882  0.28043245  0.43080020
   0.49650822  0.47347958  0.27910871
   0.62884193  0.39622823  0.52194248
   0.49263224  0.36664812  0.34622731
   0.60187826  0.34218221  0.41491182
   0.59707987  0.42444000  0.32792415
Direct configuration=    11
   0.38908928  0.57780413  0.66774436
   0.50337465  0.63278876  0.68058834
   0.44390461  0.64787745  0.58454264
   0.33713308  0.45778941  0.62186684
   0.30992235  0.49585331  0.51594966
   0.46441140  0.52796724  0.74555873
   0.42668162  0.52297320  0.57682535
   0.43937986  0.43600165  0.67398902
   0.56807772  0.70627924  0.59201995
   0.62112413  0.60664552  0.64977480
   0.49286314  0.70252322  0.49203554
   0.57895889  0.55613173  0.74856747
   0.34676849  0.60706539  0.53070181
   0.52887824  0.52325607  0.63823719
   0.32956631  0.37748601  0.51860606
   0.40300242  0.66325436  0.42415103
   0.33786129  0.55933294  0.42076441
   0.54382210  0.43536794  0.72663952
   0.41294156  0.46544299  0.45554573
   0.44240859  0.40883865  0.55782376
   0.54685329  0.60437873  0.54838847
   0.45201838  0.57570680  0.47755398
   0.30754018  0.43432541  0.41363526
   0.36714011  0.34145534  0.62642585
   0.51890138  0.73012628  0.37767517
   0.60482400  0.70295359  0.46687447
   0.53231658  0.49141424  0.51554378
   0.66860605  0.63776870  0.54989096
   0.52079715  0.61982573  0.39665703
   0.62396485  0.65815445  0.35570736
   0.48481000  0.32458662  0.63669199
   0.64044080  0.48271169  0.67314847
   0.71267342  0.65197589  0.44005244
   0.43089240  0.55875975  0.34907155
   0.61715658  0.57552757  0.45515420
   0.42450979  0.29675012  0.52805983
   0.63826654  0.51596846  0.56262222
   0.39492504  0.34991654  0.41962663
   0.55671343  0.41333753  0.60933982
   0.39797444  0.44337840  0.33827010
   0.50966805  0.38959712  0.46232398
   0.51590610  0.49146376  0.39594574
   0.69907870  0.55092104  0.37043542
   0.72432927  0.53918338  0.48821976
   0.54892815  0.31021301  0.53686719
   0.59007883  0.54564029  0.32500479
   0.63625985  0.46410566  0.42987066
   0.49425809  0.27933134  0.43040966
   0.49653544  0.47378400  0.27907739
   0.62903904  0.39627712  0.52166650
   0.49289521  0.36695875  0.34601137
   0.60267899  0.34193574  0.41481014
   0.59705043  0.42444353  0.32753104
Direct configuration=    12
   0.38762263  0.57896827  0.66801137
   0.50548588  0.63297432  0.68280559
   0.44161473  0.64890912  0.58486558
   0.33591526  0.45837946  0.62370000
   0.30784635  0.49546828  0.51623323
   0.46543684  0.52884949  0.74501076
   0.42487885  0.52269221  0.57652962
   0.43930753  0.43539076  0.67444466
   0.56712340  0.70779973  0.59251808
   0.62041564  0.60576067  0.65238017
   0.49166487  0.70231665  0.49151450
   0.57919909  0.55581886  0.74801424
   0.34709853  0.60836601  0.52999389
   0.53011590  0.52380996  0.64104418
   0.32951465  0.37827987  0.51891789
   0.40168641  0.66445698  0.42221373
   0.33694565  0.56012771  0.41981133
   0.54423542  0.43507908  0.72710347
   0.41252801  0.46492996  0.45651198
   0.44252183  0.40692074  0.55949153
   0.54762040  0.60470840  0.54778838
   0.45184347  0.57692590  0.47676019
   0.30576585  0.43374866  0.41278365
   0.36699259  0.34087608  0.62641658
   0.52070161  0.73216744  0.37883805
   0.60613579  0.70247576  0.46713467
   0.53021526  0.49038678  0.51594554
   0.66947127  0.63837031  0.54770041
   0.52134874  0.62037104  0.39470294
   0.62345643  0.65891146  0.35619593
   0.48455772  0.32393476  0.63827775
   0.64046758  0.48257398  0.67544399
   0.71295191  0.65142566  0.43965671
   0.43020033  0.55827678  0.34693357
   0.61667890  0.57750302  0.45462848
   0.42500135  0.29527966  0.52826066
   0.63773232  0.51458850  0.56250634
   0.39559964  0.35043240  0.41941007
   0.55785171  0.41212914  0.61081374
   0.39774924  0.44336408  0.33710679
   0.50875838  0.39091481  0.46192343
   0.51559659  0.49128183  0.39682919
   0.69884762  0.55127260  0.37020296
   0.72719607  0.53903176  0.48751365
   0.54964568  0.30780855  0.53819509
   0.59026083  0.54571786  0.32325349
   0.63801481  0.46309035  0.42887694
   0.49440587  0.27602799  0.42923807
   0.49661709  0.47469724  0.27898344
   0.62963035  0.39642378  0.52083857
   0.49368412  0.36789064  0.34536354
   0.60508118  0.34119634  0.41450509
   0.59696212  0.42445409  0.32635171
Direct configuration=    13
   0.38809877  0.57859034  0.66792469
   0.50480048  0.63291408  0.68208577
   0.44235813  0.64857419  0.58476074
   0.33631062  0.45818790  0.62310487
   0.30852031  0.49559328  0.51614117
   0.46510394  0.52856307  0.74518865
   0.42546411  0.52278343  0.57662562
   0.43933101  0.43558908  0.67429674
   0.56743321  0.70730611  0.59235637
   0.62064565  0.60604793  0.65153434
   0.49205389  0.70238371  0.49168365
   0.57912111  0.55592043  0.74819385
   0.34699139  0.60794377  0.53022371
   0.52971409  0.52363014  0.64013290
   0.32953142  0.37802215  0.51881666
   0.40211365  0.66406655  0.42284266
   0.33724291  0.55986969  0.42012074
   0.54410124  0.43517286  0.72695285
   0.41266227  0.46509651  0.45619829
   0.44248507  0.40754338  0.55895010
   0.54737136  0.60460137  0.54798319
   0.45190025  0.57653012  0.47701789
   0.30634188  0.43393590  0.41306012
   0.36704048  0.34106414  0.62641959
   0.52011718  0.73150479  0.37846053
   0.60570992  0.70263089  0.46705020
   0.53089745  0.49072034  0.51581511
   0.66919038  0.63817500  0.54841156
   0.52116966  0.62019401  0.39533733
   0.62362149  0.65866570  0.35603732
   0.48463963  0.32414638  0.63776294
   0.64045889  0.48261869  0.67469875
   0.71286150  0.65160429  0.43978518
   0.43042501  0.55843357  0.34762766
   0.61683398  0.57686170  0.45479915
   0.42484177  0.29575704  0.52819546
   0.63790576  0.51503650  0.56254396
   0.39538064  0.35026493  0.41948038
   0.55748217  0.41252144  0.61033524
   0.39782235  0.44336873  0.33748445
   0.50905370  0.39048702  0.46205347
   0.51569707  0.49134090  0.39654238
   0.69892264  0.55115847  0.37027843
   0.72626537  0.53908099  0.48774288
   0.54941273  0.30858915  0.53776399
   0.59020175  0.54569268  0.32382204
   0.63744507  0.46341997  0.42919955
   0.49435790  0.27710041  0.42961843
   0.49659058  0.47440076  0.27901394
   0.62943838  0.39637616  0.52110736
   0.49342800  0.36758811  0.34557385
   0.60430131  0.34143639  0.41460413
   0.59699079  0.42445066  0.32673457
Direct configuration=    14
   0.38799903  0.57881243  0.66804593
   0.50509422  0.63301627  0.68244201
   0.44223588  0.64869603  0.58516791
   0.33601997  0.45823959  0.62340406
   0.30806499  0.49578245  0.51614716
   0.46531786  0.52904679  0.74453090
   0.42528043  0.52265360  0.57643504
   0.43937771  0.43546388  0.67445779
   0.56695175  0.70733777  0.59236836
   0.62086870  0.60604319  0.65133980
   0.49182416  0.70199853  0.49145537
   0.57909921  0.55560745  0.74834729
   0.34703508  0.60801494  0.52969223
   0.52973316  0.52344059  0.64043817
   0.32982757  0.37837204  0.51885690
   0.40183873  0.66421566  0.42206057
   0.33721349  0.55981445  0.42010655
   0.54411164  0.43525963  0.72713236
   0.41244665  0.46508224  0.45658103
   0.44261165  0.40724501  0.55938721
   0.54753652  0.60435912  0.54797264
   0.45199726  0.57677956  0.47666409
   0.30635459  0.43388288  0.41310642
   0.36717808  0.34119844  0.62623792
   0.52099445  0.73223922  0.37905956
   0.60566443  0.70255938  0.46734091
   0.53033355  0.49089194  0.51645677
   0.66914076  0.63795815  0.54841910
   0.52079248  0.61970261  0.39490515
   0.62394270  0.65876247  0.35621708
   0.48454064  0.32406458  0.63813529
   0.64042608  0.48266247  0.67532561
   0.71284232  0.65118921  0.43936535
   0.43044214  0.55844403  0.34741821
   0.61649333  0.57682519  0.45424397
   0.42520459  0.29536038  0.52803629
   0.63743605  0.51479497  0.56217076
   0.39585936  0.35042743  0.41957426
   0.55787579  0.41212851  0.61055167
   0.39780037  0.44321902  0.33753106
   0.50916437  0.38977314  0.46185997
   0.51572711  0.49162825  0.39658210
   0.69852435  0.55144043  0.37047263
   0.72643850  0.53916094  0.48735968
   0.54927996  0.30831016  0.53777102
   0.59011607  0.54574421  0.32374037
   0.63796632  0.46363742  0.42885359
   0.49459999  0.27714927  0.42960605
   0.49671072  0.47466457  0.27938513
   0.62907925  0.39635564  0.52091929
   0.49364919  0.36795559  0.34558994
   0.60431629  0.34153326  0.41469359
   0.59682083  0.42461082  0.32653331
Direct configuration=    15
   0.38776023  0.57934418  0.66833622
   0.50579754  0.63326096  0.68329496
   0.44194318  0.64898775  0.58614283
   0.33532405  0.45836335  0.62412041
   0.30697479  0.49623541  0.51616151
   0.46583006  0.53020497  0.74295601
   0.42484063  0.52234273  0.57597871
   0.43948950  0.43516411  0.67484339
   0.56579895  0.70741357  0.59239706
   0.62140277  0.60603183  0.65087399
   0.49127412  0.70107629  0.49090878
   0.57904677  0.55485805  0.74871470
   0.34713970  0.60818533  0.52841968
   0.52977881  0.52298672  0.64116911
   0.33053665  0.37920980  0.51895325
   0.40118049  0.66457269  0.42018797
   0.33714304  0.55968219  0.42007259
   0.54413654  0.43546738  0.72756216
   0.41193038  0.46504805  0.45749743
   0.44291474  0.40653062  0.56043379
   0.54793196  0.60377909  0.54794737
   0.45222953  0.57737680  0.47581697
   0.30638501  0.43375593  0.41321728
   0.36750753  0.34152000  0.62580294
   0.52309493  0.73399769  0.38049385
   0.60555551  0.70238816  0.46803699
   0.52898339  0.49130282  0.51799312
   0.66902194  0.63743894  0.54843714
   0.51988939  0.61852604  0.39387037
   0.62471181  0.65899415  0.35664748
   0.48430362  0.32386871  0.63902684