 vasp.5.3.5 31Mar14 (build Feb 01 2018 12:10:03) gamma-only                     
  
 executed on             LinuxIFC date 2019.03.22  10:21:55
 running on   32 total cores
 distrk:  each k-point on   32 cores,    1 groups
 distr:  one band on NCORES_PER_BAND=   8 cores,    4 groups


--------------------------------------------------------------------------------------------------------


 INCAR:
 POTCAR:    PAW_PBE Ag 02Apr2005                  
 POTCAR:    PAW_PBE Ag 02Apr2005                  
   VRHFIN =Ag : s1 d10                                                          
   LEXCH  = PE                                                                  
   EATOM  =  1037.2675 eV,   76.2370 Ry                                         
                                                                                
   TITEL  = PAW_PBE Ag 02Apr2005                                                
   LULTRA =        F    use ultrasoft PP ?                                      
   IUNSCR =        1    unscreen: 0-lin 1-nonlin 2-no                           
   RPACOR =    2.000    partial core radius                                     
   POMASS =  107.868; ZVAL   =   11.000    mass and valenz                      
   RCORE  =    2.500    outmost cutoff radius                                   
   RWIGS  =    2.840; RWIGS  =    1.503    wigner-seitz radius (au A)           
   ENMAX  =  249.844; ENMIN  =  187.383 eV                                      
   ICORE  =        3    local potential                                         
   LCOR   =        T    correct aug charges                                     
   LPAW   =        T    paw PP                                                  
   EAUG   =  412.496                                                            
   DEXC   =    0.000                                                            
   RMAX   =    2.560    core radius for proj-oper                               
   RAUG   =    1.300    factor for augmentation sphere                          
   RDEP   =    2.576    radius for radial grids                                 
   RDEPT  =    2.072    core radius for aug-charge                              
                                                                                
   Atomic configuration                                                         
   12 entries                                                                   
     n  l   j            E        occ.                                          
     1  0  0.50    -25324.9161   2.0000                                         
     2  0  0.50     -3728.5341   2.0000                                         
     2  1  1.50     -3344.0404   6.0000                                         
     3  0  0.50      -683.5581   2.0000                                         
     3  1  1.50      -557.3225   6.0000                                         
     3  2  2.50      -358.3853  10.0000                                         
     4  0  0.50       -95.0341   2.0000                                         
     4  1  1.50       -58.5511   6.0000                                         
     4  2  2.50        -7.4440  10.0000                                         
     5  0  0.50        -4.4045   1.0000                                         
     5  1  0.50        -1.3606   0.0000                                         
     4  3  2.50        -1.3606   0.0000                                         
   Description                                                                  
     l       E           TYP  RCUT    TYP  RCUT                                 
     2     -7.4439781     23  2.400                                             
     2     -8.8045607     23  2.400                                             
     0     -4.4044681     23  2.400                                             
     0      1.9520038     23  2.400                                             
     1     -1.3605826     23  2.500                                             
     1     27.2116520     23  2.500                                             
     3     -4.0817478     23  2.400                                             
  local pseudopotential read in
  partial core-charges read in
  partial kinetic energy density read in
  atomic valenz-charges read in
  non local Contribution for L=           2  read in
    real space projection operators read in
  non local Contribution for L=           2  read in
    real space projection operators read in
  non local Contribution for L=           0  read in
    real space projection operators read in
  non local Contribution for L=           0  read in
    real space projection operators read in
  non local Contribution for L=           1  read in
    real space projection operators read in
  non local Contribution for L=           1  read in
    real space projection operators read in
    PAW grid and wavefunctions read in
 
   number of l-projection  operators is LMAX  =           6
   number of lm-projection operators is LMMAX =          18
 

 ----------------------------------------------------------------------------- 
|                                                                             |
|  ADVICE TO THIS USER RUNNING 'VASP/VAMP'   (HEAR YOUR MASTER'S VOICE ...):  |
|                                                                             |
|      You have a (more or less) 'large supercell' and for larger cells       |
|      it might be more efficient to use real space projection opertators     |
|      So try LREAL= Auto  in the INCAR   file.                               |
|      Mind: At the moment your POTCAR file does not contain real space       |
|       projectors, and has to be modified,  BUT if you                       |
|      want to do an extremely  accurate calculation you might also keep the  |
|      reciprocal projection scheme          (i.e. LREAL=.FALSE.)             |
|                                                                             |
 ----------------------------------------------------------------------------- 

  PAW_PBE Ag 02Apr2005                  :
 energy of atom  1       EATOM=-1037.2675
 kinetic energy error for atom=    0.0689 (will be added to EATOM!!)
 
 
 POSCAR: Al30, -92.83004564 <s> Ag </s>          
  positions in direct lattice
  No initial velocities read in
 exchange correlation table for  LEXCH =        8
   RHO(1)=    0.500       N(1)  =     2000
   RHO(2)=  100.500       N(2)  =     4000
 


--------------------------------------------------------------------------------------------------------


 ion  position               nearest neighbor table
   1  0.590  0.420  0.558-   2 2.71   3 2.75   9 2.76  14 2.80   6 2.80  23 2.94   8 2.95
   2  0.660  0.505  0.530-  15 2.71   1 2.71  23 2.73   3 2.83  11 2.87   4 2.90
   3  0.571  0.524  0.606-   5 2.75   1 2.75  11 2.77   8 2.77   2 2.83  15 2.84   7 2.85  16 2.88
                            14 2.98
   4  0.648  0.564  0.425-  24 2.74  11 2.76  23 2.79   2 2.90  29 3.06  30 3.41  15 3.55
   5  0.559  0.630  0.649-  18 2.71   7 2.75   3 2.75  15 2.82  16 2.83
   6  0.536  0.372  0.466-  23 2.70  28 2.76  20 2.80   1 2.80   9 2.80  12 2.90  25 2.92  17 3.01
                            14 3.08
   7  0.489  0.548  0.689-   5 2.75  10 2.83   3 2.85   8 2.86  16 2.94
   8  0.504  0.438  0.646-   9 2.71   3 2.77  14 2.81  13 2.85   7 2.86   1 2.95  10 3.16
   9  0.501  0.348  0.576-   8 2.71   1 2.76  20 2.80   6 2.80  17 2.90  13 2.92  14 3.07
  10  0.402  0.516  0.615-  13 2.66  16 2.68   7 2.83  21 2.84  19 2.91  14 3.00   8 3.16
  11  0.558  0.558  0.496-   4 2.76   3 2.77  26 2.79  16 2.82   2 2.87  14 2.88  15 2.89  30 2.89
                            23 2.97  29 2.97  24 3.12  18 3.24
  12  0.545  0.412  0.352-  23 2.80  29 2.81  25 2.84   6 2.90  28 2.91
  13  0.397  0.405  0.605-  10 2.66  17 2.75   8 2.85   9 2.92  19 3.09  14 3.11
  14  0.486  0.469  0.534-   1 2.80  19 2.80   8 2.81  25 2.86  11 2.88  26 2.96   3 2.98  10 3.00
                            17 3.01  16 3.06   9 3.07   6 3.08  13 3.11
  15  0.641  0.611  0.566-   2 2.71  24 2.77   5 2.82   3 2.84  11 2.89  18 2.97   4 3.55
  16  0.476  0.590  0.574-  10 2.68  18 2.73  21 2.81  11 2.82   5 2.83  27 2.87   3 2.88   7 2.94
                            26 3.02  14 3.06
  17  0.413  0.373  0.496-  19 2.74  13 2.75  25 2.80  20 2.81  28 2.82   9 2.90  14 3.01   6 3.01

  18  0.540  0.681  0.549-   5 2.71  16 2.73  27 2.77  24 2.81  22 2.81  15 2.97  11 3.24  30 3.59

  19  0.373  0.480  0.502-  17 2.74  14 2.80  26 2.80  21 2.83  25 2.88  10 2.91  13 3.09
  20  0.476  0.274  0.489-   6 2.80   9 2.80  17 2.81  28 2.89
  21  0.366  0.594  0.533-  27 2.75  16 2.81  19 2.83  10 2.84  26 2.86
  22  0.530  0.741  0.449-  30 2.76  18 2.81  24 2.85  27 2.89
  23  0.606  0.457  0.442-   6 2.70   2 2.73   4 2.79  12 2.80  29 2.81   1 2.94  11 2.97
  24  0.622  0.668  0.466-   4 2.74  15 2.77  18 2.81  30 2.84  22 2.85  11 3.12
  25  0.455  0.451  0.419-  26 2.68  28 2.75  17 2.80  29 2.81  12 2.84  14 2.86  19 2.88   6 2.92

  26  0.448  0.557  0.455-  25 2.68  27 2.73  11 2.79  19 2.80  30 2.82  21 2.86  29 2.89  14 2.96
                            16 3.02
  27  0.443  0.667  0.488-  26 2.73  21 2.75  18 2.77  30 2.85  16 2.87  22 2.89
  28  0.455  0.340  0.390-  25 2.75   6 2.76  17 2.82  20 2.89  12 2.91
  29  0.536  0.526  0.378-  30 2.68  23 2.81  12 2.81  25 2.81  26 2.89  11 2.97   4 3.06
  30  0.525  0.633  0.408-  29 2.68  22 2.76  26 2.82  24 2.84  27 2.85  11 2.89   4 3.41  18 3.59

 
  LATTYP: Found a simple cubic cell.
 ALAT       =    23.8870980560
  
  Lattice vectors:
  
 A1 = (  23.8870980560,   0.0000000000,   0.0000000000)
 A2 = (   0.0000000000,  23.8870980560,   0.0000000000)
 A3 = (   0.0000000000,   0.0000000000,  23.8870980560)


Analysis of symmetry for initial positions (statically):
=====================================================================
 Subroutine PRICEL returns:
 Original cell was already a primitive cell.
 

 Routine SETGRP: Setting up the symmetry group for a 
 simple cubic supercell.


 Subroutine GETGRP returns: Found  1 space group operations
 (whereof  1 operations were pure point group operations)
 out of a pool of 48 trial point group operations.


The static configuration has the point symmetry C_1 .


Analysis of symmetry for dynamics (positions and initial velocities):
=====================================================================
 Subroutine PRICEL returns:
 Original cell was already a primitive cell.
 

 Routine SETGRP: Setting up the symmetry group for a 
 simple cubic supercell.


 Subroutine GETGRP returns: Found  1 space group operations
 (whereof  1 operations were pure point group operations)
 out of a pool of 48 trial point group operations.


The dynamic configuration has the point symmetry C_1 .


Analysis of magnetic symmetry:
=====================================================================
 Subroutine PRICEL returns:
 Original cell was already a primitive cell.
 

 Subroutine MAGSYM returns: Found  1 space group operations
 (whereof  1 operations were pure point group operations)
 out of a pool of  1 trial space group operations
 (whereof  1 operations were pure point group operations)
 and found also     1 'primitive' translations


The magnetic configuration has the point symmetry C_1 .
 
 
 KPOINTS: Gamma-point only                        
  k-points in reciprocal lattice
Space group operators:
 irot       det(A)        alpha          n_x          n_y          n_z        tau_x        tau_y        tau_z
    1     1.000000     0.000000     1.000000     0.000000     0.000000     0.000000     0.000000     0.000000


--------------------------------------------------------------------------------------------------------




 Dimension of arrays:
   k-points           NKPTS =      1   k-points in BZ     NKDIM =      1   number of bands    NBANDS=    216
   number of dos      NEDOS =    301   number of ions     NIONS =     30
   non local maximal  LDIM  =      6   non local SUM 2l+1 LMDIM =     18
   total plane-waves  NPLWV = 884736
   max r-space proj   IRMAX =      1   max aug-charges    IRDMAX=   3391
   dimension x,y,z NGX =    96 NGY =   96 NGZ =   96
   dimension x,y,z NGXF=   192 NGYF=  192 NGZF=  192
   support grid    NGXF=   192 NGYF=  192 NGZF=  192
   ions per type =              30
 NGX,Y,Z   is equivalent  to a cutoff of   6.68,  6.68,  6.68 a.u.
 NGXF,Y,Z  is equivalent  to a cutoff of  13.36, 13.36, 13.36 a.u.


 I would recommend the setting:
   dimension x,y,z NGX =    92 NGY =   92 NGZ =   92
 SYSTEM =  unknown system                          
 POSCAR =  Al30, -92.83004564 <s> Ag </s>          

 Startparameter for this run:
   NWRITE =      2    write-flag & timer
   PREC   = normal    normal or accurate (medium, high low for compatibility)
   ISTART =      0    job   : 0-new  1-cont  2-samecut
   ICHARG =      2    charge: 1-file 2-atom 10-const
   ISPIN  =      2    spin polarized calculation?
   LNONCOLLINEAR =      F non collinear calculations
   LSORBIT =      F    spin-orbit coupling
   INIWAV =      1    electr: 0-lowe 1-rand  2-diag
   LASPH  =      F    aspherical Exc in radial PAW
   METAGGA=      F    non-selfconsistent MetaGGA calc.

 Electronic Relaxation 1
   ENCUT  =  249.8 eV  18.36 Ry    4.29 a.u.  30.79 30.79 30.79*2*pi/ulx,y,z
   ENINI  =  249.8     initial cutoff
   ENAUG  =  412.5 eV  augmentation charge cutoff
   NELM   =     60;   NELMIN=  2; NELMDL= -5     # of ELM steps 
   EDIFF  = 0.1E-03   stopping-criterion for ELM
   LREAL  =      F    real-space projection
   NLSPLINE    = F    spline interpolate recip. space projectors
   LCOMPAT=      F    compatible to vasp.4.4
   GGA_COMPAT  = T    GGA compatible to vasp.4.4-vasp.4.6
   LMAXPAW     = -100 max onsite density
   LMAXMIX     =    2 max onsite mixed and CHGCAR
   VOSKOWN=      0    Vosko Wilk Nusair interpolation
   ROPT   =    0.00000
 Ionic relaxation
   EDIFFG = 0.1E-02   stopping-criterion for IOM
   NSW    =   1000    number of steps for IOM
   NBLOCK =      1;   KBLOCK =   1000    inner block; outer block 
   IBRION =      2    ionic relax: 0-MD 1-quasi-New 2-CG
   NFREE  =      1    steps in history (QN), initial steepest desc. (CG)
   ISIF   =      2    stress and relaxation
   IWAVPR =     11    prediction:  0-non 1-charg 2-wave 3-comb
   ISYM   =      2    0-nonsym 1-usesym 2-fastsym
   LCORR  =      T    Harris-Foulkes like correction to forces

   POTIM  = 0.1000    time-step for ionic-motion
   TEIN   =    0.0    initial temperature
   TEBEG  =    0.0;   TEEND  =   0.0 temperature during run
   SMASS  =  -3.00    Nose mass-parameter (am)
   estimated Nose-frequenzy (Omega)   =  0.10E-29 period in steps =****** mass=  -0.130E-25a.u.
   SCALEE = 1.0000    scale energy and forces
   NPACO  =    256;   APACO  = 16.0  distance and # of slots for P.C.
   PSTRESS=    0.0 pullay stress

  Mass of Ions in am
   POMASS = 107.87
  Ionic Valenz
   ZVAL   =  11.00
  Atomic Wigner-Seitz radii
   RWIGS  =  -1.00
  virtual crystal weights 
   VCA    =   1.00
   NELECT =     330.0000    total number of electrons
   NUPDOWN=      -1.0000    fix difference up-down

 DOS related values:
   EMIN   =  10.00;   EMAX   =-10.00  energy-range for DOS
   EFERMI =   0.00
   ISMEAR =     0;   SIGMA  =   0.00  broadening in eV -4-tet -1-fermi 0-gaus

 Electronic relaxation 2 (details)
   IALGO  =     38    algorithm
   LDIAG  =      T    sub-space diagonalisation (order eigenvalues)
   LSUBROT=      F    optimize rotation matrix (better conditioning)
   TURBO    =      0    0=normal 1=particle mesh
   IRESTART =      0    0=no restart 2=restart with 2 vectors
   NREBOOT  =      0    no. of reboots
   NMIN     =      0    reboot dimension
   EREF     =   0.00    reference energy to select bands
   IMIX   =      4    mixing-type and parameters
     AMIX     =   0.40;   BMIX     =  1.00
     AMIX_MAG =   1.60;   BMIX_MAG =  1.00
     AMIN     =   0.10
     WC   =   100.;   INIMIX=   1;  MIXPRE=   1;  MAXMIX= -45

 Intra band minimization:
   WEIMIN = 0.0010     energy-eigenvalue tresh-hold
   EBREAK =  0.12E-06  absolut break condition
   DEPER  =   0.30     relativ break condition  

   TIME   =   0.40     timestep for ELM

  volume/ion in A,a.u.               =     454.33      3065.95
  Fermi-wavevector in a.u.,A,eV,Ry     =   0.473605  0.894983  3.051807  0.224301
  Thomas-Fermi vector in A             =   1.467445
 
 Write flags
   LWAVE  =      F    write WAVECAR
   LCHARG =      F    write CHGCAR
   LVTOT  =      F    write LOCPOT, total local potential
   LVHAR  =      F    write LOCPOT, Hartree potential only
   LELF   =      F    write electronic localiz. function (ELF)
   LORBIT =      0    0 simple, 1 ext, 2 COOP (PROOUT)


 Dipole corrections
   LMONO  =      F    monopole corrections only (constant potential shift)
   LDIPOL =      F    correct potential (dipole corrections)
   IDIPOL =      0    1-x, 2-y, 3-z, 4-all directions 
   EPSILON=  1.0000000 bulk dielectric constant

 Exchange correlation treatment:
   GGA     =    PE    GGA type
   LEXCH   =     8    internal setting for exchange type
   VOSKOWN=      0    Vosko Wilk Nusair interpolation
   LHFCALC =     F    Hartree Fock is set to
   LHFONE  =     F    Hartree Fock one center treatment
   AEXX    =    0.0000 exact exchange contribution

 Linear response parameters
   LEPSILON=     F    determine dielectric tensor
   LRPA    =     F    only Hartree local field effects (RPA)
   LNABLA  =     F    use nabla operator in PAW spheres
   LVEL    =     F    velocity operator in full k-point grid
   LINTERFAST=   F  fast interpolation
   KINTER  =     0    interpolate to denser k-point grid
   CSHIFT  =0.1000    complex shift for real part using Kramers Kronig
   OMEGAMAX=  -1.0    maximum frequency
   DEG_THRESHOLD= 0.2000000E-02 threshold for treating states as degnerate
   RTIME   =    0.100 relaxation time in fs

 Orbital magnetization related:
   ORBITALMAG=     F  switch on orbital magnetization
   LCHIMAG   =     F  perturbation theory with respect to B field
   DQ        =  0.001000  dq finite difference perturbation B field



--------------------------------------------------------------------------------------------------------


 conjugate gradient relaxation of ions
 charge density and potential will be updated during run
 spin polarized calculation
 Variant of blocked Davidson
 Davidson routine will perform the subspace rotation
 perform sub-space diagonalisation
    after iterative eigenvector-optimisation
 modified Broyden-mixing scheme, WC =      100.0
 initial mixing is a Kerker type mixing with AMIX =  0.4000 and BMIX =      1.0000
 Hartree-type preconditioning will be used
 using additional bands           51
 reciprocal scheme for non local part
 use partial core corrections
 calculate Harris-corrections to forces 
   (improved forces if not selfconsistent)
 use gradient corrections 
 use of overlap-Matrix (Vanderbilt PP)
 Gauss-broadening in eV      SIGMA  =   0.00


--------------------------------------------------------------------------------------------------------


  energy-cutoff  :      249.84
  volume of cell :    13629.82
      direct lattice vectors                 reciprocal lattice vectors
    23.887098056  0.000000000  0.000000000     0.041863603  0.000000000  0.000000000
     0.000000000 23.887098056  0.000000000     0.000000000  0.041863603  0.000000000
     0.000000000  0.000000000 23.887098056     0.000000000  0.000000000  0.041863603

  length of vectors
    23.887098056 23.887098056 23.887098056     0.041863603  0.041863603  0.041863603


 
 k-points in units of 2pi/SCALE and weight: Gamma-point only                        
   0.00000000  0.00000000  0.00000000       1.000
 
 k-points in reciprocal lattice and weights: Gamma-point only                        
   0.00000000  0.00000000  0.00000000       1.000
 
 position of ions in fractional coordinates (direct lattice) 
   0.58955593  0.42033297  0.55820850
   0.66009605  0.50475015  0.52990394
   0.57125732  0.52360475  0.60598763
   0.64849143  0.56443001  0.42475981
   0.55922305  0.62978114  0.64861668
   0.53568662  0.37154974  0.46611227
   0.48922164  0.54805408  0.68917555
   0.50432146  0.43759363  0.64589392
   0.50113827  0.34831793  0.57589204
   0.40225165  0.51614888  0.61515339
   0.55791188  0.55781903  0.49594743
   0.54524734  0.41185584  0.35212803
   0.39688508  0.40517296  0.60512478
   0.48558251  0.46887392  0.53393776
   0.64125460  0.61073244  0.56558384
   0.47578693  0.59018538  0.57432221
   0.41312161  0.37306254  0.49575684
   0.54013017  0.68109751  0.54942741
   0.37317209  0.48033768  0.50234357
   0.47572238  0.27367384  0.48926689
   0.36551428  0.59424450  0.53347231
   0.52973925  0.74148560  0.44890541
   0.60574351  0.45687232  0.44166499
   0.62215855  0.66784429  0.46628156
   0.45547458  0.45113160  0.41940201
   0.44847457  0.55715849  0.45533438
   0.44280446  0.66669868  0.48789088
   0.45451876  0.33966300  0.39015285
   0.53583488  0.52615766  0.37761979
   0.52472686  0.63348318  0.40763733
 
 position of ions in cartesian coordinates  (Angst):
  14.08278042 10.04053486 13.33398106
  15.76777910 12.05701635 12.65786739
  13.64567970 12.50739795 14.47528606
  15.49057834 13.48259493 10.14627912
  13.35821591 15.04364378 15.49357020
  12.79599883  8.87524515 11.13406940
  11.68608535 13.09142153 16.46240397
  12.04677611 10.45284200 15.42853148
  11.97073908  8.32030446 13.75638974
   9.60862471 12.32929902 14.69422942
  13.32689576 13.32467782 11.84674493
  13.02437656  9.83804093  8.41131685
   9.48043286  9.67840620 14.45467490
  11.59915692 11.20003742 12.75422351
  15.31771155 14.58862565 13.51015672
  11.36516904 14.09781593 13.71889105
   9.86827647  8.91138146 11.84219224
  12.90214241 16.26944309 13.12422631
   8.91399823 11.47387335 11.99953011
  11.36362720  6.53727385 11.68716619
   8.73107548 14.19477670 12.74310546
  12.65393330 17.71193923 10.72304760
  14.46945470 10.91335385 10.55009501
  14.86156230 15.95286205 11.13811339
  10.87996587 10.77622488 10.01829696
  10.71275601 13.30889937 10.87661708
  10.57731347 15.92549670 11.65429741
  10.85713428  8.11356327  9.31961938
  12.79954032 12.56837958  9.02024104
  12.53420204 15.13207487  9.73727286
 


--------------------------------------------------------------------------------------------------------


 use parallel FFT for wavefunctions z direction half grid
 k-point  1 :   0.0000 0.0000 0.0000  plane waves:   61089

 maximum and minimum number of plane-waves per node :      7646     7627

 maximum number of plane-waves:     61089
 maximum index in each direction: 
   IXMAX=   30   IYMAX=   30   IZMAX=   30
   IXMIN=  -30   IYMIN=  -30   IZMIN=    0

 WARNING: aliasing errors must be expected set NGX to 122 to avoid them
 WARNING: aliasing errors must be expected set NGY to 122 to avoid them
 WARNING: aliasing errors must be expected set NGZ to 122 to avoid them
 aliasing errors are usually negligible using standard VASP settings
 and one can safely disregard these warnings

 parallel 3D FFT for wavefunctions:
    minimum data exchange during FFTs selected (reduces bandwidth)
 parallel 3D FFT for charge:
    minimum data exchange during FFTs selected (reduces bandwidth)


 total amount of memory used by VASP on root node    82883. kBytes
========================================================================

   base      :      30000. kBytes
   nonl-proj :       4762. kBytes
   fftplans  :       9871. kBytes
   grid      :      24938. kBytes
   one-center:         62. kBytes
   wavefun   :      13250. kBytes
 
     INWAV:  cpu time    0.00: real time    0.00
 Broyden mixing: mesh for mixing (old mesh)
   NGX = 61   NGY = 61   NGZ = 61
  (NGX  =192   NGY  =192   NGZ  =192)
  gives a total of 226981 points

 initial charge density was supplied:
 charge density of overlapping atoms calculated
 number of electron     330.0000000 magnetization      30.0000000
 keeping initial charge density in first step


--------------------------------------------------------------------------------------------------------


 Maximum index for augmentation-charges          259 (set IRDMAX)


--------------------------------------------------------------------------------------------------------


 First call to EWALD:  gamma=   0.074
 Maximum number of real-space cells 3x 3x 3
 Maximum number of reciprocal cells 3x 3x 3

 FEWALD executed in parallel
    FEWALD:  cpu time    0.00: real time    0.00


----------------------------------------- Iteration    1(   1)  ---------------------------------------


    POTLOK:  cpu time    0.41: real time    0.41
    SETDIJ:  cpu time    0.01: real time    0.01
     EDDAV:  cpu time    6.02: real time    6.02
       DOS:  cpu time    0.00: real time    0.00
    --------------------------------------------
      LOOP:  cpu time    6.44: real time    6.46

 eigenvalue-minimisations  :   880
 total energy-change (2. order) : 0.2943337E+04  (-0.5630005E+04)
 number of electron     330.0000000 magnetization      30.0000000
 augmentation part      330.0000000 magnetization      30.0000000

 Free energy of the ion-electron system (eV)
  ---------------------------------------------------
  alpha Z        PSCENC =        56.16509700
  Ewald energy   TEWEN  =     75087.31796977
  -Hartree energ DENC   =   -104859.87477021
  -exchange      EXHF   =         0.00000000
  -V(xc)+E(xc)   XCENC  =      -328.23674608
  PAW double counting   =     30101.16534209   -28717.93826637
  entropy T*S    EENTRO =         0.00000000
  eigenvalues    EBANDS =       488.77952815
  atomic energy  EATOM  =     31115.95890259
  ---------------------------------------------------
  free energy    TOTEN  =      2943.33705696 eV

  energy without entropy =     2943.33705696  energy(sigma->0) =     2943.33705696


--------------------------------------------------------------------------------------------------------




----------------------------------------- Iteration    1(   2)  ---------------------------------------


     EDDAV:  cpu time    9.47: real time    9.48
       DOS:  cpu time    0.00: real time    0.00
    --------------------------------------------
      LOOP:  cpu time    9.48: real time    9.53

 eigenvalue-minimisations  :  1544
 total energy-change (2. order) :-0.2139574E+04  (-0.1892462E+04)
 number of electron     330.0000000 magnetization      30.0000000
 augmentation part      330.0000000 magnetization      30.0000000

 Free energy of the ion-electron system (eV)
  ---------------------------------------------------
  alpha Z        PSCENC =        56.16509700
  Ewald energy   TEWEN  =     75087.31796977
  -Hartree energ DENC   =   -104859.87477021
  -exchange      EXHF   =         0.00000000
  -V(xc)+E(xc)   XCENC  =      -328.23674608
  PAW double counting   =     30101.16534209   -28717.93826637
  entropy T*S    EENTRO =         0.00000000
  eigenvalues    EBANDS =     -1650.79486872
  atomic energy  EATOM  =     31115.95890259
  ---------------------------------------------------
  free energy    TOTEN  =       803.76266009 eV

  energy without entropy =      803.76266009  energy(sigma->0) =      803.76266009


--------------------------------------------------------------------------------------------------------




----------------------------------------- Iteration    1(   3)  ---------------------------------------


     EDDAV:  cpu time    7.59: real time    7.59
       DOS:  cpu time    0.00: real time    0.00
    --------------------------------------------
      LOOP:  cpu time    7.59: real time    7.60

 eigenvalue-minimisations  :  1176
 total energy-change (2. order) :-0.8088487E+03  (-0.7420423E+03)
 number of electron     330.0000000 magnetization      30.0000000
 augmentation part      330.0000000 magnetization      30.0000000

 Free energy of the ion-electron system (eV)
  ---------------------------------------------------
  alpha Z        PSCENC =        56.16509700
  Ewald energy   TEWEN  =     75087.31796977
  -Hartree energ DENC   =   -104859.87477021
  -exchange      EXHF   =         0.00000000
  -V(xc)+E(xc)   XCENC  =      -328.23674608
  PAW double counting   =     30101.16534209   -28717.93826637
  entropy T*S    EENTRO =         0.00000000
  eigenvalues    EBANDS =     -2459.64352716
  atomic energy  EATOM  =     31115.95890259
  ---------------------------------------------------
  free energy    TOTEN  =        -5.08599835 eV

  energy without entropy =       -5.08599835  energy(sigma->0) =       -5.08599835


--------------------------------------------------------------------------------------------------------




----------------------------------------- Iteration    1(   4)  ---------------------------------------


     EDDAV:  cpu time    6.48: real time    6.48
       DOS:  cpu time    0.00: real time    0.00
    --------------------------------------------
      LOOP:  cpu time    6.48: real time    6.48

 eigenvalue-minimisations  :   960
 total energy-change (2. order) :-0.5676473E+02  (-0.5558253E+02)
 number of electron     330.0000000 magnetization      30.0000000
 augmentation part      330.0000000 magnetization      30.0000000

 Free energy of the ion-electron system (eV)
  ---------------------------------------------------
  alpha Z        PSCENC =        56.16509700
  Ewald energy   TEWEN  =     75087.31796977
  -Hartree energ DENC   =   -104859.87477021
  -exchange      EXHF   =         0.00000000
  -V(xc)+E(xc)   XCENC  =      -328.23674608
  PAW double counting   =     30101.16534209   -28717.93826637
  entropy T*S    EENTRO =        -0.00000000
  eigenvalues    EBANDS =     -2516.40826195
  atomic energy  EATOM  =     31115.95890259
  ---------------------------------------------------
  free energy    TOTEN  =       -61.85073315 eV

  energy without entropy =      -61.85073315  energy(sigma->0) =      -61.85073315


--------------------------------------------------------------------------------------------------------




----------------------------------------- Iteration    1(   5)  ---------------------------------------


     EDDAV:  cpu time    6.70: real time    6.70
       DOS:  cpu time    0.00: real time    0.00
    CHARGE:  cpu time    0.24: real time    0.24
    MIXING:  cpu time    0.01: real time    0.01
    --------------------------------------------
      LOOP:  cpu time    6.95: real time    6.96

 eigenvalue-minimisations  :  1000
 total energy-change (2. order) :-0.8881949E+00  (-0.8865135E+00)
 number of electron     329.9999863 magnetization      27.1009430
 augmentation part      154.9507013 magnetization      25.8193200

 Broyden mixing:
  rms(total) = 0.31626E+01    rms(broyden)= 0.31621E+01
  rms(prec ) = 0.32079E+01
  weight for this iteration     100.00

 Free energy of the ion-electron system (eV)
  ---------------------------------------------------
  alpha Z        PSCENC =        56.16509700
  Ewald energy   TEWEN  =     75087.31796977
  -Hartree energ DENC   =   -104859.87477021
  -exchange      EXHF   =         0.00000000
  -V(xc)+E(xc)   XCENC  =      -328.23674608
  PAW double counting   =     30101.16534209   -28717.93826637
  entropy T*S    EENTRO =         0.00000000
  eigenvalues    EBANDS =     -2517.29645683
  atomic energy  EATOM  =     31115.95890259
  ---------------------------------------------------
  free energy    TOTEN  =       -62.73892802 eV

  energy without entropy =      -62.73892802  energy(sigma->0) =      -62.73892802


--------------------------------------------------------------------------------------------------------




----------------------------------------- Iteration    1(   6)  ---------------------------------------


    POTLOK:  cpu time    0.40: real time    0.40
    SETDIJ:  cpu time    0.01: real time    0.01
     EDDAV:  cpu time    5.96: real time    5.96
       DOS:  cpu time    0.00: real time    0.00
    CHARGE:  cpu time    0.24: real time    0.24
    MIXING:  cpu time    0.01: real time    0.01
    --------------------------------------------
      LOOP:  cpu time    6.62: real time    6.67

 eigenvalue-minimisations  :   864
 total energy-change (2. order) : 0.3923187E+02  (-0.1203819E+02)
 number of electron     329.9999860 magnetization      25.2413930
 augmentation part      158.5894268 magnetization      15.1153868

 Broyden mixing:
  rms(total) = 0.16432E+01    rms(broyden)= 0.16431E+01
  rms(prec ) = 0.16608E+01
  weight for this iteration     100.00

 eigenvalues of (default mixing * dielectric matrix)
  average eigenvalue GAMMA=   0.8542
  0.8542

 Free energy of the ion-electron system (eV)
  ---------------------------------------------------
  alpha Z        PSCENC =        56.16509700
  Ewald energy   TEWEN  =     75087.31796977
  -Hartree energ DENC   =   -104737.61417719
  -exchange      EXHF   =         0.00000000
  -V(xc)+E(xc)   XCENC  =      -309.83202218
  PAW double counting   =     31116.64240783   -29755.77147784
  entropy T*S    EENTRO =         0.00000000
  eigenvalues    EBANDS =     -2596.37375923
  atomic energy  EATOM  =     31115.95890259
  ---------------------------------------------------
  free energy    TOTEN  =       -23.50705924 eV

  energy without entropy =      -23.50705924  energy(sigma->0) =      -23.50705924


--------------------------------------------------------------------------------------------------------




----------------------------------------- Iteration    1(   7)  ---------------------------------------


    POTLOK:  cpu time    0.40: real time    0.41
    SETDIJ:  cpu time    0.01: real time    0.01
     EDDAV:  cpu time    6.30: real time    6.30
       DOS:  cpu time    0.00: real time    0.00
    CHARGE:  cpu time    0.24: real time    0.24
    MIXING:  cpu time    0.01: real time    0.01
    --------------------------------------------
      LOOP:  cpu time    6.97: real time    6.97

 eigenvalue-minimisations  :   928
 total energy-change (2. order) : 0.4956583E+01  (-0.6557730E+00)
 number of electron     329.9999860 magnetization      22.2321797
 augmentation part      158.5419709 magnetization      12.4019302

 Broyden mixing:
  rms(total) = 0.98097E+00    rms(broyden)= 0.98095E+00
  rms(prec ) = 0.98991E+00
  weight for this iteration     100.00

 eigenvalues of (default mixing * dielectric matrix)
  average eigenvalue GAMMA=   1.0292
  0.7664  1.2920

 Free energy of the ion-electron system (eV)
  ---------------------------------------------------
  alpha Z        PSCENC =        56.16509700
  Ewald energy   TEWEN  =     75087.31796977
  -Hartree energ DENC   =   -104803.31226324
  -exchange      EXHF   =         0.00000000
  -V(xc)+E(xc)   XCENC  =      -305.79197267
  PAW double counting   =     31729.62163306   -30382.96389380
  entropy T*S    EENTRO =         0.00000000
  eigenvalues    EBANDS =     -2515.54594926
  atomic energy  EATOM  =     31115.95890259
  ---------------------------------------------------
  free energy    TOTEN  =       -18.55047656 eV

  energy without entropy =      -18.55047656  energy(sigma->0) =      -18.55047656


--------------------------------------------------------------------------------------------------------




----------------------------------------- Iteration    1(   8)  ---------------------------------------


    POTLOK:  cpu time    0.40: real time    0.41
    SETDIJ:  cpu time    0.01: real time    0.01
     EDDAV:  cpu time    6.30: real time    6.30
       DOS:  cpu time    0.00: real time    0.00
    CHARGE:  cpu time    0.24: real time    0.24
    MIXING:  cpu time    0.01: real time    0.01
    --------------------------------------------
      LOOP:  cpu time    6.97: real time    7.01

 eigenvalue-minimisations  :   928
 total energy-change (2. order) : 0.2441156E+00  (-0.1906683E+00)
 number of electron     329.9999859 magnetization      20.2504790
 augmentation part      158.4117452 magnetization      10.5949012

 Broyden mixing:
  rms(total) = 0.52394E+00    rms(broyden)= 0.52393E+00
  rms(prec ) = 0.52667E+00
  weight for this iteration     100.00

 eigenvalues of (default mixing * dielectric matrix)
  average eigenvalue GAMMA=   1.2592
  2.2755  0.8909  0.6113

 Free energy of the ion-electron system (eV)
  ---------------------------------------------------
  alpha Z        PSCENC =        56.16509700
  Ewald energy   TEWEN  =     75087.31796977
  -Hartree energ DENC   =   -104879.47417359
  -exchange      EXHF   =         0.00000000
  -V(xc)+E(xc)   XCENC  =      -305.34703675
  PAW double counting   =     32465.17870252   -31133.76029482
  entropy T*S    EENTRO =        -0.00000000
  eigenvalues    EBANDS =     -2424.34552771
  atomic energy  EATOM  =     31115.95890259
  ---------------------------------------------------
  free energy    TOTEN  =       -18.30636099 eV

  energy without entropy =      -18.30636099  energy(sigma->0) =      -18.30636099


--------------------------------------------------------------------------------------------------------




----------------------------------------- Iteration    1(   9)  ---------------------------------------


    POTLOK:  cpu time    0.41: real time    0.41
    SETDIJ:  cpu time    0.01: real time    0.01
     EDDAV:  cpu time    6.52: real time    6.52
       DOS:  cpu time    0.00: real time    0.00
    CHARGE:  cpu time    0.24: real time    0.24
    MIXING:  cpu time    0.01: real time    0.01
    --------------------------------------------
      LOOP:  cpu time    7.18: real time    7.21

 eigenvalue-minimisations  :   968
 total energy-change (2. order) :-0.2980657E+01  (-0.6898831E-01)
 number of electron     329.9999860 magnetization      18.2197893
 augmentation part      158.3531424 magnetization       8.7203578

 Broyden mixing:
  rms(total) = 0.31512E+00    rms(broyden)= 0.31511E+00
  rms(prec ) = 0.31782E+00
  weight for this iteration     100.00

 eigenvalues of (default mixing * dielectric matrix)
  average eigenvalue GAMMA=   1.2263
  2.3032  0.6175  0.8049  1.1796

 Free energy of the ion-electron system (eV)
  ---------------------------------------------------
  alpha Z        PSCENC =        56.16509700
  Ewald energy   TEWEN  =     75087.31796977
  -Hartree energ DENC   =   -104906.09812885
  -exchange      EXHF   =         0.00000000
  -V(xc)+E(xc)   XCENC  =      -307.47414365
  PAW double counting   =     32715.31341048   -31388.97579809
  entropy T*S    EENTRO =         0.00000000
  eigenvalues    EBANDS =     -2393.49432722
  atomic energy  EATOM  =     31115.95890259
  ---------------------------------------------------
  free energy    TOTEN  =       -21.28701796 eV

  energy without entropy =      -21.28701796  energy(sigma->0) =      -21.28701796


--------------------------------------------------------------------------------------------------------




----------------------------------------- Iteration    1(  10)  ---------------------------------------


    POTLOK:  cpu time    0.40: real time    0.41
    SETDIJ:  cpu time    0.01: real time    0.01
     EDDAV:  cpu time    6.18: real time    6.19
       DOS:  cpu time    0.00: real time    0.00
    CHARGE:  cpu time    0.24: real time    0.24
    MIXING:  cpu time    0.01: real time    0.01
    --------------------------------------------
      LOOP:  cpu time    6.86: real time    6.88

 eigenvalue-minimisations  :   904
 total energy-change (2. order) :-0.8429123E+01  (-0.2174586E+00)
 number of electron     329.9999860 magnetization      16.9940673
 augmentation part      158.3171581 magnetization       9.7482166

 Broyden mixing:
  rms(total) = 0.31234E+00    rms(broyden)= 0.31225E+00
  rms(prec ) = 0.31745E+00
  weight for this iteration     100.00

 eigenvalues of (default mixing * dielectric matrix)
  average eigenvalue GAMMA=   1.0932
  2.3505  1.2874  0.8194  0.6169  0.3918

 Free energy of the ion-electron system (eV)
  ---------------------------------------------------
  alpha Z        PSCENC =        56.16509700
  Ewald energy   TEWEN  =     75087.31796977
  -Hartree energ DENC   =   -104909.74469809
  -exchange      EXHF   =         0.00000000
  -V(xc)+E(xc)   XCENC  =      -313.81561087
  PAW double counting   =     32722.94287317   -31396.83688228
  entropy T*S    EENTRO =         0.00000000
  eigenvalues    EBANDS =     -2391.70379195
  atomic energy  EATOM  =     31115.95890259
  ---------------------------------------------------
  free energy    TOTEN  =       -29.71614065 eV

  energy without entropy =      -29.71614065  energy(sigma->0) =      -29.71614065


--------------------------------------------------------------------------------------------------------




----------------------------------------- Iteration    1(  11)  ---------------------------------------


    POTLOK:  cpu time    0.41: real time    0.41
    SETDIJ:  cpu time    0.01: real time    0.01
     EDDAV:  cpu time    6.43: real time    6.44
       DOS:  cpu time    0.00: real time    0.00
    CHARGE:  cpu time    0.24: real time    0.24
    MIXING:  cpu time    0.01: real time    0.01
    --------------------------------------------
      LOOP:  cpu time    7.10: real time    7.11

 eigenvalue-minimisations  :   952
 total energy-change (2. order) :-0.2679319E+01  (-0.5428133E-01)
 number of electron     329.9999859 magnetization      16.8472235
 augmentation part      158.3007924 magnetization      11.6733893

 Broyden mixing:
  rms(total) = 0.33930E+00    rms(broyden)= 0.33919E+00
  rms(prec ) = 0.34663E+00
  weight for this iteration     100.00

 eigenvalues of (default mixing * dielectric matrix)
  average eigenvalue GAMMA=   0.9451
  2.3672  1.3145  0.8272  0.6189  0.2715  0.2715

 Free energy of the ion-electron system (eV)
  ---------------------------------------------------
  alpha Z        PSCENC =        56.16509700
  Ewald energy   TEWEN  =     75087.31796977
  -Hartree energ DENC   =   -104915.37639994
  -exchange      EXHF   =         0.00000000
  -V(xc)+E(xc)   XCENC  =      -315.62551211
  PAW double counting   =     32736.44548607   -31410.76876724
  entropy T*S    EENTRO =         0.00000000
  eigenvalues    EBANDS =     -2386.51223583
  atomic energy  EATOM  =     31115.95890259
  ---------------------------------------------------
  free energy    TOTEN  =       -32.39545968 eV

  energy without entropy =      -32.39545968  energy(sigma->0) =      -32.39545968


--------------------------------------------------------------------------------------------------------




----------------------------------------- Iteration    1(  12)  ---------------------------------------


    POTLOK:  cpu time    0.41: real time    0.41
    SETDIJ:  cpu time    0.01: real time    0.01
     EDDAV:  cpu time    7.02: real time    7.02
       DOS:  cpu time    0.00: real time    0.00
    CHARGE:  cpu time    0.24: real time    0.24
    MIXING:  cpu time    0.01: real time    0.01
    --------------------------------------------
      LOOP:  cpu time    7.69: real time    7.72

 eigenvalue-minimisations  :  1064
 total energy-change (2. order) :-0.7030562E-01  (-0.2392311E-02)
 number of electron     329.9999859 magnetization      15.5940978
 augmentation part      158.2930043 magnetization      10.4480699

 Broyden mixing:
  rms(total) = 0.33032E+00    rms(broyden)= 0.33031E+00
  rms(prec ) = 0.33722E+00
  weight for this iteration     100.00

 eigenvalues of (default mixing * dielectric matrix)
  average eigenvalue GAMMA=   0.9577
  2.3576  1.3748  0.7947  0.5244  0.5244  0.6134  0.5146

 Free energy of the ion-electron system (eV)
  ---------------------------------------------------
  alpha Z        PSCENC =        56.16509700
  Ewald energy   TEWEN  =     75087.31796977
  -Hartree energ DENC   =   -104916.37890717
  -exchange      EXHF   =         0.00000000
  -V(xc)+E(xc)   XCENC  =      -315.60862917
  PAW double counting   =     32738.05568885   -31412.43644935
  entropy T*S    EENTRO =         0.00000000
  eigenvalues    EBANDS =     -2385.53943782
  atomic energy  EATOM  =     31115.95890259
  ---------------------------------------------------
  free energy    TOTEN  =       -32.46576530 eV

  energy without entropy =      -32.46576530  energy(sigma->0) =      -32.46576530


--------------------------------------------------------------------------------------------------------




----------------------------------------- Iteration    1(  13)  ---------------------------------------


    POTLOK:  cpu time    0.40: real time    0.41
    SETDIJ:  cpu time    0.01: real time    0.01
     EDDAV:  cpu time    6.14: real time    6.15
       DOS:  cpu time    0.00: real time    0.00
    CHARGE:  cpu time    0.24: real time    0.24
    MIXING:  cpu time    0.02: real time    0.01
    --------------------------------------------
      LOOP:  cpu time    6.82: real time    6.82

 eigenvalue-minimisations  :   896
 total energy-change (2. order) :-0.2970880E+01  (-0.5439890E-01)
 number of electron     329.9999859 magnetization       9.9316991
 augmentation part      158.2743496 magnetization       4.9372372

 Broyden mixing:
  rms(total) = 0.28151E+00    rms(broyden)= 0.28151E+00
  rms(prec ) = 0.28567E+00
  weight for this iteration     100.00

 eigenvalues of (default mixing * dielectric matrix)
  average eigenvalue GAMMA=   1.2083
  3.1125  2.2166  1.1682  0.9775  0.5296  0.5296  0.6560  0.4769

 Free energy of the ion-electron system (eV)
  ---------------------------------------------------
  alpha Z        PSCENC =        56.16509700
  Ewald energy   TEWEN  =     75087.31796977
  -Hartree energ DENC   =   -104921.10002592
  -exchange      EXHF   =         0.00000000
  -V(xc)+E(xc)   XCENC  =      -317.70307147
  PAW double counting   =     32702.88598580   -31377.39602932
  entropy T*S    EENTRO =        -0.00000000
  eigenvalues    EBANDS =     -2381.56547366
  atomic energy  EATOM  =     31115.95890259
  ---------------------------------------------------
  free energy    TOTEN  =       -35.43664521 eV

  energy without entropy =      -35.43664521  energy(sigma->0) =      -35.43664521


--------------------------------------------------------------------------------------------------------




----------------------------------------- Iteration    1(  14)  ---------------------------------------


    POTLOK:  cpu time    0.40: real time    0.41
    SETDIJ:  cpu time    0.01: real time    0.01
     EDDAV:  cpu time    6.10: real time    6.11
       DOS:  cpu time    0.00: real time    0.00
    CHARGE:  cpu time    0.24: real time    0.24
    MIXING:  cpu time    0.02: real time    0.02
    --------------------------------------------
      LOOP:  cpu time    6.78: real time    6.79

 eigenvalue-minimisations  :   888
 total energy-change (2. order) :-0.1229556E+02  (-0.8080184E+00)
 number of electron     329.9999859 magnetization       8.8488910
 augmentation part      158.2720427 magnetization       6.3624374

 Broyden mixing:
  rms(total) = 0.22772E+00    rms(broyden)= 0.22754E+00
  rms(prec ) = 0.24491E+00
  weight for this iteration     100.00

 eigenvalues of (default mixing * dielectric matrix)
  average eigenvalue GAMMA=   1.2167
  4.1065  2.1669  0.9829  0.9829  0.5456  0.5456  0.6577  0.4812  0.4812

 Free energy of the ion-electron system (eV)
  ---------------------------------------------------
  alpha Z        PSCENC =        56.16509700
  Ewald energy   TEWEN  =     75087.31796977
  -Hartree energ DENC   =   -104937.22861337
  -exchange      EXHF   =         0.00000000
  -V(xc)+E(xc)   XCENC  =      -326.57270981
  PAW double counting   =     32596.53431352   -31271.57796840
  entropy T*S    EENTRO =         0.00000000
  eigenvalues    EBANDS =     -2368.32920022
  atomic energy  EATOM  =     31115.95890259
  ---------------------------------------------------
  free energy    TOTEN  =       -47.73220892 eV

  energy without entropy =      -47.73220892  energy(sigma->0) =      -47.73220892


--------------------------------------------------------------------------------------------------------




----------------------------------------- Iteration    1(  15)  ---------------------------------------


    POTLOK:  cpu time    0.41: real time    0.41
    SETDIJ:  cpu time    0.01: real time    0.01
     EDDAV:  cpu time    6.70: real time    6.70
       DOS:  cpu time    0.00: real time    0.00
    CHARGE:  cpu time    0.24: real time    0.24
    MIXING:  cpu time    0.02: real time    0.02
    --------------------------------------------
      LOOP:  cpu time    7.37: real time    7.38

 eigenvalue-minimisations  :  1000
 total energy-change (2. order) :-0.1440617E+01  (-0.3929313E-01)
 number of electron     329.9999859 magnetization       7.6927746
 augmentation part      158.2428660 magnetization       5.3348014

 Broyden mixing:
  rms(total) = 0.18516E+00    rms(broyden)= 0.18514E+00
  rms(prec ) = 0.19933E+00
  weight for this iteration     100.00

 eigenvalues of (default mixing * dielectric matrix)
  average eigenvalue GAMMA=   1.2894
  4.9905  2.2506  1.1453  0.7638  0.7638  0.9099  0.6378  0.4827  0.4827  0.4667

 Free energy of the ion-electron system (eV)
  ---------------------------------------------------
  alpha Z        PSCENC =        56.16509700
  Ewald energy   TEWEN  =     75087.31796977
  -Hartree energ DENC   =   -104940.85005407
  -exchange      EXHF   =         0.00000000
  -V(xc)+E(xc)   XCENC  =      -327.62442627
  PAW double counting   =     32601.80334579   -31276.99613878
  entropy T*S    EENTRO =         0.00000000
  eigenvalues    EBANDS =     -2364.94752175
  atomic energy  EATOM  =     31115.95890259
  ---------------------------------------------------
  free energy    TOTEN  =       -49.17282571 eV

  energy without entropy =      -49.17282571  energy(sigma->0) =      -49.17282571


--------------------------------------------------------------------------------------------------------




----------------------------------------- Iteration    1(  16)  ---------------------------------------


    POTLOK:  cpu time    0.41: real time    0.41
    SETDIJ:  cpu time    0.01: real time    0.01
     EDDAV:  cpu time    6.24: real time    6.24
       DOS:  cpu time    0.00: real time    0.00
    CHARGE:  cpu time    0.24: real time    0.24
    MIXING:  cpu time    0.02: real time    0.02
    --------------------------------------------
      LOOP:  cpu time    6.92: real time    6.92

 eigenvalue-minimisations  :   912
 total energy-change (2. order) :-0.2618361E+01  (-0.4812032E-01)
 number of electron     329.9999859 magnetization       6.1787929
 augmentation part      158.2387544 magnetization       3.9203450

 Broyden mixing:
  rms(total) = 0.15371E+00    rms(broyden)= 0.15371E+00
  rms(prec ) = 0.16421E+00
  weight for this iteration     100.00

 eigenvalues of (default mixing * dielectric matrix)
  average eigenvalue GAMMA=   1.3945
  5.8093  2.3596  1.1211  1.1211  1.0463  1.0463  0.5103  0.5103  0.6934  0.6077
  0.5144

 Free energy of the ion-electron system (eV)
  ---------------------------------------------------
  alpha Z        PSCENC =        56.16509700
  Ewald energy   TEWEN  =     75087.31796977
  -Hartree energ DENC   =   -104936.72153395
  -exchange      EXHF   =         0.00000000
  -V(xc)+E(xc)   XCENC  =      -329.76737389
  PAW double counting   =     32580.84619801   -31255.59462121
  entropy T*S    EENTRO =         0.00000000
  eigenvalues    EBANDS =     -2369.99582459
  atomic energy  EATOM  =     31115.95890259
  ---------------------------------------------------
  free energy    TOTEN  =       -51.79118627 eV

  energy without entropy =      -51.79118627  energy(sigma->0) =      -51.79118627


--------------------------------------------------------------------------------------------------------




----------------------------------------- Iteration    1(  17)  ---------------------------------------


    POTLOK:  cpu time    0.41: real time    0.41
    SETDIJ:  cpu time    0.01: real time    0.01
     EDDAV:  cpu time    6.12: real time    6.12
       DOS:  cpu time    0.00: real time    0.00
    CHARGE:  cpu time    0.24: real time    0.24
    MIXING:  cpu time    0.02: real time    0.02
    --------------------------------------------
      LOOP:  cpu time    6.79: real time    6.82

 eigenvalue-minimisations  :   888
 total energy-change (2. order) :-0.4502994E+01  (-0.1209003E+00)
 number of electron     329.9999860 magnetization       5.6473331
 augmentation part      158.2342693 magnetization       5.4101186

 Broyden mixing:
  rms(total) = 0.17290E+00    rms(broyden)= 0.17276E+00
  rms(prec ) = 0.18381E+00
  weight for this iteration     100.00

 eigenvalues of (default mixing * dielectric matrix)
  average eigenvalue GAMMA=   1.3215
  6.1207  2.3558  1.1103  1.1103  1.0736  1.0736  0.5078  0.5078  0.6811  0.6222
  0.5103  0.1840

 Free energy of the ion-electron system (eV)
  ---------------------------------------------------
  alpha Z        PSCENC =        56.16509700
  Ewald energy   TEWEN  =     75087.31796977
  -Hartree energ DENC   =   -104914.70567151
  -exchange      EXHF   =         0.00000000
  -V(xc)+E(xc)   XCENC  =      -333.74039907
  PAW double counting   =     32569.64763339   -31243.42182817
  entropy T*S    EENTRO =         0.00000000
  eigenvalues    EBANDS =     -2393.51588424
  atomic energy  EATOM  =     31115.95890259
  ---------------------------------------------------
  free energy    TOTEN  =       -56.29418024 eV

  energy without entropy =      -56.29418024  energy(sigma->0) =      -56.29418024


--------------------------------------------------------------------------------------------------------




----------------------------------------- Iteration    1(  18)  ---------------------------------------


    POTLOK:  cpu time    0.41: real time    0.41
    SETDIJ:  cpu time    0.01: real time    0.01
     EDDAV:  cpu time    6.53: real time    6.54
       DOS:  cpu time    0.00: real time    0.00
    CHARGE:  cpu time    0.24: real time    0.24
    MIXING:  cpu time    0.02: real time    0.02
    --------------------------------------------
      LOOP:  cpu time    7.21: real time    7.24

 eigenvalue-minimisations  :   968
 total energy-change (2. order) :-0.2944836E+00  (-0.4626821E-02)
 number of electron     329.9999860 magnetization       4.6451911
 augmentation part      158.2395051 magnetization       4.4510850

 Broyden mixing:
  rms(total) = 0.15222E+00    rms(broyden)= 0.15222E+00
  rms(prec ) = 0.16272E+00
  weight for this iteration     100.00

 eigenvalues of (default mixing * dielectric matrix)
  average eigenvalue GAMMA=   1.3610
  7.0258  2.2606  1.1754  1.1754  1.0742  1.0742  0.6550  0.5463  0.5463  0.5695
  0.5695  0.5105  0.5105

 Free energy of the ion-electron system (eV)
  ---------------------------------------------------
  alpha Z        PSCENC =        56.16509700
  Ewald energy   TEWEN  =     75087.31796977
  -Hartree energ DENC   =   -104912.42715684
  -exchange      EXHF   =         0.00000000
  -V(xc)+E(xc)   XCENC  =      -334.01888475
  PAW double counting   =     32565.55750504   -31239.30369516
  entropy T*S    EENTRO =         0.00000000
  eigenvalues    EBANDS =     -2395.83840145
  atomic energy  EATOM  =     31115.95890259
  ---------------------------------------------------
  free energy    TOTEN  =       -56.58866380 eV

  energy without entropy =      -56.58866380  energy(sigma->0) =      -56.58866380


--------------------------------------------------------------------------------------------------------




----------------------------------------- Iteration    1(  19)  ---------------------------------------


    POTLOK:  cpu time    0.41: real time    0.41
    SETDIJ:  cpu time    0.01: real time    0.01
     EDDAV:  cpu time    6.24: real time    6.25
       DOS:  cpu time    0.00: real time    0.00
    CHARGE:  cpu time    0.24: real time    0.24
    MIXING:  cpu time    0.02: real time    0.02
    --------------------------------------------
      LOOP:  cpu time    6.92: real time    6.95

 eigenvalue-minimisations  :   912
 total energy-change (2. order) :-0.7379209E+00  (-0.7812598E-02)
 number of electron     329.9999860 magnetization       2.4737497
 augmentation part      158.2464068 magnetization       2.3360296

 Broyden mixing:
  rms(total) = 0.12228E+00    rms(broyden)= 0.12228E+00
  rms(prec ) = 0.13126E+00
  weight for this iteration     100.00

 eigenvalues of (default mixing * dielectric matrix)
  average eigenvalue GAMMA=   1.4673
  7.9887  2.0687  1.6680  1.6680  0.9388  0.9388  0.9981  0.9981  0.5004  0.5004
  0.6268  0.6268  0.5105  0.5105

 Free energy of the ion-electron system (eV)
  ---------------------------------------------------
  alpha Z        PSCENC =        56.16509700
  Ewald energy   TEWEN  =     75087.31796977
  -Hartree energ DENC   =   -104907.90183515
  -exchange      EXHF   =         0.00000000
  -V(xc)+E(xc)   XCENC  =      -334.69856538
  PAW double counting   =     32564.42865890   -31238.15013057
  entropy T*S    EENTRO =         0.00000000
  eigenvalues    EBANDS =     -2400.44668185
  atomic energy  EATOM  =     31115.95890259
  ---------------------------------------------------
  free energy    TOTEN  =       -57.32658470 eV

  energy without entropy =      -57.32658470  energy(sigma->0) =      -57.32658470


--------------------------------------------------------------------------------------------------------




----------------------------------------- Iteration    1(  20)  ---------------------------------------


    POTLOK:  cpu time    0.41: real time    0.41
    SETDIJ:  cpu time    0.01: real time    0.01
     EDDAV:  cpu time    6.08: real time    6.08
       DOS:  cpu time    0.00: real time    0.00
    CHARGE:  cpu time    0.24: real time    0.24
    MIXING:  cpu time    0.02: real time    0.02
    --------------------------------------------
      LOOP:  cpu time    6.76: real time    6.79

 eigenvalue-minimisations  :   880
 total energy-change (2. order) :-0.1706056E+01  (-0.4090636E-01)
 number of electron     329.9999860 magnetization       1.0387281
 augmentation part      158.2329260 magnetization       0.9809512

 Broyden mixing:
  rms(total) = 0.58500E-01    rms(broyden)= 0.58481E-01
  rms(prec ) = 0.62111E-01
  weight for this iteration     100.00

 eigenvalues of (default mixing * dielectric matrix)
  average eigenvalue GAMMA=   1.6285
 10.1806  2.5341  1.8950  1.8950  1.0801  1.0801  0.8311  0.8311  0.8468  0.4981
  0.4981  0.6250  0.6250  0.5039  0.5039

 Free energy of the ion-electron system (eV)
  ---------------------------------------------------
  alpha Z        PSCENC =        56.16509700
  Ewald energy   TEWEN  =     75087.31796977
  -Hartree energ DENC   =   -104886.39028261
  -exchange      EXHF   =         0.00000000
  -V(xc)+E(xc)   XCENC  =      -336.41433825
  PAW double counting   =     32571.29880088   -31244.67428631
  entropy T*S    EENTRO =         0.00000000
  eigenvalues    EBANDS =     -2422.29450378
  atomic energy  EATOM  =     31115.95890259
  ---------------------------------------------------
  free energy    TOTEN  =       -59.03264071 eV

  energy without entropy =      -59.03264071  energy(sigma->0) =      -59.03264071


--------------------------------------------------------------------------------------------------------




----------------------------------------- Iteration    1(  21)  ---------------------------------------


    POTLOK:  cpu time    0.41: real time    0.41
    SETDIJ:  cpu time    0.01: real time    0.01
     EDDAV:  cpu time    6.14: real time    6.14
       DOS:  cpu time    0.00: real time    0.00
    CHARGE:  cpu time    0.24: real time    0.24
    MIXING:  cpu time    0.02: real time    0.02
    --------------------------------------------
      LOOP:  cpu time    6.82: real time    6.84

 eigenvalue-minimisations  :   888
 total energy-change (2. order) :-0.1222053E+01  (-0.1539991E-01)
 number of electron     329.9999860 magnetization       1.0194545
 augmentation part      158.2726072 magnetization       1.0294707

 Broyden mixing:
  rms(total) = 0.55634E-01    rms(broyden)= 0.55619E-01
  rms(prec ) = 0.59395E-01
  weight for this iteration     100.00

 eigenvalues of (default mixing * dielectric matrix)
  average eigenvalue GAMMA=   1.6197
 10.3391  2.5402  2.5402  1.3471  1.3471  1.2445  0.8875  0.8875  0.8966  0.4982
  0.4982  0.6262  0.6262  0.6281  0.5044  0.5044

 Free energy of the ion-electron system (eV)
  ---------------------------------------------------
  alpha Z        PSCENC =        56.16509700
  Ewald energy   TEWEN  =     75087.31796977
  -Hartree energ DENC   =   -104868.68610475
  -exchange      EXHF   =         0.00000000
  -V(xc)+E(xc)   XCENC  =      -337.75690841
  PAW double counting   =     32555.44770699   -31228.40034212
  entropy T*S    EENTRO =         0.00000000
  eigenvalues    EBANDS =     -2440.30101512
  atomic energy  EATOM  =     31115.95890259
  ---------------------------------------------------
  free energy    TOTEN  =       -60.25469405 eV

  energy without entropy =      -60.25469405  energy(sigma->0) =      -60.25469405


--------------------------------------------------------------------------------------------------------




----------------------------------------- Iteration    1(  22)  ---------------------------------------


    POTLOK:  cpu time    0.41: real time    0.41
    SETDIJ:  cpu time    0.01: real time    0.01
     EDDAV:  cpu time    6.38: real time    6.38
       DOS:  cpu time    0.00: real time    0.00
    CHARGE:  cpu time    0.24: real time    0.24
    MIXING:  cpu time    0.02: real time    0.02
    --------------------------------------------
      LOOP:  cpu time    7.06: real time    7.11

 eigenvalue-minimisations  :   936
 total energy-change (2. order) :-0.4438363E+00  (-0.1597523E-02)
 number of electron     329.9999860 magnetization       0.4462886
 augmentation part      158.2654410 magnetization       0.4426455

 Broyden mixing:
  rms(total) = 0.37429E-01    rms(broyden)= 0.37426E-01
  rms(prec ) = 0.40629E-01
  weight for this iteration     100.00

 eigenvalues of (default mixing * dielectric matrix)
  average eigenvalue GAMMA=   1.6896
 11.0049  3.4286  1.9875  1.7741  1.7741  0.9666  0.9666  1.0822  0.8462  0.8462
  0.4980  0.4980  0.7675  0.6535  0.6066  0.5111  0.5111

 Free energy of the ion-electron system (eV)
  ---------------------------------------------------
  alpha Z        PSCENC =        56.16509700
  Ewald energy   TEWEN  =     75087.31796977
  -Hartree energ DENC   =   -104861.48311439
  -exchange      EXHF   =         0.00000000
  -V(xc)+E(xc)   XCENC  =      -338.24261251
  PAW double counting   =     32561.79996921   -31234.81093580
  entropy T*S    EENTRO =         0.00000000
  eigenvalues    EBANDS =     -2447.40380619
  atomic energy  EATOM  =     31115.95890259
  ---------------------------------------------------
  free energy    TOTEN  =       -60.69853031 eV

  energy without entropy =      -60.69853031  energy(sigma->0) =      -60.69853031


--------------------------------------------------------------------------------------------------------




----------------------------------------- Iteration    1(  23)  ---------------------------------------


    POTLOK:  cpu time    0.41: real time    0.41
    SETDIJ:  cpu time    0.01: real time    0.01
     EDDAV:  cpu time    6.17: real time    6.17
       DOS:  cpu time    0.00: real time    0.00
    CHARGE:  cpu time    0.24: real time    0.24
    MIXING:  cpu time    0.02: real time    0.02
    --------------------------------------------
      LOOP:  cpu time    6.86: real time    6.87

 eigenvalue-minimisations  :   896
 total energy-change (2. order) :-0.7409209E+00  (-0.3536711E-02)
 number of electron     329.9999860 magnetization       0.2847066
 augmentation part      158.2886445 magnetization       0.2940997

 Broyden mixing:
  rms(total) = 0.21177E-01    rms(broyden)= 0.21169E-01
  rms(prec ) = 0.23348E-01
  weight for this iteration     100.00

 eigenvalues of (default mixing * dielectric matrix)
  average eigenvalue GAMMA=   1.7367
 11.6367  4.1302  2.2316  1.8309  1.8309  0.9786  0.9786  0.9425  0.9425  0.9435
  0.9435  0.4981  0.4981  0.5091  0.5091  0.6261  0.6261  0.6052

 Free energy of the ion-electron system (eV)
  ---------------------------------------------------
  alpha Z        PSCENC =        56.16509700
  Ewald energy   TEWEN  =     75087.31796977
  -Hartree energ DENC   =   -104846.31535973
  -exchange      EXHF   =         0.00000000
  -V(xc)+E(xc)   XCENC  =      -339.08724927
  PAW double counting   =     32547.30004138   -31220.10476429
  entropy T*S    EENTRO =         0.00000000
  eigenvalues    EBANDS =     -2462.67408870
  atomic energy  EATOM  =     31115.95890259
  ---------------------------------------------------
  free energy    TOTEN  =       -61.43945124 eV

  energy without entropy =      -61.43945124  energy(sigma->0) =      -61.43945124


--------------------------------------------------------------------------------------------------------




----------------------------------------- Iteration    1(  24)  ---------------------------------------


    POTLOK:  cpu time    0.41: real time    0.41
    SETDIJ:  cpu time    0.01: real time    0.01
     EDDAV:  cpu time    6.51: real time    6.51
       DOS:  cpu time    0.00: real time    0.00
    CHARGE:  cpu time    0.24: real time    0.24
    MIXING:  cpu time    0.03: real time    0.03
    --------------------------------------------
      LOOP:  cpu time    7.20: real time    7.20

 eigenvalue-minimisations  :   960
 total energy-change (2. order) :-0.2378112E+00  (-0.5430021E-03)
 number of electron     329.9999860 magnetization       0.1711663
 augmentation part      158.2804035 magnetization       0.1760566

 Broyden mixing:
  rms(total) = 0.14039E-01    rms(broyden)= 0.14036E-01
  rms(prec ) = 0.15801E-01
  weight for this iteration     100.00

 eigenvalues of (default mixing * dielectric matrix)
  average eigenvalue GAMMA=   1.7224
 11.8413  4.2207  2.3717  1.8105  1.8105  1.1499  1.1499  0.9633  0.9633  0.8507
  0.8507  0.8345  0.4981  0.4981  0.6397  0.6397  0.6156  0.5092  0.5092

 Free energy of the ion-electron system (eV)
  ---------------------------------------------------
  alpha Z        PSCENC =        56.16509700
  Ewald energy   TEWEN  =     75087.31796977
  -Hartree energ DENC   =   -104840.86900147
  -exchange      EXHF   =         0.00000000
  -V(xc)+E(xc)   XCENC  =      -339.34563701
  PAW double counting   =     32557.36999678   -31230.30732059
  entropy T*S    EENTRO =         0.00000000
  eigenvalues    EBANDS =     -2467.96726951
  atomic energy  EATOM  =     31115.95890259
  ---------------------------------------------------
  free energy    TOTEN  =       -61.67726243 eV

  energy without entropy =      -61.67726243  energy(sigma->0) =      -61.67726243


--------------------------------------------------------------------------------------------------------




----------------------------------------- Iteration    1(  25)  ---------------------------------------


    POTLOK:  cpu time    0.41: real time    0.41
    SETDIJ:  cpu time    0.01: real time    0.01
     EDDAV:  cpu time    6.38: real time    6.39
       DOS:  cpu time    0.00: real time    0.00
    CHARGE:  cpu time    0.24: real time    0.24
    MIXING:  cpu time    0.03: real time    0.03
    --------------------------------------------
      LOOP:  cpu time    7.07: real time    7.10

 eigenvalue-minimisations  :   936
 total energy-change (2. order) :-0.1158687E+00  (-0.1882501E-03)
 number of electron     329.9999860 magnetization       0.0683454
 augmentation part      158.2782634 magnetization       0.0736001

 Broyden mixing:
  rms(total) = 0.11124E-01    rms(broyden)= 0.11123E-01
  rms(prec ) = 0.12460E-01
  weight for this iteration     100.00

 eigenvalues of (default mixing * dielectric matrix)
  average eigenvalue GAMMA=   1.7838
 11.9975  4.8144  2.4380  2.4380  1.7867  1.7867  0.9836  0.9836  1.1510  0.9190
  0.9190  0.8907  0.4981  0.4981  0.6735  0.6735  0.6028  0.6028  0.5092  0.5092

 Free energy of the ion-electron system (eV)
  ---------------------------------------------------
  alpha Z        PSCENC =        56.16509700
  Ewald energy   TEWEN  =     75087.31796977
  -Hartree energ DENC   =   -104837.61623585
  -exchange      EXHF   =         0.00000000
  -V(xc)+E(xc)   XCENC  =      -339.46839139
  PAW double counting   =     32564.43736606   -31237.45386566
  entropy T*S    EENTRO =         0.00000000
  eigenvalues    EBANDS =     -2471.13397366
  atomic energy  EATOM  =     31115.95890259
  ---------------------------------------------------
  free energy    TOTEN  =       -61.79313113 eV

  energy without entropy =      -61.79313113  energy(sigma->0) =      -61.79313113


--------------------------------------------------------------------------------------------------------




----------------------------------------- Iteration    1(  26)  ---------------------------------------


    POTLOK:  cpu time    0.41: real time    0.41
    SETDIJ:  cpu time    0.01: real time    0.01
     EDDAV:  cpu time    6.30: real time    6.30
       DOS:  cpu time    0.00: real time    0.00
    CHARGE:  cpu time    0.24: real time    0.24
    MIXING:  cpu time    0.03: real time    0.03
    --------------------------------------------
      LOOP:  cpu time    6.99: real time    7.03

 eigenvalue-minimisations  :   920
 total energy-change (2. order) :-0.1155788E+00  (-0.2243604E-03)
 number of electron     329.9999860 magnetization       0.0716107
 augmentation part      158.2767576 magnetization       0.0743071

 Broyden mixing:
  rms(total) = 0.65617E-02    rms(broyden)= 0.65602E-02
  rms(prec ) = 0.76817E-02
  weight for this iteration     100.00

 eigenvalues of (default mixing * dielectric matrix)
  average eigenvalue GAMMA=   1.7998
 12.0987  5.4987  2.5492  2.5492  1.8609  1.8609  0.9782  0.9782  1.0494  1.0494
  1.0961  0.4981  0.4981  0.8333  0.7707  0.7707  0.5095  0.5095  0.6466  0.5951
  0.5951

 Free energy of the ion-electron system (eV)
  ---------------------------------------------------
  alpha Z        PSCENC =        56.16509700
  Ewald energy   TEWEN  =     75087.31796977
  -Hartree energ DENC   =   -104832.63670121
  -exchange      EXHF   =         0.00000000
  -V(xc)+E(xc)   XCENC  =      -339.59767604
  PAW double counting   =     32570.71559318   -31243.73728884
  entropy T*S    EENTRO =         0.00000000
  eigenvalues    EBANDS =     -2476.09460641
  atomic energy  EATOM  =     31115.95890259
  ---------------------------------------------------
  free energy    TOTEN  =       -61.90870997 eV

  energy without entropy =      -61.90870997  energy(sigma->0) =      -61.90870997


--------------------------------------------------------------------------------------------------------




----------------------------------------- Iteration    1(  27)  ---------------------------------------


    POTLOK:  cpu time    0.41: real time    0.41
    SETDIJ:  cpu time    0.01: real time    0.01
     EDDAV:  cpu time    5.07: real time    5.07
       DOS:  cpu time    0.00: real time    0.00
    CHARGE:  cpu time    0.24: real time    0.24
    MIXING:  cpu time    0.03: real time    0.03
    --------------------------------------------
      LOOP:  cpu time    5.76: real time    5.78

 eigenvalue-minimisations  :   680
 total energy-change (2. order) :-0.2560459E-01  (-0.5348447E-04)
 number of electron     329.9999860 magnetization       0.0801956
 augmentation part      158.2774385 magnetization       0.0794953

 Broyden mixing:
  rms(total) = 0.39572E-02    rms(broyden)= 0.39565E-02
  rms(prec ) = 0.47860E-02
  weight for this iteration     100.00

 eigenvalues of (default mixing * dielectric matrix)
  average eigenvalue GAMMA=   1.7613
 12.0409  5.7390  2.3613  2.3613  1.8369  1.8369  0.9724  0.9724  1.0848  1.0848
  1.1257  1.1257  0.8396  0.8396  0.4981  0.4981  0.6471  0.6471  0.5092  0.5092
  0.6218  0.5972

 Free energy of the ion-electron system (eV)
  ---------------------------------------------------
  alpha Z        PSCENC =        56.16509700
  Ewald energy   TEWEN  =     75087.31796977
  -Hartree energ DENC   =   -104830.16758841
  -exchange      EXHF   =         0.00000000
  -V(xc)+E(xc)   XCENC  =      -339.63421235
  PAW double counting   =     32572.83347441   -31245.84756965
  entropy T*S    EENTRO =         0.00000000
  eigenvalues    EBANDS =     -2478.56038792
  atomic energy  EATOM  =     31115.95890259
  ---------------------------------------------------
  free energy    TOTEN  =       -61.93431456 eV

  energy without entropy =      -61.93431456  energy(sigma->0) =      -61.93431456


--------------------------------------------------------------------------------------------------------




----------------------------------------- Iteration    1(  28)  ---------------------------------------


    POTLOK:  cpu time    0.40: real time    0.41
    SETDIJ:  cpu time    0.01: real time    0.01
     EDDAV:  cpu time    4.86: real time    4.86
       DOS:  cpu time    0.00: real time    0.00
    CHARGE:  cpu time    0.24: real time    0.24
    MIXING:  cpu time    0.04: real time    0.04
    --------------------------------------------
      LOOP:  cpu time    5.56: real time    5.57

 eigenvalue-minimisations  :   640
 total energy-change (2. order) :-0.3877928E-02  (-0.1843698E-04)
 number of electron     329.9999860 magnetization       0.0518799
 augmentation part      158.2792048 magnetization       0.0498440

 Broyden mixing:
  rms(total) = 0.34242E-02    rms(broyden)= 0.34239E-02
  rms(prec ) = 0.39612E-02
  weight for this iteration     100.00

 eigenvalues of (default mixing * dielectric matrix)
  average eigenvalue GAMMA=   1.7523
 12.0367  5.8468  2.3735  2.3735  1.7726  1.7726  1.7890  1.1903  1.1903  0.9703
  0.9703  0.8817  0.8817  0.9383  0.4981  0.4981  0.7415  0.5093  0.5093  0.6524
  0.6524  0.6655  0.5891

 Free energy of the ion-electron system (eV)
  ---------------------------------------------------
  alpha Z        PSCENC =        56.16509700
  Ewald energy   TEWEN  =     75087.31796977
  -Hartree energ DENC   =   -104828.91981800
  -exchange      EXHF   =         0.00000000
  -V(xc)+E(xc)   XCENC  =      -339.64607479
  PAW double counting   =     32571.84555840   -31244.84789587
  entropy T*S    EENTRO =         0.00000000
  eigenvalues    EBANDS =     -2479.81193159
  atomic energy  EATOM  =     31115.95890259
  ---------------------------------------------------
  free energy    TOTEN  =       -61.93819249 eV

  energy without entropy =      -61.93819249  energy(sigma->0) =      -61.93819249


--------------------------------------------------------------------------------------------------------




----------------------------------------- Iteration    1(  29)  ---------------------------------------


    POTLOK:  cpu time    0.40: real time    0.41
    SETDIJ:  cpu time    0.01: real time    0.01
     EDDAV:  cpu time    4.69: real time    4.69
       DOS:  cpu time    0.00: real time    0.00
    CHARGE:  cpu time    0.24: real time    0.24
    MIXING:  cpu time    0.04: real time    0.04
    --------------------------------------------
      LOOP:  cpu time    5.39: real time    5.39

 eigenvalue-minimisations  :   608
 total energy-change (2. order) :-0.2464621E-02  (-0.1004184E-04)
 number of electron     329.9999860 magnetization       0.0236828
 augmentation part      158.2803771 magnetization       0.0226310

 Broyden mixing:
  rms(total) = 0.18576E-02    rms(broyden)= 0.18574E-02
  rms(prec ) = 0.23369E-02
  weight for this iteration     100.00

 eigenvalues of (default mixing * dielectric matrix)
  average eigenvalue GAMMA=   1.7783
 12.0911  6.1093  2.9472  1.8581  1.8581  2.0347  2.0347  1.4153  1.4153  0.9690
  0.9690  0.4981  0.4981  0.9676  0.9676  0.8997  0.8997  0.5093  0.5093  0.7110
  0.6588  0.6588  0.5995  0.5995

 Free energy of the ion-electron system (eV)
  ---------------------------------------------------
  alpha Z        PSCENC =        56.16509700
  Ewald energy   TEWEN  =     75087.31796977
  -Hartree energ DENC   =   -104827.57809959
  -exchange      EXHF   =         0.00000000
  -V(xc)+E(xc)   XCENC  =      -339.65581490
  PAW double counting   =     32570.55530600   -31243.56201118
  entropy T*S    EENTRO =         0.00000000
  eigenvalues    EBANDS =     -2481.14200681
  atomic energy  EATOM  =     31115.95890259
  ---------------------------------------------------
  free energy    TOTEN  =       -61.94065711 eV

  energy without entropy =      -61.94065711  energy(sigma->0) =      -61.94065711


--------------------------------------------------------------------------------------------------------




----------------------------------------- Iteration    1(  30)  ---------------------------------------


    POTLOK:  cpu time    0.41: real time    0.41
    SETDIJ:  cpu time    0.01: real time    0.01
     EDDAV:  cpu time    4.68: real time    4.69
       DOS:  cpu time    0.00: real time    0.00
    CHARGE:  cpu time    0.24: real time    0.24
    MIXING:  cpu time    0.05: real time    0.05
    --------------------------------------------
      LOOP:  cpu time    5.39: real time    6.06

 eigenvalue-minimisations  :   608
 total energy-change (2. order) :-0.1346278E-02  (-0.1111911E-04)
 number of electron     329.9999860 magnetization       0.0278017
 augmentation part      158.2813746 magnetization       0.0277469

 Broyden mixing:
  rms(total) = 0.10304E-02    rms(broyden)= 0.10303E-02
  rms(prec ) = 0.13526E-02
  weight for this iteration     100.00

 eigenvalues of (default mixing * dielectric matrix)
  average eigenvalue GAMMA=   1.7738
 12.0837  6.3893  2.9365  2.4208  2.4208  1.8223  1.8223  1.3913  1.2459  1.2459
  0.9676  0.9676  0.8895  0.8895  0.4981  0.4981  0.8156  0.7664  0.7664  0.5093
  0.5093  0.6328  0.6328  0.5908  0.6325

 Free energy of the ion-electron system (eV)
  ---------------------------------------------------
  alpha Z        PSCENC =        56.16509700
  Ewald energy   TEWEN  =     75087.31796977
  -Hartree energ DENC   =   -104826.14860956
  -exchange      EXHF   =         0.00000000
  -V(xc)+E(xc)   XCENC  =      -339.66294177
  PAW double counting   =     32570.07907533   -31243.10020139
  entropy T*S    EENTRO =         0.00000000
  eigenvalues    EBANDS =     -2482.55129537
  atomic energy  EATOM  =     31115.95890259
  ---------------------------------------------------
  free energy    TOTEN  =       -61.94200339 eV

  energy without entropy =      -61.94200339  energy(sigma->0) =      -61.94200339


--------------------------------------------------------------------------------------------------------




----------------------------------------- Iteration    1(  31)  ---------------------------------------


    POTLOK:  cpu time    0.40: real time    0.41
    SETDIJ:  cpu time    0.01: real time    0.01
     EDDAV:  cpu time    4.82: real time    4.82
       DOS:  cpu time    0.00: real time    0.00
    CHARGE:  cpu time    0.24: real time    0.24
    MIXING:  cpu time    0.06: real time    0.05
    --------------------------------------------
      LOOP:  cpu time    5.54: real time    5.62

 eigenvalue-minimisations  :   632
 total energy-change (2. order) :-0.5314179E-03  (-0.1910579E-05)
 number of electron     329.9999860 magnetization       0.0198342
 augmentation part      158.2810583 magnetization       0.0191758

 Broyden mixing:
  rms(total) = 0.10365E-02    rms(broyden)= 0.10365E-02
  rms(prec ) = 0.12530E-02
  weight for this iteration     100.00

 eigenvalues of (default mixing * dielectric matrix)
  average eigenvalue GAMMA=   1.7575
[...]
    198       0.4610      0.00000
    199       0.5292      0.00000
    200       0.5562      0.00000
    201       0.5712      0.00000
    202       0.5788      0.00000
    203       0.5992      0.00000
    204       0.6587      0.00000
    205       0.6698      0.00000
    206       0.7239      0.00000
    207       0.7534      0.00000
    208       0.7767      0.00000
    209       0.7881      0.00000
    210       0.8165      0.00000
    211       0.8346      0.00000
    212       0.8435      0.00000
    213       0.8482      0.00000
    214       0.8651      0.00000
    215       0.8714      0.00000
    216       0.9146      0.00000


--------------------------------------------------------------------------------------------------------


 soft charge-density along one line, spin component           1
         0         1         2         3         4         5         6         7         8         9
 total charge-density along one line
 
 soft charge-density along one line, spin component           2
         0         1         2         3         4         5         6         7         8         9
 total charge-density along one line
 
 pseudopotential strength for first ion, spin component:           1
-10.531  -0.002   0.004  -0.001   0.000 -10.497  -0.002   0.003
 -0.002 -10.528  -0.006  -0.004   0.002  -0.002 -10.493  -0.006
  0.004  -0.006 -10.527   0.001   0.005   0.003  -0.006 -10.492
 -0.001  -0.004   0.001 -10.531  -0.000  -0.000  -0.003   0.001
  0.000   0.002   0.005  -0.000 -10.531   0.000   0.002   0.005
-10.497  -0.002   0.003  -0.000   0.000 -10.438  -0.002   0.003
 -0.002 -10.493  -0.006  -0.003   0.002  -0.002 -10.435  -0.006
  0.003  -0.006 -10.492   0.001   0.005   0.003  -0.006 -10.434
 -0.000  -0.003   0.001 -10.496  -0.000  -0.000  -0.003   0.001
  0.000   0.002   0.005  -0.000 -10.496   0.000   0.002   0.005
  0.005   0.002  -0.000  -0.001   0.001   0.004   0.002  -0.000
  0.008   0.003  -0.001  -0.001   0.002   0.007   0.003  -0.001
  0.019   0.006   0.006  -0.000   0.010   0.018   0.006   0.006
 -0.000  -0.010   0.008   0.019  -0.000  -0.000  -0.010   0.008
 -0.010  -0.000  -0.011   0.006   0.018  -0.010  -0.000  -0.010
  0.023   0.008   0.007  -0.000   0.012   0.022   0.007   0.007
 -0.000  -0.013   0.009   0.023   0.000  -0.000  -0.012   0.009
 -0.013  -0.000  -0.013   0.008   0.023  -0.012  -0.000  -0.013
 pseudopotential strength for first ion, spin component:           2
-10.531  -0.002   0.004  -0.001   0.000 -10.497  -0.002   0.003
 -0.002 -10.528  -0.006  -0.004   0.002  -0.002 -10.493  -0.006
  0.004  -0.006 -10.527   0.001   0.005   0.003  -0.006 -10.492
 -0.001  -0.004   0.001 -10.531  -0.000  -0.000  -0.003   0.001
  0.000   0.002   0.005  -0.000 -10.531   0.000   0.002   0.005
-10.497  -0.002   0.003  -0.000   0.000 -10.438  -0.002   0.003
 -0.002 -10.493  -0.006  -0.003   0.002  -0.002 -10.435  -0.006
  0.003  -0.006 -10.492   0.001   0.005   0.003  -0.006 -10.434
 -0.000  -0.003   0.001 -10.496  -0.000  -0.000  -0.003   0.001
  0.000   0.002   0.005  -0.000 -10.496   0.000   0.002   0.005
  0.005   0.002  -0.000  -0.001   0.001   0.004   0.002  -0.000
  0.008   0.003  -0.001  -0.001   0.002   0.007   0.003  -0.001
  0.019   0.006   0.006  -0.000   0.010   0.018   0.006   0.006
 -0.000  -0.010   0.008   0.019  -0.000  -0.000  -0.010   0.008
 -0.010  -0.000  -0.011   0.006   0.018  -0.010  -0.000  -0.010
  0.023   0.008   0.007  -0.000   0.012   0.022   0.007   0.007
 -0.000  -0.013   0.009   0.023   0.000  -0.000  -0.012   0.009
 -0.013  -0.000  -0.013   0.008   0.023  -0.012  -0.000  -0.013
 total augmentation occupancy for first ion, spin component:           1
  3.173  -0.007  -0.073  -0.058  -0.006  -1.168   0.002   0.126   0.069   0.012  -0.415   0.056   0.071   0.011  -0.082   0.007
 -0.007   2.844  -0.098   0.017  -0.043   0.002  -0.859   0.025  -0.073   0.056  -0.106   0.002   0.034  -0.093   0.021   0.001
 -0.073  -0.098   2.923   0.023   0.082   0.126   0.024  -0.890  -0.001  -0.052   0.097  -0.036   0.072   0.086  -0.027  -0.000
 -0.058   0.017   0.023   2.951  -0.037   0.070  -0.073  -0.001  -0.929   0.053   0.079  -0.010   0.035   0.120   0.031  -0.003
 -0.006  -0.043   0.082  -0.037   2.996   0.011   0.056  -0.052   0.053  -0.974  -0.029   0.011   0.118  -0.004   0.138  -0.002
 -1.168   0.002   0.126   0.070   0.011   1.130   0.003  -0.171  -0.080  -0.017   0.396  -0.066  -0.088  -0.012   0.094   0.004
  0.002  -0.859   0.024  -0.073   0.056   0.003   0.831   0.036   0.118  -0.067   0.095  -0.002  -0.040   0.099  -0.020   0.003
  0.126   0.025  -0.890  -0.001  -0.052  -0.171   0.036   0.820  -0.014   0.026  -0.101   0.035  -0.076  -0.087   0.034   0.004
  0.069  -0.073  -0.001  -0.929   0.053  -0.080   0.118  -0.014   0.871  -0.065  -0.081   0.017  -0.031  -0.136  -0.041   0.002
  0.012   0.056  -0.052   0.053  -0.974  -0.017  -0.067   0.026  -0.065   0.917   0.021  -0.005  -0.122   0.001  -0.140   0.008
 -0.415  -0.106   0.097   0.079  -0.029   0.396   0.095  -0.101  -0.081   0.021   1.943  -0.322   0.110  -0.064  -0.140  -0.011
  0.056   0.002  -0.036  -0.010   0.011  -0.066  -0.002   0.035   0.017  -0.005  -0.322   0.067  -0.030   0.016   0.029   0.002
  0.071   0.034   0.072   0.035   0.118  -0.088  -0.040  -0.076  -0.031  -0.122   0.110  -0.030   0.125   0.009   0.044  -0.007
  0.011  -0.093   0.086   0.120  -0.004  -0.012   0.099  -0.087  -0.136   0.001  -0.064   0.016   0.009   0.120  -0.013  -0.000
 -0.082   0.021  -0.027   0.031   0.138   0.094  -0.020   0.034  -0.041  -0.140  -0.140   0.029   0.044  -0.013   0.122  -0.002
  0.007   0.001  -0.000  -0.003  -0.002   0.004   0.003   0.004   0.002   0.008  -0.011   0.002  -0.007  -0.000  -0.002   0.001
 -0.002  -0.000  -0.001   0.004   0.001   0.002  -0.006   0.005   0.008  -0.000   0.006  -0.001  -0.000  -0.007   0.001  -0.000
 -0.002  -0.002  -0.003   0.002   0.001  -0.004   0.002  -0.003   0.002   0.009   0.013  -0.003  -0.002   0.001  -0.008   0.000
 total augmentation occupancy for first ion, spin component:           2
  0.000  -0.000  -0.000  -0.000  -0.000  -0.000   0.000   0.000   0.000   0.000   0.000  -0.000  -0.000   0.000   0.000   0.000
 -0.000   0.000   0.000  -0.000  -0.000   0.000  -0.000  -0.000   0.000   0.000  -0.000   0.000   0.000   0.000   0.000  -0.000
 -0.000   0.000  -0.000   0.000   0.000   0.000  -0.000   0.000  -0.000  -0.000   0.000  -0.000   0.000  -0.000  -0.000  -0.000
 -0.000  -0.000   0.000   0.000   0.000   0.000   0.000  -0.000  -0.000  -0.000   0.000  -0.000   0.000  -0.000   0.000  -0.000
 -0.000  -0.000   0.000   0.000  -0.000   0.000   0.000  -0.000  -0.000   0.000  -0.000   0.000   0.000   0.000   0.000  -0.000
 -0.000   0.000   0.000   0.000   0.000   0.000  -0.000  -0.000   0.000   0.000   0.000   0.000   0.000  -0.000  -0.000  -0.000
  0.000  -0.000  -0.000   0.000   0.000  -0.000  -0.000   0.000  -0.000   0.000   0.000  -0.000   0.000  -0.000  -0.000  -0.000
  0.000  -0.000   0.000  -0.000  -0.000  -0.000   0.000  -0.000   0.000   0.000  -0.000   0.000  -0.000   0.000  -0.000   0.000
  0.000   0.000  -0.000  -0.000  -0.000   0.000  -0.000   0.000   0.000   0.000  -0.000   0.000   0.000   0.000  -0.000  -0.000
  0.000   0.000  -0.000  -0.000   0.000   0.000   0.000   0.000   0.000  -0.000   0.000  -0.000  -0.000  -0.000   0.000   0.000
  0.000  -0.000   0.000   0.000  -0.000   0.000   0.000  -0.000  -0.000   0.000   0.000  -0.000  -0.000   0.000  -0.000  -0.000
 -0.000   0.000  -0.000  -0.000   0.000   0.000  -0.000   0.000   0.000  -0.000  -0.000   0.000  -0.000  -0.000   0.000  -0.000
 -0.000   0.000   0.000   0.000   0.000   0.000   0.000  -0.000   0.000  -0.000  -0.000  -0.000  -0.000  -0.000   0.000   0.000
  0.000   0.000  -0.000  -0.000   0.000  -0.000  -0.000   0.000   0.000  -0.000   0.000  -0.000  -0.000  -0.000   0.000  -0.000
  0.000   0.000  -0.000   0.000   0.000  -0.000  -0.000  -0.000  -0.000   0.000  -0.000   0.000   0.000   0.000  -0.000   0.000
  0.000  -0.000  -0.000  -0.000  -0.000  -0.000  -0.000   0.000  -0.000   0.000  -0.000  -0.000   0.000  -0.000   0.000  -0.000
  0.000  -0.000   0.000   0.000   0.000  -0.000   0.000  -0.000  -0.000  -0.000  -0.000  -0.000   0.000   0.000   0.000   0.000
 -0.000  -0.000   0.000  -0.000  -0.000   0.000  -0.000  -0.000   0.000   0.000  -0.000   0.000   0.000   0.000   0.000  -0.000


------------------------ aborting loop because EDIFF is reached ----------------------------------------


    CHARGE:  cpu time    0.23: real time    0.23
    FORLOC:  cpu time    0.03: real time    0.03
    FORNL :  cpu time    3.84: real time    3.84
    STRESS:  cpu time    5.29: real time    5.29
    FORCOR:  cpu time    0.42: real time    0.42
    FORHAR:  cpu time    0.07: real time    0.07
    MIXING:  cpu time    0.01: real time    0.01
    OFIELD:  cpu time    0.00: real time    0.00

  FORCE on cell =-STRESS in cart. coord.  units (eV):
  Direction    XX          YY          ZZ          XY          YZ          ZX
  --------------------------------------------------------------------------------------
  Alpha Z    56.16510    56.16510    56.16510
  Ewald   17911.67319 37271.41879 18494.00090  5757.87140  2124.81941 -2491.18535
  Hartree 28277.37140 46358.53864 28796.94292  5289.17012  1990.63243 -2210.37600
  E(xc)   -1740.49428 -1738.01340 -1740.27643     0.86092     0.15715    -0.66496
  Local  -51069.01985-88495.21321-52171.70761-11041.09454 -4114.66191  4695.87424
  n-local  -317.00000  -315.67997  -316.88772     0.85817     0.61360    -0.02694
  augment  2758.14661  2752.60448  2758.17576    -2.28232    -0.60704     1.84566
  Kinetic  4112.62228  4099.38613  4112.76779    -5.18661    -0.83270     4.49680
  Fock        0.00000     0.00000     0.00000     0.00000     0.00000     0.00000
  -------------------------------------------------------------------------------------
  Total     -10.53555   -10.79343   -10.81930     0.19713     0.12095    -0.03655
  in kB      -1.23845    -1.26876    -1.27180     0.02317     0.01422    -0.00430
  external pressure =       -1.26 kB  Pullay stress =        0.00 kB


 VOLUME and BASIS-vectors are now :
 -----------------------------------------------------------------------------
  energy-cutoff  :      249.84
  volume of cell :    13629.82
      direct lattice vectors                 reciprocal lattice vectors
    23.887098056  0.000000000  0.000000000     0.041863603  0.000000000  0.000000000
     0.000000000 23.887098056  0.000000000     0.000000000  0.041863603  0.000000000
     0.000000000  0.000000000 23.887098056     0.000000000  0.000000000  0.041863603

  length of vectors
    23.887098056 23.887098056 23.887098056     0.041863603  0.041863603  0.041863603


 FORCES acting on ions
    electron-ion (+dipol)            ewald-force                    non-local-force                 convergence-correction
 -----------------------------------------------------------------------------------------------
   -.961E+03 0.877E+03 -.557E+03   0.959E+03 -.875E+03 0.556E+03   0.287E+01 -.154E+01 0.110E+01   -.127E-01 -.286E-02 -.105E-01
   -.152E+04 0.289E+03 -.279E+03   0.151E+04 -.288E+03 0.278E+03   0.535E+01 -.102E+01 0.670E+00   -.410E-02 -.907E-02 0.204E-02
   -.818E+03 0.785E+02 -.112E+04   0.818E+03 -.780E+02 0.112E+04   -.347E+00 -.489E+00 0.170E+01   0.687E-02 0.269E-02 -.107E-01
   -.120E+04 -.288E+03 0.835E+03   0.120E+04 0.288E+03 -.832E+03   0.196E+01 -.137E+00 -.311E+01   0.215E-02 -.387E-02 -.307E-03
   -.379E+03 -.893E+03 -.115E+04   0.378E+03 0.889E+03 0.115E+04   0.127E+01 0.327E+01 0.372E+01   -.451E-02 -.708E-03 -.890E-02
   -.545E+03 0.970E+03 0.363E+03   0.545E+03 -.970E+03 -.362E+03   -.307E+00 -.269E+00 -.104E+01   -.744E-02 0.161E-01 0.677E-02
   0.240E+03 -.281E+03 -.145E+04   -.238E+03 0.281E+03 0.145E+04   -.189E+01 0.296E+00 0.463E+01   -.111E-02 -.724E-02 -.824E-02
   -.675E+02 0.593E+03 -.135E+04   0.676E+02 -.593E+03 0.135E+04   -.154E+00 -.131E+00 0.337E+01   0.126E-01 0.304E-02 -.159E-01
   -.122E+03 0.125E+04 -.763E+03   0.123E+03 -.124E+04 0.761E+03   -.170E+00 -.312E+01 0.172E+01   -.790E-03 0.952E-02 -.146E-03
   0.106E+04 -.151E+03 -.985E+03   -.106E+04 0.150E+03 0.982E+03   -.191E+01 0.870E+00 0.274E+01   0.117E-01 -.152E-02 0.143E-01
   -.390E+03 -.873E+02 0.104E+03   0.388E+03 0.879E+02 -.104E+03   0.169E+01 -.583E+00 -.513E+00   -.241E-01 -.571E-02 0.114E-01
   -.363E+03 0.495E+03 0.133E+04   0.361E+03 -.494E+03 -.132E+04   0.214E+01 -.122E+01 -.450E+01   -.261E-02 -.631E-02 -.164E-02
   0.104E+04 0.765E+03 -.850E+03   -.104E+04 -.762E+03 0.848E+03   -.297E+01 -.257E+01 0.255E+01   0.116E-01 0.428E-02 0.200E-02
   0.294E+03 0.304E+03 -.169E+03   -.294E+03 -.304E+03 0.169E+03   -.786E+00 -.407E+00 0.816E+00   0.185E-01 0.355E-02 -.506E-02
   -.116E+04 -.653E+03 -.469E+03   0.116E+04 0.653E+03 0.468E+03   0.246E+01 0.289E+00 0.358E+00   -.133E-01 -.313E-02 -.224E-03
   0.430E+03 -.699E+03 -.611E+03   -.430E+03 0.699E+03 0.610E+03   0.295E+00 -.754E+00 0.630E+00   -.406E-02 0.155E-02 -.235E-02
   0.104E+04 0.945E+03 0.170E+03   -.104E+04 -.942E+03 -.171E+03   -.196E+01 -.271E+01 0.714E+00   0.280E-02 0.151E-01 -.528E-02
   -.119E+03 -.129E+04 -.439E+03   0.119E+03 0.129E+04 0.438E+03   0.443E+00 0.288E+01 0.724E+00   0.139E-01 -.117E-02 0.104E-01
   0.149E+04 0.119E+03 0.239E+03   -.149E+04 -.118E+03 -.238E+03   -.420E+01 -.105E+01 -.848E+00   0.553E-02 -.241E-02 -.141E-01
   -.131E+02 0.138E+04 0.557E+02   0.130E+02 -.137E+04 -.557E+02   0.103E+00 -.554E+01 -.360E-01   0.496E-03 -.631E-02 0.787E-02
   0.135E+04 -.677E+03 -.119E+03   -.135E+04 0.675E+03 0.117E+03   -.452E+01 0.213E+01 0.163E+01   -.649E-03 0.109E-02 -.878E-02
   0.866E+02 -.123E+04 0.603E+03   -.856E+02 0.123E+04 -.600E+03   -.100E+01 0.561E+01 -.298E+01   0.628E-02 0.789E-02 -.362E-02
   -.114E+04 0.578E+03 0.713E+03   0.114E+04 -.577E+03 -.711E+03   0.248E+01 -.154E+01 -.173E+01   0.132E-01 -.120E-01 -.558E-02
   -.954E+03 -.100E+04 0.424E+03   0.951E+03 0.998E+03 -.423E+03   0.315E+01 0.389E+01 -.153E+01   -.205E-01 -.421E-02 0.228E-01
   0.794E+03 0.151E+03 0.109E+04   -.793E+03 -.152E+03 -.109E+04   -.112E+00 0.135E+01 -.253E+01   -.836E-02 -.308E-02 0.154E-02
   0.794E+03 -.431E+03 0.778E+03   -.793E+03 0.430E+03 -.778E+03   -.975E+00 0.501E+00 -.206E+00   0.123E-02 0.292E-02 0.812E-03
   0.873E+03 -.112E+04 0.250E+03   -.870E+03 0.112E+04 -.248E+03   -.247E+01 0.291E+01 -.174E+01   -.202E-01 -.281E-02 -.373E-02
   0.414E+03 0.958E+03 0.100E+04   -.412E+03 -.954E+03 -.997E+03   -.203E+01 -.382E+01 -.368E+01   -.286E-02 0.702E-02 0.707E-02
   -.121E+03 -.223E+03 0.139E+04   0.120E+03 0.223E+03 -.139E+04   0.824E+00 0.153E+00 -.265E+01   0.488E-02 0.943E-02 -.786E-02
   -.404E+02 -.719E+03 0.974E+03   0.397E+02 0.718E+03 -.974E+03   0.648E+00 0.101E+01 -.485E+00   0.532E-02 -.474E-02 0.403E-02
 -----------------------------------------------------------------------------------------------
   0.104E+00 0.166E+01 0.491E+00   0.114E-11 -.136E-11 0.159E-11   -.112E+00 -.172E+01 -.530E+00   -.101E-01 0.701E-02 -.219E-01
 
 
 POSITION                                       TOTAL-FORCE (eV/Angst)
 -----------------------------------------------------------------------------------
     13.94119     10.16721     13.32838        -0.006320      0.005594      0.013738
     15.95043     12.02018     12.75186         0.011014      0.010133      0.004107
     13.99861     12.58794     14.82367        -0.014508     -0.001249      0.006439
     15.44893     13.68887     10.47053         0.005357      0.009697     -0.008401
     13.45121     15.24299     15.41952         0.007723      0.004981     -0.000214
     12.72130      8.98991     11.08269         0.012696     -0.005679      0.004722
     11.72789     13.25746     16.33544        -0.003253      0.011532      0.005705
     11.95621     10.58845     15.39267        -0.021725     -0.004196      0.010355
     11.86683      8.28560     13.72506         0.005986     -0.000435      0.001495
      9.65060     12.30118     14.62588        -0.010495      0.003957     -0.015397
     13.32783     12.67447     12.02698        -0.001246     -0.003528      0.008336
     12.87868      9.81877      8.43001         0.004144      0.003838     -0.000427
      9.39568      9.56085     14.34716        -0.017621     -0.009446     -0.006210
     11.28307     10.95684     12.71294         0.010620     -0.009632      0.000816
     15.11058     14.66086     13.19402        -0.005120      0.013290     -0.003726
     11.48066     14.20801     13.66602         0.016425     -0.008488     -0.001465
      9.78182      8.72282     11.67097         0.002893     -0.012234     -0.006309
     12.98909     16.47309     12.94251         0.005795      0.003209      0.001622
      8.68787     11.40036     12.02952        -0.016772     -0.004368      0.011499
     11.61758      6.50500     11.55958         0.002221      0.000079     -0.015577
      8.72573     14.16263     12.71822         0.009925      0.012655      0.004985
     12.58736     17.70062     10.48816        -0.004357     -0.003345     -0.002409
     14.76389     10.82816     10.44781        -0.009711      0.007561      0.004275
     15.13304     16.44729     11.02785         0.015155     -0.005149     -0.035447
     10.52437     10.70293      9.82873         0.004054     -0.008473      0.007251
     10.67763     13.25767     11.02594         0.002534     -0.004592      0.008206
     10.50663     16.07837     11.71778        -0.001727     -0.000062      0.005741
     10.91249      7.98453      9.21480         0.007368     -0.004145     -0.013705
     12.76234     12.46397      9.24175        -0.011134      0.001116      0.008717
     12.83245     14.98042     10.46598         0.000080     -0.002622      0.001277
 -----------------------------------------------------------------------------------
    total drift:                               -0.018166     -0.052731     -0.061567


--------------------------------------------------------------------------------------------------------



  FREE ENERGIE OF THE ION-ELECTRON SYSTEM (eV)
  ---------------------------------------------------
  free  energy   TOTEN  =       -62.64569539 eV

  energy  without entropy=      -62.64569539  energy(sigma->0) =      -62.64569539
 
 d Force =-0.3815208E-04[-0.157E-03, 0.811E-04]  d Energy =-0.8184050E-04 0.437E-04
 d Force =-0.3270956E+01[-0.327E+01,-0.327E+01]  d Ewald  =-0.3270956E+01 0.787E-07


--------------------------------------------------------------------------------------------------------


    POTLOK:  cpu time    0.42: real time    0.42


--------------------------------------------------------------------------------------------------------




--------------------------------------------------------------------------------------------------------


  
 reached required accuracy - stopping structural energy minimisation
     LOOP+:  cpu time   22.75: real time   22.94
    4ORBIT:  cpu time    0.00: real time    0.00

 total amount of memory used by VASP on root node    82883. kBytes
========================================================================

   base      :      30000. kBytes
   nonl-proj :       4762. kBytes
   fftplans  :       9871. kBytes
   grid      :      24938. kBytes
   one-center:         62. kBytes
   wavefun   :      13250. kBytes
 
  
  
 General timing and accounting informations for this job:
 ========================================================
  
                  Total CPU time used (sec):     2272.578
                            User time (sec):     2261.169
                          System time (sec):       11.409
                         Elapsed time (sec):     2309.493
  
                   Maximum memory used (kb):      102868.
                   Average memory used (kb):           0.
  
                          Minor page faults:      2021668
                          Major page faults:            0
                 Voluntary context switches:         9377
