 vasp.5.3.5 31Mar14 (build Feb 01 2018 12:10:03) gamma-only                     
  
 executed on             LinuxIFC date 2019.03.21  16:38:41
 running on   32 total cores
 distrk:  each k-point on   32 cores,    1 groups
 distr:  one band on NCORES_PER_BAND=   8 cores,    4 groups


--------------------------------------------------------------------------------------------------------


 INCAR:
 POTCAR:    PAW_PBE Ag 02Apr2005                  
 POTCAR:    PAW_PBE Ag 02Apr2005                  
   VRHFIN =Ag : s1 d10                                                          
   LEXCH  = PE                                                                  
   EATOM  =  1037.2675 eV,   76.2370 Ry                                         
                                                                                
   TITEL  = PAW_PBE Ag 02Apr2005                                                
   LULTRA =        F    use ultrasoft PP ?                                      
   IUNSCR =        1    unscreen: 0-lin 1-nonlin 2-no                           
   RPACOR =    2.000    partial core radius                                     
   POMASS =  107.868; ZVAL   =   11.000    mass and valenz                      
   RCORE  =    2.500    outmost cutoff radius                                   
   RWIGS  =    2.840; RWIGS  =    1.503    wigner-seitz radius (au A)           
   ENMAX  =  249.844; ENMIN  =  187.383 eV                                      
   ICORE  =        3    local potential                                         
   LCOR   =        T    correct aug charges                                     
   LPAW   =        T    paw PP                                                  
   EAUG   =  412.496                                                            
   DEXC   =    0.000                                                            
   RMAX   =    2.560    core radius for proj-oper                               
   RAUG   =    1.300    factor for augmentation sphere                          
   RDEP   =    2.576    radius for radial grids                                 
   RDEPT  =    2.072    core radius for aug-charge                              
                                                                                
   Atomic configuration                                                         
   12 entries                                                                   
     n  l   j            E        occ.                                          
     1  0  0.50    -25324.9161   2.0000                                         
     2  0  0.50     -3728.5341   2.0000                                         
     2  1  1.50     -3344.0404   6.0000                                         
     3  0  0.50      -683.5581   2.0000                                         
     3  1  1.50      -557.3225   6.0000                                         
     3  2  2.50      -358.3853  10.0000                                         
     4  0  0.50       -95.0341   2.0000                                         
     4  1  1.50       -58.5511   6.0000                                         
     4  2  2.50        -7.4440  10.0000                                         
     5  0  0.50        -4.4045   1.0000                                         
     5  1  0.50        -1.3606   0.0000                                         
     4  3  2.50        -1.3606   0.0000                                         
   Description                                                                  
     l       E           TYP  RCUT    TYP  RCUT                                 
     2     -7.4439781     23  2.400                                             
     2     -8.8045607     23  2.400                                             
     0     -4.4044681     23  2.400                                             
     0      1.9520038     23  2.400                                             
     1     -1.3605826     23  2.500                                             
     1     27.2116520     23  2.500                                             
     3     -4.0817478     23  2.400                                             
  local pseudopotential read in
  partial core-charges read in
  partial kinetic energy density read in
  atomic valenz-charges read in
  non local Contribution for L=           2  read in
    real space projection operators read in
  non local Contribution for L=           2  read in
    real space projection operators read in
  non local Contribution for L=           0  read in
    real space projection operators read in
  non local Contribution for L=           0  read in
    real space projection operators read in
  non local Contribution for L=           1  read in
    real space projection operators read in
  non local Contribution for L=           1  read in
    real space projection operators read in
    PAW grid and wavefunctions read in
 
   number of l-projection  operators is LMAX  =           6
   number of lm-projection operators is LMMAX =          18
 
  PAW_PBE Ag 02Apr2005                  :
 energy of atom  1       EATOM=-1037.2675
 kinetic energy error for atom=    0.0689 (will be added to EATOM!!)
 
 
 POSCAR: Pt11, -46.90883332 <s> Ag </s>          
  positions in direct lattice
  No initial velocities read in
 exchange correlation table for  LEXCH =        8
   RHO(1)=    0.500       N(1)  =     2000
   RHO(2)=  100.500       N(2)  =     4000
 


--------------------------------------------------------------------------------------------------------


 ion  position               nearest neighbor table
   1  0.419  0.536  0.476-   2 2.61   8 2.61   4 2.68   5 2.72   3 3.09
   2  0.353  0.471  0.582-   1 2.61   9 2.66   3 2.69
   3  0.494  0.481  0.613-  11 2.61   2 2.69   9 2.72   5 2.86  10 2.99   1 3.09   4 3.13
   4  0.528  0.618  0.522-  10 2.65   8 2.66   7 2.68   1 2.68  11 2.78   3 3.13
   5  0.512  0.424  0.472-   6 2.61   9 2.61   1 2.72  10 2.72   3 2.86
   6  0.590  0.495  0.379-   5 2.61  10 2.67   8 2.69
   7  0.668  0.643  0.549-  11 2.67   4 2.68  10 2.69
   8  0.498  0.606  0.383-   1 2.61   4 2.66   6 2.69
   9  0.435  0.355  0.568-   5 2.61   2 2.66   3 2.72
  10  0.621  0.510  0.519-   4 2.65   6 2.67   7 2.69   5 2.72  11 2.78   3 2.99
  11  0.592  0.575  0.650-   3 2.61   7 2.67   4 2.78  10 2.78
 
  LATTYP: Found a simple cubic cell.
 ALAT       =    18.5927535320
  
  Lattice vectors:
  
 A1 = (  18.5927535320,   0.0000000000,   0.0000000000)
 A2 = (   0.0000000000,  18.5927535320,   0.0000000000)
 A3 = (   0.0000000000,   0.0000000000,  18.5927535320)


Analysis of symmetry for initial positions (statically):
=====================================================================
 Subroutine PRICEL returns:
 Original cell was already a primitive cell.
 

 Routine SETGRP: Setting up the symmetry group for a 
 simple cubic supercell.


 Subroutine GETGRP returns: Found  1 space group operations
 (whereof  1 operations were pure point group operations)
 out of a pool of 48 trial point group operations.


The static configuration has the point symmetry C_1 .


Analysis of symmetry for dynamics (positions and initial velocities):
=====================================================================
 Subroutine PRICEL returns:
 Original cell was already a primitive cell.
 

 Routine SETGRP: Setting up the symmetry group for a 
 simple cubic supercell.


 Subroutine GETGRP returns: Found  1 space group operations
 (whereof  1 operations were pure point group operations)
 out of a pool of 48 trial point group operations.


The dynamic configuration has the point symmetry C_1 .


Analysis of magnetic symmetry:
=====================================================================
 Subroutine PRICEL returns:
 Original cell was already a primitive cell.
 

 Subroutine MAGSYM returns: Found  1 space group operations
 (whereof  1 operations were pure point group operations)
 out of a pool of  1 trial space group operations
 (whereof  1 operations were pure point group operations)
 and found also     1 'primitive' translations


The magnetic configuration has the point symmetry C_1 .
 
 
 KPOINTS: Gamma-point only                        
  k-points in reciprocal lattice
Space group operators:
 irot       det(A)        alpha          n_x          n_y          n_z        tau_x        tau_y        tau_z
    1     1.000000     0.000000     1.000000     0.000000     0.000000     0.000000     0.000000     0.000000


--------------------------------------------------------------------------------------------------------




 Dimension of arrays:
   k-points           NKPTS =      1   k-points in BZ     NKDIM =      1   number of bands    NBANDS=     80
   number of dos      NEDOS =    301   number of ions     NIONS =     11
   non local maximal  LDIM  =      6   non local SUM 2l+1 LMDIM =     18
   total plane-waves  NPLWV = 373248
   max r-space proj   IRMAX =      1   max aug-charges    IRDMAX=   3054
   dimension x,y,z NGX =    72 NGY =   72 NGZ =   72
   dimension x,y,z NGXF=   144 NGYF=  144 NGZF=  144
   support grid    NGXF=   144 NGYF=  144 NGZF=  144
   ions per type =              11
 NGX,Y,Z   is equivalent  to a cutoff of   6.44,  6.44,  6.44 a.u.
 NGXF,Y,Z  is equivalent  to a cutoff of  12.88, 12.88, 12.88 a.u.


 I would recommend the setting:
   dimension x,y,z NGX =    72 NGY =   72 NGZ =   72
 SYSTEM =  unknown system                          
 POSCAR =  Pt11, -46.90883332 <s> Ag </s>          

 Startparameter for this run:
   NWRITE =      2    write-flag & timer
   PREC   = normal    normal or accurate (medium, high low for compatibility)
   ISTART =      0    job   : 0-new  1-cont  2-samecut
   ICHARG =      2    charge: 1-file 2-atom 10-const
   ISPIN  =      2    spin polarized calculation?
   LNONCOLLINEAR =      F non collinear calculations
   LSORBIT =      F    spin-orbit coupling
   INIWAV =      1    electr: 0-lowe 1-rand  2-diag
   LASPH  =      F    aspherical Exc in radial PAW
   METAGGA=      F    non-selfconsistent MetaGGA calc.

 Electronic Relaxation 1
   ENCUT  =  249.8 eV  18.36 Ry    4.29 a.u.  23.96 23.96 23.96*2*pi/ulx,y,z
   ENINI  =  249.8     initial cutoff
   ENAUG  =  412.5 eV  augmentation charge cutoff
   NELM   =     60;   NELMIN=  2; NELMDL= -5     # of ELM steps 
   EDIFF  = 0.1E-03   stopping-criterion for ELM
   LREAL  =      F    real-space projection
   NLSPLINE    = F    spline interpolate recip. space projectors
   LCOMPAT=      F    compatible to vasp.4.4
   GGA_COMPAT  = T    GGA compatible to vasp.4.4-vasp.4.6
   LMAXPAW     = -100 max onsite density
   LMAXMIX     =    2 max onsite mixed and CHGCAR
   VOSKOWN=      0    Vosko Wilk Nusair interpolation
   ROPT   =    0.00000
 Ionic relaxation
   EDIFFG = 0.1E-02   stopping-criterion for IOM
   NSW    =   1000    number of steps for IOM
   NBLOCK =      1;   KBLOCK =   1000    inner block; outer block 
   IBRION =      2    ionic relax: 0-MD 1-quasi-New 2-CG
   NFREE  =      1    steps in history (QN), initial steepest desc. (CG)
   ISIF   =      2    stress and relaxation
   IWAVPR =     11    prediction:  0-non 1-charg 2-wave 3-comb
   ISYM   =      2    0-nonsym 1-usesym 2-fastsym
   LCORR  =      T    Harris-Foulkes like correction to forces

   POTIM  = 0.1000    time-step for ionic-motion
   TEIN   =    0.0    initial temperature
   TEBEG  =    0.0;   TEEND  =   0.0 temperature during run
   SMASS  =  -3.00    Nose mass-parameter (am)
   estimated Nose-frequenzy (Omega)   =  0.10E-29 period in steps =****** mass=  -0.790E-26a.u.
   SCALEE = 1.0000    scale energy and forces
   NPACO  =    256;   APACO  = 16.0  distance and # of slots for P.C.
   PSTRESS=    0.0 pullay stress

  Mass of Ions in am
   POMASS = 107.87
  Ionic Valenz
   ZVAL   =  11.00
  Atomic Wigner-Seitz radii
   RWIGS  =  -1.00
  virtual crystal weights 
   VCA    =   1.00
   NELECT =     121.0000    total number of electrons
   NUPDOWN=      -1.0000    fix difference up-down

 DOS related values:
   EMIN   =  10.00;   EMAX   =-10.00  energy-range for DOS
   EFERMI =   0.00
   ISMEAR =     0;   SIGMA  =   0.00  broadening in eV -4-tet -1-fermi 0-gaus

 Electronic relaxation 2 (details)
   IALGO  =     38    algorithm
   LDIAG  =      T    sub-space diagonalisation (order eigenvalues)
   LSUBROT=      F    optimize rotation matrix (better conditioning)
   TURBO    =      0    0=normal 1=particle mesh
   IRESTART =      0    0=no restart 2=restart with 2 vectors
   NREBOOT  =      0    no. of reboots
   NMIN     =      0    reboot dimension
   EREF     =   0.00    reference energy to select bands
   IMIX   =      4    mixing-type and parameters
     AMIX     =   0.40;   BMIX     =  1.00
     AMIX_MAG =   1.60;   BMIX_MAG =  1.00
     AMIN     =   0.10
     WC   =   100.;   INIMIX=   1;  MIXPRE=   1;  MAXMIX= -45

 Intra band minimization:
   WEIMIN = 0.0010     energy-eigenvalue tresh-hold
   EBREAK =  0.31E-06  absolut break condition
   DEPER  =   0.30     relativ break condition  

   TIME   =   0.40     timestep for ELM

  volume/ion in A,a.u.               =     584.30      3943.07
  Fermi-wavevector in a.u.,A,eV,Ry     =   0.435505  0.822985  2.580541  0.189664
  Thomas-Fermi vector in A             =   1.407182
 
 Write flags
   LWAVE  =      F    write WAVECAR
   LCHARG =      F    write CHGCAR
   LVTOT  =      F    write LOCPOT, total local potential
   LVHAR  =      F    write LOCPOT, Hartree potential only
   LELF   =      F    write electronic localiz. function (ELF)
   LORBIT =      0    0 simple, 1 ext, 2 COOP (PROOUT)


 Dipole corrections
   LMONO  =      F    monopole corrections only (constant potential shift)
   LDIPOL =      F    correct potential (dipole corrections)
   IDIPOL =      0    1-x, 2-y, 3-z, 4-all directions 
   EPSILON=  1.0000000 bulk dielectric constant

 Exchange correlation treatment:
   GGA     =    PE    GGA type
   LEXCH   =     8    internal setting for exchange type
   VOSKOWN=      0    Vosko Wilk Nusair interpolation
   LHFCALC =     F    Hartree Fock is set to
   LHFONE  =     F    Hartree Fock one center treatment
   AEXX    =    0.0000 exact exchange contribution

 Linear response parameters
   LEPSILON=     F    determine dielectric tensor
   LRPA    =     F    only Hartree local field effects (RPA)
   LNABLA  =     F    use nabla operator in PAW spheres
   LVEL    =     F    velocity operator in full k-point grid
   LINTERFAST=   F  fast interpolation
   KINTER  =     0    interpolate to denser k-point grid
   CSHIFT  =0.1000    complex shift for real part using Kramers Kronig
   OMEGAMAX=  -1.0    maximum frequency
   DEG_THRESHOLD= 0.2000000E-02 threshold for treating states as degnerate
   RTIME   =    0.100 relaxation time in fs

 Orbital magnetization related:
   ORBITALMAG=     F  switch on orbital magnetization
   LCHIMAG   =     F  perturbation theory with respect to B field
   DQ        =  0.001000  dq finite difference perturbation B field



--------------------------------------------------------------------------------------------------------


 conjugate gradient relaxation of ions
 charge density and potential will be updated during run
 spin polarized calculation
 Variant of blocked Davidson
 Davidson routine will perform the subspace rotation
 perform sub-space diagonalisation
    after iterative eigenvector-optimisation
 modified Broyden-mixing scheme, WC =      100.0
 initial mixing is a Kerker type mixing with AMIX =  0.4000 and BMIX =      1.0000
 Hartree-type preconditioning will be used
 using additional bands           19
 reciprocal scheme for non local part
 use partial core corrections
 calculate Harris-corrections to forces 
   (improved forces if not selfconsistent)
 use gradient corrections 
 use of overlap-Matrix (Vanderbilt PP)
 Gauss-broadening in eV      SIGMA  =   0.00


--------------------------------------------------------------------------------------------------------


  energy-cutoff  :      249.84
  volume of cell :     6427.34
      direct lattice vectors                 reciprocal lattice vectors
    18.592753532  0.000000000  0.000000000     0.053784395  0.000000000  0.000000000
     0.000000000 18.592753532  0.000000000     0.000000000  0.053784395  0.000000000
     0.000000000  0.000000000 18.592753532     0.000000000  0.000000000  0.053784395

  length of vectors
    18.592753532 18.592753532 18.592753532     0.053784395  0.053784395  0.053784395


 
 k-points in units of 2pi/SCALE and weight: Gamma-point only                        
   0.00000000  0.00000000  0.00000000       1.000
 
 k-points in reciprocal lattice and weights: Gamma-point only                        
   0.00000000  0.00000000  0.00000000       1.000
 
 position of ions in fractional coordinates (direct lattice) 
   0.41858348  0.53608837  0.47595078
   0.35322769  0.47102305  0.58210121
   0.49401098  0.48091811  0.61321778
   0.52810118  0.61797876  0.52207267
   0.51198307  0.42368550  0.47182522
   0.58987188  0.49479868  0.37917547
   0.66753346  0.64328373  0.54883176
   0.49750821  0.60577079  0.38269674
   0.43538271  0.35510300  0.56769384
   0.62098599  0.50975692  0.51850105
   0.59179224  0.57471065  0.65007168
 
 position of ions in cartesian coordinates  (Angst):
   7.78261945  9.96735885  8.84923552
   6.56747538  8.75761551 10.82286442
   9.18502435  8.94159188 11.40140700
   9.81885511 11.48992671  9.70676839
   9.51917496  7.87748010  8.77253006
  10.96734252  9.19966993  7.04991611
  12.41128514 11.96041590 10.20429365
   9.25004748 11.26294694  7.11538625
   8.09496334  6.60234251 10.55499160
  11.54583940  9.47778475  9.64036232
  11.00304734 10.68545352 12.08662244
 


--------------------------------------------------------------------------------------------------------


 use parallel FFT for wavefunctions z direction half grid
 k-point  1 :   0.0000 0.0000 0.0000  plane waves:   28874

 maximum and minimum number of plane-waves per node :      3616     3605

 maximum number of plane-waves:     28874
 maximum index in each direction: 
   IXMAX=   23   IYMAX=   23   IZMAX=   23
   IXMIN=  -23   IYMIN=  -23   IZMIN=    0

 WARNING: aliasing errors must be expected set NGX to  94 to avoid them
 WARNING: aliasing errors must be expected set NGY to  94 to avoid them
 WARNING: aliasing errors must be expected set NGZ to  94 to avoid them
 aliasing errors are usually negligible using standard VASP settings
 and one can safely disregard these warnings

 parallel 3D FFT for wavefunctions:
    minimum data exchange during FFTs selected (reduces bandwidth)
 parallel 3D FFT for charge:
    minimum data exchange during FFTs selected (reduces bandwidth)


 total amount of memory used by VASP on root node    49282. kBytes
========================================================================

   base      :      30000. kBytes
   nonl-proj :       1154. kBytes
   fftplans  :       4479. kBytes
   grid      :      11298. kBytes
   one-center:         31. kBytes
   wavefun   :       2320. kBytes
 
     INWAV:  cpu time    0.00: real time    0.00
 Broyden mixing: mesh for mixing (old mesh)
   NGX = 47   NGY = 47   NGZ = 47
  (NGX  =144   NGY  =144   NGZ  =144)
  gives a total of 103823 points

 initial charge density was supplied:
 charge density of overlapping atoms calculated
 number of electron     121.0000000 magnetization      11.0000000
 keeping initial charge density in first step


--------------------------------------------------------------------------------------------------------


 Maximum index for augmentation-charges          238 (set IRDMAX)


--------------------------------------------------------------------------------------------------------


 First call to EWALD:  gamma=   0.095
 Maximum number of real-space cells 3x 3x 3
 Maximum number of reciprocal cells 3x 3x 3

 FEWALD executed in parallel
    FEWALD:  cpu time    0.00: real time    0.00


----------------------------------------- Iteration    1(   1)  ---------------------------------------


    POTLOK:  cpu time    0.18: real time    0.18
    SETDIJ:  cpu time    0.00: real time    0.01
     EDDAV:  cpu time    0.56: real time    0.56
       DOS:  cpu time    0.00: real time    0.00
    --------------------------------------------
      LOOP:  cpu time    0.74: real time    0.77

 eigenvalue-minimisations  :   320
 total energy-change (2. order) : 0.1069265E+04  (-0.1899810E+04)
 number of electron     121.0000000 magnetization      11.0000000
 augmentation part      121.0000000 magnetization      11.0000000

 Free energy of the ion-electron system (eV)
  ---------------------------------------------------
  alpha Z        PSCENC =        16.01284185
  Ewald energy   TEWEN  =     11346.45670474
  -Hartree energ DENC   =    -22256.06713860
  -exchange      EXHF   =         0.00000000
  -V(xc)+E(xc)   XCENC  =      -122.66365309
  PAW double counting   =     11037.09395877   -10529.91069767
  entropy T*S    EENTRO =         0.00000000
  eigenvalues    EBANDS =       169.15807790
  atomic energy  EATOM  =     11409.18493095
  ---------------------------------------------------
  free energy    TOTEN  =      1069.26502484 eV

  energy without entropy =     1069.26502484  energy(sigma->0) =     1069.26502484


--------------------------------------------------------------------------------------------------------




----------------------------------------- Iteration    1(   2)  ---------------------------------------


     EDDAV:  cpu time    0.92: real time    0.92
       DOS:  cpu time    0.00: real time    0.00
    --------------------------------------------
      LOOP:  cpu time    0.92: real time    0.93

 eigenvalue-minimisations  :   600
 total energy-change (2. order) :-0.7113578E+03  (-0.6304732E+03)
 number of electron     121.0000000 magnetization      11.0000000
 augmentation part      121.0000000 magnetization      11.0000000

 Free energy of the ion-electron system (eV)
  ---------------------------------------------------
  alpha Z        PSCENC =        16.01284185
  Ewald energy   TEWEN  =     11346.45670474
  -Hartree energ DENC   =    -22256.06713860
  -exchange      EXHF   =         0.00000000
  -V(xc)+E(xc)   XCENC  =      -122.66365309
  PAW double counting   =     11037.09395877   -10529.91069767
  entropy T*S    EENTRO =         0.00000000
  eigenvalues    EBANDS =      -542.19972834
  atomic energy  EATOM  =     11409.18493095
  ---------------------------------------------------
  free energy    TOTEN  =       357.90721860 eV

  energy without entropy =      357.90721860  energy(sigma->0) =      357.90721860


--------------------------------------------------------------------------------------------------------




----------------------------------------- Iteration    1(   3)  ---------------------------------------


     EDDAV:  cpu time    0.73: real time    0.73
       DOS:  cpu time    0.00: real time    0.00
    --------------------------------------------
      LOOP:  cpu time    0.73: real time    0.74

 eigenvalue-minimisations  :   448
 total energy-change (2. order) :-0.3446414E+03  (-0.3191753E+03)
 number of electron     121.0000000 magnetization      11.0000000
 augmentation part      121.0000000 magnetization      11.0000000

 Free energy of the ion-electron system (eV)
  ---------------------------------------------------
  alpha Z        PSCENC =        16.01284185
  Ewald energy   TEWEN  =     11346.45670474
  -Hartree energ DENC   =    -22256.06713860
  -exchange      EXHF   =         0.00000000
  -V(xc)+E(xc)   XCENC  =      -122.66365309
  PAW double counting   =     11037.09395877   -10529.91069767
  entropy T*S    EENTRO =         0.00000000
  eigenvalues    EBANDS =      -886.84113747
  atomic energy  EATOM  =     11409.18493095
  ---------------------------------------------------
  free energy    TOTEN  =        13.26580948 eV

  energy without entropy =       13.26580948  energy(sigma->0) =       13.26580948


--------------------------------------------------------------------------------------------------------




----------------------------------------- Iteration    1(   4)  ---------------------------------------


     EDDAV:  cpu time    0.60: real time    0.60
       DOS:  cpu time    0.00: real time    0.00
    --------------------------------------------
      LOOP:  cpu time    0.60: real time    0.61

 eigenvalue-minimisations  :   344
 total energy-change (2. order) :-0.3083299E+02  (-0.2863419E+02)
 number of electron     121.0000000 magnetization      11.0000000
 augmentation part      121.0000000 magnetization      11.0000000

 Free energy of the ion-electron system (eV)
  ---------------------------------------------------
  alpha Z        PSCENC =        16.01284185
  Ewald energy   TEWEN  =     11346.45670474
  -Hartree energ DENC   =    -22256.06713860
  -exchange      EXHF   =         0.00000000
  -V(xc)+E(xc)   XCENC  =      -122.66365309
  PAW double counting   =     11037.09395877   -10529.91069767
  entropy T*S    EENTRO =         0.00000000
  eigenvalues    EBANDS =      -917.67412974
  atomic energy  EATOM  =     11409.18493095
  ---------------------------------------------------
  free energy    TOTEN  =       -17.56718280 eV

  energy without entropy =      -17.56718280  energy(sigma->0) =      -17.56718280


--------------------------------------------------------------------------------------------------------




----------------------------------------- Iteration    1(   5)  ---------------------------------------


     EDDAV:  cpu time    0.60: real time    0.60
       DOS:  cpu time    0.00: real time    0.00
    CHARGE:  cpu time    0.04: real time    0.04
    MIXING:  cpu time    0.00: real time    0.00
    --------------------------------------------
      LOOP:  cpu time    0.64: real time    0.65

 eigenvalue-minimisations  :   344
 total energy-change (2. order) :-0.8603518E+00  (-0.8530480E+00)
 number of electron     120.9999711 magnetization       9.3600579
 augmentation part       57.1817363 magnetization       8.5816247

 Broyden mixing:
  rms(total) = 0.18689E+01    rms(broyden)= 0.18685E+01
  rms(prec ) = 0.19096E+01
  weight for this iteration     100.00

 Free energy of the ion-electron system (eV)
  ---------------------------------------------------
  alpha Z        PSCENC =        16.01284185
  Ewald energy   TEWEN  =     11346.45670474
  -Hartree energ DENC   =    -22256.06713860
  -exchange      EXHF   =         0.00000000
  -V(xc)+E(xc)   XCENC  =      -122.66365309
  PAW double counting   =     11037.09395877   -10529.91069767
  entropy T*S    EENTRO =         0.00000000
  eigenvalues    EBANDS =      -918.53448154
  atomic energy  EATOM  =     11409.18493095
  ---------------------------------------------------
  free energy    TOTEN  =       -18.42753460 eV

  energy without entropy =      -18.42753460  energy(sigma->0) =      -18.42753460


--------------------------------------------------------------------------------------------------------




----------------------------------------- Iteration    1(   6)  ---------------------------------------


    POTLOK:  cpu time    0.17: real time    0.17
    SETDIJ:  cpu time    0.00: real time    0.01
     EDDAV:  cpu time    0.57: real time    0.57
       DOS:  cpu time    0.00: real time    0.00
    CHARGE:  cpu time    0.04: real time    0.04
    MIXING:  cpu time    0.00: real time    0.00
    --------------------------------------------
      LOOP:  cpu time    0.79: real time    0.80

 eigenvalue-minimisations  :   320
 total energy-change (2. order) : 0.1484067E+02  (-0.4397351E+01)
 number of electron     120.9999706 magnetization       8.3846880
 augmentation part       58.2520686 magnetization       4.5946825

 Broyden mixing:
  rms(total) = 0.91238E+00    rms(broyden)= 0.91228E+00
  rms(prec ) = 0.93455E+00
  weight for this iteration     100.00

 eigenvalues of (default mixing * dielectric matrix)
  average eigenvalue GAMMA=   0.8504
  0.8504

 Free energy of the ion-electron system (eV)
  ---------------------------------------------------
  alpha Z        PSCENC =        16.01284185
  Ewald energy   TEWEN  =     11346.45670474
  -Hartree energ DENC   =    -22222.77576252
  -exchange      EXHF   =         0.00000000
  -V(xc)+E(xc)   XCENC  =      -114.75199119
  PAW double counting   =     11413.44455653   -10914.04441568
  entropy T*S    EENTRO =         0.00000000
  eigenvalues    EBANDS =      -937.11372838
  atomic energy  EATOM  =     11409.18493095
  ---------------------------------------------------
  free energy    TOTEN  =        -3.58686370 eV

  energy without entropy =       -3.58686370  energy(sigma->0) =       -3.58686370


--------------------------------------------------------------------------------------------------------




----------------------------------------- Iteration    1(   7)  ---------------------------------------


    POTLOK:  cpu time    0.17: real time    0.17
    SETDIJ:  cpu time    0.00: real time    0.01
     EDDAV:  cpu time    0.60: real time    0.60
       DOS:  cpu time    0.00: real time    0.00
    CHARGE:  cpu time    0.04: real time    0.04
    MIXING:  cpu time    0.00: real time    0.00
    --------------------------------------------
      LOOP:  cpu time    0.82: real time    0.83

 eigenvalue-minimisations  :   344
 total energy-change (2. order) : 0.1307962E+01  (-0.2842814E+00)
 number of electron     120.9999706 magnetization       7.0495946
 augmentation part       58.1876201 magnetization       3.4082217

 Broyden mixing:
  rms(total) = 0.51372E+00    rms(broyden)= 0.51370E+00
  rms(prec ) = 0.52528E+00
  weight for this iteration     100.00

 eigenvalues of (default mixing * dielectric matrix)
  average eigenvalue GAMMA=   0.9693
  0.7479  1.1906

 Free energy of the ion-electron system (eV)
  ---------------------------------------------------
  alpha Z        PSCENC =        16.01284185
  Ewald energy   TEWEN  =     11346.45670474
  -Hartree energ DENC   =    -22245.12054596
  -exchange      EXHF   =         0.00000000
  -V(xc)+E(xc)   XCENC  =      -113.23921769
  PAW double counting   =     11636.17709860   -11141.69578426
  entropy T*S    EENTRO =         0.00000000
  eigenvalues    EBANDS =      -910.05493040
  atomic energy  EATOM  =     11409.18493095
  ---------------------------------------------------
  free energy    TOTEN  =        -2.27890217 eV

  energy without entropy =       -2.27890217  energy(sigma->0) =       -2.27890217


--------------------------------------------------------------------------------------------------------




----------------------------------------- Iteration    1(   8)  ---------------------------------------


    POTLOK:  cpu time    0.17: real time    0.17
    SETDIJ:  cpu time    0.00: real time    0.01
     EDDAV:  cpu time    0.60: real time    0.60
       DOS:  cpu time    0.00: real time    0.00
    CHARGE:  cpu time    0.04: real time    0.04
    MIXING:  cpu time    0.00: real time    0.00
    --------------------------------------------
      LOOP:  cpu time    0.82: real time    0.83

 eigenvalue-minimisations  :   344
 total energy-change (2. order) :-0.3220834E+01  (-0.1998207E+00)
 number of electron     120.9999707 magnetization       6.1746182
 augmentation part       58.0802169 magnetization       2.6699271

 Broyden mixing:
  rms(total) = 0.24642E+00    rms(broyden)= 0.24640E+00
  rms(prec ) = 0.25075E+00
  weight for this iteration     100.00

 eigenvalues of (default mixing * dielectric matrix)
  average eigenvalue GAMMA=   1.1870
  2.0216  0.9163  0.6232

 Free energy of the ion-electron system (eV)
  ---------------------------------------------------
  alpha Z        PSCENC =        16.01284185
  Ewald energy   TEWEN  =     11346.45670474
  -Hartree energ DENC   =    -22266.61938871
  -exchange      EXHF   =         0.00000000
  -V(xc)+E(xc)   XCENC  =      -115.37655194
  PAW double counting   =     11873.24115679   -11383.44260640
  entropy T*S    EENTRO =         0.00000000
  eigenvalues    EBANDS =      -884.95682315
  atomic energy  EATOM  =     11409.18493095
  ---------------------------------------------------
  free energy    TOTEN  =        -5.49973588 eV

  energy without entropy =       -5.49973588  energy(sigma->0) =       -5.49973588


--------------------------------------------------------------------------------------------------------




----------------------------------------- Iteration    1(   9)  ---------------------------------------


    POTLOK:  cpu time    0.17: real time    0.17
    SETDIJ:  cpu time    0.00: real time    0.01
     EDDAV:  cpu time    0.62: real time    0.62
       DOS:  cpu time    0.00: real time    0.00
    CHARGE:  cpu time    0.04: real time    0.04
    MIXING:  cpu time    0.00: real time    0.01
    --------------------------------------------
      LOOP:  cpu time    0.84: real time    0.85

 eigenvalue-minimisations  :   360
 total energy-change (2. order) :-0.2716529E+01  (-0.8644446E-01)
 number of electron     120.9999707 magnetization       5.4657017
 augmentation part       58.0743844 magnetization       2.0482580

 Broyden mixing:
  rms(total) = 0.12736E+00    rms(broyden)= 0.12735E+00
  rms(prec ) = 0.13284E+00
  weight for this iteration     100.00

 eigenvalues of (default mixing * dielectric matrix)
  average eigenvalue GAMMA=   1.1937
  2.1154  0.6248  0.8023  1.2324

 Free energy of the ion-electron system (eV)
  ---------------------------------------------------
  alpha Z        PSCENC =        16.01284185
  Ewald energy   TEWEN  =     11346.45670474
  -Hartree energ DENC   =    -22269.99734135
  -exchange      EXHF   =         0.00000000
  -V(xc)+E(xc)   XCENC  =      -117.47481627
  PAW double counting   =     11956.70604613   -11468.52819137
  entropy T*S    EENTRO =         0.00000000
  eigenvalues    EBANDS =      -880.57643966
  atomic energy  EATOM  =     11409.18493095
  ---------------------------------------------------
  free energy    TOTEN  =        -8.21626498 eV

  energy without entropy =       -8.21626498  energy(sigma->0) =       -8.21626498


--------------------------------------------------------------------------------------------------------




----------------------------------------- Iteration    1(  10)  ---------------------------------------


    POTLOK:  cpu time    0.17: real time    0.17
    SETDIJ:  cpu time    0.01: real time    0.01
     EDDAV:  cpu time    0.58: real time    0.59
       DOS:  cpu time    0.00: real time    0.00
    CHARGE:  cpu time    0.04: real time    0.04
    MIXING:  cpu time    0.00: real time    0.01
    --------------------------------------------
      LOOP:  cpu time    0.81: real time    0.82

 eigenvalue-minimisations  :   336
 total energy-change (2. order) :-0.3094412E+01  (-0.1027484E+00)
 number of electron     120.9999708 magnetization       5.4741283
 augmentation part       58.0867341 magnetization       4.1310315

 Broyden mixing:
  rms(total) = 0.24035E+00    rms(broyden)= 0.24018E+00
  rms(prec ) = 0.27747E+00
  weight for this iteration     100.00

 eigenvalues of (default mixing * dielectric matrix)
  average eigenvalue GAMMA=   0.9658
  2.1264  1.2316  0.6259  0.8058  0.0393

 Free energy of the ion-electron system (eV)
  ---------------------------------------------------
  alpha Z        PSCENC =        16.01284185
  Ewald energy   TEWEN  =     11346.45670474
  -Hartree energ DENC   =    -22266.55363969
  -exchange      EXHF   =         0.00000000
  -V(xc)+E(xc)   XCENC  =      -119.93488894
  PAW double counting   =     11962.54061520   -11474.60574751
  entropy T*S    EENTRO =         0.00000000
  eigenvalues    EBANDS =      -884.41149343
  atomic energy  EATOM  =     11409.18493095
  ---------------------------------------------------
  free energy    TOTEN  =       -11.31067684 eV

  energy without entropy =      -11.31067684  energy(sigma->0) =      -11.31067684


--------------------------------------------------------------------------------------------------------




----------------------------------------- Iteration    1(  11)  ---------------------------------------


    POTLOK:  cpu time    0.17: real time    0.17
    SETDIJ:  cpu time    0.01: real time    0.01
     EDDAV:  cpu time    0.61: real time    0.61
       DOS:  cpu time    0.00: real time    0.00
    CHARGE:  cpu time    0.04: real time    0.04
    MIXING:  cpu time    0.00: real time    0.01
    --------------------------------------------
      LOOP:  cpu time    0.83: real time    0.84

 eigenvalue-minimisations  :   352
 total energy-change (2. order) : 0.4232684E-01  (-0.1832035E-02)
 number of electron     120.9999708 magnetization       5.4746006
 augmentation part       58.0800490 magnetization       4.1378710

 Broyden mixing:
  rms(total) = 0.24067E+00    rms(broyden)= 0.24066E+00
  rms(prec ) = 0.27825E+00
  weight for this iteration     100.00

 eigenvalues of (default mixing * dielectric matrix)
  average eigenvalue GAMMA=   0.8277
  2.1497  1.2003  0.6245  0.8021  0.0950  0.0950

 Free energy of the ion-electron system (eV)
  ---------------------------------------------------
  alpha Z        PSCENC =        16.01284185
  Ewald energy   TEWEN  =     11346.45670474
  -Hartree energ DENC   =    -22266.52137184
  -exchange      EXHF   =         0.00000000
  -V(xc)+E(xc)   XCENC  =      -119.89301724
  PAW double counting   =     11962.35624886   -11474.41655316
  entropy T*S    EENTRO =         0.00000000
  eigenvalues    EBANDS =      -884.44813415
  atomic energy  EATOM  =     11409.18493095
  ---------------------------------------------------
  free energy    TOTEN  =       -11.26834999 eV

  energy without entropy =      -11.26834999  energy(sigma->0) =      -11.26834999


--------------------------------------------------------------------------------------------------------




----------------------------------------- Iteration    1(  12)  ---------------------------------------


    POTLOK:  cpu time    0.17: real time    0.17
    SETDIJ:  cpu time    0.01: real time    0.01
     EDDAV:  cpu time    0.55: real time    0.55
       DOS:  cpu time    0.00: real time    0.00
    CHARGE:  cpu time    0.04: real time    0.04
    MIXING:  cpu time    0.00: real time    0.01
    --------------------------------------------
      LOOP:  cpu time    0.77: real time    0.78

 eigenvalue-minimisations  :   304
 total energy-change (2. order) : 0.1458617E-01  (-0.6207168E-04)
 number of electron     120.9999708 magnetization       5.4556944
 augmentation part       58.0807153 magnetization       4.1197840

 Broyden mixing:
  rms(total) = 0.24076E+00    rms(broyden)= 0.24076E+00
  rms(prec ) = 0.27835E+00
  weight for this iteration     100.00

 eigenvalues of (default mixing * dielectric matrix)
  average eigenvalue GAMMA=   0.7454
  2.1469  1.2005  0.8011  0.6244  0.1543  0.1543  0.1363

 Free energy of the ion-electron system (eV)
  ---------------------------------------------------
  alpha Z        PSCENC =        16.01284185
  Ewald energy   TEWEN  =     11346.45670474
  -Hartree energ DENC   =    -22266.44012431
  -exchange      EXHF   =         0.00000000
  -V(xc)+E(xc)   XCENC  =      -119.88274919
  PAW double counting   =     11961.74803395   -11473.80433878
  entropy T*S    EENTRO =         0.00000000
  eigenvalues    EBANDS =      -884.52906304
  atomic energy  EATOM  =     11409.18493095
  ---------------------------------------------------
  free energy    TOTEN  =       -11.25376382 eV

  energy without entropy =      -11.25376382  energy(sigma->0) =      -11.25376382


--------------------------------------------------------------------------------------------------------




----------------------------------------- Iteration    1(  13)  ---------------------------------------


    POTLOK:  cpu time    0.17: real time    0.17
    SETDIJ:  cpu time    0.00: real time    0.01
     EDDAV:  cpu time    0.52: real time    0.52
       DOS:  cpu time    0.00: real time    0.00
    CHARGE:  cpu time    0.04: real time    0.04
    MIXING:  cpu time    0.01: real time    0.01
    --------------------------------------------
      LOOP:  cpu time    0.74: real time    0.74

 eigenvalue-minimisations  :   280
 total energy-change (2. order) :-0.2585057E-01  (-0.2426348E-03)
 number of electron     120.9999708 magnetization       5.4631627
 augmentation part       58.0784257 magnetization       4.1279866

 Broyden mixing:
  rms(total) = 0.23865E+00    rms(broyden)= 0.23865E+00
  rms(prec ) = 0.27604E+00
  weight for this iteration     100.00

 eigenvalues of (default mixing * dielectric matrix)
  average eigenvalue GAMMA=   0.7193
  2.1422  1.2030  0.8014  0.6242  0.3325  0.2424  0.2424  0.1663

 Free energy of the ion-electron system (eV)
  ---------------------------------------------------
  alpha Z        PSCENC =        16.01284185
  Ewald energy   TEWEN  =     11346.45670474
  -Hartree energ DENC   =    -22266.81399835
  -exchange      EXHF   =         0.00000000
  -V(xc)+E(xc)   XCENC  =      -119.89535664
  PAW double counting   =     11968.78852530   -11480.85659916
  entropy T*S    EENTRO =         0.00000000
  eigenvalues    EBANDS =      -884.15666307
  atomic energy  EATOM  =     11409.18493095
  ---------------------------------------------------
  free energy    TOTEN  =       -11.27961438 eV

  energy without entropy =      -11.27961438  energy(sigma->0) =      -11.27961438


--------------------------------------------------------------------------------------------------------




----------------------------------------- Iteration    1(  14)  ---------------------------------------


    POTLOK:  cpu time    0.17: real time    0.17
    SETDIJ:  cpu time    0.00: real time    0.01
     EDDAV:  cpu time    0.50: real time    0.51
       DOS:  cpu time    0.00: real time    0.00
    CHARGE:  cpu time    0.04: real time    0.04
    MIXING:  cpu time    0.00: real time    0.01
    --------------------------------------------
      LOOP:  cpu time    0.73: real time    0.73

 eigenvalue-minimisations  :   272
 total energy-change (2. order) : 0.8060537E-02  (-0.4796854E-04)
 number of electron     120.9999708 magnetization       5.7594105
 augmentation part       58.0792913 magnetization       4.4240264

 Broyden mixing:
  rms(total) = 0.23954E+00    rms(broyden)= 0.23954E+00
  rms(prec ) = 0.27705E+00
  weight for this iteration     100.00

 eigenvalues of (default mixing * dielectric matrix)
  average eigenvalue GAMMA=   0.9083
  2.2239  1.4268  1.2241  0.5668  0.5668  0.8308  0.6241  0.3735  0.3383

 Free energy of the ion-electron system (eV)
  ---------------------------------------------------
  alpha Z        PSCENC =        16.01284185
  Ewald energy   TEWEN  =     11346.45670474
  -Hartree energ DENC   =    -22266.65063212
  -exchange      EXHF   =         0.00000000
  -V(xc)+E(xc)   XCENC  =      -119.89372036
  PAW double counting   =     11966.38108328   -11478.44682611
  entropy T*S    EENTRO =         0.00000000
  eigenvalues    EBANDS =      -884.31593608
  atomic energy  EATOM  =     11409.18493095
  ---------------------------------------------------
  free energy    TOTEN  =       -11.27155385 eV

  energy without entropy =      -11.27155385  energy(sigma->0) =      -11.27155385


--------------------------------------------------------------------------------------------------------




----------------------------------------- Iteration    1(  15)  ---------------------------------------


    POTLOK:  cpu time    0.17: real time    0.17
    SETDIJ:  cpu time    0.00: real time    0.01
     EDDAV:  cpu time    0.59: real time    0.59
       DOS:  cpu time    0.00: real time    0.00
    CHARGE:  cpu time    0.04: real time    0.04
    MIXING:  cpu time    0.01: real time    0.01
    --------------------------------------------
      LOOP:  cpu time    0.81: real time    0.81

 eigenvalue-minimisations  :   336
 total energy-change (2. order) : 0.3786313E+00  (-0.4512485E-01)
 number of electron     120.9999707 magnetization       5.5589832
 augmentation part       58.1208016 magnetization       2.2334776

 Broyden mixing:
  rms(total) = 0.12316E+00    rms(broyden)= 0.12282E+00
  rms(prec ) = 0.12801E+00
  weight for this iteration     100.00

 eigenvalues of (default mixing * dielectric matrix)
  average eigenvalue GAMMA=   1.0725
  2.5036  2.5695  1.4803  0.6171  0.6171  0.8010  0.8010  0.6439  0.3459  0.3459

 Free energy of the ion-electron system (eV)
  ---------------------------------------------------
  alpha Z        PSCENC =        16.01284185
  Ewald energy   TEWEN  =     11346.45670474
  -Hartree energ DENC   =    -22261.31053545
  -exchange      EXHF   =         0.00000000
  -V(xc)+E(xc)   XCENC  =      -119.74158906
  PAW double counting   =     11893.35562214   -11405.54448602
  entropy T*S    EENTRO =         0.00000000
  eigenvalues    EBANDS =      -889.30641166
  atomic energy  EATOM  =     11409.18493095
  ---------------------------------------------------
  free energy    TOTEN  =       -10.89292252 eV

  energy without entropy =      -10.89292252  energy(sigma->0) =      -10.89292252


--------------------------------------------------------------------------------------------------------




----------------------------------------- Iteration    1(  16)  ---------------------------------------


    POTLOK:  cpu time    0.18: real time    0.17
    SETDIJ:  cpu time    0.00: real time    0.01
     EDDAV:  cpu time    0.56: real time    0.56
       DOS:  cpu time    0.00: real time    0.00
    CHARGE:  cpu time    0.04: real time    0.04
    MIXING:  cpu time    0.00: real time    0.01
    --------------------------------------------
      LOOP:  cpu time    0.79: real time    0.79

 eigenvalue-minimisations  :   320
 total energy-change (2. order) :-0.2622222E+01  (-0.7712768E-01)
 number of electron     120.9999707 magnetization       5.9934253
 augmentation part       58.1791751 magnetization       4.6726427

 Broyden mixing:
  rms(total) = 0.36743E+00    rms(broyden)= 0.36736E+00
  rms(prec ) = 0.42309E+00
  weight for this iteration     100.00

 eigenvalues of (default mixing * dielectric matrix)
  average eigenvalue GAMMA=   1.0900
  3.1041  2.5631  1.4599  0.6513  0.6513  0.8011  0.7454  0.7454  0.6277  0.3203
  0.3203

 Free energy of the ion-electron system (eV)
  ---------------------------------------------------
  alpha Z        PSCENC =        16.01284185
  Ewald energy   TEWEN  =     11346.45670474
  -Hartree energ DENC   =    -22251.22239508
  -exchange      EXHF   =         0.00000000
  -V(xc)+E(xc)   XCENC  =      -121.92134265
  PAW double counting   =     11819.92949304   -11332.21086464
  entropy T*S    EENTRO =         0.00000000
  eigenvalues    EBANDS =      -899.74451260
  atomic energy  EATOM  =     11409.18493095
  ---------------------------------------------------
  free energy    TOTEN  =       -13.51514439 eV

  energy without entropy =      -13.51514439  energy(sigma->0) =      -13.51514439


--------------------------------------------------------------------------------------------------------




----------------------------------------- Iteration    1(  17)  ---------------------------------------


    POTLOK:  cpu time    0.17: real time    0.17
    SETDIJ:  cpu time    0.01: real time    0.01
     EDDAV:  cpu time    0.58: real time    0.59
       DOS:  cpu time    0.00: real time    0.00
    CHARGE:  cpu time    0.04: real time    0.04
    MIXING:  cpu time    0.00: real time    0.01
    --------------------------------------------
      LOOP:  cpu time    0.81: real time    0.81

 eigenvalue-minimisations  :   336
 total energy-change (2. order) : 0.5805038E-01  (-0.7955039E-01)
 number of electron     120.9999707 magnetization       5.9363528
 augmentation part       58.2103440 magnetization       4.5825695

 Broyden mixing:
  rms(total) = 0.45391E+00    rms(broyden)= 0.45391E+00
  rms(prec ) = 0.52158E+00
  weight for this iteration     100.00

 eigenvalues of (default mixing * dielectric matrix)
  average eigenvalue GAMMA=   1.0008
  3.0298  2.5663  1.4623  0.6472  0.6472  0.7558  0.7558  0.7989  0.6282  0.3232
  0.3232  0.0713

 Free energy of the ion-electron system (eV)
  ---------------------------------------------------
  alpha Z        PSCENC =        16.01284185
  Ewald energy   TEWEN  =     11346.45670474
  -Hartree energ DENC   =    -22244.00257526
  -exchange      EXHF   =         0.00000000
  -V(xc)+E(xc)   XCENC  =      -122.04874419
  PAW double counting   =     11766.55891343   -11278.63817752
  entropy T*S    EENTRO =         0.00000000
  eigenvalues    EBANDS =      -906.98098801
  atomic energy  EATOM  =     11409.18493095
  ---------------------------------------------------
  free energy    TOTEN  =       -13.45709402 eV

  energy without entropy =      -13.45709402  energy(sigma->0) =      -13.45709402


--------------------------------------------------------------------------------------------------------




----------------------------------------- Iteration    1(  18)  ---------------------------------------


    POTLOK:  cpu time    0.17: real time    0.17
    SETDIJ:  cpu time    0.00: real time    0.01
     EDDAV:  cpu time    0.63: real time    0.63
       DOS:  cpu time    0.00: real time    0.00
    CHARGE:  cpu time    0.04: real time    0.04
    MIXING:  cpu time    0.01: real time    0.01
    --------------------------------------------
      LOOP:  cpu time    0.86: real time    0.86

 eigenvalue-minimisations  :   368
 total energy-change (2. order) :-0.7785476E-01  (-0.3235666E-02)
 number of electron     120.9999707 magnetization       5.9633676
 augmentation part       58.2060188 magnetization       4.6141843

 Broyden mixing:
  rms(total) = 0.44611E+00    rms(broyden)= 0.44611E+00
  rms(prec ) = 0.51284E+00
  weight for this iteration     100.00

 eigenvalues of (default mixing * dielectric matrix)
  average eigenvalue GAMMA=   0.9306
  3.0384  2.5682  1.4618  0.6479  0.6479  0.7551  0.7551  0.7992  0.6282  0.3232
  0.3232  0.0747  0.0747

 Free energy of the ion-electron system (eV)
  ---------------------------------------------------
  alpha Z        PSCENC =        16.01284185
  Ewald energy   TEWEN  =     11346.45670474
  -Hartree energ DENC   =    -22244.76135398
  -exchange      EXHF   =         0.00000000
  -V(xc)+E(xc)   XCENC  =      -122.08104291
  PAW double counting   =     11772.54006346   -11284.63234423
  entropy T*S    EENTRO =         0.00000000
  eigenvalues    EBANDS =      -906.25474867
  atomic energy  EATOM  =     11409.18493095
  ---------------------------------------------------
  free energy    TOTEN  =       -13.53494878 eV

  energy without entropy =      -13.53494878  energy(sigma->0) =      -13.53494878


--------------------------------------------------------------------------------------------------------




----------------------------------------- Iteration    1(  19)  ---------------------------------------


    POTLOK:  cpu time    0.17: real time    0.17
    SETDIJ:  cpu time    0.01: real time    0.01
     EDDAV:  cpu time    0.62: real time    0.62
       DOS:  cpu time    0.00: real time    0.00
    CHARGE:  cpu time    0.04: real time    0.04
    MIXING:  cpu time    0.01: real time    0.01
    --------------------------------------------
      LOOP:  cpu time    0.84: real time    0.85

 eigenvalue-minimisations  :   360
 total energy-change (2. order) : 0.1508408E-01  (-0.3824256E-02)
 number of electron     120.9999707 magnetization       6.0374026
 augmentation part       58.2035450 magnetization       4.6814873

 Broyden mixing:
  rms(total) = 0.44777E+00    rms(broyden)= 0.44777E+00
  rms(prec ) = 0.51648E+00
  weight for this iteration     100.00

 eigenvalues of (default mixing * dielectric matrix)
  average eigenvalue GAMMA=   1.0180
  3.4132  2.6408  1.4551  0.8401  0.8401  0.5850  0.5850  0.7686  0.7686  0.7862
  0.6279  0.3298  0.3298  0.2812

 Free energy of the ion-electron system (eV)
  ---------------------------------------------------
  alpha Z        PSCENC =        16.01284185
  Ewald energy   TEWEN  =     11346.45670474
  -Hartree energ DENC   =    -22245.02771906
  -exchange      EXHF   =         0.00000000
  -V(xc)+E(xc)   XCENC  =      -122.09476458
  PAW double counting   =     11785.62877482   -11297.74075120
  entropy T*S    EENTRO =         0.00000000
  eigenvalues    EBANDS =      -905.93988221
  atomic energy  EATOM  =     11409.18493095
  ---------------------------------------------------
  free energy    TOTEN  =       -13.51986470 eV

  energy without entropy =      -13.51986470  energy(sigma->0) =      -13.51986470


--------------------------------------------------------------------------------------------------------




----------------------------------------- Iteration    1(  20)  ---------------------------------------


    POTLOK:  cpu time    0.17: real time    0.17
    SETDIJ:  cpu time    0.01: real time    0.01
     EDDAV:  cpu time    0.58: real time    0.59
       DOS:  cpu time    0.00: real time    0.00
    CHARGE:  cpu time    0.04: real time    0.04
    MIXING:  cpu time    0.01: real time    0.01
    --------------------------------------------
      LOOP:  cpu time    0.81: real time    0.82

 eigenvalue-minimisations  :   336
 total energy-change (2. order) : 0.3067306E+00  (-0.4441748E-01)
 number of electron     120.9999707 magnetization       6.1067019
 augmentation part       58.1963930 magnetization       4.7243841

 Broyden mixing:
  rms(total) = 0.44709E+00    rms(broyden)= 0.44709E+00
  rms(prec ) = 0.51957E+00
  weight for this iteration     100.00

 eigenvalues of (default mixing * dielectric matrix)
  average eigenvalue GAMMA=   1.1106
  3.9701  2.6514  1.4222  1.4222  1.4553  0.6088  0.6088  0.8056  0.8056  0.7920
  0.6353  0.3232  0.3232  0.4173  0.4173

 Free energy of the ion-electron system (eV)
  ---------------------------------------------------
  alpha Z        PSCENC =        16.01284185
  Ewald energy   TEWEN  =     11346.45670474
  -Hartree energ DENC   =    -22246.60049037
  -exchange      EXHF   =         0.00000000
  -V(xc)+E(xc)   XCENC  =      -121.96846169
  PAW double counting   =     11819.94235766   -11332.09194091
  entropy T*S    EENTRO =        -0.00000000
  eigenvalues    EBANDS =      -904.14907637
  atomic energy  EATOM  =     11409.18493095
  ---------------------------------------------------
  free energy    TOTEN  =       -13.21313414 eV

  energy without entropy =      -13.21313414  energy(sigma->0) =      -13.21313414


--------------------------------------------------------------------------------------------------------




----------------------------------------- Iteration    1(  21)  ---------------------------------------


    POTLOK:  cpu time    0.17: real time    0.17
    SETDIJ:  cpu time    0.01: real time    0.01
     EDDAV:  cpu time    0.58: real time    0.59
       DOS:  cpu time    0.00: real time    0.00
    CHARGE:  cpu time    0.04: real time    0.04
    MIXING:  cpu time    0.01: real time    0.01
    --------------------------------------------
      LOOP:  cpu time    0.81: real time    0.81

 eigenvalue-minimisations  :   336
 total energy-change (2. order) : 0.4484511E+00  (-0.3051038E-01)
 number of electron     120.9999706 magnetization       6.4141528
 augmentation part       58.1910814 magnetization       3.0487680

 Broyden mixing:
  rms(total) = 0.27936E+00    rms(broyden)= 0.27920E+00
  rms(prec ) = 0.31415E+00
  weight for this iteration     100.00

 eigenvalues of (default mixing * dielectric matrix)
  average eigenvalue GAMMA=   1.1132
  4.5098  2.6567  1.5669  1.5669  1.4637  0.6082  0.6082  0.8656  0.8656  0.8108
  0.6345  0.4062  0.4062  0.3273  0.3273  0.1868

 Free energy of the ion-electron system (eV)
  ---------------------------------------------------
  alpha Z        PSCENC =        16.01284185
  Ewald energy   TEWEN  =     11346.45670474
  -Hartree energ DENC   =    -22247.80636897
  -exchange      EXHF   =         0.00000000
  -V(xc)+E(xc)   XCENC  =      -121.68154148
  PAW double counting   =     11829.06214984   -11341.22781151
  entropy T*S    EENTRO =         0.00000000
  eigenvalues    EBANDS =      -902.76558850
  atomic energy  EATOM  =     11409.18493095
  ---------------------------------------------------
  free energy    TOTEN  =       -12.76468308 eV

  energy without entropy =      -12.76468308  energy(sigma->0) =      -12.76468308


--------------------------------------------------------------------------------------------------------




----------------------------------------- Iteration    1(  22)  ---------------------------------------


    POTLOK:  cpu time    0.17: real time    0.17
    SETDIJ:  cpu time    0.01: real time    0.01
     EDDAV:  cpu time    0.61: real time    0.61
       DOS:  cpu time    0.00: real time    0.00
    CHARGE:  cpu time    0.04: real time    0.04
    MIXING:  cpu time    0.01: real time    0.01
    --------------------------------------------
      LOOP:  cpu time    0.84: real time    0.97

 eigenvalue-minimisations  :   352
 total energy-change (2. order) : 0.6980329E+00  (-0.5536947E-01)
 number of electron     120.9999706 magnetization       6.1137834
 augmentation part       58.2099729 magnetization       2.7059525

 Broyden mixing:
  rms(total) = 0.32789E+00    rms(broyden)= 0.32788E+00
  rms(prec ) = 0.37286E+00
  weight for this iteration     100.00

 eigenvalues of (default mixing * dielectric matrix)
  average eigenvalue GAMMA=   1.0401
  3.6972  2.6854  1.3300  1.3300  0.9360  1.4680  0.6043  0.6043  0.9121  0.9121
  0.7825  0.6340  0.4038  0.4038  0.3354  0.3214  0.3214

 Free energy of the ion-electron system (eV)
  ---------------------------------------------------
  alpha Z        PSCENC =        16.01284185
  Ewald energy   TEWEN  =     11346.45670474
  -Hartree energ DENC   =    -22245.34205452
  -exchange      EXHF   =         0.00000000
  -V(xc)+E(xc)   XCENC  =      -121.28215945
  PAW double counting   =     11820.14657912   -11332.19917584
  entropy T*S    EENTRO =         0.00000000
  eigenvalues    EBANDS =      -905.04431704
  atomic energy  EATOM  =     11409.18493095
  ---------------------------------------------------
  free energy    TOTEN  =       -12.06665019 eV

  energy without entropy =      -12.06665019  energy(sigma->0) =      -12.06665019


--------------------------------------------------------------------------------------------------------




----------------------------------------- Iteration    1(  23)  ---------------------------------------


    POTLOK:  cpu time    0.17: real time    0.17
    SETDIJ:  cpu time    0.01: real time    0.01
     EDDAV:  cpu time    0.60: real time    0.60
       DOS:  cpu time    0.00: real time    0.00
    CHARGE:  cpu time    0.04: real time    0.04
    MIXING:  cpu time    0.01: real time    0.01
    --------------------------------------------
      LOOP:  cpu time    0.82: real time    0.83

 eigenvalue-minimisations  :   344
 total energy-change (2. order) :-0.7949467E+00  (-0.2600597E-01)
 number of electron     120.9999706 magnetization       5.1751185
 augmentation part       58.1965784 magnetization       1.7986557

 Broyden mixing:
  rms(total) = 0.29123E+00    rms(broyden)= 0.29123E+00
  rms(prec ) = 0.32988E+00
  weight for this iteration     100.00

 eigenvalues of (default mixing * dielectric matrix)
  average eigenvalue GAMMA=   1.1233
  3.3586  3.3586  2.7410  1.2077  1.2077  1.4660  0.6022  0.6022  0.9243  0.9243
  0.8156  0.6355  0.4587  0.4587  0.4108  0.4108  0.3185  0.3185

 Free energy of the ion-electron system (eV)
  ---------------------------------------------------
  alpha Z        PSCENC =        16.01284185
  Ewald energy   TEWEN  =     11346.45670474
  -Hartree energ DENC   =    -22247.03813727
  -exchange      EXHF   =         0.00000000
  -V(xc)+E(xc)   XCENC  =      -121.82047755
  PAW double counting   =     11835.13995753   -11347.23326943
  entropy T*S    EENTRO =         0.00000000
  eigenvalues    EBANDS =      -903.56414769
  atomic energy  EATOM  =     11409.18493095
  ---------------------------------------------------
  free energy    TOTEN  =       -12.86159689 eV

  energy without entropy =      -12.86159689  energy(sigma->0) =      -12.86159689


--------------------------------------------------------------------------------------------------------




----------------------------------------- Iteration    1(  24)  ---------------------------------------


    POTLOK:  cpu time    0.17: real time    0.17
    SETDIJ:  cpu time    0.01: real time    0.01
     EDDAV:  cpu time    0.61: real time    0.61
       DOS:  cpu time    0.00: real time    0.00
    CHARGE:  cpu time    0.04: real time    0.04
    MIXING:  cpu time    0.01: real time    0.01
    --------------------------------------------
      LOOP:  cpu time    0.84: real time    0.84

 eigenvalue-minimisations  :   352
 total energy-change (2. order) :-0.2015613E+01  (-0.2055406E+00)
 number of electron     120.9999707 magnetization       4.0506328
 augmentation part       58.1639751 magnetization       2.7448815

 Broyden mixing:
  rms(total) = 0.35007E+00    rms(broyden)= 0.34994E+00
  rms(prec ) = 0.41013E+00
  weight for this iteration     100.00

 eigenvalues of (default mixing * dielectric matrix)
  average eigenvalue GAMMA=   1.2105
  4.2108  4.2108  2.8056  1.5083  1.2368  1.2368  1.0374  1.0374  0.6015  0.6015
  0.7687  0.5894  0.5894  0.6320  0.4694  0.4137  0.4137  0.3182  0.3182

 Free energy of the ion-electron system (eV)
  ---------------------------------------------------
  alpha Z        PSCENC =        16.01284185
  Ewald energy   TEWEN  =     11346.45670474
  -Hartree energ DENC   =    -22251.22601004
  -exchange      EXHF   =         0.00000000
  -V(xc)+E(xc)   XCENC  =      -123.07301553
  PAW double counting   =     11870.75400321   -11382.89032502
  entropy T*S    EENTRO =         0.00000000
  eigenvalues    EBANDS =      -900.09633974
  atomic energy  EATOM  =     11409.18493095
  ---------------------------------------------------
  free energy    TOTEN  =       -14.87720958 eV

  energy without entropy =      -14.87720958  energy(sigma->0) =      -14.87720958


--------------------------------------------------------------------------------------------------------




----------------------------------------- Iteration    1(  25)  ---------------------------------------


    POTLOK:  cpu time    0.17: real time    0.17
    SETDIJ:  cpu time    0.00: real time    0.01
     EDDAV:  cpu time    0.60: real time    0.60
       DOS:  cpu time    0.00: real time    0.00
    CHARGE:  cpu time    0.04: real time    0.04
    MIXING:  cpu time    0.01: real time    0.01
    --------------------------------------------
      LOOP:  cpu time    0.82: real time    0.83

 eigenvalue-minimisations  :   344
 total energy-change (2. order) :-0.1078598E+01  (-0.1301588E+00)
 number of electron     120.9999708 magnetization       3.7505532
 augmentation part       58.1496808 magnetization       2.5363311

 Broyden mixing:
  rms(total) = 0.22486E+00    rms(broyden)= 0.22484E+00
  rms(prec ) = 0.26532E+00
  weight for this iteration     100.00

 eigenvalues of (default mixing * dielectric matrix)
  average eigenvalue GAMMA=   1.1955
  4.4576  4.4576  2.8403  1.4306  1.2133  1.2133  1.0978  1.0978  0.6012  0.6012
  0.7781  0.6272  0.6272  0.6328  0.4039  0.4039  0.3179  0.3179  0.3955  0.3955

 Free energy of the ion-electron system (eV)
  ---------------------------------------------------
  alpha Z        PSCENC =        16.01284185
  Ewald energy   TEWEN  =     11346.45670474
  -Hartree energ DENC   =    -22255.26725797
  -exchange      EXHF   =         0.00000000
  -V(xc)+E(xc)   XCENC  =      -123.82603752
  PAW double counting   =     11921.58548692   -11433.61677746
  entropy T*S    EENTRO =         0.00000000
  eigenvalues    EBANDS =      -896.48569946
  atomic energy  EATOM  =     11409.18493095
  ---------------------------------------------------
  free energy    TOTEN  =       -15.95580794 eV

  energy without entropy =      -15.95580794  energy(sigma->0) =      -15.95580794


--------------------------------------------------------------------------------------------------------




----------------------------------------- Iteration    1(  26)  ---------------------------------------


    POTLOK:  cpu time    0.17: real time    0.17
    SETDIJ:  cpu time    0.00: real time    0.01
     EDDAV:  cpu time    0.62: real time    0.62
       DOS:  cpu time    0.00: real time    0.00
    CHARGE:  cpu time    0.04: real time    0.04
    MIXING:  cpu time    0.01: real time    0.01
    --------------------------------------------
      LOOP:  cpu time    0.85: real time    0.85

 eigenvalue-minimisations  :   360
 total energy-change (2. order) :-0.1314433E+00  (-0.1606843E-01)
 number of electron     120.9999708 magnetization       3.7041926
 augmentation part       58.1420115 magnetization       2.5182573

 Broyden mixing:
  rms(total) = 0.19344E+00    rms(broyden)= 0.19343E+00
  rms(prec ) = 0.22565E+00
  weight for this iteration     100.00

 eigenvalues of (default mixing * dielectric matrix)
  average eigenvalue GAMMA=   1.1484
  4.4767  4.4767  2.8440  1.4567  1.1971  1.1971  1.1088  1.1088  0.6015  0.6015
  0.7840  0.5716  0.5716  0.6318  0.4633  0.4050  0.4050  0.3183  0.3183  0.2895
  0.2895

 Free energy of the ion-electron system (eV)
  ---------------------------------------------------
  alpha Z        PSCENC =        16.01284185
  Ewald energy   TEWEN  =     11346.45670474
  -Hartree energ DENC   =    -22257.06783182
  -exchange      EXHF   =         0.00000000
  -V(xc)+E(xc)   XCENC  =      -123.88992451
  PAW double counting   =     11934.95325809   -11447.00797919
  entropy T*S    EENTRO =         0.00000000
  eigenvalues    EBANDS =      -894.72925138
  atomic energy  EATOM  =     11409.18493095
  ---------------------------------------------------
  free energy    TOTEN  =       -16.08725127 eV

  energy without entropy =      -16.08725127  energy(sigma->0) =      -16.08725127


--------------------------------------------------------------------------------------------------------




----------------------------------------- Iteration    1(  27)  ---------------------------------------


    POTLOK:  cpu time    0.17: real time    0.17
    SETDIJ:  cpu time    0.00: real time    0.01
     EDDAV:  cpu time    0.61: real time    0.61
       DOS:  cpu time    0.00: real time    0.00
    CHARGE:  cpu time    0.04: real time    0.04
    MIXING:  cpu time    0.01: real time    0.01
    --------------------------------------------
      LOOP:  cpu time    0.84: real time    0.84

 eigenvalue-minimisations  :   352
 total energy-change (2. order) :-0.2190325E-01  (-0.6767424E-03)
 number of electron     120.9999708 magnetization       3.7370502
 augmentation part       58.1415878 magnetization       2.5536623

 Broyden mixing:
  rms(total) = 0.18992E+00    rms(broyden)= 0.18992E+00
  rms(prec ) = 0.22073E+00
  weight for this iteration     100.00

 eigenvalues of (default mixing * dielectric matrix)
  average eigenvalue GAMMA=   1.0990
  4.4678  4.4678  2.8401  1.4513  1.1914  1.1914  1.1110  1.1110  0.6015  0.6015
  0.7831  0.6322  0.5746  0.5746  0.4633  0.4050  0.4050  0.3183  0.3183  0.2367
  0.2367  0.1959

 Free energy of the ion-electron system (eV)
  ---------------------------------------------------
  alpha Z        PSCENC =        16.01284185
  Ewald energy   TEWEN  =     11346.45670474
  -Hartree energ DENC   =    -22257.28968378
  -exchange      EXHF   =         0.00000000
  -V(xc)+E(xc)   XCENC  =      -123.90047215
  PAW double counting   =     11935.66430438   -11447.72176073
  entropy T*S    EENTRO =         0.00000000
  eigenvalues    EBANDS =      -894.51601979
  atomic energy  EATOM  =     11409.18493095
  ---------------------------------------------------
  free energy    TOTEN  =       -16.10915452 eV

  energy without entropy =      -16.10915452  energy(sigma->0) =      -16.10915452


--------------------------------------------------------------------------------------------------------




----------------------------------------- Iteration    1(  28)  ---------------------------------------


    POTLOK:  cpu time    0.17: real time    0.17
    SETDIJ:  cpu time    0.00: real time    0.01
     EDDAV:  cpu time    0.59: real time    0.59
       DOS:  cpu time    0.00: real time    0.00
    CHARGE:  cpu time    0.04: real time    0.04
    MIXING:  cpu time    0.01: real time    0.01
    --------------------------------------------
      LOOP:  cpu time    0.82: real time    0.82

 eigenvalue-minimisations  :   336
 total energy-change (2. order) :-0.4128686E-01  (-0.2996929E-02)
 number of electron     120.9999708 magnetization       3.4303153
 augmentation part       58.1370708 magnetization       2.2457692

 Broyden mixing:
  rms(total) = 0.19140E+00    rms(broyden)= 0.19140E+00
  rms(prec ) = 0.22273E+00
  weight for this iteration     100.00

 eigenvalues of (default mixing * dielectric matrix)
  average eigenvalue GAMMA=   1.1514
  4.2148  4.2148  2.7789  1.9047  1.1307  1.1307  0.9942  0.9942  1.1454  1.1454
  0.6001  0.6001  0.6966  0.6966  0.7426  0.6250  0.5121  0.5121  0.4090  0.4090
  0.3181  0.3181  0.3879

 Free energy of the ion-electron system (eV)
  ---------------------------------------------------
  alpha Z        PSCENC =        16.01284185
  Ewald energy   TEWEN  =     11346.45670474
  -Hartree energ DENC   =    -22257.21025277
  -exchange      EXHF   =         0.00000000
  -V(xc)+E(xc)   XCENC  =      -123.90940525
  PAW double counting   =     11930.63045728   -11442.67911950
  entropy T*S    EENTRO =         0.00000000
  eigenvalues    EBANDS =      -894.63659869
  atomic energy  EATOM  =     11409.18493095
  ---------------------------------------------------
  free energy    TOTEN  =       -16.15044139 eV

  energy without entropy =      -16.15044139  energy(sigma->0) =      -16.15044139


--------------------------------------------------------------------------------------------------------




----------------------------------------- Iteration    1(  29)  ---------------------------------------


    POTLOK:  cpu time    0.17: real time    0.17
    SETDIJ:  cpu time    0.00: real time    0.01
     EDDAV:  cpu time    0.57: real time    0.56
       DOS:  cpu time    0.00: real time    0.00
    CHARGE:  cpu time    0.04: real time    0.04
    MIXING:  cpu time    0.01: real time    0.01
    --------------------------------------------
      LOOP:  cpu time    0.80: real time    0.80

 eigenvalue-minimisations  :   320
 total energy-change (2. order) :-0.5553150E+00  (-0.1643554E-01)
 number of electron     120.9999708 magnetization       3.0657123
 augmentation part       58.1355621 magnetization       1.8964974

 Broyden mixing:
  rms(total) = 0.17546E+00    rms(broyden)= 0.17546E+00
  rms(prec ) = 0.20264E+00
  weight for this iteration     100.00

 eigenvalues of (default mixing * dielectric matrix)
  average eigenvalue GAMMA=   1.1601
  3.7060  3.7060  2.9514  2.2295  1.7109  1.7109  1.2854  0.9189  0.9189  1.1174
  0.5999  0.5999  0.7466  0.7466  0.7820  0.6195  0.5990  0.5204  0.5204  0.4126
  0.4126  0.3182  0.3182  0.3915

 Free energy of the ion-electron system (eV)
  ---------------------------------------------------
  alpha Z        PSCENC =        16.01284185
  Ewald energy   TEWEN  =     11346.45670474
  -Hartree energ DENC   =    -22256.08592481
  -exchange      EXHF   =         0.00000000
  -V(xc)+E(xc)   XCENC  =      -124.38429721
  PAW double counting   =     11914.93997311   -11426.86582025
  entropy T*S    EENTRO =         0.00000000
  eigenvalues    EBANDS =      -895.96416475
  atomic energy  EATOM  =     11409.18493095
  ---------------------------------------------------
  free energy    TOTEN  =       -16.70575637 eV

  energy without entropy =      -16.70575637  energy(sigma->0) =      -16.70575637


--------------------------------------------------------------------------------------------------------




----------------------------------------- Iteration    1(  30)  ---------------------------------------


    POTLOK:  cpu time    0.17: real time    0.17
    SETDIJ:  cpu time    0.00: real time    0.01
     EDDAV:  cpu time    0.58: real time    0.58
       DOS:  cpu time    0.00: real time    0.00
    CHARGE:  cpu time    0.04: real time    0.04
    MIXING:  cpu time    0.01: real time    0.01
    --------------------------------------------
      LOOP:  cpu time    0.81: real time    0.81

 eigenvalue-minimisations  :   328
 total energy-change (2. order) :-0.5227432E+00  (-0.2536051E-01)
 number of electron     120.9999708 magnetization       3.6167052
 augmentation part       58.0993400 magnetization       2.4570609

 Broyden mixing:
  rms(total) = 0.16618E+00    rms(broyden)= 0.16617E+00
  rms(prec ) = 0.19123E+00
  weight for this iteration     100.00

 eigenvalues of (default mixing * dielectric matrix)
  average eigenvalue GAMMA=   1.1513
  3.6072  3.6072  3.0246  2.4708  1.6989  1.6989  1.2527  1.0780  1.0780  0.9926
  0.7821  0.7821  0.5998  0.5998  0.7191  0.7191  0.6355  0.5604  0.5604  0.4118
  0.4118  0.4743  0.3181  0.3181  0.3804

 Free energy of the ion-electron system (eV)
  ---------------------------------------------------
  alpha Z        PSCENC =        16.01284185
  Ewald energy   TEWEN  =     11346.45670474
  -Hartree energ DENC   =    -22256.84029921
  -exchange      EXHF   =         0.00000000
  -V(xc)+E(xc)   XCENC  =      -124.80884187
  PAW double counting   =     11891.10182180   -11402.95576159
  entropy T*S    EENTRO =         0.00000000
  eigenvalues    EBANDS =      -895.37989621
  atomic energy  EATOM  =     11409.18493095
  ---------------------------------------------------
  free energy    TOTEN  =       -17.22849954 eV

  energy without entropy =      -17.22849954  energy(sigma->0) =      -17.22849954


--------------------------------------------------------------------------------------------------------




----------------------------------------- Iteration    1(  31)  ---------------------------------------


    POTLOK:  cpu time    0.17: real time    0.17
    SETDIJ:  cpu time    0.00: real time    0.01
     EDDAV:  cpu time    0.60: real time    0.60
       DOS:  cpu time    0.00: real time    0.00
    CHARGE:  cpu time    0.04: real time    0.04
    MIXING:  cpu time    0.01: real time    0.01
    --------------------------------------------
      LOOP:  cpu time    0.83: real time    0.83

 eigenvalue-minimisations  :   344
 total energy-change (2. order) :-0.2766765E+00  (-0.3799983E-01)
 number of electron     120.9999708 magnetization       3.4465058
 augmentation part       58.0788929 magnetization       2.2484047

 Broyden mixing:
  rms(total) = 0.25012E+00    rms(broyden)= 0.25012E+00
  rms(prec ) = 0.29226E+00
  weight for this iteration     100.00

 eigenvalues of (default mixing * dielectric matrix)
  average eigenvalue GAMMA=   1.1772
  3.8084  3.8084  3.7219  2.4633  1.3976  1.3976  1.2615  1.2615  1.2769  1.1442
  0.8157  0.8157  0.5998  0.5998  0.6412  0.6412  0.7344  0.7344  0.6381  0.4977
  0.4977  0.4110  0.4110  0.3181  0.3181  0.3907

 Free energy of the ion-electron system (eV)
  ---------------------------------------------------
  alpha Z        PSCENC =        16.01284185
  Ewald energy   TEWEN  =     11346.45670474
  -Hartree energ DENC   =    -22252.78942811
  -exchange      EXHF   =         0.00000000
  -V(xc)+E(xc)   XCENC  =      -124.99681666
  PAW double counting   =     11873.84921379   -11385.57876500
  entropy T*S    EENTRO =         0.00000000
  eigenvalues    EBANDS =      -899.64385755
  atomic energy  EATOM  =     11409.18493095
  ---------------------------------------------------
  free energy    TOTEN  =       -17.50517600 eV

  energy without entropy =      -17.50517600  energy(sigma->0) =      -17.50517600


--------------------------------------------------------------------------------------------------------




----------------------------------------- Iteration    1(  32)  ---------------------------------------


    POTLOK:  cpu time    0.17: real time    0.17
    SETDIJ:  cpu time    0.00: real time    0.01
     EDDAV:  cpu time    0.59: real time    0.59
       DOS:  cpu time    0.00: real time    0.00
    CHARGE:  cpu time    0.04: real time    0.04
    MIXING:  cpu time    0.01: real time    0.01
    --------------------------------------------
      LOOP:  cpu time    0.82: real time    0.82

 eigenvalue-minimisations  :   336
 total energy-change (2. order) :-0.4046500E+00  (-0.1054289E-01)
 number of electron     120.9999708 magnetization       2.7134218
 augmentation part       58.0915370 magnetization       1.5190632

 Broyden mixing:
  rms(total) = 0.25416E+00    rms(broyden)= 0.25416E+00
  rms(prec ) = 0.30063E+00
  weight for this iteration     100.00

 eigenvalues of (default mixing * dielectric matrix)
  average eigenvalue GAMMA=   1.1842
  3.9046  3.9046  4.2202  2.0494  2.0494  1.3576  1.3576  1.1900  1.1900  0.5998
  0.5998  0.7656  0.7656  0.9669  0.7397  0.7397  0.8220  0.7047  0.6325  0.5396
  0.5396  0.4119  0.4119  0.4889  0.3181  0.3181  0.3865

 Free energy of the ion-electron system (eV)
  ---------------------------------------------------
  alpha Z        PSCENC =        16.01284185
  Ewald energy   TEWEN  =     11346.45670474
  -Hartree energ DENC   =    -22248.41438328
  -exchange      EXHF   =         0.00000000
  -V(xc)+E(xc)   XCENC  =      -125.41257678
  PAW double counting   =     11874.62727948   -11386.25420151
  entropy T*S    EENTRO =         0.00000000
  eigenvalues    EBANDS =      -904.11042141
  atomic energy  EATOM  =     11409.18493095
  ---------------------------------------------------
  free energy    TOTEN  =       -17.90982595 eV

  energy without entropy =      -17.90982595  energy(sigma->0) =      -17.90982595


--------------------------------------------------------------------------------------------------------




----------------------------------------- Iteration    1(  33)  ---------------------------------------


    POTLOK:  cpu time    0.17: real time    0.17
    SETDIJ:  cpu time    0.00: real time    0.01
     EDDAV:  cpu time    0.60: real time    0.60
       DOS:  cpu time    0.00: real time    0.00
    CHARGE:  cpu time    0.04: real time    0.04
    MIXING:  cpu time    0.02: real time    0.01
    --------------------------------------------
      LOOP:  cpu time    0.83: real time    0.83

 eigenvalue-minimisations  :   344
 total energy-change (2. order) :-0.1146109E+00  (-0.2045707E-01)
 number of electron     120.9999708 magnetization       2.4301589
 augmentation part       58.1002759 magnetization       1.2763488

 Broyden mixing:
  rms(total) = 0.17114E+00    rms(broyden)= 0.17114E+00
  rms(prec ) = 0.20469E+00
  weight for this iteration     100.00

 eigenvalues of (default mixing * dielectric matrix)
  average eigenvalue GAMMA=   1.1845
  4.5171  3.9344  3.9344  2.0806  2.0806  1.3524  1.3524  1.1351  1.1351  0.9007
  0.9007  0.5998  0.5998  0.7044  0.7044  0.9359  0.8545  0.6390  0.6390  0.6377
  0.6377  0.5224  0.5224  0.4114  0.4114  0.3181  0.3181  0.3873

 Free energy of the ion-electron system (eV)
  ---------------------------------------------------
  alpha Z        PSCENC =        16.01284185
  Ewald energy   TEWEN  =     11346.45670474
  -Hartree energ DENC   =    -22249.33208993
  -exchange      EXHF   =         0.00000000
  -V(xc)+E(xc)   XCENC  =      -125.62123055
  PAW double counting   =     11886.54050841   -11398.24045826
  entropy T*S    EENTRO =         0.00000000
  eigenvalues    EBANDS =      -903.02564408
[...]
     26      -7.4477      1.00000
     27      -7.3770      1.00000
     28      -7.3250      1.00000
     29      -7.2611      1.00000
     30      -7.2328      1.00000
     31      -7.2247      1.00000
     32      -7.1846      1.00000
     33      -7.1442      1.00000
     34      -7.0921      1.00000
     35      -7.0490      1.00000
     36      -7.0447      1.00000
     37      -7.0166      1.00000
     38      -6.9806      1.00000
     39      -6.9522      1.00000
     40      -6.9130      1.00000
     41      -6.9117      1.00000
     42      -6.8562      1.00000
     43      -6.8500      1.00000
     44      -6.8291      1.00000
     45      -6.8180      1.00000
     46      -6.7677      1.00000
     47      -6.7506      1.00000
     48      -6.7203      1.00000
     49      -6.6674      1.00000
     50      -6.6312      1.00000
     51      -6.6054      1.00000
     52      -6.5132      1.00000
     53      -6.4982      1.00000
     54      -6.4337      1.00000
     55      -6.3901      1.00000
     56      -6.3335      1.00000
     57      -5.9331      1.00000
     58      -5.3525      1.00000
     59      -4.8916      1.00000
     60      -4.1445      1.00000
     61      -3.5921      1.00000
     62      -2.9514      0.00000
     63      -2.8764      0.00000
     64      -2.6084      0.00000
     65      -2.0743      0.00000
     66      -1.8425      0.00000
     67      -1.6003      0.00000
     68      -1.0854      0.00000
     69      -0.9816      0.00000
     70      -0.8130      0.00000
     71      -0.6962      0.00000
     72      -0.5369      0.00000
     73      -0.3791      0.00000
     74      -0.1780      0.00000
     75       0.1211      0.00000
     76       0.1706      0.00000
     77       0.2441      0.00000
     78       0.4384      0.00000
     79       0.5026      0.00000
     80       0.6298      0.00000

 spin component 2

 k-point     1 :       0.0000    0.0000    0.0000
  band No.  band energies     occupation 
      1      -9.1049      1.00000
      2      -8.9137      1.00000
      3      -8.8770      1.00000
      4      -8.7204      1.00000
      5      -8.7051      1.00000
      6      -8.5916      1.00000
      7      -8.5237      1.00000
      8      -8.4825      1.00000
      9      -8.4053      1.00000
     10      -8.3544      1.00000
     11      -8.2960      1.00000
     12      -8.2386      1.00000
     13      -8.1949      1.00000
     14      -8.1284      1.00000
     15      -8.0560      1.00000
     16      -7.9802      1.00000
     17      -7.8932      1.00000
     18      -7.8204      1.00000
     19      -7.7720      1.00000
     20      -7.7207      1.00000
     21      -7.6654      1.00000
     22      -7.6417      1.00000
     23      -7.5436      1.00000
     24      -7.4860      1.00000
     25      -7.4705      1.00000
     26      -7.4174      1.00000
     27      -7.3514      1.00000
     28      -7.3035      1.00000
     29      -7.2464      1.00000
     30      -7.2103      1.00000
     31      -7.2024      1.00000
     32      -7.1643      1.00000
     33      -7.1218      1.00000
     34      -7.0684      1.00000
     35      -7.0288      1.00000
     36      -7.0242      1.00000
     37      -6.9938      1.00000
     38      -6.9592      1.00000
     39      -6.9352      1.00000
     40      -6.8935      1.00000
     41      -6.8875      1.00000
     42      -6.8388      1.00000
     43      -6.8333      1.00000
     44      -6.8063      1.00000
     45      -6.7971      1.00000
     46      -6.7355      1.00000
     47      -6.7308      1.00000
     48      -6.6990      1.00000
     49      -6.6414      1.00000
     50      -6.6145      1.00000
     51      -6.5780      1.00000
     52      -6.4991      1.00000
     53      -6.4812      1.00000
     54      -6.4063      1.00000
     55      -6.3544      1.00000
     56      -6.3065      1.00000
     57      -5.8556      1.00000
     58      -5.3040      1.00000
     59      -4.8102      1.00000
     60      -4.0992      1.00000
     61      -3.3673      0.00000
     62      -2.8767      0.00000
     63      -2.8204      0.00000
     64      -2.5435      0.00000
     65      -2.0156      0.00000
     66      -1.7689      0.00000
     67      -1.4442      0.00000
     68      -0.9736      0.00000
     69      -0.8879      0.00000
     70      -0.7325      0.00000
     71      -0.6148      0.00000
     72      -0.4242      0.00000
     73      -0.3202      0.00000
     74      -0.0747      0.00000
     75       0.1880      0.00000
     76       0.2523      0.00000
     77       0.3048      0.00000
     78       0.4901      0.00000
     79       0.5443      0.00000
     80       0.6841      0.00000


--------------------------------------------------------------------------------------------------------


 soft charge-density along one line, spin component           1
         0         1         2         3         4         5         6         7         8         9
 total charge-density along one line
 
 soft charge-density along one line, spin component           2
         0         1         2         3         4         5         6         7         8         9
 total charge-density along one line
 
 pseudopotential strength for first ion, spin component:           1
-10.296  -0.007   0.007   0.009  -0.002 -10.271  -0.007   0.007
 -0.007 -10.293   0.007  -0.006  -0.006  -0.007 -10.269   0.007
  0.007   0.007 -10.300  -0.002   0.009   0.007   0.007 -10.276
  0.009  -0.006  -0.002 -10.308  -0.009   0.009  -0.006  -0.002
 -0.002  -0.006   0.009  -0.009 -10.291  -0.002  -0.006   0.009
-10.271  -0.007   0.007   0.009  -0.002 -10.222  -0.006   0.007
 -0.007 -10.269   0.007  -0.006  -0.006  -0.006 -10.220   0.007
  0.007   0.007 -10.276  -0.002   0.009   0.007   0.007 -10.227
  0.009  -0.006  -0.002 -10.282  -0.008   0.009  -0.006  -0.002
 -0.002  -0.006   0.009  -0.008 -10.267  -0.002  -0.006   0.008
  0.006  -0.007   0.002   0.000   0.004   0.006  -0.007   0.002
  0.010  -0.012   0.003   0.000   0.007   0.010  -0.012   0.003
 -0.018  -0.014  -0.002  -0.000  -0.003  -0.018  -0.014  -0.002
 -0.000   0.003  -0.017  -0.018   0.000  -0.000   0.003  -0.016
  0.003  -0.000   0.010  -0.014  -0.018   0.003  -0.000   0.010
 -0.022  -0.018  -0.003  -0.000  -0.004  -0.021  -0.017  -0.003
 -0.000   0.004  -0.021  -0.022   0.000  -0.000   0.003  -0.020
  0.005  -0.000   0.013  -0.017  -0.022   0.004  -0.000   0.012
 pseudopotential strength for first ion, spin component:           2
-10.298  -0.007   0.007   0.009  -0.002 -10.273  -0.007   0.007
 -0.007 -10.296   0.007  -0.006  -0.006  -0.007 -10.271   0.007
  0.007   0.007 -10.303  -0.002   0.009   0.007   0.007 -10.278
  0.009  -0.006  -0.002 -10.310  -0.008   0.009  -0.006  -0.002
 -0.002  -0.006   0.009  -0.008 -10.293  -0.002  -0.006   0.009
-10.273  -0.007   0.007   0.009  -0.002 -10.225  -0.007   0.007
 -0.007 -10.271   0.007  -0.006  -0.006  -0.007 -10.222   0.007
  0.007   0.007 -10.278  -0.002   0.009   0.007   0.007 -10.229
  0.009  -0.006  -0.002 -10.285  -0.008   0.008  -0.005  -0.002
 -0.002  -0.006   0.009  -0.008 -10.269  -0.002  -0.006   0.008
  0.006  -0.007   0.002   0.000   0.004   0.006  -0.007   0.002
  0.010  -0.012   0.003   0.000   0.006   0.010  -0.012   0.003
 -0.018  -0.015  -0.002  -0.000  -0.003  -0.017  -0.014  -0.002
 -0.000   0.003  -0.018  -0.017   0.000  -0.000   0.003  -0.017
  0.004  -0.000   0.010  -0.015  -0.017   0.004  -0.000   0.009
 -0.021  -0.018  -0.003  -0.000  -0.004  -0.020  -0.017  -0.003
 -0.000   0.004  -0.022  -0.021  -0.000  -0.000   0.004  -0.021
  0.005  -0.000   0.012  -0.018  -0.020   0.005  -0.000   0.011
 total augmentation occupancy for first ion, spin component:           1
  2.649  -0.133   0.021  -0.176   0.031  -0.672   0.141   0.042   0.251  -0.053  -0.543   0.068  -0.055   0.022  -0.012  -0.007
 -0.133   2.695  -0.047   0.112   0.112   0.141  -0.702   0.114  -0.165  -0.147   0.721  -0.122  -0.081   0.068  -0.010  -0.003
  0.021  -0.047   2.500  -0.001  -0.032   0.042   0.114  -0.491   0.036   0.068  -0.126   0.011   0.004  -0.023   0.024  -0.001
 -0.176   0.112  -0.001   2.751   0.034   0.251  -0.165   0.036  -0.805  -0.047   0.111   0.009   0.012  -0.094  -0.044  -0.002
  0.031   0.112  -0.032   0.034   2.678  -0.053  -0.148   0.068  -0.047  -0.611  -0.297   0.058  -0.073   0.030  -0.104   0.004
 -0.672   0.141   0.042   0.251  -0.053   0.670  -0.148  -0.095  -0.315   0.072   0.488  -0.068   0.070  -0.020   0.014  -0.005
  0.141  -0.702   0.114  -0.165  -0.148  -0.148   0.686  -0.169   0.210   0.177  -0.653   0.119   0.088  -0.066   0.008  -0.005
  0.042   0.114  -0.491   0.036   0.068  -0.095  -0.169   0.455  -0.063  -0.099   0.106  -0.007  -0.008   0.021  -0.035   0.001
  0.251  -0.165   0.036  -0.805  -0.047  -0.315   0.210  -0.063   0.828   0.059  -0.128   0.014  -0.010   0.113   0.064   0.001
 -0.053  -0.147   0.068  -0.047  -0.611   0.072   0.177  -0.099   0.059   0.528   0.246  -0.041   0.068  -0.022   0.120  -0.004
 -0.543   0.721  -0.126   0.111  -0.297   0.488  -0.653   0.106  -0.128   0.246   1.779  -0.240  -0.017   0.080   0.147   0.002
  0.068  -0.122   0.011   0.009   0.058  -0.068   0.119  -0.007   0.014  -0.041  -0.240   0.045   0.006  -0.011  -0.032  -0.001
 -0.055  -0.081   0.004   0.012  -0.073   0.070   0.088  -0.008  -0.010   0.068  -0.017   0.006   0.065  -0.046   0.037  -0.004
  0.022   0.068  -0.023  -0.094   0.030  -0.020  -0.066   0.021   0.113  -0.022   0.080  -0.011  -0.046   0.081  -0.027   0.002
 -0.012  -0.010   0.024  -0.044  -0.104   0.014   0.008  -0.035   0.064   0.120   0.147  -0.032   0.037  -0.027   0.083  -0.002
 -0.007  -0.003  -0.001  -0.002   0.004  -0.005  -0.005   0.001   0.001  -0.004   0.002  -0.001  -0.004   0.002  -0.002   0.000
 -0.002  -0.004  -0.006  -0.005  -0.001   0.001   0.005  -0.001  -0.007   0.001  -0.007   0.001   0.003  -0.005   0.001  -0.000
  0.003  -0.002   0.004  -0.006  -0.004  -0.002   0.001   0.002  -0.003  -0.008  -0.013   0.002  -0.002   0.001  -0.005   0.000
 total augmentation occupancy for first ion, spin component:           2
 -0.033  -0.002   0.003  -0.006  -0.007   0.015   0.003  -0.001   0.007   0.005   0.006   0.003  -0.001   0.000   0.000  -0.000
 -0.002  -0.031  -0.001   0.004   0.002   0.003   0.013   0.002  -0.005  -0.002   0.000  -0.003   0.002  -0.001  -0.001   0.000
  0.003  -0.001  -0.035   0.002   0.005  -0.001   0.002   0.016  -0.001  -0.003  -0.007   0.000   0.002  -0.001   0.002  -0.000
 -0.006   0.004   0.002  -0.035   0.008   0.007  -0.005  -0.001   0.015  -0.004   0.006  -0.001  -0.002   0.001  -0.002   0.000
 -0.007   0.002   0.005   0.008  -0.022   0.005  -0.002  -0.003  -0.004   0.007  -0.033  -0.006   0.010  -0.013   0.009  -0.000
  0.015   0.003  -0.001   0.007   0.005   0.003  -0.004  -0.001  -0.007  -0.004  -0.003  -0.003  -0.001   0.000  -0.002  -0.000
  0.003   0.013   0.002  -0.005  -0.002  -0.004   0.003  -0.002   0.005   0.002  -0.001   0.003   0.000  -0.000   0.001  -0.000
 -0.001   0.002   0.016  -0.001  -0.003  -0.001  -0.002   0.002  -0.000   0.003   0.006  -0.001  -0.001   0.003  -0.001   0.000
  0.007  -0.005  -0.001   0.015  -0.004  -0.007   0.005  -0.000   0.004   0.001  -0.008   0.002   0.002  -0.003   0.004  -0.000
  0.005  -0.002  -0.003  -0.004   0.007  -0.004   0.002   0.003   0.001   0.008   0.028   0.003  -0.007   0.010  -0.008   0.000
  0.006   0.000  -0.007   0.006  -0.033  -0.003  -0.001   0.006  -0.008   0.028   0.093   0.001  -0.019   0.029  -0.025   0.001
  0.003  -0.003   0.000  -0.001  -0.006  -0.003   0.003  -0.001   0.002   0.003   0.001   0.002  -0.001   0.001  -0.001   0.000
 -0.001   0.002   0.002  -0.002   0.010  -0.001   0.000  -0.001   0.002  -0.007  -0.019  -0.001   0.003  -0.005   0.004  -0.000
  0.000  -0.001  -0.001   0.001  -0.013   0.000  -0.000   0.003  -0.003   0.010   0.029   0.001  -0.005   0.008  -0.007   0.000
  0.000  -0.001   0.002  -0.002   0.009  -0.002   0.001  -0.001   0.004  -0.008  -0.025  -0.001   0.004  -0.007   0.006  -0.000
 -0.000   0.000  -0.000   0.000  -0.000  -0.000  -0.000   0.000  -0.000   0.000   0.001   0.000  -0.000   0.000  -0.000   0.000
  0.000  -0.000   0.000  -0.000   0.000  -0.000   0.000  -0.000   0.000  -0.000  -0.001  -0.000   0.000  -0.000   0.000  -0.000
 -0.000   0.000  -0.000   0.000  -0.000   0.000  -0.000   0.000  -0.000   0.000   0.001   0.000  -0.000   0.000  -0.000   0.000


------------------------ aborting loop because EDIFF is reached ----------------------------------------


    CHARGE:  cpu time    0.04: real time    0.04
    FORLOC:  cpu time    0.00: real time    0.01
    FORNL :  cpu time    0.25: real time    0.25
    STRESS:  cpu time    0.29: real time    0.29
    FORCOR:  cpu time    0.18: real time    0.17
    FORHAR:  cpu time    0.02: real time    0.02
    MIXING:  cpu time    0.00: real time    0.00
    OFIELD:  cpu time    0.00: real time    0.00

  FORCE on cell =-STRESS in cart. coord.  units (eV):
  Direction    XX          YY          ZZ          XY          YZ          ZX
  --------------------------------------------------------------------------------------
  Alpha Z    16.01284    16.01284    16.01284
  Ewald    5023.68795  3219.13780  2460.96126  1697.31175  -990.32607  -496.93397
  Hartree  8518.77121  6934.99729  6178.24093  1467.30245  -872.42372  -447.38609
  E(xc)    -637.02001  -637.57051  -637.53112     0.69737    -0.29509    -0.12999
  Local  -15317.13570-11933.21310-10411.95430 -3160.86846  1861.99388   946.68463
  n-local  -124.94027  -124.96811  -126.40930     0.48622    -0.46116    -1.05714
  augment  1009.02617  1010.54926  1009.24090    -1.56801     0.52896    -0.30565
  Kinetic  1508.12474  1511.71013  1507.88649    -3.36387     1.04273    -1.05492
  Fock        0.00000     0.00000     0.00000     0.00000     0.00000     0.00000
  -------------------------------------------------------------------------------------
  Total      -3.47308    -3.34439    -3.55230    -0.00255     0.05953    -0.18312
  in kB      -0.86575    -0.83367    -0.88550    -0.00064     0.01484    -0.04565
  external pressure =       -0.86 kB  Pullay stress =        0.00 kB


 VOLUME and BASIS-vectors are now :
 -----------------------------------------------------------------------------
  energy-cutoff  :      249.84
  volume of cell :     6427.34
      direct lattice vectors                 reciprocal lattice vectors
    18.592753532  0.000000000  0.000000000     0.053784395  0.000000000  0.000000000
     0.000000000 18.592753532  0.000000000     0.000000000  0.053784395  0.000000000
     0.000000000  0.000000000 18.592753532     0.000000000  0.000000000  0.053784395

  length of vectors
    18.592753532 18.592753532 18.592753532     0.053784395  0.053784395  0.053784395


 FORCES acting on ions
    electron-ion (+dipol)            ewald-force                    non-local-force                 convergence-correction
 -----------------------------------------------------------------------------------------------
   0.720E+03 -.247E+03 0.240E+03   -.717E+03 0.247E+03 -.237E+03   -.314E+01 0.772E-01 -.226E+01   -.225E-01 -.165E-01 0.154E-01
   0.773E+03 0.116E+03 -.269E+03   -.768E+03 -.115E+03 0.266E+03   -.547E+01 -.425E+00 0.237E+01   0.993E-02 0.140E-01 -.227E-02
   0.173E+03 0.148E+03 -.640E+03   -.172E+03 -.147E+03 0.637E+03   -.876E+00 -.789E+00 0.261E+01   -.161E-02 -.127E-01 -.772E-02
   0.995E+02 -.744E+03 -.622E+02   -.997E+02 0.742E+03 0.617E+02   0.164E+00 0.169E+01 0.514E+00   0.452E-01 -.102E-01 0.249E-01
   -.128E+03 0.742E+03 0.400E+03   0.130E+03 -.738E+03 -.397E+03   -.139E+01 -.344E+01 -.345E+01   0.902E-02 0.171E-01 0.142E-02
   -.415E+03 0.131E+03 0.792E+03   0.414E+03 -.131E+03 -.787E+03   0.609E+00 -.657E+00 -.459E+01   0.207E-01 -.144E-01 0.245E-01
   -.750E+03 -.525E+03 0.900E+02   0.745E+03 0.521E+03 -.904E+02   0.449E+01 0.370E+01 0.350E+00   -.906E-02 -.124E-02 -.966E-02
   0.266E+03 -.426E+03 0.737E+03   -.265E+03 0.424E+03 -.731E+03   -.123E+01 0.240E+01 -.615E+01   0.234E-01 0.147E-01 -.173E-01
   0.239E+03 0.778E+03 -.162E+03   -.238E+03 -.774E+03 0.162E+03   -.588E+00 -.489E+01 0.555E+00   -.433E-02 -.835E-02 0.359E-02
   -.750E+03 0.408E+03 -.296E+03   0.746E+03 -.406E+03 0.294E+03   0.397E+01 -.165E+01 0.253E+01   -.424E-01 0.123E-01 -.307E-01
   -.227E+03 -.380E+03 -.829E+03   0.225E+03 0.376E+03 0.823E+03   0.226E+01 0.320E+01 0.593E+01   -.286E-01 -.555E-02 0.117E-01
 -----------------------------------------------------------------------------------------------
   0.125E+01 0.682E+00 0.164E+01   0.284E-13 0.000E+00 0.114E-12   -.120E+01 -.795E+00 -.159E+01   -.120E-03 -.108E-01 0.139E-01
 
 
 POSITION                                       TOTAL-FORCE (eV/Angst)
 -----------------------------------------------------------------------------------
      7.45481     10.28218      9.09472         0.006236      0.011565     -0.014590
      6.25026      8.54029     10.81502         0.006216      0.014316      0.006213
      9.02200      9.06123     11.05558        -0.007039     -0.017517     -0.004708
      9.94391     11.38298      9.57234         0.001487     -0.012829     -0.009187
     10.03436      7.53487      8.88696        -0.007898      0.000672     -0.012786
     11.17991      9.80783      7.63397         0.019488     -0.009209     -0.005000
     12.66222     11.59455      9.24618         0.012470      0.007993     -0.017226
      8.94581     11.40113      7.05358         0.039320      0.006184      0.009185
      8.03539      6.50999     10.53799        -0.003150     -0.005887      0.009942
     11.76304      9.15189     10.23059        -0.028017      0.021547      0.005374
     10.85397     10.95565     12.07744        -0.039115     -0.016834      0.032782
 -----------------------------------------------------------------------------------
    total drift:                                0.050083     -0.123458      0.066217


--------------------------------------------------------------------------------------------------------



  FREE ENERGIE OF THE ION-ELECTRON SYSTEM (eV)
  ---------------------------------------------------
  free  energy   TOTEN  =       -19.21528638 eV

  energy  without entropy=      -19.21528638  energy(sigma->0) =      -19.21528638
 
 d Force = 0.5787031E-03[ 0.230E-03, 0.927E-03]  d Energy = 0.7470682E-03-0.168E-03
 d Force =-0.5865519E+01[-0.588E+01,-0.585E+01]  d Ewald  =-0.5865522E+01 0.263E-05


--------------------------------------------------------------------------------------------------------


    POTLOK:  cpu time    0.18: real time    0.18


--------------------------------------------------------------------------------------------------------




--------------------------------------------------------------------------------------------------------


  
 reached required accuracy - stopping structural energy minimisation
     LOOP+:  cpu time    3.22: real time    3.26
    4ORBIT:  cpu time    0.00: real time    0.00

 total amount of memory used by VASP on root node    49282. kBytes
========================================================================

   base      :      30000. kBytes
   nonl-proj :       1154. kBytes
   fftplans  :       4479. kBytes
   grid      :      11298. kBytes
   one-center:         31. kBytes
   wavefun   :       2320. kBytes
 
  
  
 General timing and accounting informations for this job:
 ========================================================
  
                  Total CPU time used (sec):      325.344
                            User time (sec):      319.304
                          System time (sec):        6.040
                         Elapsed time (sec):      336.975
  
                   Maximum memory used (kb):       58732.
                   Average memory used (kb):           0.
  
                          Minor page faults:       969214
                          Major page faults:            0
                 Voluntary context switches:        10155
