43
Energy = -93.10451956 eV
Ag 6.641491153473931 9.495082305033732 8.849572185896315
Ag 7.772969431540942 11.560507855731872 13.064987569010988
Ag 9.2064222879334 8.440760116365416 9.341259484542402
Ag 7.444582086811211 9.176741386240588 11.51748697718458
Ag 8.676537983013878 13.544385483096141 14.88738064040678
Ag 8.346734906135026 8.719517898188052 6.719585254382272
Ag 7.087953060911107 11.907570510714457 10.257416153536944
Ag 10.314465501747247 11.369614885428742 14.42232167313839
Ag 10.232529166518177 8.338633008443459 12.004782978688983
Ag 9.574301155582095 10.854460671433943 10.874516250903687
Ag 8.318665188067168 14.034322103669796 12.044719743312232
Ag 8.619839476010194 9.162005626369611 14.125278222898174
Ag 12.02662500747742 8.84324931028014 9.90933345989822
Ag 10.636036405553076 15.101884922523615 13.683096130715857
Ag 11.357023226593912 13.469532705794402 16.050308885533305
Ag 10.87131370001908 9.762147487187658 7.415276264358869
Ag 8.473860725196799 11.285769948040505 7.806885100833207
Ag 11.366466207191248 8.733395460321631 14.587512216173264
Ag 10.959614370054515 13.168427649466627 11.591911358809964
Ag 10.224091398532737 15.786171819322222 10.936114387328407
Ag 12.065428512179379 10.63077060290615 12.2372563905764
Ag 12.768108970059625 10.904745721604844 15.766719481652123
Ag 9.330070124033329 13.451957671443168 9.35010715139796
Ag 10.822619074397192 12.683010852972266 7.036980547204714
Ag 12.694459546759001 12.929943014780335 13.752443787336787
Ag 13.219543737064196 8.173890041516772 12.515450196421764
Ag 14.044397964618042 8.448433767273512 15.22267192281588
Ag 13.209752981762042 15.42249074890278 14.861090076504903
Ag 11.81228999671787 11.639911629919903 9.371112666199293
Ag 12.924203467813346 15.33617579815991 11.881323175054435
Ag 14.681696478451173 10.719825811763164 13.527629806529358
Ag 14.535327053153939 13.155328381783313 15.82558637162863
Ag 11.999455583478607 14.522725316149707 9.205307575139754
Ag 13.651979902795048 10.183203012689363 7.960741238118543
Ag 13.821556600184104 12.63748305254228 11.195174502416016
Ag 13.6031463249847 13.0091197451076 7.5326062832419876
Ag 14.527774594022855 9.943926134865462 10.719164621398587
Ag 15.599270506950496 10.591483393148259 16.200731381359958
Ag 15.233920462659736 14.163965673467168 13.165680770843846
Ag 16.913651431591454 12.372576501503456 14.486330469883104
Ag 15.622952414036497 11.989632305639361 9.101415688181548
Ag 14.762506875601753 14.696886060294768 9.686288370033738
Ag 16.48906070109475 11.998133656979064 11.751004543593863
