       N       E                     dE             d eps       ncg     rms          rms(c)
DAV:   1     0.226468849792E+04    0.22647E+04   -0.43088E+04   656   0.574E+02
DAV:   2     0.628545898067E+03   -0.16361E+04   -0.14599E+04  1192   0.128E+02
DAV:   3     0.117331256534E+01   -0.62737E+03   -0.57932E+03   888   0.910E+01
DAV:   4    -0.451752585460E+02   -0.46349E+02   -0.45071E+02   768   0.270E+01
DAV:   5    -0.460087733234E+02   -0.83351E+00   -0.83209E+00   760   0.417E+00    0.273E+01
DAV:   6    -0.144929495397E+02    0.31516E+02   -0.99442E+01   664   0.160E+01    0.137E+01
DAV:   7    -0.132673038756E+02    0.12256E+01   -0.48856E+00   696   0.451E+00    0.852E+00
DAV:   8    -0.100343425712E+02    0.32330E+01   -0.19149E+00   696   0.382E+00    0.429E+00
DAV:   9    -0.149930299525E+02   -0.49587E+01   -0.12950E+00   720   0.206E+00    0.270E+00
DAV:  10    -0.229637057928E+02   -0.79707E+01   -0.26179E+00   684   0.271E+00    0.203E+00
DAV:  11    -0.319902229896E+02   -0.90265E+01   -0.43202E+00   664   0.294E+00    0.223E+00
DAV:  12    -0.329167372791E+02   -0.92651E+00   -0.18554E-01   776   0.778E-01    0.185E+00
DAV:  13    -0.357731414676E+02   -0.28564E+01   -0.73067E-01   664   0.141E+00    0.235E+00
DAV:  14    -0.360608431061E+02   -0.28770E+00   -0.34389E-02   784   0.410E-01    0.215E+00
DAV:  15    -0.386731327631E+02   -0.26123E+01   -0.68415E-01   680   0.127E+00    0.149E+00
DAV:  16    -0.413850652090E+02   -0.27119E+01   -0.78521E-01   664   0.108E+00    0.816E-01
DAV:  17    -0.429554259598E+02   -0.15704E+01   -0.32629E-01   696   0.798E-01    0.472E-01
DAV:  18    -0.442095552138E+02   -0.12541E+01   -0.16332E-01   664   0.470E-01    0.304E-01
DAV:  19    -0.449559841534E+02   -0.74643E+00   -0.44640E-02   696   0.283E-01    0.157E-01
DAV:  20    -0.452103448493E+02   -0.25436E+00   -0.10172E-02   696   0.137E-01    0.107E-01
DAV:  21    -0.453167774163E+02   -0.10643E+00   -0.25761E-03   684   0.102E-01    0.695E-02
DAV:  22    -0.453877379772E+02   -0.70961E-01   -0.34911E-03   688   0.766E-02    0.359E-02
DAV:  23    -0.453951516182E+02   -0.74136E-02   -0.56705E-04   480   0.305E-02    0.269E-02
DAV:  24    -0.454013139546E+02   -0.61623E-02   -0.39517E-04   460   0.240E-02    0.228E-02
DAV:  25    -0.454039088677E+02   -0.25949E-02   -0.19864E-04   472   0.210E-02    0.133E-02
DAV:  26    -0.454067306965E+02   -0.28218E-02   -0.86402E-05   456   0.174E-02    0.980E-03
DAV:  27    -0.454088160686E+02   -0.20854E-02   -0.41150E-05   440   0.947E-03    0.909E-03
DAV:  28    -0.454091636728E+02   -0.34760E-03   -0.65624E-06   440   0.679E-03    0.622E-03
DAV:  29    -0.454092901054E+02   -0.12643E-03   -0.42616E-06   428   0.527E-03    0.344E-03
DAV:  30    -0.454093441454E+02   -0.54040E-04   -0.23310E-06   432   0.362E-03
   1 F= -.45409344E+02 E0= -.45409344E+02  d E =-.454093E+02  mag=     1.0029
       N       E                     dE             d eps       ncg     rms          rms(c)
DAV:   1    -0.454355360072E+02   -0.26246E-01   -0.18803E+00   680   0.291E+00    0.102E-01
DAV:   2    -0.454363902130E+02   -0.85421E-03   -0.88683E-03   696   0.277E-01    0.713E-02
DAV:   3    -0.454363670121E+02    0.23201E-04   -0.15577E-04   448   0.394E-02
   2 F= -.45436367E+02 E0= -.45436367E+02  d E =-.270229E-01  mag=     1.0016
       N       E                     dE             d eps       ncg     rms          rms(c)
DAV:   1    -0.454989807790E+02   -0.62591E-01   -0.16961E+01   672   0.874E+00    0.297E-01
DAV:   2    -0.455064498819E+02   -0.74691E-02   -0.79704E-02   696   0.833E-01    0.212E-01
DAV:   3    -0.455062354774E+02    0.21440E-03   -0.14877E-03   720   0.117E-01    0.134E-01
DAV:   4    -0.455060594212E+02    0.17606E-03   -0.61690E-04   696   0.596E-02    0.269E-02
DAV:   5    -0.455061100979E+02   -0.50677E-04   -0.21661E-05   440   0.157E-02
   3 F= -.45506110E+02 E0= -.45506110E+02  d E =-.967660E-01  mag=     1.0007
       N       E                     dE             d eps       ncg     rms          rms(c)
DAV:   1    -0.455700163796E+02   -0.63957E-01   -0.67818E+01   664   0.175E+01    0.539E-01
DAV:   2    -0.455998704871E+02   -0.29854E-01   -0.31749E-01   676   0.167E+00    0.405E-01
DAV:   3    -0.455992053811E+02    0.66511E-03   -0.57012E-03   712   0.231E-01    0.268E-01
DAV:   4    -0.455985711139E+02    0.63427E-03   -0.25105E-03   688   0.117E-01    0.691E-02
DAV:   5    -0.455987486841E+02   -0.17757E-03   -0.92886E-05   448   0.325E-02    0.275E-02
DAV:   6    -0.455989080528E+02   -0.15937E-03   -0.35028E-05   448   0.125E-02    0.156E-02
DAV:   7    -0.455990911913E+02   -0.18314E-03   -0.35688E-05   424   0.124E-02    0.491E-03
DAV:   8    -0.455992291628E+02   -0.13797E-03   -0.50314E-06   440   0.566E-03    0.224E-03
DAV:   9    -0.455993204070E+02   -0.91244E-04   -0.16708E-06   416   0.284E-03
   4 F= -.45599320E+02 E0= -.45599320E+02  d E =-.189976E+00  mag=     1.0001
       N       E                     dE             d eps       ncg     rms          rms(c)
DAV:   1    -0.454983229998E+02    0.10091E+00   -0.27310E+02   656   0.353E+01    0.971E-01
DAV:   2    -0.456186822867E+02   -0.12036E+00   -0.12826E+00   680   0.341E+00    0.774E-01
DAV:   3    -0.456171220328E+02    0.15603E-02   -0.22592E-02   712   0.482E-01    0.532E-01
DAV:   4    -0.456147023499E+02    0.24197E-02   -0.79337E-03   680   0.204E-01    0.214E-01
DAV:   5    -0.456152018639E+02   -0.49951E-03   -0.11043E-03   688   0.845E-02    0.656E-02
DAV:   6    -0.456155755772E+02   -0.37371E-03   -0.11352E-04   456   0.244E-02    0.388E-02
DAV:   7    -0.456161522189E+02   -0.57664E-03   -0.16894E-04   448   0.279E-02    0.108E-02
DAV:   8    -0.456165009796E+02   -0.34876E-03   -0.17891E-05   456   0.119E-02    0.520E-03
DAV:   9    -0.456167539254E+02   -0.25295E-03   -0.62828E-06   432   0.561E-03    0.301E-03
DAV:  10    -0.456170061171E+02   -0.25219E-03   -0.32452E-06   432   0.292E-03    0.201E-03
DAV:  11    -0.456173215224E+02   -0.31541E-03   -0.68687E-06   448   0.308E-03    0.140E-03
DAV:  12    -0.456174924092E+02   -0.17089E-03   -0.35123E-06   432   0.187E-03    0.106E-03
DAV:  13    -0.456175617576E+02   -0.69348E-04   -0.12628E-06   448   0.113E-03
   5 F= -.45617562E+02 E0= -.45617562E+02  d E =-.208218E+00  mag=     1.0000
       N       E                     dE             d eps       ncg     rms          rms(c)
DAV:   1    -0.456161777982E+02    0.13146E-02   -0.44307E+01   656   0.141E+01    0.411E-01
DAV:   2    -0.456359260524E+02   -0.19748E-01   -0.21235E-01   684   0.137E+00    0.278E-01
DAV:   3    -0.456354372515E+02    0.48880E-03   -0.39565E-03   712   0.201E-01    0.178E-01
DAV:   4    -0.456350374639E+02    0.39979E-03   -0.12400E-03   704   0.823E-02    0.618E-02
DAV:   5    -0.456351514872E+02   -0.11402E-03   -0.98190E-05   456   0.282E-02    0.213E-02
DAV:   6    -0.456352792492E+02   -0.12776E-03   -0.20100E-05   440   0.105E-02    0.119E-02
DAV:   7    -0.456354413279E+02   -0.16208E-03   -0.26189E-05   432   0.101E-02    0.409E-03
DAV:   8    -0.456355284889E+02   -0.87161E-04   -0.31363E-06   440   0.455E-03
   6 F= -.45635528E+02 E0= -.45635528E+02  d E =-.226184E+00  mag=     1.0000
       N       E                     dE             d eps       ncg     rms          rms(c)
DAV:   1    -0.456545261713E+02   -0.19085E-01   -0.88937E+00   668   0.631E+00    0.162E-01
DAV:   2    -0.456585654681E+02   -0.40393E-02   -0.42597E-02   680   0.628E-01    0.148E-01
DAV:   3    -0.456585483714E+02    0.17097E-04   -0.81060E-04   712   0.926E-02
   7 F= -.45658548E+02 E0= -.45658548E+02  d E =-.230199E-01  mag=     1.0000
       N       E                     dE             d eps       ncg     rms          rms(c)
DAV:   1    -0.456610919017E+02   -0.25264E-02   -0.80363E+01   672   0.190E+01    0.480E-01
DAV:   2    -0.456960637192E+02   -0.34972E-01   -0.37999E-01   696   0.187E+00    0.457E-01
DAV:   3    -0.456955490212E+02    0.51470E-03   -0.69617E-03   736   0.262E-01    0.311E-01
DAV:   4    -0.456943133019E+02    0.12357E-02   -0.25275E-03   696   0.120E-01    0.155E-01
DAV:   5    -0.456942983761E+02    0.14926E-04   -0.81145E-04   704   0.688E-02
   8 F= -.45694298E+02 E0= -.45694298E+02  d E =-.587699E-01  mag=     1.0000
       N       E                     dE             d eps       ncg     rms          rms(c)
DAV:   1    -0.456922242444E+02    0.20891E-02   -0.10585E+01   672   0.688E+00    0.173E-01
DAV:   2    -0.456970411238E+02   -0.48169E-02   -0.51630E-02   680   0.685E-01    0.151E-01
DAV:   3    -0.456970622236E+02   -0.21100E-04   -0.95060E-04   720   0.987E-02
   9 F= -.45697062E+02 E0= -.45697062E+02  d E =-.615337E-01  mag=     1.0000
       N       E                     dE             d eps       ncg     rms          rms(c)
DAV:   1    -0.457106206662E+02   -0.13580E-01   -0.24401E+01   656   0.105E+01    0.209E-01
DAV:   2    -0.457210658867E+02   -0.10445E-01   -0.11336E-01   684   0.103E+00    0.199E-01
DAV:   3    -0.457207846175E+02    0.28127E-03   -0.20691E-03   736   0.145E-01    0.137E-01
DAV:   4    -0.457203943369E+02    0.39028E-03   -0.59908E-04   672   0.550E-02    0.736E-02
DAV:   5    -0.457205669554E+02   -0.17262E-03   -0.46578E-04   688   0.474E-02    0.248E-02
DAV:   6    -0.457207882068E+02   -0.22125E-03   -0.12551E-05   448   0.814E-03    0.168E-02
DAV:   7    -0.457211838674E+02   -0.39566E-03   -0.26212E-05   440   0.101E-02    0.532E-03
DAV:   8    -0.457215448411E+02   -0.36097E-03   -0.84125E-06   472   0.548E-03    0.246E-03
DAV:   9    -0.457217632823E+02   -0.21844E-03   -0.26776E-06   432   0.263E-03    0.215E-03
DAV:  10    -0.457220662943E+02   -0.30301E-03   -0.51398E-06   440   0.253E-03    0.131E-03
DAV:  11    -0.457222939121E+02   -0.22762E-03   -0.54999E-06   440   0.222E-03    0.792E-04
DAV:  12    -0.457223658012E+02   -0.71889E-04   -0.96242E-07   456   0.110E-03
  10 F= -.45722366E+02 E0= -.45722366E+02  d E =-.253036E-01  mag=     1.0000
       N       E                     dE             d eps       ncg     rms          rms(c)
DAV:   1    -0.456556133335E+02    0.66681E-01   -0.22099E+02   656   0.317E+01    0.724E-01
DAV:   2    -0.457561997964E+02   -0.10059E+00   -0.10476E+00   684   0.312E+00    0.556E-01
DAV:   3    -0.457540432161E+02    0.21566E-02   -0.18784E-02   720   0.438E-01    0.364E-01
DAV:   4    -0.457508376643E+02    0.32056E-02   -0.50127E-03   688   0.162E-01    0.180E-01
DAV:   5    -0.457506037699E+02    0.23389E-03   -0.23825E-03   688   0.109E-01    0.557E-02
DAV:   6    -0.457510832932E+02   -0.47952E-03   -0.81371E-05   464   0.207E-02    0.360E-02
DAV:   7    -0.457518625741E+02   -0.77928E-03   -0.11731E-04   456   0.222E-02    0.107E-02
DAV:   8    -0.457524615520E+02   -0.59898E-03   -0.23277E-05   464   0.104E-02    0.457E-03
DAV:   9    -0.457527889764E+02   -0.32742E-03   -0.53911E-06   456   0.446E-03    0.331E-03
DAV:  10    -0.457532020703E+02   -0.41309E-03   -0.70633E-06   440   0.310E-03    0.210E-03
DAV:  11    -0.457536391741E+02   -0.43710E-03   -0.12179E-05   440   0.333E-03    0.138E-03
DAV:  12    -0.457538313860E+02   -0.19221E-03   -0.33386E-06   464   0.198E-03    0.848E-04
DAV:  13    -0.457539617674E+02   -0.13038E-03   -0.27746E-06   440   0.164E-03    0.471E-04
DAV:  14    -0.457540161064E+02   -0.54339E-04   -0.70193E-07   464   0.977E-04
  11 F= -.45754016E+02 E0= -.45754016E+02  d E =-.569539E-01  mag=     1.0000
       N       E                     dE             d eps       ncg     rms          rms(c)
DAV:   1    -0.457610371950E+02   -0.70754E-02   -0.46096E+01   656   0.144E+01    0.265E-01
DAV:   2    -0.457817604044E+02   -0.20723E-01   -0.21807E-01   672   0.142E+00    0.249E-01
DAV:   3    -0.457813185665E+02    0.44184E-03   -0.38579E-03   728   0.197E-01    0.172E-01
DAV:   4    -0.457804603704E+02    0.85820E-03   -0.77045E-04   696   0.632E-02    0.102E-01
DAV:   5    -0.457800663988E+02    0.39397E-03   -0.10324E-03   688   0.706E-02    0.320E-02
DAV:   6    -0.457802037830E+02   -0.13738E-03   -0.20603E-05   448   0.110E-02    0.218E-02
DAV:   7    -0.457804501407E+02   -0.24636E-03   -0.31456E-05   456   0.113E-02    0.768E-03
DAV:   8    -0.457806923474E+02   -0.24221E-03   -0.11157E-05   456   0.645E-03    0.240E-03
DAV:   9    -0.457808228727E+02   -0.13053E-03   -0.23566E-06   448   0.285E-03    0.176E-03
DAV:  10    -0.457809764588E+02   -0.15359E-03   -0.20549E-06   440   0.195E-03    0.123E-03
DAV:  11    -0.457811648762E+02   -0.18842E-03   -0.43021E-06   448   0.200E-03    0.740E-04
DAV:  12    -0.457812337793E+02   -0.68903E-04   -0.11368E-06   464   0.103E-03
  12 F= -.45781234E+02 E0= -.45781234E+02  d E =-.272177E-01  mag=     1.0000
       N       E                     dE             d eps       ncg     rms          rms(c)
DAV:   1    -0.456192630001E+02    0.16190E+00   -0.42102E+02   656   0.439E+01    0.998E-01
DAV:   2    -0.458176805656E+02   -0.19842E+00   -0.20522E+00   684   0.436E+00    0.748E-01
DAV:   3    -0.458142760164E+02    0.34045E-02   -0.35491E-02   728   0.600E-01    0.489E-01
DAV:   4    -0.458087421417E+02    0.55339E-02   -0.75606E-03   696   0.201E-01    0.270E-01
DAV:   5    -0.458076347175E+02    0.11074E-02   -0.52835E-03   692   0.163E-01    0.762E-02
DAV:   6    -0.458082734033E+02   -0.63869E-03   -0.13879E-04   472   0.276E-02    0.499E-02
DAV:   7    -0.458091469113E+02   -0.87351E-03   -0.11501E-04   464   0.217E-02    0.181E-02
DAV:   8    -0.458099500631E+02   -0.80315E-03   -0.38520E-05   472   0.113E-02    0.597E-03
DAV:   9    -0.458104362460E+02   -0.48618E-03   -0.90536E-06   456   0.523E-03    0.413E-03
DAV:  10    -0.458109195800E+02   -0.48333E-03   -0.81085E-06   472   0.341E-03    0.288E-03
DAV:  11    -0.458116112780E+02   -0.69170E-03   -0.20206E-05   464   0.421E-03    0.190E-03
DAV:  12    -0.458119320703E+02   -0.32079E-03   -0.58393E-06   464   0.250E-03    0.118E-03
DAV:  13    -0.458121567517E+02   -0.22468E-03   -0.48067E-06   456   0.203E-03    0.715E-04
DAV:  14    -0.458122552210E+02   -0.98469E-04   -0.13898E-06   456   0.130E-03
  13 F= -.45812255E+02 E0= -.45812255E+02  d E =-.582391E-01  mag=     1.0000
       N       E                     dE             d eps       ncg     rms          rms(c)
DAV:   1    -0.458118622819E+02    0.29447E-03   -0.62893E+01   656   0.168E+01    0.279E-01
DAV:   2    -0.458403510901E+02   -0.28489E-01   -0.28974E-01   684   0.162E+00    0.289E-01
DAV:   3    -0.458399844968E+02    0.36659E-03   -0.46785E-03   736   0.208E-01    0.215E-01
DAV:   4    -0.458389722676E+02    0.10122E-02   -0.10874E-03   696   0.743E-02    0.135E-01
DAV:   5    -0.458385870224E+02    0.38525E-03   -0.17092E-03   704   0.918E-02    0.461E-02
DAV:   6    -0.458386565887E+02   -0.69566E-04   -0.29889E-05   440   0.135E-02
  14 F= -.45838657E+02 E0= -.45838657E+02  d E =-.264014E-01  mag=     1.0000
       N       E                     dE             d eps       ncg     rms          rms(c)
DAV:   1    -0.457529588170E+02    0.85628E-01   -0.22486E+02   656   0.319E+01    0.574E-01
DAV:   2    -0.458568973060E+02   -0.10394E+00   -0.10512E+00   692   0.309E+00    0.562E-01
DAV:   3    -0.458557569399E+02    0.11404E-02   -0.17024E-02   720   0.401E-01    0.401E-01
DAV:   4    -0.458526378056E+02    0.31191E-02   -0.39348E-03   700   0.142E-01    0.251E-01
DAV:   5    -0.458519204751E+02    0.71733E-03   -0.47008E-03   696   0.154E-01    0.834E-02
DAV:   6    -0.458521149715E+02   -0.19450E-03   -0.83505E-05   464   0.229E-02    0.499E-02
DAV:   7    -0.458523531605E+02   -0.23819E-03   -0.64929E-05   464   0.178E-02    0.197E-02
DAV:   8    -0.458525709808E+02   -0.21782E-03   -0.23184E-05   452   0.116E-02    0.614E-03
DAV:   9    -0.458527733910E+02   -0.20241E-03   -0.64434E-06   456   0.550E-03    0.243E-03
DAV:  10    -0.458529228715E+02   -0.14948E-03   -0.24495E-06   456   0.265E-03    0.162E-03
DAV:  11    -0.458530844646E+02   -0.16159E-03   -0.26190E-06   456   0.179E-03    0.108E-03
DAV:  12    -0.458532620795E+02   -0.17761E-03   -0.43776E-06   472   0.180E-03    0.786E-04
DAV:  13    -0.458533327840E+02   -0.70705E-04   -0.11898E-06   456   0.108E-03
  15 F= -.45853333E+02 E0= -.45853333E+02  d E =-.410776E-01  mag=     1.0000
       N       E                     dE             d eps       ncg     rms          rms(c)
DAV:   1    -0.458489493111E+02    0.43128E-02   -0.13461E+01   672   0.777E+00    0.129E-01
DAV:   2    -0.458550680290E+02   -0.61187E-02   -0.61668E-02   712   0.741E-01    0.131E-01
DAV:   3    -0.458550088832E+02    0.59146E-04   -0.98080E-04   736   0.945E-02
  16 F= -.45855009E+02 E0= -.45855009E+02  d E =-.427537E-01  mag=     1.0000
       N       E                     dE             d eps       ncg     rms          rms(c)
DAV:   1    -0.458659479444E+02   -0.10880E-01   -0.16281E+01   688   0.856E+00    0.212E-01
DAV:   2    -0.458733035509E+02   -0.73556E-02   -0.75764E-02   700   0.827E-01    0.179E-01
DAV:   3    -0.458732322331E+02    0.71318E-04   -0.13234E-03   728   0.112E-01    0.121E-01
DAV:   4    -0.458730602891E+02    0.17194E-03   -0.52986E-04   700   0.543E-02    0.484E-02
DAV:   5    -0.458730584262E+02    0.18629E-05   -0.74433E-05   456   0.241E-02
  17 F= -.45873058E+02 E0= -.45873058E+02  d E =-.180495E-01  mag=     1.0000
       N       E                     dE             d eps       ncg     rms          rms(c)
DAV:   1    -0.458634012987E+02    0.96590E-02   -0.48569E+01   656   0.148E+01    0.330E-01
DAV:   2    -0.458850155589E+02   -0.21614E-01   -0.22384E-01   696   0.142E+00    0.303E-01
DAV:   3    -0.458847503439E+02    0.26521E-03   -0.37895E-03   744   0.184E-01    0.214E-01
DAV:   4    -0.458840930327E+02    0.65731E-03   -0.14669E-03   712   0.911E-02    0.101E-01
DAV:   5    -0.458840908757E+02    0.21570E-05   -0.46329E-04   720   0.524E-02
  18 F= -.45884091E+02 E0= -.45884091E+02  d E =-.290820E-01  mag=     1.0000
       N       E                     dE             d eps       ncg     rms          rms(c)
DAV:   1    -0.458859284729E+02   -0.18354E-02   -0.17498E+01   672   0.887E+00    0.160E-01
DAV:   2    -0.458939240030E+02   -0.79955E-02   -0.80909E-02   704   0.846E-01    0.148E-01
DAV:   3    -0.458938454591E+02    0.78544E-04   -0.12917E-03   744   0.108E-01    0.107E-01
DAV:   4    -0.458936434607E+02    0.20200E-03   -0.36220E-04   656   0.436E-02    0.586E-02
DAV:   5    -0.458936577895E+02   -0.14329E-04   -0.30096E-04   584   0.409E-02
  19 F= -.45893658E+02 E0= -.45893658E+02  d E =-.956691E-02  mag=     1.0000
       N       E                     dE             d eps       ncg     rms          rms(c)
DAV:   1    -0.458863932684E+02    0.72502E-02   -0.23290E+01   656   0.102E+01    0.188E-01
DAV:   2    -0.458969844366E+02   -0.10591E-01   -0.10755E-01   712   0.976E-01    0.172E-01
DAV:   3    -0.458968625084E+02    0.12193E-03   -0.17160E-03   740   0.124E-01    0.123E-01
DAV:   4    -0.458965668169E+02    0.29569E-03   -0.52523E-04   704   0.518E-02    0.655E-02
DAV:   5    -0.458965668937E+02   -0.76780E-07   -0.36182E-04   688   0.436E-02
  20 F= -.45896567E+02 E0= -.45896567E+02  d E =-.124760E-01  mag=     1.0000
       N       E                     dE             d eps       ncg     rms          rms(c)
DAV:   1    -0.458930828232E+02    0.34840E-02   -0.21014E+01   656   0.971E+00    0.213E-01
DAV:   2    -0.459028025841E+02   -0.97198E-02   -0.99272E-02   704   0.939E-01    0.175E-01
DAV:   3    -0.459026771066E+02    0.12548E-03   -0.16257E-03   740   0.122E-01    0.121E-01
DAV:   4    -0.459024650946E+02    0.21201E-03   -0.64997E-04   700   0.579E-02    0.507E-02
DAV:   5    -0.459025147752E+02   -0.49681E-04   -0.14882E-04   440   0.309E-02
  21 F= -.45902515E+02 E0= -.45902515E+02  d E =-.594788E-02  mag=     1.0000
       N       E                     dE             d eps       ncg     rms          rms(c)
DAV:   1    -0.459004503702E+02    0.20147E-02   -0.57543E+00   656   0.508E+00    0.112E-01
DAV:   2    -0.459031042291E+02   -0.26539E-02   -0.27054E-02   712   0.489E-01    0.930E-02
DAV:   3    -0.459030804930E+02    0.23736E-04   -0.43739E-04   688   0.632E-02
  22 F= -.45903080E+02 E0= -.45903080E+02  d E =-.651360E-02  mag=     1.0000
       N       E                     dE             d eps       ncg     rms          rms(c)
DAV:   1    -0.459016167233E+02    0.14875E-02   -0.91081E+00   656   0.641E+00    0.131E-01
DAV:   2    -0.459056534457E+02   -0.40367E-02   -0.41508E-02   704   0.609E-01    0.118E-01
DAV:   3    -0.459055995932E+02    0.53852E-04   -0.67826E-04   720   0.777E-02
  23 F= -.45905600E+02 E0= -.45905600E+02  d E =-.251910E-02  mag=     1.0000
       N       E                     dE             d eps       ncg     rms          rms(c)
DAV:   1    -0.459054602843E+02    0.19316E-03   -0.21623E-01   680   0.991E-01    0.506E-02
DAV:   2    -0.459055528416E+02   -0.92557E-04   -0.89577E-04   712   0.893E-02
  24 F= -.45905553E+02 E0= -.45905553E+02  d E =-.247235E-02  mag=     1.0000
       N       E                     dE             d eps       ncg     rms          rms(c)
DAV:   1    -0.459049997451E+02    0.46054E-03   -0.38455E+00   656   0.416E+00    0.115E-01
DAV:   2    -0.459067306410E+02   -0.17309E-02   -0.17763E-02   704   0.393E-01    0.856E-02
DAV:   3    -0.459067249273E+02    0.57137E-05   -0.28206E-04   488   0.511E-02
  25 F= -.45906725E+02 E0= -.45906725E+02  d E =-.117209E-02  mag=     1.0000
       N       E                     dE             d eps       ncg     rms          rms(c)
DAV:   1    -0.459066895574E+02    0.41084E-04   -0.22590E-01   700   0.101E+00    0.216E-02
DAV:   2    -0.459068089227E+02   -0.11937E-03   -0.10624E-03   728   0.978E-02    0.180E-02
DAV:   3    -0.459068143418E+02   -0.54191E-05   -0.17027E-05   432   0.129E-02
  26 F= -.45906814E+02 E0= -.45906814E+02  d E =-.126150E-02  mag=     1.0000
