 vasp.5.3.5 31Mar14 (build Feb 01 2018 12:10:03) gamma-only                     
  
 executed on             LinuxIFC date 2019.03.21  22:15:26
 running on   32 total cores
 distrk:  each k-point on   32 cores,    1 groups
 distr:  one band on NCORES_PER_BAND=   8 cores,    4 groups


--------------------------------------------------------------------------------------------------------


 INCAR:
 POTCAR:    PAW_PBE Ag 02Apr2005                  
 POTCAR:    PAW_PBE Ag 02Apr2005                  
   VRHFIN =Ag : s1 d10                                                          
   LEXCH  = PE                                                                  
   EATOM  =  1037.2675 eV,   76.2370 Ry                                         
                                                                                
   TITEL  = PAW_PBE Ag 02Apr2005                                                
   LULTRA =        F    use ultrasoft PP ?                                      
   IUNSCR =        1    unscreen: 0-lin 1-nonlin 2-no                           
   RPACOR =    2.000    partial core radius                                     
   POMASS =  107.868; ZVAL   =   11.000    mass and valenz                      
   RCORE  =    2.500    outmost cutoff radius                                   
   RWIGS  =    2.840; RWIGS  =    1.503    wigner-seitz radius (au A)           
   ENMAX  =  249.844; ENMIN  =  187.383 eV                                      
   ICORE  =        3    local potential                                         
   LCOR   =        T    correct aug charges                                     
   LPAW   =        T    paw PP                                                  
   EAUG   =  412.496                                                            
   DEXC   =    0.000                                                            
   RMAX   =    2.560    core radius for proj-oper                               
   RAUG   =    1.300    factor for augmentation sphere                          
   RDEP   =    2.576    radius for radial grids                                 
   RDEPT  =    2.072    core radius for aug-charge                              
                                                                                
   Atomic configuration                                                         
   12 entries                                                                   
     n  l   j            E        occ.                                          
     1  0  0.50    -25324.9161   2.0000                                         
     2  0  0.50     -3728.5341   2.0000                                         
     2  1  1.50     -3344.0404   6.0000                                         
     3  0  0.50      -683.5581   2.0000                                         
     3  1  1.50      -557.3225   6.0000                                         
     3  2  2.50      -358.3853  10.0000                                         
     4  0  0.50       -95.0341   2.0000                                         
     4  1  1.50       -58.5511   6.0000                                         
     4  2  2.50        -7.4440  10.0000                                         
     5  0  0.50        -4.4045   1.0000                                         
     5  1  0.50        -1.3606   0.0000                                         
     4  3  2.50        -1.3606   0.0000                                         
   Description                                                                  
     l       E           TYP  RCUT    TYP  RCUT                                 
     2     -7.4439781     23  2.400                                             
     2     -8.8045607     23  2.400                                             
     0     -4.4044681     23  2.400                                             
     0      1.9520038     23  2.400                                             
     1     -1.3605826     23  2.500                                             
     1     27.2116520     23  2.500                                             
     3     -4.0817478     23  2.400                                             
  local pseudopotential read in
  partial core-charges read in
  partial kinetic energy density read in
  atomic valenz-charges read in
  non local Contribution for L=           2  read in
    real space projection operators read in
  non local Contribution for L=           2  read in
    real space projection operators read in
  non local Contribution for L=           0  read in
    real space projection operators read in
  non local Contribution for L=           0  read in
    real space projection operators read in
  non local Contribution for L=           1  read in
    real space projection operators read in
  non local Contribution for L=           1  read in
    real space projection operators read in
    PAW grid and wavefunctions read in
 
   number of l-projection  operators is LMAX  =           6
   number of lm-projection operators is LMMAX =          18
 

 ----------------------------------------------------------------------------- 
|                                                                             |
|  ADVICE TO THIS USER RUNNING 'VASP/VAMP'   (HEAR YOUR MASTER'S VOICE ...):  |
|                                                                             |
|      You have a (more or less) 'large supercell' and for larger cells       |
|      it might be more efficient to use real space projection opertators     |
|      So try LREAL= Auto  in the INCAR   file.                               |
|      Mind: At the moment your POTCAR file does not contain real space       |
|       projectors, and has to be modified,  BUT if you                       |
|      want to do an extremely  accurate calculation you might also keep the  |
|      reciprocal projection scheme          (i.e. LREAL=.FALSE.)             |
|                                                                             |
 ----------------------------------------------------------------------------- 

  PAW_PBE Ag 02Apr2005                  :
 energy of atom  1       EATOM=-1037.2675
 kinetic energy error for atom=    0.0689 (will be added to EATOM!!)
 
 
 POSCAR: Al23, -68.77455708 <s> Ag </s>          
  positions in direct lattice
  No initial velocities read in
 exchange correlation table for  LEXCH =        8
   RHO(1)=    0.500       N(1)  =     2000
   RHO(2)=  100.500       N(2)  =     4000
 


--------------------------------------------------------------------------------------------------------


 ion  position               nearest neighbor table
   1  0.583  0.712  0.433-  11 2.70  19 2.75   2 2.84  14 2.97
   2  0.506  0.608  0.419-   8 2.70  11 2.76  20 2.76  19 2.81   1 2.84  10 2.87  18 2.94  14 3.40

   3  0.518  0.439  0.617-   4 2.63  17 2.72  22 2.79  18 2.81   7 2.91   9 2.98   6 3.34
   4  0.446  0.532  0.637-   3 2.63  13 2.70  15 2.77  23 2.81   6 2.83  18 3.08  20 3.23
   5  0.556  0.295  0.466-  17 2.71  21 2.87  22 2.88   9 2.90
   6  0.392  0.470  0.537-  22 2.66   4 2.83  20 2.83  13 2.85   8 2.86  16 2.89  18 3.18   3 3.34

   7  0.628  0.512  0.599-  15 2.68  12 2.70  18 2.82  14 2.84   3 2.91   9 3.03
   8  0.441  0.503  0.420-   2 2.70  16 2.71  20 2.78  21 2.81  10 2.84   6 2.86  18 2.93  22 3.53

   9  0.593  0.417  0.505-  12 2.74  17 2.76  18 2.79  10 2.86  22 2.90   5 2.90   3 2.98   7 3.03
                            21 3.17
  10  0.569  0.494  0.403-  21 2.71  11 2.73   8 2.84  18 2.84   9 2.86  12 2.87   2 2.87
  11  0.630  0.603  0.399-   1 2.70  10 2.73   2 2.76  14 2.77  12 2.84
  12  0.671  0.513  0.483-  14 2.70   7 2.70   9 2.74  11 2.84  10 2.87  18 3.28
  13  0.336  0.571  0.598-   4 2.70  20 2.70  23 2.79   6 2.85
  14  0.619  0.617  0.524-  12 2.70  19 2.70  11 2.77  15 2.80   7 2.84  18 2.89   1 2.97   2 3.40

  15  0.551  0.602  0.632-   7 2.68   4 2.77  14 2.80  19 2.90  18 3.00  23 3.03
  16  0.375  0.399  0.427-   8 2.71  21 2.82  22 2.86   6 2.89
  17  0.561  0.326  0.586-   5 2.71   3 2.72   9 2.76  22 2.78
  18  0.526  0.524  0.521-   9 2.79   3 2.81   7 2.82  10 2.84  20 2.87  14 2.89   8 2.93   2 2.94
                            15 3.00   4 3.08   6 3.18  12 3.28  19 3.31  22 3.46
  19  0.510  0.674  0.529-  14 2.70   1 2.75  20 2.75  23 2.79   2 2.81  15 2.90  18 3.31
  20  0.416  0.594  0.506-  13 2.70  19 2.75   2 2.76   8 2.78   6 2.83  18 2.87  23 2.92   4 3.23

  21  0.500  0.391  0.397-  10 2.71  22 2.75   8 2.81  16 2.82   5 2.87   9 3.17
  22  0.467  0.377  0.518-   6 2.66  21 2.75  17 2.78   3 2.79  16 2.86   5 2.88   9 2.90  18 3.46
                             8 3.53
  23  0.425  0.658  0.623-  13 2.79  19 2.79   4 2.81  20 2.92  15 3.03
 
  LATTYP: Found a simple cubic cell.
 ALAT       =    21.8705264011
  
  Lattice vectors:
  
 A1 = (  21.8705264011,   0.0000000000,   0.0000000000)
 A2 = (   0.0000000000,  21.8705264011,   0.0000000000)
 A3 = (   0.0000000000,   0.0000000000,  21.8705264011)


Analysis of symmetry for initial positions (statically):
=====================================================================
 Subroutine PRICEL returns:
 Original cell was already a primitive cell.
 

 Routine SETGRP: Setting up the symmetry group for a 
 simple cubic supercell.


 Subroutine GETGRP returns: Found  1 space group operations
 (whereof  1 operations were pure point group operations)
 out of a pool of 48 trial point group operations.


The static configuration has the point symmetry C_1 .


Analysis of symmetry for dynamics (positions and initial velocities):
=====================================================================
 Subroutine PRICEL returns:
 Original cell was already a primitive cell.
 

 Routine SETGRP: Setting up the symmetry group for a 
 simple cubic supercell.


 Subroutine GETGRP returns: Found  1 space group operations
 (whereof  1 operations were pure point group operations)
 out of a pool of 48 trial point group operations.


The dynamic configuration has the point symmetry C_1 .


Analysis of magnetic symmetry:
=====================================================================
 Subroutine PRICEL returns:
 Original cell was already a primitive cell.
 

 Subroutine MAGSYM returns: Found  1 space group operations
 (whereof  1 operations were pure point group operations)
 out of a pool of  1 trial space group operations
 (whereof  1 operations were pure point group operations)
 and found also     1 'primitive' translations


The magnetic configuration has the point symmetry C_1 .
 
 
 KPOINTS: Gamma-point only                        
  k-points in reciprocal lattice
Space group operators:
 irot       det(A)        alpha          n_x          n_y          n_z        tau_x        tau_y        tau_z
    1     1.000000     0.000000     1.000000     0.000000     0.000000     0.000000     0.000000     0.000000


--------------------------------------------------------------------------------------------------------




 Dimension of arrays:
   k-points           NKPTS =      1   k-points in BZ     NKDIM =      1   number of bands    NBANDS=    164
   number of dos      NEDOS =    301   number of ions     NIONS =     23
   non local maximal  LDIM  =      6   non local SUM 2l+1 LMDIM =     18
   total plane-waves  NPLWV = 729000
   max r-space proj   IRMAX =      1   max aug-charges    IRDMAX=   3626
   dimension x,y,z NGX =    90 NGY =   90 NGZ =   90
   dimension x,y,z NGXF=   180 NGYF=  180 NGZF=  180
   support grid    NGXF=   180 NGYF=  180 NGZF=  180
   ions per type =              23
 NGX,Y,Z   is equivalent  to a cutoff of   6.84,  6.84,  6.84 a.u.
 NGXF,Y,Z  is equivalent  to a cutoff of  13.68, 13.68, 13.68 a.u.


 I would recommend the setting:
   dimension x,y,z NGX =    85 NGY =   85 NGZ =   85
 SYSTEM =  unknown system                          
 POSCAR =  Al23, -68.77455708 <s> Ag </s>          

 Startparameter for this run:
   NWRITE =      2    write-flag & timer
   PREC   = normal    normal or accurate (medium, high low for compatibility)
   ISTART =      0    job   : 0-new  1-cont  2-samecut
   ICHARG =      2    charge: 1-file 2-atom 10-const
   ISPIN  =      2    spin polarized calculation?
   LNONCOLLINEAR =      F non collinear calculations
   LSORBIT =      F    spin-orbit coupling
   INIWAV =      1    electr: 0-lowe 1-rand  2-diag
   LASPH  =      F    aspherical Exc in radial PAW
   METAGGA=      F    non-selfconsistent MetaGGA calc.

 Electronic Relaxation 1
   ENCUT  =  249.8 eV  18.36 Ry    4.29 a.u.  28.19 28.19 28.19*2*pi/ulx,y,z
   ENINI  =  249.8     initial cutoff
   ENAUG  =  412.5 eV  augmentation charge cutoff
   NELM   =     60;   NELMIN=  2; NELMDL= -5     # of ELM steps 
   EDIFF  = 0.1E-03   stopping-criterion for ELM
   LREAL  =      F    real-space projection
   NLSPLINE    = F    spline interpolate recip. space projectors
   LCOMPAT=      F    compatible to vasp.4.4
   GGA_COMPAT  = T    GGA compatible to vasp.4.4-vasp.4.6
   LMAXPAW     = -100 max onsite density
   LMAXMIX     =    2 max onsite mixed and CHGCAR
   VOSKOWN=      0    Vosko Wilk Nusair interpolation
   ROPT   =    0.00000
 Ionic relaxation
   EDIFFG = 0.1E-02   stopping-criterion for IOM
   NSW    =   1000    number of steps for IOM
   NBLOCK =      1;   KBLOCK =   1000    inner block; outer block 
   IBRION =      2    ionic relax: 0-MD 1-quasi-New 2-CG
   NFREE  =      1    steps in history (QN), initial steepest desc. (CG)
   ISIF   =      2    stress and relaxation
   IWAVPR =     11    prediction:  0-non 1-charg 2-wave 3-comb
   ISYM   =      2    0-nonsym 1-usesym 2-fastsym
   LCORR  =      T    Harris-Foulkes like correction to forces

   POTIM  = 0.1000    time-step for ionic-motion
   TEIN   =    0.0    initial temperature
   TEBEG  =    0.0;   TEEND  =   0.0 temperature during run
   SMASS  =  -3.00    Nose mass-parameter (am)
   estimated Nose-frequenzy (Omega)   =  0.10E-29 period in steps =****** mass=  -0.109E-25a.u.
   SCALEE = 1.0000    scale energy and forces
   NPACO  =    256;   APACO  = 16.0  distance and # of slots for P.C.
   PSTRESS=    0.0 pullay stress

  Mass of Ions in am
   POMASS = 107.87
  Ionic Valenz
   ZVAL   =  11.00
  Atomic Wigner-Seitz radii
   RWIGS  =  -1.00
  virtual crystal weights 
   VCA    =   1.00
   NELECT =     253.0000    total number of electrons
   NUPDOWN=      -1.0000    fix difference up-down

 DOS related values:
   EMIN   =  10.00;   EMAX   =-10.00  energy-range for DOS
   EFERMI =   0.00
   ISMEAR =     0;   SIGMA  =   0.00  broadening in eV -4-tet -1-fermi 0-gaus

 Electronic relaxation 2 (details)
   IALGO  =     38    algorithm
   LDIAG  =      T    sub-space diagonalisation (order eigenvalues)
   LSUBROT=      F    optimize rotation matrix (better conditioning)
   TURBO    =      0    0=normal 1=particle mesh
   IRESTART =      0    0=no restart 2=restart with 2 vectors
   NREBOOT  =      0    no. of reboots
   NMIN     =      0    reboot dimension
   EREF     =   0.00    reference energy to select bands
   IMIX   =      4    mixing-type and parameters
     AMIX     =   0.40;   BMIX     =  1.00
     AMIX_MAG =   1.60;   BMIX_MAG =  1.00
     AMIN     =   0.10
     WC   =   100.;   INIMIX=   1;  MIXPRE=   1;  MAXMIX= -45

 Intra band minimization:
   WEIMIN = 0.0010     energy-eigenvalue tresh-hold
   EBREAK =  0.15E-06  absolut break condition
   DEPER  =   0.30     relativ break condition  

   TIME   =   0.40     timestep for ELM

  volume/ion in A,a.u.               =     454.83      3069.35
  Fermi-wavevector in a.u.,A,eV,Ry     =   0.473430  0.894653  3.049555  0.224136
  Thomas-Fermi vector in A             =   1.467175
 
 Write flags
   LWAVE  =      F    write WAVECAR
   LCHARG =      F    write CHGCAR
   LVTOT  =      F    write LOCPOT, total local potential
   LVHAR  =      F    write LOCPOT, Hartree potential only
   LELF   =      F    write electronic localiz. function (ELF)
   LORBIT =      0    0 simple, 1 ext, 2 COOP (PROOUT)


 Dipole corrections
   LMONO  =      F    monopole corrections only (constant potential shift)
   LDIPOL =      F    correct potential (dipole corrections)
   IDIPOL =      0    1-x, 2-y, 3-z, 4-all directions 
   EPSILON=  1.0000000 bulk dielectric constant

 Exchange correlation treatment:
   GGA     =    PE    GGA type
   LEXCH   =     8    internal setting for exchange type
   VOSKOWN=      0    Vosko Wilk Nusair interpolation
   LHFCALC =     F    Hartree Fock is set to
   LHFONE  =     F    Hartree Fock one center treatment
   AEXX    =    0.0000 exact exchange contribution

 Linear response parameters
   LEPSILON=     F    determine dielectric tensor
   LRPA    =     F    only Hartree local field effects (RPA)
   LNABLA  =     F    use nabla operator in PAW spheres
   LVEL    =     F    velocity operator in full k-point grid
   LINTERFAST=   F  fast interpolation
   KINTER  =     0    interpolate to denser k-point grid
   CSHIFT  =0.1000    complex shift for real part using Kramers Kronig
   OMEGAMAX=  -1.0    maximum frequency
   DEG_THRESHOLD= 0.2000000E-02 threshold for treating states as degnerate
   RTIME   =    0.100 relaxation time in fs

 Orbital magnetization related:
   ORBITALMAG=     F  switch on orbital magnetization
   LCHIMAG   =     F  perturbation theory with respect to B field
   DQ        =  0.001000  dq finite difference perturbation B field



--------------------------------------------------------------------------------------------------------


 conjugate gradient relaxation of ions
 charge density and potential will be updated during run
 spin polarized calculation
 Variant of blocked Davidson
 Davidson routine will perform the subspace rotation
 perform sub-space diagonalisation
    after iterative eigenvector-optimisation
 modified Broyden-mixing scheme, WC =      100.0
 initial mixing is a Kerker type mixing with AMIX =  0.4000 and BMIX =      1.0000
 Hartree-type preconditioning will be used
 using additional bands           37
 reciprocal scheme for non local part
 use partial core corrections
 calculate Harris-corrections to forces 
   (improved forces if not selfconsistent)
 use gradient corrections 
 use of overlap-Matrix (Vanderbilt PP)
 Gauss-broadening in eV      SIGMA  =   0.00


--------------------------------------------------------------------------------------------------------


  energy-cutoff  :      249.84
  volume of cell :    10461.11
      direct lattice vectors                 reciprocal lattice vectors
    21.870526401  0.000000000  0.000000000     0.045723637  0.000000000  0.000000000
     0.000000000 21.870526401  0.000000000     0.000000000  0.045723637  0.000000000
     0.000000000  0.000000000 21.870526401     0.000000000  0.000000000  0.045723637

  length of vectors
    21.870526401 21.870526401 21.870526401     0.045723637  0.045723637  0.045723637


 
 k-points in units of 2pi/SCALE and weight: Gamma-point only                        
   0.00000000  0.00000000  0.00000000       1.000
 
 k-points in reciprocal lattice and weights: Gamma-point only                        
   0.00000000  0.00000000  0.00000000       1.000
 
 position of ions in fractional coordinates (direct lattice) 
   0.58271354  0.71163138  0.43335283
   0.50565760  0.60808238  0.41857007
   0.51841859  0.43853262  0.61692388
   0.44588011  0.53233431  0.63692903
   0.55622417  0.29532549  0.46617454
   0.39175503  0.47032648  0.53735587
   0.62816363  0.51181807  0.59929526
   0.44056235  0.50318549  0.42040038
   0.59286765  0.41680475  0.50503187
   0.56888713  0.49412136  0.40256196
   0.63013282  0.60288060  0.39904109
   0.67055747  0.51285689  0.48322524
   0.33559396  0.57145391  0.59760249
   0.61946507  0.61743998  0.52425772
   0.55149529  0.60164155  0.63158328
   0.37454608  0.39862309  0.42744026
   0.56113183  0.32569215  0.58602411
   0.52587328  0.52417061  0.52142792
   0.50990905  0.67428233  0.52878930
   0.41582006  0.59372397  0.50626298
   0.49950929  0.39139563  0.39706140
   0.46703957  0.37715123  0.51755932
   0.42533990  0.65824040  0.62273652
 
 position of ions in cartesian coordinates  (Angst):
  12.74425176 15.56375282  9.47765460
  11.05899792 13.29908166  9.15434774
  11.33808749  9.59093933 13.49244992
   9.75163266 11.64243158 13.92997314
  12.16491542  6.45892399 10.19548260
   8.56788862 10.28628776 11.75225568
  13.73826932 11.19373072 13.10690276
   9.63533051 11.00493147  9.19437764
  12.96632766  9.11573924 11.04531275
  12.44186105 10.80669417  8.80424188
  13.78133640 13.18531610  8.72723872
  14.66544486 11.21645018 10.56839044
   7.33961647 12.49799789 13.06988093
  13.54802717 13.50373730 11.46579223
  12.06149229 13.15821734 13.81305886
   8.19151999  8.71809680  9.34834358
  12.27224845  7.12305881 12.81665584
  11.50112556 11.46388715 11.40390314
  11.15197936 14.74690950 11.56490045
   9.09420368 12.98505582 11.07223778
  10.92453114  8.56002847  8.68394187
  10.21440117  8.24849601 11.31929484
   9.30240762 14.39606409 13.61957558
 


--------------------------------------------------------------------------------------------------------


 use parallel FFT for wavefunctions z direction half grid
 k-point  1 :   0.0000 0.0000 0.0000  plane waves:   46943

 maximum and minimum number of plane-waves per node :      5873     5862

 maximum number of plane-waves:     46943
 maximum index in each direction: 
   IXMAX=   28   IYMAX=   28   IZMAX=   28
   IXMIN=  -28   IYMIN=  -28   IZMIN=    0

 WARNING: aliasing errors must be expected set NGX to 114 to avoid them
 WARNING: aliasing errors must be expected set NGY to 114 to avoid them
 WARNING: aliasing errors must be expected set NGZ to 114 to avoid them
 aliasing errors are usually negligible using standard VASP settings
 and one can safely disregard these warnings

 parallel 3D FFT for wavefunctions:
    minimum data exchange during FFTs selected (reduces bandwidth)
 parallel 3D FFT for charge:
    minimum data exchange during FFTs selected (reduces bandwidth)


 total amount of memory used by VASP on root node    71295. kBytes
========================================================================

   base      :      30000. kBytes
   nonl-proj :       3006. kBytes
   fftplans  :       8575. kBytes
   grid      :      21928. kBytes
   one-center:         46. kBytes
   wavefun   :       7740. kBytes
 
     INWAV:  cpu time    0.00: real time    0.00
 Broyden mixing: mesh for mixing (old mesh)
   NGX = 57   NGY = 57   NGZ = 57
  (NGX  =180   NGY  =180   NGZ  =180)
  gives a total of 185193 points

 initial charge density was supplied:
 charge density of overlapping atoms calculated
 number of electron     253.0000000 magnetization      23.0000000
 keeping initial charge density in first step


--------------------------------------------------------------------------------------------------------


 Maximum index for augmentation-charges          263 (set IRDMAX)


--------------------------------------------------------------------------------------------------------


 First call to EWALD:  gamma=   0.081
 Maximum number of real-space cells 3x 3x 3
 Maximum number of reciprocal cells 3x 3x 3

 FEWALD executed in parallel
    FEWALD:  cpu time    0.00: real time    0.00


----------------------------------------- Iteration    1(   1)  ---------------------------------------


    POTLOK:  cpu time    0.37: real time    0.37
    SETDIJ:  cpu time    0.01: real time    0.01
     EDDAV:  cpu time    3.00: real time    3.01
       DOS:  cpu time    0.00: real time    0.00
    --------------------------------------------
      LOOP:  cpu time    3.39: real time    3.76

 eigenvalue-minimisations  :   656
 total energy-change (2. order) : 0.2264688E+04  (-0.4308758E+04)
 number of electron     253.0000000 magnetization      23.0000000
 augmentation part      253.0000000 magnetization      23.0000000

 Free energy of the ion-electron system (eV)
  ---------------------------------------------------
  alpha Z        PSCENC =        43.01224831
  Ewald energy   TEWEN  =     45167.95693279
  -Hartree energ DENC   =    -68002.24523349
  -exchange      EXHF   =         0.00000000
  -V(xc)+E(xc)   XCENC  =      -253.10284016
  PAW double counting   =     23077.56009560   -22017.08600421
  entropy T*S    EENTRO =         0.00000000
  eigenvalues    EBANDS =       393.02480709
  atomic energy  EATOM  =     23855.56849199
  ---------------------------------------------------
  free energy    TOTEN  =      2264.68849792 eV

  energy without entropy =     2264.68849792  energy(sigma->0) =     2264.68849792


--------------------------------------------------------------------------------------------------------




----------------------------------------- Iteration    1(   2)  ---------------------------------------


     EDDAV:  cpu time    4.85: real time    4.86
       DOS:  cpu time    0.00: real time    0.00
    --------------------------------------------
      LOOP:  cpu time    4.85: real time    4.86

 eigenvalue-minimisations  :  1192
 total energy-change (2. order) :-0.1636143E+04  (-0.1459870E+04)
 number of electron     253.0000000 magnetization      23.0000000
 augmentation part      253.0000000 magnetization      23.0000000

 Free energy of the ion-electron system (eV)
  ---------------------------------------------------
  alpha Z        PSCENC =        43.01224831
  Ewald energy   TEWEN  =     45167.95693279
  -Hartree energ DENC   =    -68002.24523349
  -exchange      EXHF   =         0.00000000
  -V(xc)+E(xc)   XCENC  =      -253.10284016
  PAW double counting   =     23077.56009560   -22017.08600421
  entropy T*S    EENTRO =         0.00000000
  eigenvalues    EBANDS =     -1243.11779276
  atomic energy  EATOM  =     23855.56849199
  ---------------------------------------------------
  free energy    TOTEN  =       628.54589807 eV

  energy without entropy =      628.54589807  energy(sigma->0) =      628.54589807


--------------------------------------------------------------------------------------------------------




----------------------------------------- Iteration    1(   3)  ---------------------------------------


     EDDAV:  cpu time    3.80: real time    3.81
       DOS:  cpu time    0.00: real time    0.00
    --------------------------------------------
      LOOP:  cpu time    3.81: real time    3.81

 eigenvalue-minimisations  :   888
 total energy-change (2. order) :-0.6273726E+03  (-0.5793192E+03)
 number of electron     253.0000000 magnetization      23.0000000
 augmentation part      253.0000000 magnetization      23.0000000

 Free energy of the ion-electron system (eV)
  ---------------------------------------------------
  alpha Z        PSCENC =        43.01224831
  Ewald energy   TEWEN  =     45167.95693279
  -Hartree energ DENC   =    -68002.24523349
  -exchange      EXHF   =         0.00000000
  -V(xc)+E(xc)   XCENC  =      -253.10284016
  PAW double counting   =     23077.56009560   -22017.08600421
  entropy T*S    EENTRO =         0.00000000
  eigenvalues    EBANDS =     -1870.49037826
  atomic energy  EATOM  =     23855.56849199
  ---------------------------------------------------
  free energy    TOTEN  =         1.17331257 eV

  energy without entropy =        1.17331257  energy(sigma->0) =        1.17331257


--------------------------------------------------------------------------------------------------------




----------------------------------------- Iteration    1(   4)  ---------------------------------------


     EDDAV:  cpu time    3.39: real time    3.39
       DOS:  cpu time    0.00: real time    0.00
    --------------------------------------------
      LOOP:  cpu time    3.40: real time    3.42

 eigenvalue-minimisations  :   768
 total energy-change (2. order) :-0.4634857E+02  (-0.4507087E+02)
 number of electron     253.0000000 magnetization      23.0000000
 augmentation part      253.0000000 magnetization      23.0000000

 Free energy of the ion-electron system (eV)
  ---------------------------------------------------
  alpha Z        PSCENC =        43.01224831
  Ewald energy   TEWEN  =     45167.95693279
  -Hartree energ DENC   =    -68002.24523349
  -exchange      EXHF   =         0.00000000
  -V(xc)+E(xc)   XCENC  =      -253.10284016
  PAW double counting   =     23077.56009560   -22017.08600421
  entropy T*S    EENTRO =         0.00000000
  eigenvalues    EBANDS =     -1916.83894937
  atomic energy  EATOM  =     23855.56849199
  ---------------------------------------------------
  free energy    TOTEN  =       -45.17525855 eV

  energy without entropy =      -45.17525855  energy(sigma->0) =      -45.17525855


--------------------------------------------------------------------------------------------------------




----------------------------------------- Iteration    1(   5)  ---------------------------------------


     EDDAV:  cpu time    3.37: real time    3.37
       DOS:  cpu time    0.00: real time    0.00
    CHARGE:  cpu time    0.15: real time    0.15
    MIXING:  cpu time    0.01: real time    0.01
    --------------------------------------------
      LOOP:  cpu time    3.53: real time    3.53

 eigenvalue-minimisations  :   760
 total energy-change (2. order) :-0.8335148E+00  (-0.8320872E+00)
 number of electron     253.0000193 magnetization      20.3162519
 augmentation part      119.0200747 magnetization      19.8371419

 Broyden mixing:
  rms(total) = 0.27317E+01    rms(broyden)= 0.27313E+01
  rms(prec ) = 0.27778E+01
  weight for this iteration     100.00

 Free energy of the ion-electron system (eV)
  ---------------------------------------------------
  alpha Z        PSCENC =        43.01224831
  Ewald energy   TEWEN  =     45167.95693279
  -Hartree energ DENC   =    -68002.24523349
  -exchange      EXHF   =         0.00000000
  -V(xc)+E(xc)   XCENC  =      -253.10284016
  PAW double counting   =     23077.56009560   -22017.08600421
  entropy T*S    EENTRO =         0.00000000
  eigenvalues    EBANDS =     -1917.67246415
  atomic energy  EATOM  =     23855.56849199
  ---------------------------------------------------
  free energy    TOTEN  =       -46.00877332 eV

  energy without entropy =      -46.00877332  energy(sigma->0) =      -46.00877332


--------------------------------------------------------------------------------------------------------




----------------------------------------- Iteration    1(   6)  ---------------------------------------


    POTLOK:  cpu time    0.36: real time    0.36
    SETDIJ:  cpu time    0.01: real time    0.01
     EDDAV:  cpu time    3.04: real time    3.04
       DOS:  cpu time    0.00: real time    0.00
    CHARGE:  cpu time    0.15: real time    0.15
    MIXING:  cpu time    0.01: real time    0.01
    --------------------------------------------
      LOOP:  cpu time    3.57: real time    3.58

 eigenvalue-minimisations  :   664
 total energy-change (2. order) : 0.3151582E+02  (-0.9944213E+01)
 number of electron     253.0000199 magnetization      18.7953160
 augmentation part      121.6900729 magnetization      10.1891991

 Broyden mixing:
  rms(total) = 0.13665E+01    rms(broyden)= 0.13664E+01
  rms(prec ) = 0.13854E+01
  weight for this iteration     100.00

 eigenvalues of (default mixing * dielectric matrix)
  average eigenvalue GAMMA=   0.8526
  0.8526

 Free energy of the ion-electron system (eV)
  ---------------------------------------------------
  alpha Z        PSCENC =        43.01224831
  Ewald energy   TEWEN  =     45167.95693279
  -Hartree energ DENC   =    -67913.71124899
  -exchange      EXHF   =         0.00000000
  -V(xc)+E(xc)   XCENC  =      -237.28072941
  PAW double counting   =     23832.19206794   -22788.20841627
  entropy T*S    EENTRO =        -0.00000000
  eigenvalues    EBANDS =     -1974.02229590
  atomic energy  EATOM  =     23855.56849199
  ---------------------------------------------------
  free energy    TOTEN  =       -14.49294954 eV

  energy without entropy =      -14.49294954  energy(sigma->0) =      -14.49294954


--------------------------------------------------------------------------------------------------------




----------------------------------------- Iteration    1(   7)  ---------------------------------------


    POTLOK:  cpu time    0.36: real time    0.36
    SETDIJ:  cpu time    0.01: real time    0.01
     EDDAV:  cpu time    3.16: real time    3.16
       DOS:  cpu time    0.00: real time    0.00
    CHARGE:  cpu time    0.14: real time    0.15
    MIXING:  cpu time    0.01: real time    0.01
    --------------------------------------------
      LOOP:  cpu time    3.69: real time    3.69

 eigenvalue-minimisations  :   696
 total energy-change (2. order) : 0.1225646E+01  (-0.4885623E+00)
 number of electron     253.0000199 magnetization      16.0395409
 augmentation part      121.6267253 magnetization       9.6071493

 Broyden mixing:
  rms(total) = 0.85152E+00    rms(broyden)= 0.85148E+00
  rms(prec ) = 0.86411E+00
  weight for this iteration     100.00

 eigenvalues of (default mixing * dielectric matrix)
  average eigenvalue GAMMA=   1.0375
  0.7594  1.3155

 Free energy of the ion-electron system (eV)
  ---------------------------------------------------
  alpha Z        PSCENC =        43.01224831
  Ewald energy   TEWEN  =     45167.95693279
  -Hartree energ DENC   =    -67960.97339696
  -exchange      EXHF   =         0.00000000
  -V(xc)+E(xc)   XCENC  =      -236.24668753
  PAW double counting   =     24280.97210118   -23247.34557222
  entropy T*S    EENTRO =         0.00000000
  eigenvalues    EBANDS =     -1916.21142142
  atomic energy  EATOM  =     23855.56849199
  ---------------------------------------------------
  free energy    TOTEN  =       -13.26730388 eV

  energy without entropy =      -13.26730388  energy(sigma->0) =      -13.26730388


--------------------------------------------------------------------------------------------------------




----------------------------------------- Iteration    1(   8)  ---------------------------------------


    POTLOK:  cpu time    0.36: real time    0.36
    SETDIJ:  cpu time    0.01: real time    0.01
     EDDAV:  cpu time    3.16: real time    3.16
       DOS:  cpu time    0.00: real time    0.00
    CHARGE:  cpu time    0.15: real time    0.15
    MIXING:  cpu time    0.01: real time    0.01
    --------------------------------------------
      LOOP:  cpu time    3.69: real time    3.69

 eigenvalue-minimisations  :   696
 total energy-change (2. order) : 0.3232961E+01  (-0.1914901E+00)
 number of electron     253.0000199 magnetization      14.2203233
 augmentation part      121.5133479 magnetization       7.9205738

 Broyden mixing:
  rms(total) = 0.42854E+00    rms(broyden)= 0.42852E+00
  rms(prec ) = 0.43283E+00
  weight for this iteration     100.00

 eigenvalues of (default mixing * dielectric matrix)
  average eigenvalue GAMMA=   1.2346
  2.1935  0.8874  0.6229

 Free energy of the ion-electron system (eV)
  ---------------------------------------------------
  alpha Z        PSCENC =        43.01224831
  Ewald energy   TEWEN  =     45167.95693279
  -Hartree energ DENC   =    -68025.85032407
  -exchange      EXHF   =         0.00000000
  -V(xc)+E(xc)   XCENC  =      -233.17190017
  PAW double counting   =     24841.40012950   -23819.29519181
  entropy T*S    EENTRO =         0.00000000
  eigenvalues    EBANDS =     -1839.65472910
  atomic energy  EATOM  =     23855.56849199
  ---------------------------------------------------
  free energy    TOTEN  =       -10.03434257 eV

  energy without entropy =      -10.03434257  energy(sigma->0) =      -10.03434257


--------------------------------------------------------------------------------------------------------




----------------------------------------- Iteration    1(   9)  ---------------------------------------


    POTLOK:  cpu time    0.36: real time    0.36
    SETDIJ:  cpu time    0.01: real time    0.01
     EDDAV:  cpu time    3.24: real time    3.25
       DOS:  cpu time    0.00: real time    0.00
    CHARGE:  cpu time    0.15: real time    0.15
    MIXING:  cpu time    0.01: real time    0.01
    --------------------------------------------
      LOOP:  cpu time    3.78: real time    3.78

 eigenvalue-minimisations  :   720
 total energy-change (2. order) :-0.4958687E+01  (-0.1294969E+00)
 number of electron     253.0000199 magnetization      12.5976009
 augmentation part      121.4191570 magnetization       6.4516505

 Broyden mixing:
  rms(total) = 0.26970E+00    rms(broyden)= 0.26969E+00
  rms(prec ) = 0.27369E+00
  weight for this iteration     100.00

 eigenvalues of (default mixing * dielectric matrix)
  average eigenvalue GAMMA=   1.2241
  2.1266  0.6267  0.8015  1.3417

 Free energy of the ion-electron system (eV)
  ---------------------------------------------------
  alpha Z        PSCENC =        43.01224831
  Ewald energy   TEWEN  =     45167.95693279
  -Hartree energ DENC   =    -68050.11439687
  -exchange      EXHF   =         0.00000000
  -V(xc)+E(xc)   XCENC  =      -236.76668496
  PAW double counting   =     25031.79278012   -24013.43999683
  entropy T*S    EENTRO =         0.00000000
  eigenvalues    EBANDS =     -1813.00240449
  atomic energy  EATOM  =     23855.56849199
  ---------------------------------------------------
  free energy    TOTEN  =       -14.99302995 eV

  energy without entropy =      -14.99302995  energy(sigma->0) =      -14.99302995


--------------------------------------------------------------------------------------------------------




----------------------------------------- Iteration    1(  10)  ---------------------------------------


    POTLOK:  cpu time    0.36: real time    0.36
    SETDIJ:  cpu time    0.01: real time    0.01
     EDDAV:  cpu time    3.12: real time    3.12
       DOS:  cpu time    0.00: real time    0.00
    CHARGE:  cpu time    0.15: real time    0.15
    MIXING:  cpu time    0.01: real time    0.01
    --------------------------------------------
      LOOP:  cpu time    3.66: real time    3.66

 eigenvalue-minimisations  :   684
 total energy-change (2. order) :-0.7970676E+01  (-0.2617942E+00)
 number of electron     253.0000199 magnetization      10.0644252
 augmentation part      121.3988864 magnetization       4.2032625

 Broyden mixing:
  rms(total) = 0.20288E+00    rms(broyden)= 0.20287E+00
  rms(prec ) = 0.20536E+00
  weight for this iteration     100.00

 eigenvalues of (default mixing * dielectric matrix)
  average eigenvalue GAMMA=   1.3616
  2.2685  2.2685  0.8148  0.8148  0.6414

 Free energy of the ion-electron system (eV)
  ---------------------------------------------------
  alpha Z        PSCENC =        43.01224831
  Ewald energy   TEWEN  =     45167.95693279
  -Hartree energ DENC   =    -68048.95690927
  -exchange      EXHF   =         0.00000000
  -V(xc)+E(xc)   XCENC  =      -242.82363399
  PAW double counting   =     25023.76415018   -24005.22194464
  entropy T*S    EENTRO =         0.00000000
  eigenvalues    EBANDS =     -1816.26304115
  atomic energy  EATOM  =     23855.56849199
  ---------------------------------------------------
  free energy    TOTEN  =       -22.96370579 eV

  energy without entropy =      -22.96370579  energy(sigma->0) =      -22.96370579


--------------------------------------------------------------------------------------------------------




----------------------------------------- Iteration    1(  11)  ---------------------------------------


    POTLOK:  cpu time    0.36: real time    0.36
    SETDIJ:  cpu time    0.01: real time    0.01
     EDDAV:  cpu time    3.05: real time    3.06
       DOS:  cpu time    0.00: real time    0.00
    CHARGE:  cpu time    0.15: real time    0.15
    MIXING:  cpu time    0.01: real time    0.01
    --------------------------------------------
      LOOP:  cpu time    3.58: real time    3.61

 eigenvalue-minimisations  :   664
 total energy-change (2. order) :-0.9026517E+01  (-0.4320243E+00)
 number of electron     253.0000200 magnetization       9.4610893
 augmentation part      121.4164303 magnetization       5.8828810

 Broyden mixing:
  rms(total) = 0.22264E+00    rms(broyden)= 0.22253E+00
  rms(prec ) = 0.23054E+00
  weight for this iteration     100.00

 eigenvalues of (default mixing * dielectric matrix)
  average eigenvalue GAMMA=   1.2283
  2.6052  2.1559  0.8336  0.8336  0.6404  0.3008

 Free energy of the ion-electron system (eV)
  ---------------------------------------------------
  alpha Z        PSCENC =        43.01224831
  Ewald energy   TEWEN  =     45167.95693279
  -Hartree energ DENC   =    -68045.29997515
  -exchange      EXHF   =         0.00000000
  -V(xc)+E(xc)   XCENC  =      -249.71706801
  PAW double counting   =     25010.19687554   -23991.81248468
  entropy T*S    EENTRO =         0.00000000
  eigenvalues    EBANDS =     -1821.89524378
  atomic energy  EATOM  =     23855.56849199
  ---------------------------------------------------
  free energy    TOTEN  =       -31.99022299 eV

  energy without entropy =      -31.99022299  energy(sigma->0) =      -31.99022299


--------------------------------------------------------------------------------------------------------




----------------------------------------- Iteration    1(  12)  ---------------------------------------


    POTLOK:  cpu time    0.36: real time    0.37
    SETDIJ:  cpu time    0.01: real time    0.01
     EDDAV:  cpu time    3.44: real time    3.44
       DOS:  cpu time    0.00: real time    0.00
    CHARGE:  cpu time    0.15: real time    0.15
    MIXING:  cpu time    0.01: real time    0.01
    --------------------------------------------
      LOOP:  cpu time    3.98: real time    4.20

 eigenvalue-minimisations  :   776
 total energy-change (2. order) :-0.9265143E+00  (-0.1855427E-01)
 number of electron     253.0000199 magnetization       8.1330425
 augmentation part      121.3937188 magnetization       4.6406856

 Broyden mixing:
  rms(total) = 0.18510E+00    rms(broyden)= 0.18510E+00
  rms(prec ) = 0.19210E+00
  weight for this iteration     100.00

 eigenvalues of (default mixing * dielectric matrix)
  average eigenvalue GAMMA=   1.2289
  2.9316  2.2173  0.7887  0.7887  0.6410  0.6177  0.6177

 Free energy of the ion-electron system (eV)
  ---------------------------------------------------
  alpha Z        PSCENC =        43.01224831
  Ewald energy   TEWEN  =     45167.95693279
  -Hartree energ DENC   =    -68046.28256808
  -exchange      EXHF   =         0.00000000
  -V(xc)+E(xc)   XCENC  =      -250.37946845
  PAW double counting   =     25013.14935073   -23994.97768273
  entropy T*S    EENTRO =         0.00000000
  eigenvalues    EBANDS =     -1820.96404183
  atomic energy  EATOM  =     23855.56849199
  ---------------------------------------------------
  free energy    TOTEN  =       -32.91673728 eV

  energy without entropy =      -32.91673728  energy(sigma->0) =      -32.91673728


--------------------------------------------------------------------------------------------------------




----------------------------------------- Iteration    1(  13)  ---------------------------------------


    POTLOK:  cpu time    0.37: real time    0.37
    SETDIJ:  cpu time    0.01: real time    0.01
     EDDAV:  cpu time    3.06: real time    3.06
       DOS:  cpu time    0.00: real time    0.00
    CHARGE:  cpu time    0.15: real time    0.15
    MIXING:  cpu time    0.01: real time    0.01
    --------------------------------------------
      LOOP:  cpu time    3.60: real time    3.62

 eigenvalue-minimisations  :   664
 total energy-change (2. order) :-0.2856404E+01  (-0.7306730E-01)
 number of electron     253.0000198 magnetization       7.8206393
 augmentation part      121.4132613 magnetization       6.4060383

 Broyden mixing:
  rms(total) = 0.23542E+00    rms(broyden)= 0.23533E+00
  rms(prec ) = 0.24478E+00
  weight for this iteration     100.00

 eigenvalues of (default mixing * dielectric matrix)
  average eigenvalue GAMMA=   1.1317
  3.1076  2.1698  0.7956  0.7956  0.6413  0.6759  0.6759  0.1917

 Free energy of the ion-electron system (eV)
  ---------------------------------------------------
  alpha Z        PSCENC =        43.01224831
  Ewald energy   TEWEN  =     45167.95693279
  -Hartree energ DENC   =    -68043.12180221
  -exchange      EXHF   =         0.00000000
  -V(xc)+E(xc)   XCENC  =      -252.61277379
  PAW double counting   =     24975.91599785   -23957.72505387
  entropy T*S    EENTRO =         0.00000000
  eigenvalues    EBANDS =     -1824.76718253
  atomic energy  EATOM  =     23855.56849199
  ---------------------------------------------------
  free energy    TOTEN  =       -35.77314147 eV

  energy without entropy =      -35.77314147  energy(sigma->0) =      -35.77314147


--------------------------------------------------------------------------------------------------------




----------------------------------------- Iteration    1(  14)  ---------------------------------------


    POTLOK:  cpu time    0.36: real time    0.36
    SETDIJ:  cpu time    0.01: real time    0.01
     EDDAV:  cpu time    3.47: real time    3.47
       DOS:  cpu time    0.00: real time    0.00
    CHARGE:  cpu time    0.15: real time    0.15
    MIXING:  cpu time    0.01: real time    0.01
    --------------------------------------------
      LOOP:  cpu time    4.00: real time    4.01

 eigenvalue-minimisations  :   784
 total energy-change (2. order) :-0.2877016E+00  (-0.3438857E-02)
 number of electron     253.0000198 magnetization       6.0533526
 augmentation part      121.4092303 magnetization       4.6726926

 Broyden mixing:
  rms(total) = 0.21505E+00    rms(broyden)= 0.21504E+00
  rms(prec ) = 0.22378E+00
  weight for this iteration     100.00

 eigenvalues of (default mixing * dielectric matrix)
  average eigenvalue GAMMA=   1.2436
  3.9912  2.1577  0.8583  0.8583  0.7567  0.7567  0.7863  0.6225  0.4044

 Free energy of the ion-electron system (eV)
  ---------------------------------------------------
  alpha Z        PSCENC =        43.01224831
  Ewald energy   TEWEN  =     45167.95693279
  -Hartree energ DENC   =    -68043.05984891
  -exchange      EXHF   =         0.00000000
  -V(xc)+E(xc)   XCENC  =      -252.81942776
  PAW double counting   =     24973.06918830   -23954.92792824
  entropy T*S    EENTRO =         0.00000000
  eigenvalues    EBANDS =     -1824.86049959
  atomic energy  EATOM  =     23855.56849199
  ---------------------------------------------------
  free energy    TOTEN  =       -36.06084311 eV

  energy without entropy =      -36.06084311  energy(sigma->0) =      -36.06084311


--------------------------------------------------------------------------------------------------------




----------------------------------------- Iteration    1(  15)  ---------------------------------------


    POTLOK:  cpu time    0.36: real time    0.36
    SETDIJ:  cpu time    0.01: real time    0.01
     EDDAV:  cpu time    3.12: real time    3.12
       DOS:  cpu time    0.00: real time    0.00
    CHARGE:  cpu time    0.15: real time    0.15
    MIXING:  cpu time    0.02: real time    0.01
    --------------------------------------------
      LOOP:  cpu time    3.66: real time    3.72

 eigenvalue-minimisations  :   680
 total energy-change (2. order) :-0.2612290E+01  (-0.6841454E-01)
 number of electron     253.0000198 magnetization       4.2394730
 augmentation part      121.4213450 magnetization       2.9981898

 Broyden mixing:
  rms(total) = 0.14890E+00    rms(broyden)= 0.14890E+00
  rms(prec ) = 0.15483E+00
  weight for this iteration     100.00

 eigenvalues of (default mixing * dielectric matrix)
  average eigenvalue GAMMA=   1.3583
  5.2883  1.9654  0.9378  0.9378  1.0647  1.0647  0.6701  0.6385  0.6385  0.3774

 Free energy of the ion-electron system (eV)
  ---------------------------------------------------
  alpha Z        PSCENC =        43.01224831
  Ewald energy   TEWEN  =     45167.95693279
  -Hartree energ DENC   =    -68039.86332231
  -exchange      EXHF   =         0.00000000
  -V(xc)+E(xc)   XCENC  =      -254.93369556
  PAW double counting   =     24937.66444002   -23919.51621244
  entropy T*S    EENTRO =         0.00000000
  eigenvalues    EBANDS =     -1828.56201556
  atomic energy  EATOM  =     23855.56849199
  ---------------------------------------------------
  free energy    TOTEN  =       -38.67313276 eV

  energy without entropy =      -38.67313276  energy(sigma->0) =      -38.67313276


--------------------------------------------------------------------------------------------------------




----------------------------------------- Iteration    1(  16)  ---------------------------------------


    POTLOK:  cpu time    0.36: real time    0.36
    SETDIJ:  cpu time    0.01: real time    0.01
     EDDAV:  cpu time    3.06: real time    3.06
       DOS:  cpu time    0.00: real time    0.00
    CHARGE:  cpu time    0.14: real time    0.15
    MIXING:  cpu time    0.02: real time    0.01
    --------------------------------------------
      LOOP:  cpu time    3.60: real time    3.62

 eigenvalue-minimisations  :   664
 total energy-change (2. order) :-0.2711932E+01  (-0.7852080E-01)
 number of electron     253.0000198 magnetization       2.7938373
 augmentation part      121.3887941 magnetization       1.6604960

 Broyden mixing:
  rms(total) = 0.81588E-01    rms(broyden)= 0.81582E-01
  rms(prec ) = 0.86330E-01
  weight for this iteration     100.00

 eigenvalues of (default mixing * dielectric matrix)
  average eigenvalue GAMMA=   1.4884
  6.6773  2.1263  1.5043  1.3067  0.8264  0.8264  0.7509  0.7509  0.6083  0.6083
  0.3863

 Free energy of the ion-electron system (eV)
  ---------------------------------------------------
  alpha Z        PSCENC =        43.01224831
  Ewald energy   TEWEN  =     45167.95693279
  -Hartree energ DENC   =    -68036.02798012
  -exchange      EXHF   =         0.00000000
  -V(xc)+E(xc)   XCENC  =      -257.22466317
  PAW double counting   =     24914.80618443   -23896.63867499
  entropy T*S    EENTRO =         0.00000000
  eigenvalues    EBANDS =     -1832.83760444
  atomic energy  EATOM  =     23855.56849199
  ---------------------------------------------------
  free energy    TOTEN  =       -41.38506521 eV

  energy without entropy =      -41.38506521  energy(sigma->0) =      -41.38506521


--------------------------------------------------------------------------------------------------------




----------------------------------------- Iteration    1(  17)  ---------------------------------------


    POTLOK:  cpu time    0.37: real time    0.37
    SETDIJ:  cpu time    0.01: real time    0.01
     EDDAV:  cpu time    3.18: real time    3.18
       DOS:  cpu time    0.00: real time    0.00
    CHARGE:  cpu time    0.15: real time    0.15
    MIXING:  cpu time    0.02: real time    0.01
    --------------------------------------------
      LOOP:  cpu time    3.72: real time    3.74

 eigenvalue-minimisations  :   696
 total energy-change (2. order) :-0.1570361E+01  (-0.3262865E-01)
 number of electron     253.0000198 magnetization       1.8234663
 augmentation part      121.4024593 magnetization       0.7697592

 Broyden mixing:
  rms(total) = 0.47191E-01    rms(broyden)= 0.47183E-01
  rms(prec ) = 0.51319E-01
  weight for this iteration     100.00

 eigenvalues of (default mixing * dielectric matrix)
  average eigenvalue GAMMA=   1.5986
  7.9694  2.3674  1.7133  1.4089  0.8702  0.8702  0.8813  0.7584  0.7584  0.5993
  0.5993  0.3867

 Free energy of the ion-electron system (eV)
  ---------------------------------------------------
  alpha Z        PSCENC =        43.01224831
  Ewald energy   TEWEN  =     45167.95693279
  -Hartree energ DENC   =    -68025.31614606
  -exchange      EXHF   =         0.00000000
  -V(xc)+E(xc)   XCENC  =      -258.73741883
  PAW double counting   =     24884.32677969   -23865.70513651
  entropy T*S    EENTRO =         0.00000000
  eigenvalues    EBANDS =     -1844.06117732
  atomic energy  EATOM  =     23855.56849199
  ---------------------------------------------------
  free energy    TOTEN  =       -42.95542596 eV

  energy without entropy =      -42.95542596  energy(sigma->0) =      -42.95542596


--------------------------------------------------------------------------------------------------------




----------------------------------------- Iteration    1(  18)  ---------------------------------------


    POTLOK:  cpu time    0.36: real time    0.36
    SETDIJ:  cpu time    0.01: real time    0.01
     EDDAV:  cpu time    3.07: real time    3.07
       DOS:  cpu time    0.00: real time    0.00
    CHARGE:  cpu time    0.15: real time    0.15
    MIXING:  cpu time    0.01: real time    0.01
    --------------------------------------------
      LOOP:  cpu time    3.60: real time    3.62

 eigenvalue-minimisations  :   664
 total energy-change (2. order) :-0.1254129E+01  (-0.1633167E-01)
 number of electron     253.0000198 magnetization       1.4940925
 augmentation part      121.4077726 magnetization       0.4702188

 Broyden mixing:
  rms(total) = 0.30409E-01    rms(broyden)= 0.30397E-01
  rms(prec ) = 0.34434E-01
  weight for this iteration     100.00

 eigenvalues of (default mixing * dielectric matrix)
  average eigenvalue GAMMA=   1.6902
  8.5676  2.9959  2.1137  1.6006  0.8457  0.8457  1.0520  0.8466  0.8466  0.6387
  0.6171  0.6171  0.3856

 Free energy of the ion-electron system (eV)
  ---------------------------------------------------
  alpha Z        PSCENC =        43.01224831
  Ewald energy   TEWEN  =     45167.95693279
  -Hartree energ DENC   =    -68013.08319191
  -exchange      EXHF   =         0.00000000
  -V(xc)+E(xc)   XCENC  =      -260.03681918
  PAW double counting   =     24882.90391983   -23864.00505660
  entropy T*S    EENTRO =         0.00000000
  eigenvalues    EBANDS =     -1856.52608044
  atomic energy  EATOM  =     23855.56849199
  ---------------------------------------------------
  free energy    TOTEN  =       -44.20955521 eV

  energy without entropy =      -44.20955521  energy(sigma->0) =      -44.20955521


--------------------------------------------------------------------------------------------------------




----------------------------------------- Iteration    1(  19)  ---------------------------------------


    POTLOK:  cpu time    0.37: real time    0.37
    SETDIJ:  cpu time    0.01: real time    0.01
     EDDAV:  cpu time    3.18: real time    3.18
       DOS:  cpu time    0.00: real time    0.00
    CHARGE:  cpu time    0.15: real time    0.15
    MIXING:  cpu time    0.02: real time    0.02
    --------------------------------------------
      LOOP:  cpu time    3.72: real time    3.86

 eigenvalue-minimisations  :   696
 total energy-change (2. order) :-0.7464289E+00  (-0.4464005E-02)
 number of electron     253.0000198 magnetization       1.2004045
 augmentation part      121.4043664 magnetization       0.1691201

 Broyden mixing:
  rms(total) = 0.15653E-01    rms(broyden)= 0.15643E-01
  rms(prec ) = 0.19084E-01
  weight for this iteration     100.00

 eigenvalues of (default mixing * dielectric matrix)
  average eigenvalue GAMMA=   1.7484
  9.3961  3.5787  1.8844  1.8844  1.1726  1.1726  0.8369  0.8369  0.6837  0.6837
  0.6712  0.6452  0.6452  0.3858

 Free energy of the ion-electron system (eV)
  ---------------------------------------------------
  alpha Z        PSCENC =        43.01224831
  Ewald energy   TEWEN  =     45167.95693279
  -Hartree energ DENC   =    -68001.68050329
  -exchange      EXHF   =         0.00000000
  -V(xc)+E(xc)   XCENC  =      -260.85680469
  PAW double counting   =     24894.18195257   -23875.10868522
  entropy T*S    EENTRO =         0.00000000
  eigenvalues    EBANDS =     -1868.02961661
  atomic energy  EATOM  =     23855.56849199
  ---------------------------------------------------
  free energy    TOTEN  =       -44.95598415 eV

  energy without entropy =      -44.95598415  energy(sigma->0) =      -44.95598415


--------------------------------------------------------------------------------------------------------




----------------------------------------- Iteration    1(  20)  ---------------------------------------


    POTLOK:  cpu time    0.36: real time    0.36
    SETDIJ:  cpu time    0.01: real time    0.01
     EDDAV:  cpu time    3.18: real time    3.18
       DOS:  cpu time    0.00: real time    0.00
    CHARGE:  cpu time    0.15: real time    0.15
    MIXING:  cpu time    0.02: real time    0.02
    --------------------------------------------
      LOOP:  cpu time    3.72: real time    3.74

 eigenvalue-minimisations  :   696
 total energy-change (2. order) :-0.2543607E+00  (-0.1017188E-02)
 number of electron     253.0000198 magnetization       1.2162090
 augmentation part      121.4178073 magnetization       0.1944152

 Broyden mixing:
  rms(total) = 0.10695E-01    rms(broyden)= 0.10692E-01
  rms(prec ) = 0.13206E-01
  weight for this iteration     100.00

 eigenvalues of (default mixing * dielectric matrix)
  average eigenvalue GAMMA=   1.7319
  9.1572  4.1077  2.2815  1.5916  1.5916  0.8515  0.8515  0.8977  0.8306  0.8306
  0.3857  0.7551  0.6062  0.6062  0.6337

 Free energy of the ion-electron system (eV)
  ---------------------------------------------------
  alpha Z        PSCENC =        43.01224831
  Ewald energy   TEWEN  =     45167.95693279
  -Hartree energ DENC   =    -67994.14944193
  -exchange      EXHF   =         0.00000000
  -V(xc)+E(xc)   XCENC  =      -261.17651780
  PAW double counting   =     24892.04233362   -23872.87905564
  entropy T*S    EENTRO =         0.00000000
  eigenvalues    EBANDS =     -1875.58533620
  atomic energy  EATOM  =     23855.56849199
  ---------------------------------------------------
  free energy    TOTEN  =       -45.21034485 eV

  energy without entropy =      -45.21034485  energy(sigma->0) =      -45.21034485


--------------------------------------------------------------------------------------------------------




----------------------------------------- Iteration    1(  21)  ---------------------------------------


    POTLOK:  cpu time    0.36: real time    0.36
    SETDIJ:  cpu time    0.01: real time    0.01
     EDDAV:  cpu time    3.14: real time    3.14
       DOS:  cpu time    0.00: real time    0.00
    CHARGE:  cpu time    0.15: real time    0.15
    MIXING:  cpu time    0.02: real time    0.02
    --------------------------------------------
      LOOP:  cpu time    3.68: real time    3.69

 eigenvalue-minimisations  :   684
 total energy-change (2. order) :-0.1064326E+00  (-0.2576052E-03)
 number of electron     253.0000198 magnetization       1.0783443
 augmentation part      121.4132693 magnetization       0.0501981

 Broyden mixing:
  rms(total) = 0.69542E-02    rms(broyden)= 0.69535E-02
  rms(prec ) = 0.91288E-02
  weight for this iteration     100.00

 eigenvalues of (default mixing * dielectric matrix)
  average eigenvalue GAMMA=   1.7602
  9.4450  4.4052  2.1524  1.9648  1.9648  1.0968  0.8481  0.8481  0.8459  0.8459
  0.3857  0.8145  0.6046  0.6046  0.7212  0.6160

 Free energy of the ion-electron system (eV)
  ---------------------------------------------------
  alpha Z        PSCENC =        43.01224831
  Ewald energy   TEWEN  =     45167.95693279
  -Hartree energ DENC   =    -67990.50166759
  -exchange      EXHF   =         0.00000000
  -V(xc)+E(xc)   XCENC  =      -261.29586288
  PAW double counting   =     24899.90064123   -23880.83415900
  entropy T*S    EENTRO =         0.00000000
  eigenvalues    EBANDS =     -1879.12340225
  atomic energy  EATOM  =     23855.56849199
  ---------------------------------------------------
  free energy    TOTEN  =       -45.31677742 eV

  energy without entropy =      -45.31677742  energy(sigma->0) =      -45.31677742


--------------------------------------------------------------------------------------------------------




----------------------------------------- Iteration    1(  22)  ---------------------------------------


    POTLOK:  cpu time    0.36: real time    0.36
    SETDIJ:  cpu time    0.01: real time    0.01
     EDDAV:  cpu time    3.16: real time    3.16
       DOS:  cpu time    0.00: real time    0.00
    CHARGE:  cpu time    0.15: real time    0.15
    MIXING:  cpu time    0.02: real time    0.02
    --------------------------------------------
      LOOP:  cpu time    3.70: real time    3.70

 eigenvalue-minimisations  :   688
 total energy-change (2. order) :-0.7096056E-01  (-0.3491141E-03)
 number of electron     253.0000198 magnetization       1.0657460
 augmentation part      121.4209250 magnetization       0.0407871

 Broyden mixing:
  rms(total) = 0.35921E-02    rms(broyden)= 0.35909E-02
  rms(prec ) = 0.50335E-02
  weight for this iteration     100.00

 eigenvalues of (default mixing * dielectric matrix)
  average eigenvalue GAMMA=   1.7866
  9.4631  5.1464  2.6156  2.0139  2.0139  1.0770  1.0770  0.8416  0.8416  0.3857
  0.8811  0.7923  0.7923  0.6071  0.6071  0.6357  0.5805

 Free energy of the ion-electron system (eV)
  ---------------------------------------------------
  alpha Z        PSCENC =        43.01224831
  Ewald energy   TEWEN  =     45167.95693279
  -Hartree energ DENC   =    -67984.93233114
  -exchange      EXHF   =         0.00000000
  -V(xc)+E(xc)   XCENC  =      -261.40801451
  PAW double counting   =     24898.83002968   -23879.76517950
  entropy T*S    EENTRO =         0.00000000
  eigenvalues    EBANDS =     -1884.64991558
  atomic energy  EATOM  =     23855.56849199
  ---------------------------------------------------
  free energy    TOTEN  =       -45.38773798 eV

  energy without entropy =      -45.38773798  energy(sigma->0) =      -45.38773798


--------------------------------------------------------------------------------------------------------




----------------------------------------- Iteration    1(  23)  ---------------------------------------


    POTLOK:  cpu time    0.36: real time    0.36
    SETDIJ:  cpu time    0.01: real time    0.01
     EDDAV:  cpu time    2.45: real time    2.46
       DOS:  cpu time    0.00: real time    0.00
    CHARGE:  cpu time    0.15: real time    0.15
    MIXING:  cpu time    0.02: real time    0.02
    --------------------------------------------
      LOOP:  cpu time    2.99: real time    3.02

 eigenvalue-minimisations  :   480
 total energy-change (2. order) :-0.7413641E-02  (-0.5670464E-04)
 number of electron     253.0000198 magnetization       1.0520203
 augmentation part      121.4202737 magnetization       0.0255340

 Broyden mixing:
  rms(total) = 0.26862E-02    rms(broyden)= 0.26859E-02
  rms(prec ) = 0.37220E-02
  weight for this iteration     100.00

 eigenvalues of (default mixing * dielectric matrix)
  average eigenvalue GAMMA=   1.7854
  9.4555  5.4573  2.8439  1.9672  1.9672  1.5427  0.8451  0.8451  1.0195  1.0195
  0.3857  0.7915  0.7915  0.7818  0.6015  0.6015  0.6276  0.5933

 Free energy of the ion-electron system (eV)
  ---------------------------------------------------
  alpha Z        PSCENC =        43.01224831
  Ewald energy   TEWEN  =     45167.95693279
  -Hartree energ DENC   =    -67982.83330922
  -exchange      EXHF   =         0.00000000
  -V(xc)+E(xc)   XCENC  =      -261.42456064
  PAW double counting   =     24900.03180590   -23880.98834597
  entropy T*S    EENTRO =         0.00000000
  eigenvalues    EBANDS =     -1886.71841477
  atomic energy  EATOM  =     23855.56849199
  ---------------------------------------------------
  free energy    TOTEN  =       -45.39515162 eV

  energy without entropy =      -45.39515162  energy(sigma->0) =      -45.39515162


--------------------------------------------------------------------------------------------------------




----------------------------------------- Iteration    1(  24)  ---------------------------------------


    POTLOK:  cpu time    0.36: real time    0.36
    SETDIJ:  cpu time    0.01: real time    0.01
     EDDAV:  cpu time    2.39: real time    2.39
       DOS:  cpu time    0.00: real time    0.00
    CHARGE:  cpu time    0.15: real time    0.15
    MIXING:  cpu time    0.02: real time    0.02
    --------------------------------------------
      LOOP:  cpu time    2.93: real time    2.93

 eigenvalue-minimisations  :   460
 total energy-change (2. order) :-0.6162336E-02  (-0.3951697E-04)
 number of electron     253.0000198 magnetization       1.0195929
 augmentation part      121.4195784 magnetization      -0.0073730

 Broyden mixing:
  rms(total) = 0.22782E-02    rms(broyden)= 0.22781E-02
  rms(prec ) = 0.28786E-02
  weight for this iteration     100.00

 eigenvalues of (default mixing * dielectric matrix)
  average eigenvalue GAMMA=   1.7990
  9.5094  5.6238  3.1966  2.1166  1.9561  1.9561  1.0684  1.0684  0.8430  0.8430
  0.9104  0.3857  0.7771  0.7771  0.7171  0.5969  0.5969  0.6316  0.6062

 Free energy of the ion-electron system (eV)
  ---------------------------------------------------
  alpha Z        PSCENC =        43.01224831
  Ewald energy   TEWEN  =     45167.95693279
  -Hartree energ DENC   =    -67981.12865969
  -exchange      EXHF   =         0.00000000
  -V(xc)+E(xc)   XCENC  =      -261.43592701
  PAW double counting   =     24900.60330217   -23881.56621766
  entropy T*S    EENTRO =         0.00000000
  eigenvalues    EBANDS =     -1888.41148484
  atomic energy  EATOM  =     23855.56849199
  ---------------------------------------------------
  free energy    TOTEN  =       -45.40131395 eV

  energy without entropy =      -45.40131395  energy(sigma->0) =      -45.40131395


--------------------------------------------------------------------------------------------------------




----------------------------------------- Iteration    1(  25)  ---------------------------------------


    POTLOK:  cpu time    0.36: real time    0.36
    SETDIJ:  cpu time    0.01: real time    0.01
     EDDAV:  cpu time    2.43: real time    2.43
       DOS:  cpu time    0.00: real time    0.00
    CHARGE:  cpu time    0.15: real time    0.15
    MIXING:  cpu time    0.02: real time    0.02
    --------------------------------------------
      LOOP:  cpu time    2.97: real time    2.99

 eigenvalue-minimisations  :   472
 total energy-change (2. order) :-0.2594913E-02  (-0.1986373E-04)
 number of electron     253.0000198 magnetization       0.9962443
 augmentation part      121.4203449 magnetization      -0.0292991

 Broyden mixing:
  rms(total) = 0.13282E-02    rms(broyden)= 0.13281E-02
  rms(prec ) = 0.17084E-02
  weight for this iteration     100.00

 eigenvalues of (default mixing * dielectric matrix)
  average eigenvalue GAMMA=   1.7940
  9.5905  5.5676  3.5568  2.2234  2.0204  2.0204  1.1682  1.1682  0.8440  0.8440
  0.3857  0.9571  0.8255  0.8255  0.7815  0.6015  0.6015  0.6677  0.6155  0.6155

 Free energy of the ion-electron system (eV)
  ---------------------------------------------------
  alpha Z        PSCENC =        43.01224831
  Ewald energy   TEWEN  =     45167.95693279
  -Hartree energ DENC   =    -67979.75476337
  -exchange      EXHF   =         0.00000000
  -V(xc)+E(xc)   XCENC  =      -261.44545980
  PAW double counting   =     24900.30325445   -23881.26073430
  entropy T*S    EENTRO =         0.00000000
  eigenvalues    EBANDS =     -1889.78387893
  atomic energy  EATOM  =     23855.56849199
  ---------------------------------------------------
  free energy    TOTEN  =       -45.40390887 eV

  energy without entropy =      -45.40390887  energy(sigma->0) =      -45.40390887


--------------------------------------------------------------------------------------------------------




----------------------------------------- Iteration    1(  26)  ---------------------------------------


    POTLOK:  cpu time    0.36: real time    0.36
    SETDIJ:  cpu time    0.01: real time    0.01
     EDDAV:  cpu time    2.38: real time    2.38
       DOS:  cpu time    0.00: real time    0.00
    CHARGE:  cpu time    0.15: real time    0.15
    MIXING:  cpu time    0.02: real time    0.02
    --------------------------------------------
      LOOP:  cpu time    2.92: real time    2.93

 eigenvalue-minimisations  :   456
 total energy-change (2. order) :-0.2821829E-02  (-0.8640243E-05)
 number of electron     253.0000198 magnetization       0.9916922
 augmentation part      121.4207746 magnetization      -0.0324868

 Broyden mixing:
  rms(total) = 0.97990E-03    rms(broyden)= 0.97973E-03
  rms(prec ) = 0.12138E-02
  weight for this iteration     100.00

 eigenvalues of (default mixing * dielectric matrix)
  average eigenvalue GAMMA=   1.8436
  9.6308  5.6790  4.4204  2.5375  2.1200  2.1200  1.4262  1.2359  0.8441  0.8441
  0.9900  0.9900  0.3857  0.8125  0.8125  0.7247  0.7247  0.6006  0.6006  0.6245
  0.5919

 Free energy of the ion-electron system (eV)
  ---------------------------------------------------
  alpha Z        PSCENC =        43.01224831
  Ewald energy   TEWEN  =     45167.95693279
  -Hartree energ DENC   =    -67978.93071315
  -exchange      EXHF   =         0.00000000
  -V(xc)+E(xc)   XCENC  =      -261.45206150
  PAW double counting   =     24900.29643373   -23881.25177413
  entropy T*S    EENTRO =         0.00000000
  eigenvalues    EBANDS =     -1890.60628873
  atomic energy  EATOM  =     23855.56849199
  ---------------------------------------------------
  free energy    TOTEN  =       -45.40673070 eV

  energy without entropy =      -45.40673070  energy(sigma->0) =      -45.40673070


--------------------------------------------------------------------------------------------------------




----------------------------------------- Iteration    1(  27)  ---------------------------------------


    POTLOK:  cpu time    0.36: real time    0.36
    SETDIJ:  cpu time    0.01: real time    0.01
     EDDAV:  cpu time    2.32: real time    2.32
       DOS:  cpu time    0.00: real time    0.00
    CHARGE:  cpu time    0.15: real time    0.15
    MIXING:  cpu time    0.02: real time    0.02
    --------------------------------------------
      LOOP:  cpu time    2.86: real time    2.88

 eigenvalue-minimisations  :   440
 total energy-change (2. order) :-0.2085372E-02  (-0.4114968E-05)
 number of electron     253.0000198 magnetization       0.9934726
 augmentation part      121.4205664 magnetization      -0.0304297

 Broyden mixing:
  rms(total) = 0.90921E-03    rms(broyden)= 0.90914E-03
  rms(prec ) = 0.10415E-02
  weight for this iteration     100.00

 eigenvalues of (default mixing * dielectric matrix)
  average eigenvalue GAMMA=   1.8603
  9.6258  6.0765  4.8653  2.7602  2.1567  2.1567  1.3726  1.3726  1.0887  1.0887
  0.8437  0.8437  0.3857  0.8792  0.7938  0.7938  0.7468  0.5999  0.5999  0.6439
  0.6294  0.6019

 Free energy of the ion-electron system (eV)
  ---------------------------------------------------
  alpha Z        PSCENC =        43.01224831
  Ewald energy   TEWEN  =     45167.95693279
  -Hartree energ DENC   =    -67978.45319219
  -exchange      EXHF   =         0.00000000
  -V(xc)+E(xc)   XCENC  =      -261.45519300
  PAW double counting   =     24900.62648006   -23881.58227914
  entropy T*S    EENTRO =         0.00000000
  eigenvalues    EBANDS =     -1891.08230490
  atomic energy  EATOM  =     23855.56849199
  ---------------------------------------------------
  free energy    TOTEN  =       -45.40881607 eV

  energy without entropy =      -45.40881607  energy(sigma->0) =      -45.40881607


--------------------------------------------------------------------------------------------------------




----------------------------------------- Iteration    1(  28)  ---------------------------------------


    POTLOK:  cpu time    0.36: real time    0.36
    SETDIJ:  cpu time    0.01: real time    0.01
     EDDAV:  cpu time    2.32: real time    2.32
       DOS:  cpu time    0.00: real time    0.00
    CHARGE:  cpu time    0.14: real time    0.15
    MIXING:  cpu time    0.03: real time    0.02
    --------------------------------------------
      LOOP:  cpu time    2.86: real time    2.88

 eigenvalue-minimisations  :   440
 total energy-change (2. order) :-0.3476043E-03  (-0.6562363E-06)
 number of electron     253.0000198 magnetization       0.9968518
 augmentation part      121.4205908 magnetization      -0.0271567

 Broyden mixing:
  rms(total) = 0.62196E-03    rms(broyden)= 0.62193E-03
  rms(prec ) = 0.71258E-03
  weight for this iteration     100.00

 eigenvalues of (default mixing * dielectric matrix)
  average eigenvalue GAMMA=   1.8682
  9.5630  6.6833  4.9341  2.6890  2.4516  1.8071  1.8071  1.2548  1.2548  1.2539
  0.8441  0.8441  0.3857  0.8933  0.8933  0.7866  0.7727  0.7727  0.6004  0.6004
  0.6536  0.6291  0.5940

 Free energy of the ion-electron system (eV)
  ---------------------------------------------------
  alpha Z        PSCENC =        43.01224831
  Ewald energy   TEWEN  =     45167.95693279
  -Hartree energ DENC   =    -67978.27751644
  -exchange      EXHF   =         0.00000000
  -V(xc)+E(xc)   XCENC  =      -261.45606114
  PAW double counting   =     24900.81586411   -23881.77280106
  entropy T*S    EENTRO =         0.00000000
  eigenvalues    EBANDS =     -1891.25632222
  atomic energy  EATOM  =     23855.56849199
  ---------------------------------------------------
  free energy    TOTEN  =       -45.40916367 eV

  energy without entropy =      -45.40916367  energy(sigma->0) =      -45.40916367


--------------------------------------------------------------------------------------------------------




----------------------------------------- Iteration    1(  29)  ---------------------------------------


    POTLOK:  cpu time    0.36: real time    0.36
    SETDIJ:  cpu time    0.01: real time    0.09
     EDDAV:  cpu time    2.28: real time    2.28
       DOS:  cpu time    0.00: real time    0.00
    CHARGE:  cpu time    0.14: real time    0.15
    MIXING:  cpu time    0.03: real time    0.03
    --------------------------------------------
      LOOP:  cpu time    2.83: real time    2.95

 eigenvalue-minimisations  :   428
 total energy-change (2. order) :-0.1264325E-03  (-0.4261591E-06)
 number of electron     253.0000198 magnetization       0.9993614
 augmentation part      121.4205078 magnetization      -0.0248701

 Broyden mixing:
  rms(total) = 0.34358E-03    rms(broyden)= 0.34354E-03
  rms(prec ) = 0.40999E-03
  weight for this iteration     100.00

 eigenvalues of (default mixing * dielectric matrix)
  average eigenvalue GAMMA=   1.8697
  9.4969  7.1510  4.9770  2.7846  2.1996  2.1996  1.8749  1.4624  1.4624  0.8440
  0.8440  1.0839  0.9978  0.9978  0.3857  0.7942  0.7942  0.7347  0.7347  0.6004
  0.6004  0.6265  0.6265  0.5985

 Free energy of the ion-electron system (eV)
  ---------------------------------------------------
  alpha Z        PSCENC =        43.01224831
  Ewald energy   TEWEN  =     45167.95693279
  -Hartree energ DENC   =    -67978.18094300
  -exchange      EXHF   =         0.00000000
  -V(xc)+E(xc)   XCENC  =      -261.45631733
  PAW double counting   =     24900.93448742   -23881.89326578
  entropy T*S    EENTRO =         0.00000000
  eigenvalues    EBANDS =     -1891.35092449
  atomic energy  EATOM  =     23855.56849199
  ---------------------------------------------------
  free energy    TOTEN  =       -45.40929011 eV

  energy without entropy =      -45.40929011  energy(sigma->0) =      -45.40929011


--------------------------------------------------------------------------------------------------------




----------------------------------------- Iteration    1(  30)  ---------------------------------------


    POTLOK:  cpu time    0.36: real time    0.36
    SETDIJ:  cpu time    0.01: real time    0.01
     EDDAV:  cpu time    2.30: real time    2.30
       DOS:  cpu time    0.00: real time    0.00
    --------------------------------------------
      LOOP:  cpu time    2.67: real time    2.67

 eigenvalue-minimisations  :   432
 total energy-change (2. order) :-0.5404007E-04  (-0.2331023E-06)
 number of electron     253.0000198 magnetization       0.9993614
 augmentation part      121.4205078 magnetization      -0.0248701

 Free energy of the ion-electron system (eV)
  ---------------------------------------------------
  alpha Z        PSCENC =        43.01224831
  Ewald energy   TEWEN  =     45167.95693279
  -Hartree energ DENC   =    -67978.10739175
  -exchange      EXHF   =         0.00000000
  -V(xc)+E(xc)   XCENC  =      -261.45663160
  PAW double counting   =     24900.88085514   -23881.83970563
  entropy T*S    EENTRO =         0.00000000
  eigenvalues    EBANDS =     -1891.42414338
  atomic energy  EATOM  =     23855.56849199
  ---------------------------------------------------
  free energy    TOTEN  =       -45.40934415 eV

  energy without entropy =      -45.40934415  energy(sigma->0) =      -45.40934415


--------------------------------------------------------------------------------------------------------




 average (electrostatic) potential at core
  the test charge radii are     1.1249
  (the norm of the test charge is              1.0000)
       1 -82.3264       2 -82.5455       3 -82.4244       4 -82.4491       5 -82.0858
       6 -82.4357       7 -82.3576       8 -82.4643       9 -82.4975      10 -82.4891
      11 -82.4765      12 -82.4581      13 -82.4270      14 -82.5962      15 -82.3859
      16 -82.2643      17 -82.2360      18 -82.5199      19 -82.4251      20 -82.5092
      21 -82.3758      22 -82.5417      23 -82.2154
 
 
 
 E-fermi :  -3.7311     XC(G=0):  -0.8598     alpha+bet : -0.5047


 spin component 1

 k-point     1 :       0.0000    0.0000    0.0000
  band No.  band energies     occupation 
      1      -9.6470      1.00000
      2      -9.3290      1.00000
      3      -9.2518      1.00000
      4      -9.1809      1.00000
      5      -9.1456      1.00000
      6      -9.1199      1.00000
      7      -9.0930      1.00000
      8      -9.0658      1.00000
      9      -9.0511      1.00000
     10      -8.9685      1.00000
     11      -8.9589      1.00000
     12      -8.9560      1.00000
     13      -8.9181      1.00000
     14      -8.9004      1.00000
     15      -8.8205      1.00000
     16      -8.7903      1.00000
     17      -8.7794      1.00000
     18      -8.7441      1.00000
     19      -8.7299      1.00000
     20      -8.7051      1.00000
     21      -8.6958      1.00000
     22      -8.6552      1.00000
     23      -8.6284      1.00000
     24      -8.5843      1.00000
     25      -8.5463      1.00000
     26      -8.5283      1.00000
     27      -8.4874      1.00000
     28      -8.4677      1.00000
     29      -8.4451      1.00000
     30      -8.4277      1.00000
     31      -8.3753      1.00000
     32      -8.3629      1.00000
     33      -8.3272      1.00000
     34      -8.3095      1.00000
     35      -8.2679      1.00000
     36      -8.2161      1.00000
     37      -8.1951      1.00000
     38      -8.1679      1.00000
     39      -8.1620      1.00000
     40      -8.0866      1.00000
     41      -8.0582      1.00000
     42      -8.0510      1.00000
     43      -8.0045      1.00000
     44      -7.9824      1.00000
     45      -7.9784      1.00000
     46      -7.9261      1.00000
     47      -7.8963      1.00000
     48      -7.8771      1.00000
     49      -7.8588      1.00000
     50      -7.8384      1.00000
     51      -7.8088      1.00000
     52      -7.7712      1.00000
     53      -7.7407      1.00000
     54      -7.6760      1.00000
     55      -7.6728      1.00000
     56      -7.6380      1.00000
     57      -7.5888      1.00000
     58      -7.5276      1.00000
     59      -7.5143      1.00000
     60      -7.4868      1.00000
     61      -7.4559      1.00000
     62      -7.4548      1.00000
     63      -7.3962      1.00000
     64      -7.3854      1.00000
[...]
    102      -6.6647      1.00000
    103      -6.6306      1.00000
    104      -6.6134      1.00000
    105      -6.6053      1.00000
    106      -6.5925      1.00000
    107      -6.5614      1.00000
    108      -6.5591      1.00000
    109      -6.5364      1.00000
    110      -6.5193      1.00000
    111      -6.4921      1.00000
    112      -6.4766      1.00000
    113      -6.4535      1.00000
    114      -6.4338      1.00000
    115      -6.4169      1.00000
    116      -6.3978      1.00000
    117      -6.3496      1.00000
    118      -6.3410      1.00000
    119      -6.1000      1.00000
    120      -5.6141      1.00000
    121      -5.1827      1.00000
    122      -5.0833      1.00000
    123      -4.8330      1.00000
    124      -4.2909      1.00000
    125      -3.8694      1.00000
    126      -3.7885      1.00000
    127      -3.5920      0.00000
    128      -3.1618      0.00000
    129      -2.9950      0.00000
    130      -2.8533      0.00000
    131      -2.6579      0.00000
    132      -2.4981      0.00000
    133      -2.3896      0.00000
    134      -1.9265      0.00000
    135      -1.8375      0.00000
    136      -1.7956      0.00000
    137      -1.4958      0.00000
    138      -1.3864      0.00000
    139      -1.2756      0.00000
    140      -1.1347      0.00000
    141      -1.0476      0.00000
    142      -0.9917      0.00000
    143      -0.8270      0.00000
    144      -0.6853      0.00000
    145      -0.5866      0.00000
    146      -0.4319      0.00000
    147      -0.4159      0.00000
    148      -0.3598      0.00000
    149      -0.0152      0.00000
    150       0.0987      0.00000
    151       0.2765      0.00000
    152       0.3368      0.00000
    153       0.3632      0.00000
    154       0.5177      0.00000
    155       0.5745      0.00000
    156       0.6105      0.00000
    157       0.6499      0.00000
    158       0.6627      0.00000
    159       0.7057      0.00000
    160       0.7371      0.00000
    161       0.7503      0.00000
    162       0.8271      0.00000
    163       0.8752      0.00000
    164       0.9087      0.00000


--------------------------------------------------------------------------------------------------------


 soft charge-density along one line, spin component           1
         0         1         2         3         4         5         6         7         8         9
 total charge-density along one line
 
 soft charge-density along one line, spin component           2
         0         1         2         3         4         5         6         7         8         9
 total charge-density along one line
 
 pseudopotential strength for first ion, spin component:           1
-10.319   0.001   0.010   0.005  -0.000 -10.293   0.001   0.010
  0.001 -10.319   0.006  -0.005  -0.007   0.001 -10.294   0.006
  0.010   0.006 -10.310   0.004  -0.007   0.010   0.006 -10.285
  0.005  -0.005   0.004 -10.309   0.006   0.005  -0.005   0.004
 -0.000  -0.007  -0.007   0.006 -10.313  -0.000  -0.007  -0.007
-10.293   0.001   0.010   0.005  -0.000 -10.244   0.001   0.010
  0.001 -10.294   0.006  -0.005  -0.007   0.001 -10.244   0.005
  0.010   0.006 -10.285   0.004  -0.007   0.010   0.005 -10.235
  0.005  -0.005   0.004 -10.284   0.005   0.005  -0.004   0.004
 -0.000  -0.007  -0.007   0.005 -10.287  -0.000  -0.006  -0.006
  0.003  -0.002  -0.001  -0.003  -0.003   0.003  -0.002  -0.001
  0.004  -0.004  -0.001  -0.006  -0.005   0.004  -0.004  -0.001
  0.014  -0.015  -0.013   0.000  -0.023   0.013  -0.015  -0.012
  0.000   0.022  -0.018   0.014  -0.000   0.000   0.022  -0.017
  0.022   0.000  -0.008  -0.015   0.014   0.022   0.000  -0.008
  0.017  -0.019  -0.015   0.000  -0.027   0.016  -0.018  -0.015
  0.000   0.027  -0.022   0.017  -0.000   0.000   0.026  -0.021
  0.027   0.000  -0.010  -0.019   0.018   0.026   0.000  -0.010
 pseudopotential strength for first ion, spin component:           2
-10.320   0.001   0.011   0.005  -0.000 -10.294   0.001   0.010
  0.001 -10.318   0.006  -0.004  -0.007   0.001 -10.293   0.006
  0.011   0.006 -10.310   0.004  -0.007   0.010   0.006 -10.285
  0.005  -0.004   0.004 -10.310   0.006   0.005  -0.004   0.004
 -0.000  -0.007  -0.007   0.006 -10.313  -0.000  -0.006  -0.007
-10.294   0.001   0.010   0.005  -0.000 -10.244   0.001   0.010
  0.001 -10.293   0.006  -0.004  -0.006   0.001 -10.243   0.005
  0.010   0.006 -10.285   0.004  -0.007   0.010   0.005 -10.236
  0.005  -0.004   0.004 -10.284   0.005   0.005  -0.004   0.004
 -0.000  -0.006  -0.007   0.005 -10.288  -0.000  -0.006  -0.006
  0.002  -0.003  -0.001  -0.004  -0.003   0.002  -0.003  -0.001
  0.004  -0.004  -0.002  -0.006  -0.005   0.004  -0.004  -0.002
  0.014  -0.015  -0.013   0.000  -0.023   0.013  -0.015  -0.012
  0.000   0.023  -0.018   0.014  -0.000   0.000   0.022  -0.017
  0.022   0.000  -0.008  -0.015   0.014   0.022   0.000  -0.008
  0.017  -0.018  -0.015   0.000  -0.027   0.016  -0.018  -0.015
  0.000   0.027  -0.022   0.017  -0.000   0.000   0.026  -0.021
  0.027   0.000  -0.010  -0.018   0.018   0.026   0.000  -0.010
 total augmentation occupancy for first ion, spin component:           1
  2.491  -0.121   0.053  -0.120   0.080  -0.546   0.110  -0.007   0.111  -0.082  -0.147   0.040  -0.001  -0.038   0.085   0.007
 -0.121   2.549  -0.056   0.114  -0.034   0.110  -0.584   0.087  -0.091   0.014   0.176  -0.055  -0.018   0.097  -0.034  -0.007
  0.053  -0.056   2.462  -0.030   0.125  -0.007   0.087  -0.440   0.069  -0.154   0.078  -0.036  -0.063  -0.043   0.016  -0.004
 -0.120   0.114  -0.030   2.413  -0.047   0.111  -0.091   0.069  -0.434   0.099   0.376  -0.049  -0.009   0.058  -0.059   0.002
  0.080  -0.034   0.125  -0.047   2.615  -0.081   0.014  -0.155   0.099  -0.585   0.249  -0.084  -0.119  -0.031   0.049  -0.006
 -0.546   0.110  -0.007   0.111  -0.081   0.567  -0.102  -0.032  -0.104   0.082   0.112  -0.022  -0.012   0.029  -0.121   0.002
  0.110  -0.584   0.087  -0.091   0.014  -0.102   0.589  -0.112   0.073   0.004  -0.139   0.038   0.029  -0.129   0.027  -0.003
 -0.007   0.087  -0.440   0.069  -0.155  -0.032  -0.112   0.397  -0.103   0.180  -0.069   0.032   0.078   0.065  -0.007  -0.005
  0.111  -0.091   0.069  -0.434   0.099  -0.104   0.073  -0.103   0.429  -0.144  -0.336   0.047   0.006  -0.071   0.075  -0.001
 -0.082   0.014  -0.154   0.099  -0.585   0.082   0.004   0.180  -0.144   0.537  -0.215   0.071   0.140   0.031  -0.060  -0.010
 -0.147   0.176   0.078   0.376   0.249   0.112  -0.139  -0.069  -0.336  -0.215   1.809  -0.193  -0.216   0.105  -0.085   0.020
  0.040  -0.055  -0.036  -0.049  -0.084  -0.022   0.038   0.032   0.047   0.071  -0.193   0.042   0.047  -0.015   0.009  -0.003
 -0.001  -0.018  -0.063  -0.009  -0.119  -0.012   0.029   0.078   0.006   0.140  -0.216   0.047   0.069  -0.002  -0.003  -0.005
 -0.038   0.097  -0.043   0.058  -0.031   0.029  -0.129   0.065  -0.071   0.031   0.105  -0.015  -0.002   0.048  -0.020   0.001
  0.085  -0.034   0.016  -0.059   0.049  -0.121   0.027  -0.007   0.075  -0.060  -0.085   0.009  -0.003  -0.020   0.043  -0.000
  0.007  -0.007  -0.004   0.002  -0.006   0.002  -0.003  -0.005  -0.001  -0.010   0.020  -0.003  -0.005   0.001  -0.000   0.001
  0.002   0.009  -0.008   0.005   0.001  -0.002   0.008  -0.004   0.005  -0.001  -0.009   0.001   0.001  -0.003   0.001  -0.000
  0.009   0.002  -0.005  -0.006   0.006   0.008  -0.001   0.000  -0.005   0.003   0.007  -0.001  -0.000   0.001  -0.003   0.000
 total augmentation occupancy for first ion, spin component:           2
 -0.015   0.004  -0.001   0.004  -0.000   0.007  -0.003   0.001  -0.003   0.000  -0.004  -0.000   0.000   0.001   0.000  -0.000
  0.004   0.014   0.002   0.009   0.001  -0.003  -0.015  -0.002  -0.007  -0.001  -0.033  -0.004  -0.002   0.010  -0.001  -0.000
 -0.001   0.002  -0.019   0.001  -0.001   0.001  -0.002   0.010  -0.001   0.001  -0.000   0.000   0.000  -0.001  -0.000   0.000
  0.004   0.009   0.001  -0.015   0.003  -0.003  -0.007  -0.001   0.007  -0.002  -0.011  -0.002  -0.001   0.002  -0.001  -0.000
 -0.000   0.001  -0.001   0.003  -0.015   0.000  -0.001   0.001  -0.002   0.008  -0.003  -0.001  -0.000   0.002  -0.000   0.000
  0.007  -0.003   0.001  -0.003   0.000  -0.001   0.002  -0.000   0.002  -0.000   0.003   0.000  -0.000  -0.001   0.000   0.000
 -0.003  -0.015  -0.002  -0.007  -0.001   0.002   0.017   0.001   0.005   0.001   0.026   0.002   0.001  -0.007   0.001   0.000
  0.001  -0.002   0.010  -0.001   0.001  -0.000   0.001  -0.002   0.000  -0.001   0.001  -0.000  -0.000  -0.001   0.000  -0.000
 -0.003  -0.007  -0.001   0.007  -0.002   0.002   0.005   0.000   0.000   0.002   0.008   0.001   0.000  -0.001  -0.000   0.000
  0.000  -0.001   0.001  -0.002   0.008  -0.000   0.001  -0.001   0.002  -0.001   0.003   0.000  -0.000  -0.001   0.000  -0.000
 -0.004  -0.033  -0.000  -0.011  -0.003   0.003   0.026   0.001   0.008   0.003   0.041   0.001   0.001  -0.014   0.002   0.000
 -0.000  -0.004   0.000  -0.002  -0.001   0.000   0.002  -0.000   0.001   0.000   0.001   0.001   0.000  -0.001   0.000   0.000
  0.000  -0.002   0.000  -0.001  -0.000  -0.000   0.001  -0.000   0.000  -0.000   0.001   0.000  -0.000  -0.000   0.000   0.000
  0.001   0.010  -0.001   0.002   0.002  -0.001  -0.007  -0.001  -0.001  -0.001  -0.014  -0.001  -0.000   0.003  -0.000  -0.000
  0.000  -0.001  -0.000  -0.001  -0.000   0.000   0.001   0.000  -0.000   0.000   0.002   0.000   0.000  -0.000  -0.000   0.000
 -0.000  -0.000   0.000  -0.000   0.000   0.000   0.000  -0.000   0.000  -0.000   0.000   0.000   0.000  -0.000   0.000   0.000
 -0.000  -0.000  -0.000  -0.000  -0.000   0.000   0.000  -0.000   0.000   0.000   0.000  -0.000  -0.000  -0.000  -0.000   0.000
 -0.000  -0.000   0.000  -0.000  -0.000   0.000   0.000  -0.000  -0.000   0.000   0.000  -0.000   0.000  -0.000   0.000   0.000


------------------------ aborting loop because EDIFF is reached ----------------------------------------


    CHARGE:  cpu time    0.15: real time    0.15
    FORLOC:  cpu time    0.02: real time    0.02
    FORNL :  cpu time    1.74: real time    1.75
    STRESS:  cpu time    2.30: real time    2.30
    FORCOR:  cpu time    0.38: real time    0.38
    FORHAR:  cpu time    0.06: real time    0.06
    MIXING:  cpu time    0.01: real time    0.01
    OFIELD:  cpu time    0.00: real time    0.00

  FORCE on cell =-STRESS in cart. coord.  units (eV):
  Direction    XX          YY          ZZ          XY          YZ          ZX
  --------------------------------------------------------------------------------------
  Alpha Z    43.01225    43.01225    43.01225
  Ewald   12357.13632 22820.95978  9095.77065   328.98338  1162.30500 -3150.91124
  Hartree 20112.00958 29885.49644 17105.07582   317.64654  1057.82957 -2814.50290
  E(xc)   -1333.73211 -1332.43438 -1334.09057    -0.07455     0.18354    -0.75306
  Local  -36201.68912-56441.25105-29937.30910  -645.78264 -2220.04891  5960.39619
  n-local  -247.64020  -244.66654  -248.29003    -0.38246     0.35115    -0.40222
  augment  2112.42265  2111.52599  2113.93163    -0.01277    -0.23361     1.73611
  Kinetic  3150.21851  3149.30674  3153.70777    -0.40437    -0.50906     4.30901
  Fock        0.00000     0.00000     0.00000     0.00000     0.00000     0.00000
  -------------------------------------------------------------------------------------
  Total      -8.26212    -8.05076    -8.19160    -0.02688    -0.12231    -0.12811
  in kB      -1.26539    -1.23302    -1.25459    -0.00412    -0.01873    -0.01962
  external pressure =       -1.25 kB  Pullay stress =        0.00 kB


 VOLUME and BASIS-vectors are now :
 -----------------------------------------------------------------------------
  energy-cutoff  :      249.84
  volume of cell :    10461.11
      direct lattice vectors                 reciprocal lattice vectors
    21.870526401  0.000000000  0.000000000     0.045723637  0.000000000  0.000000000
     0.000000000 21.870526401  0.000000000     0.000000000  0.045723637  0.000000000
     0.000000000  0.000000000 21.870526401     0.000000000  0.000000000  0.045723637

  length of vectors
    21.870526401 21.870526401 21.870526401     0.045723637  0.045723637  0.045723637


 FORCES acting on ions
    electron-ion (+dipol)            ewald-force                    non-local-force                 convergence-correction
 -----------------------------------------------------------------------------------------------
   -.363E+03 -.111E+04 0.460E+03   0.361E+03 0.110E+04 -.457E+03   0.258E+01 0.471E+01 -.294E+01   0.137E-01 0.719E-02 0.148E-01
   0.276E+03 -.675E+03 0.928E+03   -.276E+03 0.673E+03 -.927E+03   -.146E-01 0.251E+01 -.196E+01   -.288E-01 -.330E-01 0.139E-01
   -.526E+02 0.540E+03 -.113E+04   0.529E+02 -.539E+03 0.112E+04   -.345E+00 -.276E+00 0.332E+01   0.416E-02 -.327E-02 -.742E-03
   0.447E+03 0.772E+02 -.117E+04   -.446E+03 -.774E+02 0.117E+04   -.986E+00 0.266E+00 0.270E+01   -.175E-02 -.786E-02 0.237E-01
   -.286E+03 0.114E+04 0.372E+03   0.284E+03 -.114E+04 -.370E+03   0.172E+01 -.499E+01 -.231E+01   0.739E-02 0.576E-02 -.367E-02
   0.108E+04 0.406E+03 -.233E+03   -.107E+04 -.405E+03 0.233E+03   -.174E+01 -.899E+00 0.607E+00   -.731E-02 -.449E-01 -.200E-01
   -.103E+04 0.992E+02 -.883E+03   0.103E+04 -.979E+02 0.880E+03   0.250E+01 -.123E+01 0.351E+01   -.236E-01 0.195E-01 -.336E-01
   0.736E+03 -.840E+02 0.101E+04   -.734E+03 0.845E+02 -.101E+04   -.192E+01 -.570E+00 -.189E+01   -.462E-02 -.121E-01 0.903E-02
   -.849E+03 0.675E+03 0.895E+02   0.848E+03 -.672E+03 -.901E+02   0.117E+01 -.240E+01 0.592E+00   -.109E-01 0.196E-01 -.537E-02
   -.422E+03 0.199E+03 0.114E+04   0.421E+03 -.198E+03 -.114E+04   0.968E+00 -.448E+00 -.228E+01   0.100E-01 0.148E-01 0.265E-01
   -.823E+03 -.428E+03 0.938E+03   0.820E+03 0.426E+03 -.934E+03   0.342E+01 0.247E+01 -.380E+01   -.112E-01 0.395E-02 0.111E-01
   -.131E+04 0.165E+03 0.223E+03   0.131E+04 -.164E+03 -.222E+03   0.448E+01 -.106E+01 -.994E+00   -.632E-03 0.420E-03 -.444E-02
   0.121E+04 -.212E+03 -.415E+03   -.120E+04 0.211E+03 0.413E+03   -.622E+01 0.116E+01 0.200E+01   -.320E-02 0.950E-02 0.966E-02
   -.923E+03 -.705E+03 -.240E+03   0.922E+03 0.703E+03 0.240E+03   0.138E+01 0.183E+01 -.104E+00   -.135E-01 -.289E-01 0.117E-01
   -.421E+03 -.591E+03 -.107E+04   0.419E+03 0.589E+03 0.107E+04   0.152E+01 0.217E+01 0.262E+01   0.233E-01 -.240E-01 -.246E-01
   0.101E+04 0.622E+03 0.570E+03   -.101E+04 -.619E+03 -.567E+03   -.469E+01 -.331E+01 -.301E+01   0.251E-01 0.989E-02 -.176E-02
   -.380E+03 0.983E+03 -.693E+03   0.377E+03 -.979E+03 0.689E+03   0.267E+01 -.369E+01 0.357E+01   -.501E-02 0.349E-01 -.276E-02
   -.508E+02 0.992E+01 -.884E+02   0.499E+02 -.958E+01 0.887E+02   0.853E+00 -.335E+00 -.335E+00   -.116E-02 0.859E-02 -.417E-02
   0.124E+03 -.122E+04 -.140E+03   -.124E+03 0.122E+04 0.139E+03   0.197E+00 0.242E+01 0.574E+00   0.112E-01 -.141E-01 0.135E-02
   0.893E+03 -.652E+03 0.296E+03   -.892E+03 0.650E+03 -.297E+03   -.133E+01 0.185E+01 0.440E+00   0.317E-01 -.115E-01 -.243E-01
   0.406E+02 0.703E+03 0.105E+04   -.392E+02 -.702E+03 -.105E+04   -.137E+01 -.124E+01 -.318E+01   -.144E-01 0.577E-02 0.150E-01
   0.565E+03 0.966E+03 -.240E+03   -.564E+03 -.964E+03 0.239E+03   -.510E+00 -.127E+01 0.133E+00   -.239E-01 0.267E-01 0.445E-02
   0.536E+03 -.906E+03 -.772E+03   -.533E+03 0.904E+03 0.769E+03   -.329E+01 0.204E+01 0.351E+01   0.117E-01 0.792E-02 -.935E-02
 -----------------------------------------------------------------------------------------------
   -.997E+00 0.329E+00 -.818E+00   0.341E-12 0.455E-12 0.341E-12   0.103E+01 -.299E+00 0.781E+00   -.117E-01 -.506E-02 0.635E-02
 
 
 POSITION                                       TOTAL-FORCE (eV/Angst)
 -----------------------------------------------------------------------------------
     12.81504     15.70845      9.59819        -0.006210      0.007318     -0.024257
     11.24370     13.40163      9.34476        -0.001364      0.003075      0.004858
     11.40775      9.47731     13.53348        -0.001968     -0.015721     -0.006298
      9.71092     11.65367     13.89085         0.006968      0.003915     -0.001564
     12.08786      6.33237     10.19177        -0.005734     -0.013616     -0.004126
      8.60598     10.28828     11.75915         0.015738     -0.008423     -0.017149
     13.63349     11.12203     12.97429         0.002640     -0.000633      0.016937
      9.66165     11.05850      9.18290         0.002927      0.011654      0.007138
     12.92904      8.95314     10.96413         0.007643     -0.012914      0.009321
     12.46651     10.86508      8.74177         0.000196      0.006297     -0.010018
     13.92520     13.24199      8.55845         0.017036     -0.010477     -0.010925
     14.61888     11.16923     10.40749        -0.020616      0.007418      0.012054
      7.24041     12.46726     13.00314        -0.020072     -0.008910      0.007403
     13.40723     13.52084     11.29918        -0.000590      0.008903      0.004699
     11.88455     13.26082     13.61186        -0.000775      0.011043     -0.006915
      8.29209      8.67259      9.50062         0.002185      0.011763      0.020953
     12.33651      6.95586     12.89060         0.001044     -0.027028      0.011187
     11.38211     11.32742     11.41813         0.021575      0.006842     -0.002820
     11.05638     15.20868     11.64498        -0.016359      0.006422     -0.002253
      9.18298     13.07886     11.20544         0.014303      0.011055     -0.008264
     11.04856      8.51384      8.81342        -0.000223     -0.004840     -0.005672
     10.20339      8.00895     11.44131        -0.000373     -0.000931     -0.008294
      9.31565     14.47904     13.65030        -0.017970      0.007789      0.014004
 -----------------------------------------------------------------------------------
    total drift:                                0.023615      0.024945     -0.030555


--------------------------------------------------------------------------------------------------------



  FREE ENERGIE OF THE ION-ELECTRON SYSTEM (eV)
  ---------------------------------------------------
  free  energy   TOTEN  =       -45.90681434 eV

  energy  without entropy=      -45.90681434  energy(sigma->0) =      -45.90681434
 
 d Force = 0.1552628E-03[-0.123E-03, 0.433E-03]  d Energy = 0.8941455E-04 0.658E-04
 d Force =-0.1056502E+02[-0.106E+02,-0.106E+02]  d Ewald  =-0.1056502E+02-0.213E-06


--------------------------------------------------------------------------------------------------------


    POTLOK:  cpu time    0.38: real time    0.38


--------------------------------------------------------------------------------------------------------




--------------------------------------------------------------------------------------------------------


  
 reached required accuracy - stopping structural energy minimisation
     LOOP+:  cpu time   15.29: real time   27.99
    4ORBIT:  cpu time    0.00: real time    0.00

 total amount of memory used by VASP on root node    71295. kBytes
========================================================================

   base      :      30000. kBytes
   nonl-proj :       3006. kBytes
   fftplans  :       8575. kBytes
   grid      :      21928. kBytes
   one-center:         46. kBytes
   wavefun   :       7740. kBytes
 
  
  
 General timing and accounting informations for this job:
 ========================================================
  
                  Total CPU time used (sec):      791.169
                            User time (sec):      784.853
                          System time (sec):        6.316
                         Elapsed time (sec):      827.796
  
                   Maximum memory used (kb):       90988.
                   Average memory used (kb):           0.
  
                          Minor page faults:      1053806
                          Major page faults:            0
                 Voluntary context switches:         6707
