  39  39   0   0
  0.2933423E+03  0.2253269E-08  0.2253269E-08  0.2253269E-08  0.1000000E-15
  1.000000000000000E-004
  CAR 
 unknown system                          
      1.93948285    -10.14168971  301     -3.32589486      1.00000000
    -10.142  0.0000E+00  0.0000E+00  0.0000E+00  0.0000E+00
    -10.101  0.0000E+00  0.0000E+00  0.0000E+00  0.0000E+00
    -10.061  0.0000E+00  0.0000E+00  0.0000E+00  0.0000E+00
    -10.021  0.0000E+00  0.0000E+00  0.0000E+00  0.0000E+00
     -9.981  0.0000E+00  0.0000E+00  0.0000E+00  0.0000E+00
     -9.940  0.0000E+00  0.0000E+00  0.0000E+00  0.0000E+00
     -9.900  0.0000E+00  0.0000E+00  0.0000E+00  0.0000E+00
     -9.860  0.0000E+00  0.0000E+00  0.0000E+00  0.0000E+00
     -9.820  0.0000E+00  0.0000E+00  0.0000E+00  0.0000E+00
     -9.779  0.0000E+00  0.0000E+00  0.0000E+00  0.0000E+00
     -9.739  0.0000E+00  0.0000E+00  0.0000E+00  0.0000E+00
     -9.699  0.0000E+00  0.0000E+00  0.0000E+00  0.0000E+00
     -9.658  0.0000E+00  0.0000E+00  0.0000E+00  0.0000E+00
     -9.618  0.0000E+00  0.0000E+00  0.0000E+00  0.0000E+00
     -9.578  0.0000E+00  0.0000E+00  0.1000E-02  0.0000E+00
     -9.538  0.0000E+00  0.0000E+00  0.1000E-02  0.1000E-02
     -9.497  0.0000E+00  0.0000E+00  0.1000E-02  0.1000E-02
     -9.457  0.0000E+00  0.0000E+00  0.1000E-02  0.1000E-02
     -9.417  0.0000E+00  0.0000E+00  0.1000E-02  0.1000E-02
     -9.377  0.0000E+00  0.0000E+00  0.1000E-02  0.1000E-02
     -9.336  0.0000E+00  0.0000E+00  0.1000E-02  0.1000E-02
     -9.296  0.0000E+00  0.0000E+00  0.1000E-02  0.1000E-02
     -9.256  0.0000E+00  0.0000E+00  0.1000E-02  0.1000E-02
     -9.215  0.0000E+00  0.0000E+00  0.1000E-02  0.1000E-02
     -9.175  0.0000E+00  0.0000E+00  0.1000E-02  0.1000E-02
     -9.135  0.0000E+00  0.0000E+00  0.1000E-02  0.1000E-02
     -9.095  0.0000E+00  0.0000E+00  0.2000E-02  0.2000E-02
     -9.054  0.0000E+00  0.0000E+00  0.3000E-02  0.3000E-02
     -9.014  0.0000E+00  0.0000E+00  0.4000E-02  0.3000E-02
     -8.974  0.0000E+00  0.0000E+00  0.5000E-02  0.5000E-02
     -8.934  0.0000E+00  0.0000E+00  0.7000E-02  0.7000E-02
     -8.893  0.0000E+00  0.0000E+00  0.8000E-02  0.7000E-02
     -8.853  0.0000E+00  0.0000E+00  0.1000E-01  0.9000E-02
     -8.813  0.0000E+00  0.0000E+00  0.1100E-01  0.1100E-01
     -8.772  0.0000E+00  0.0000E+00  0.1400E-01  0.1400E-01
     -8.732  0.0000E+00  0.0000E+00  0.1700E-01  0.1600E-01
     -8.692  0.2483E-01  0.0000E+00  0.1900E-01  0.1800E-01
     -8.652  0.0000E+00  0.0000E+00  0.2100E-01  0.2000E-01
     -8.611  0.0000E+00  0.0000E+00  0.2300E-01  0.2300E-01
     -8.571  0.0000E+00  0.1747E-03  0.2600E-01  0.2501E-01
     -8.531  0.0000E+00  0.0000E+00  0.2700E-01  0.2700E-01
     -8.491  0.0000E+00  0.2483E-01  0.3000E-01  0.3000E-01
     -8.450  0.0000E+00  0.0000E+00  0.3300E-01  0.3200E-01
     -8.410  0.0000E+00  0.0000E+00  0.3500E-01  0.3500E-01
     -8.370  0.0000E+00  0.0000E+00  0.3600E-01  0.3600E-01
     -8.330  0.0000E+00  0.1974E-05  0.3900E-01  0.3800E-01
     -8.289  0.2483E-01  0.0000E+00  0.4100E-01  0.4000E-01
     -8.249  0.0000E+00  0.2483E-01  0.4400E-01  0.4300E-01
     -8.209  0.3189E-02  0.0000E+00  0.4513E-01  0.4500E-01
     -8.168  0.0000E+00  0.0000E+00  0.4900E-01  0.4800E-01
     -8.128  0.0000E+00  0.0000E+00  0.5100E-01  0.5000E-01
     -8.088  0.0000E+00  0.0000E+00  0.5300E-01  0.5300E-01
     -8.048  0.0000E+00  0.0000E+00  0.5700E-01  0.5600E-01
     -8.007  0.0000E+00  0.0000E+00  0.5800E-01  0.5800E-01
     -7.967  0.0000E+00  0.0000E+00  0.6100E-01  0.6100E-01
     -7.927  0.0000E+00  0.0000E+00  0.6300E-01  0.6300E-01
     -7.887  0.0000E+00  0.1285E-06  0.6600E-01  0.6500E-01
     -7.846  0.0000E+00  0.0000E+00  0.6900E-01  0.6800E-01
     -7.806  0.0000E+00  0.0000E+00  0.7200E-01  0.7100E-01
     -7.766  0.0000E+00  0.0000E+00  0.7400E-01  0.7400E-01
     -7.725  0.0000E+00  0.8001E-09  0.7700E-01  0.7600E-01
     -7.685  0.0000E+00  0.0000E+00  0.7900E-01  0.7900E-01
     -7.645  0.0000E+00  0.0000E+00  0.8200E-01  0.8200E-01
     -7.605  0.0000E+00  0.0000E+00  0.8400E-01  0.8400E-01
     -7.564  0.0000E+00  0.0000E+00  0.8700E-01  0.8600E-01
     -7.524  0.0000E+00  0.0000E+00  0.8700E-01  0.8700E-01
     -7.484  0.0000E+00  0.0000E+00  0.9000E-01  0.9000E-01
     -7.444  0.0000E+00  0.0000E+00  0.9300E-01  0.9200E-01
     -7.403  0.0000E+00  0.0000E+00  0.9600E-01  0.9500E-01
     -7.363  0.0000E+00  0.0000E+00  0.9800E-01  0.9800E-01
     -7.323  0.0000E+00  0.0000E+00  0.1000E+00  0.1000E+00
     -7.282  0.0000E+00  0.0000E+00  0.1030E+00  0.1020E+00
     -7.242  0.0000E+00  0.0000E+00  0.1050E+00  0.1040E+00
     -7.202  0.0000E+00  0.0000E+00  0.1070E+00  0.1070E+00
     -7.162  0.0000E+00  0.0000E+00  0.1110E+00  0.1100E+00
     -7.121  0.0000E+00  0.1216E-01  0.1130E+00  0.1125E+00
     -7.081  0.0000E+00  0.0000E+00  0.1150E+00  0.1150E+00
     -7.041  0.2482E-01  0.0000E+00  0.1190E+00  0.1170E+00
     -7.001  0.0000E+00  0.0000E+00  0.1220E+00  0.1220E+00
     -6.960  0.0000E+00  0.0000E+00  0.1260E+00  0.1240E+00
     -6.920  0.2757E-17  0.6554E-10  0.1290E+00  0.1280E+00
     -6.880  0.0000E+00  0.0000E+00  0.1330E+00  0.1330E+00
     -6.840  0.0000E+00  0.0000E+00  0.1370E+00  0.1360E+00
     -6.799  0.0000E+00  0.0000E+00  0.1400E+00  0.1400E+00
     -6.759  0.0000E+00  0.0000E+00  0.1440E+00  0.1430E+00
     -6.719  0.2483E-01  0.0000E+00  0.1490E+00  0.1480E+00
     -6.678  0.2467E-01  0.0000E+00  0.1530E+00  0.1520E+00
     -6.638  0.2483E-01  0.0000E+00  0.1580E+00  0.1570E+00
     -6.598  0.0000E+00  0.0000E+00  0.1610E+00  0.1610E+00
     -6.558  0.0000E+00  0.0000E+00  0.1640E+00  0.1640E+00
     -6.517  0.0000E+00  0.2483E-01  0.1700E+00  0.1690E+00
     -6.477  0.2345E-03  0.0000E+00  0.1730E+00  0.1720E+00
     -6.437  0.0000E+00  0.0000E+00  0.1750E+00  0.1750E+00
     -6.397  0.0000E+00  0.0000E+00  0.1790E+00  0.1790E+00
     -6.356  0.0000E+00  0.0000E+00  0.1840E+00  0.1830E+00
     -6.316  0.0000E+00  0.0000E+00  0.1860E+00  0.1860E+00
     -6.276  0.0000E+00  0.5995E-04  0.1890E+00  0.1880E+00
     -6.235  0.2483E-01  0.0000E+00  0.1910E+00  0.1900E+00
     -6.195  0.0000E+00  0.7860E-10  0.1930E+00  0.1920E+00
     -6.155  0.0000E+00  0.2483E-01  0.1960E+00  0.1960E+00
     -6.115  0.0000E+00  0.0000E+00  0.1980E+00  0.1980E+00
     -6.074  0.0000E+00  0.0000E+00  0.2000E+00  0.2000E+00
     -6.034  0.0000E+00  0.0000E+00  0.2000E+00  0.2000E+00
     -5.994  0.0000E+00  0.0000E+00  0.2000E+00  0.2000E+00
     -5.954  0.0000E+00  0.0000E+00  0.2000E+00  0.2000E+00
     -5.913  0.0000E+00  0.0000E+00  0.2000E+00  0.2000E+00
     -5.873  0.0000E+00  0.0000E+00  0.2000E+00  0.2000E+00
     -5.833  0.0000E+00  0.0000E+00  0.2010E+00  0.2010E+00
     -5.792  0.0000E+00  0.0000E+00  0.2020E+00  0.2010E+00
     -5.752  0.0000E+00  0.0000E+00  0.2020E+00  0.2020E+00
     -5.712  0.0000E+00  0.0000E+00  0.2020E+00  0.2020E+00
     -5.672  0.0000E+00  0.0000E+00  0.2020E+00  0.2020E+00
     -5.631  0.0000E+00  0.0000E+00  0.2020E+00  0.2020E+00
     -5.591  0.0000E+00  0.0000E+00  0.2030E+00  0.2030E+00
     -5.551  0.0000E+00  0.0000E+00  0.2030E+00  0.2030E+00
     -5.511  0.0000E+00  0.0000E+00  0.2030E+00  0.2030E+00
     -5.470  0.0000E+00  0.0000E+00  0.2030E+00  0.2030E+00
     -5.430  0.0000E+00  0.0000E+00  0.2040E+00  0.2030E+00
     -5.390  0.0000E+00  0.0000E+00  0.2040E+00  0.2040E+00
     -5.349  0.0000E+00  0.0000E+00  0.2050E+00  0.2040E+00
     -5.309  0.0000E+00  0.0000E+00  0.2050E+00  0.2050E+00
     -5.269  0.0000E+00  0.0000E+00  0.2050E+00  0.2050E+00
     -5.229  0.0000E+00  0.0000E+00  0.2050E+00  0.2050E+00
     -5.188  0.0000E+00  0.0000E+00  0.2050E+00  0.2050E+00
     -5.148  0.0000E+00  0.0000E+00  0.2050E+00  0.2050E+00
     -5.108  0.0000E+00  0.0000E+00  0.2050E+00  0.2050E+00
     -5.068  0.0000E+00  0.0000E+00  0.2050E+00  0.2050E+00
     -5.027  0.0000E+00  0.0000E+00  0.2050E+00  0.2050E+00
     -4.987  0.0000E+00  0.0000E+00  0.2050E+00  0.2050E+00
     -4.947  0.0000E+00  0.0000E+00  0.2060E+00  0.2050E+00
     -4.907  0.0000E+00  0.0000E+00  0.2060E+00  0.2060E+00
     -4.866  0.0000E+00  0.0000E+00  0.2060E+00  0.2060E+00
     -4.826  0.0000E+00  0.0000E+00  0.2060E+00  0.2060E+00
     -4.786  0.0000E+00  0.0000E+00  0.2060E+00  0.2060E+00
     -4.745  0.0000E+00  0.0000E+00  0.2060E+00  0.2060E+00
     -4.705  0.0000E+00  0.0000E+00  0.2060E+00  0.2060E+00
     -4.665  0.0000E+00  0.0000E+00  0.2060E+00  0.2060E+00
     -4.625  0.0000E+00  0.0000E+00  0.2070E+00  0.2070E+00
     -4.584  0.0000E+00  0.0000E+00  0.2070E+00  0.2070E+00
     -4.544  0.0000E+00  0.0000E+00  0.2070E+00  0.2070E+00
     -4.504  0.0000E+00  0.0000E+00  0.2070E+00  0.2070E+00
     -4.464  0.0000E+00  0.0000E+00  0.2070E+00  0.2070E+00
     -4.423  0.0000E+00  0.0000E+00  0.2070E+00  0.2070E+00
     -4.383  0.0000E+00  0.0000E+00  0.2070E+00  0.2070E+00
     -4.343  0.0000E+00  0.0000E+00  0.2070E+00  0.2070E+00
     -4.302  0.0000E+00  0.0000E+00  0.2080E+00  0.2080E+00
     -4.262  0.0000E+00  0.0000E+00  0.2080E+00  0.2080E+00
     -4.222  0.0000E+00  0.0000E+00  0.2090E+00  0.2080E+00
     -4.182  0.0000E+00  0.0000E+00  0.2100E+00  0.2090E+00
     -4.141  0.0000E+00  0.0000E+00  0.2100E+00  0.2100E+00
     -4.101  0.0000E+00  0.0000E+00  0.2100E+00  0.2100E+00
     -4.061  0.0000E+00  0.0000E+00  0.2100E+00  0.2100E+00
     -4.021  0.0000E+00  0.0000E+00  0.2110E+00  0.2110E+00
     -3.980  0.0000E+00  0.0000E+00  0.2110E+00  0.2110E+00
     -3.940  0.0000E+00  0.0000E+00  0.2120E+00  0.2110E+00
     -3.900  0.0000E+00  0.0000E+00  0.2120E+00  0.2120E+00
     -3.859  0.0000E+00  0.0000E+00  0.2120E+00  0.2120E+00
     -3.819  0.0000E+00  0.0000E+00  0.2120E+00  0.2120E+00
     -3.779  0.0000E+00  0.0000E+00  0.2120E+00  0.2120E+00
     -3.739  0.0000E+00  0.0000E+00  0.2130E+00  0.2130E+00
     -3.698  0.0000E+00  0.0000E+00  0.2130E+00  0.2130E+00
     -3.658  0.0000E+00  0.0000E+00  0.2130E+00  0.2130E+00
     -3.618  0.0000E+00  0.0000E+00  0.2130E+00  0.2130E+00
     -3.578  0.0000E+00  0.0000E+00  0.2140E+00  0.2140E+00
     -3.537  0.0000E+00  0.0000E+00  0.2140E+00  0.2140E+00
     -3.497  0.0000E+00  0.0000E+00  0.2140E+00  0.2140E+00
     -3.457  0.0000E+00  0.0000E+00  0.2140E+00  0.2140E+00
     -3.417  0.0000E+00  0.0000E+00  0.2140E+00  0.2140E+00
     -3.376  0.0000E+00  0.0000E+00  0.2140E+00  0.2140E+00
     -3.336  0.0000E+00  0.0000E+00  0.2150E+00  0.2140E+00
     -3.296  0.0000E+00  0.0000E+00  0.2150E+00  0.2140E+00
     -3.255  0.0000E+00  0.0000E+00  0.2150E+00  0.2150E+00
     -3.215  0.0000E+00  0.0000E+00  0.2150E+00  0.2150E+00
     -3.175  0.0000E+00  0.0000E+00  0.2160E+00  0.2160E+00
     -3.135  0.0000E+00  0.0000E+00  0.2160E+00  0.2160E+00
     -3.094  0.0000E+00  0.0000E+00  0.2160E+00  0.2160E+00
     -3.054  0.0000E+00  0.0000E+00  0.2160E+00  0.2160E+00
     -3.014  0.0000E+00  0.0000E+00  0.2160E+00  0.2160E+00
     -2.974  0.0000E+00  0.0000E+00  0.2170E+00  0.2160E+00
     -2.933  0.0000E+00  0.0000E+00  0.2170E+00  0.2170E+00
     -2.893  0.0000E+00  0.0000E+00  0.2170E+00  0.2170E+00
     -2.853  0.0000E+00  0.0000E+00  0.2170E+00  0.2170E+00
     -2.812  0.0000E+00  0.0000E+00  0.2170E+00  0.2170E+00
     -2.772  0.0000E+00  0.0000E+00  0.2170E+00  0.2170E+00
     -2.732  0.0000E+00  0.0000E+00  0.2180E+00  0.2180E+00
     -2.692  0.0000E+00  0.0000E+00  0.2180E+00  0.2180E+00
     -2.651  0.0000E+00  0.0000E+00  0.2190E+00  0.2190E+00
     -2.611  0.0000E+00  0.0000E+00  0.2190E+00  0.2190E+00
     -2.571  0.0000E+00  0.0000E+00  0.2190E+00  0.2190E+00
     -2.531  0.0000E+00  0.0000E+00  0.2190E+00  0.2190E+00
     -2.490  0.0000E+00  0.0000E+00  0.2200E+00  0.2190E+00
     -2.450  0.0000E+00  0.0000E+00  0.2200E+00  0.2200E+00
     -2.410  0.0000E+00  0.7018E-09  0.2210E+00  0.2200E+00
     -2.369  0.0000E+00  0.0000E+00  0.2210E+00  0.2210E+00
     -2.329  0.0000E+00  0.0000E+00  0.2210E+00  0.2210E+00
     -2.289  0.0000E+00  0.0000E+00  0.2220E+00  0.2210E+00
     -2.249  0.0000E+00  0.0000E+00  0.2230E+00  0.2220E+00
     -2.208  0.0000E+00  0.0000E+00  0.2230E+00  0.2230E+00
     -2.168  0.0000E+00  0.0000E+00  0.2230E+00  0.2230E+00
     -2.128  0.0000E+00  0.0000E+00  0.2240E+00  0.2240E+00
     -2.088  0.0000E+00  0.0000E+00  0.2240E+00  0.2240E+00
     -2.047  0.0000E+00  0.0000E+00  0.2250E+00  0.2250E+00
     -2.007  0.0000E+00  0.0000E+00  0.2250E+00  0.2250E+00
     -1.967  0.0000E+00  0.0000E+00  0.2260E+00  0.2250E+00
     -1.926  0.0000E+00  0.0000E+00  0.2260E+00  0.2260E+00
     -1.886  0.0000E+00  0.0000E+00  0.2270E+00  0.2260E+00
     -1.846  0.0000E+00  0.0000E+00  0.2270E+00  0.2270E+00
     -1.806  0.0000E+00  0.0000E+00  0.2280E+00  0.2270E+00
     -1.765  0.0000E+00  0.0000E+00  0.2280E+00  0.2280E+00
     -1.725  0.0000E+00  0.0000E+00  0.2280E+00  0.2280E+00
     -1.685  0.0000E+00  0.0000E+00  0.2280E+00  0.2280E+00
     -1.645  0.2481E-01  0.0000E+00  0.2300E+00  0.2290E+00
     -1.604  0.0000E+00  0.0000E+00  0.2300E+00  0.2300E+00
     -1.564  0.0000E+00  0.0000E+00  0.2300E+00  0.2300E+00
     -1.524  0.0000E+00  0.0000E+00  0.2300E+00  0.2300E+00
     -1.484  0.0000E+00  0.0000E+00  0.2310E+00  0.2300E+00
     -1.443  0.0000E+00  0.0000E+00  0.2310E+00  0.2310E+00
     -1.403  0.0000E+00  0.0000E+00  0.2310E+00  0.2310E+00
     -1.363  0.0000E+00  0.0000E+00  0.2310E+00  0.2310E+00
     -1.322  0.0000E+00  0.0000E+00  0.2310E+00  0.2310E+00
     -1.282  0.0000E+00  0.0000E+00  0.2320E+00  0.2310E+00
     -1.242  0.7217E-03  0.0000E+00  0.2320E+00  0.2320E+00
     -1.202  0.0000E+00  0.0000E+00  0.2330E+00  0.2330E+00
     -1.161  0.0000E+00  0.0000E+00  0.2330E+00  0.2330E+00
     -1.121  0.0000E+00  0.0000E+00  0.2330E+00  0.2330E+00
     -1.081  0.0000E+00  0.0000E+00  0.2340E+00  0.2330E+00
     -1.041  0.0000E+00  0.0000E+00  0.2340E+00  0.2340E+00
     -1.000  0.0000E+00  0.0000E+00  0.2340E+00  0.2340E+00
     -0.960  0.0000E+00  0.0000E+00  0.2350E+00  0.2340E+00
     -0.920  0.0000E+00  0.0000E+00  0.2350E+00  0.2350E+00
     -0.879  0.0000E+00  0.0000E+00  0.2350E+00  0.2350E+00
     -0.839  0.0000E+00  0.0000E+00  0.2350E+00  0.2350E+00
     -0.799  0.0000E+00  0.0000E+00  0.2360E+00  0.2350E+00
     -0.759  0.0000E+00  0.0000E+00  0.2370E+00  0.2360E+00
     -0.718  0.0000E+00  0.0000E+00  0.2370E+00  0.2370E+00
     -0.678  0.0000E+00  0.0000E+00  0.2370E+00  0.2370E+00
     -0.638  0.0000E+00  0.0000E+00  0.2370E+00  0.2370E+00
     -0.598  0.0000E+00  0.0000E+00  0.2370E+00  0.2370E+00
     -0.557  0.0000E+00  0.0000E+00  0.2380E+00  0.2380E+00
     -0.517  0.0000E+00  0.0000E+00  0.2390E+00  0.2380E+00
     -0.477  0.0000E+00  0.0000E+00  0.2400E+00  0.2390E+00
     -0.436  0.0000E+00  0.0000E+00  0.2400E+00  0.2400E+00
     -0.396  0.0000E+00  0.0000E+00  0.2400E+00  0.2400E+00
     -0.356  0.0000E+00  0.0000E+00  0.2420E+00  0.2400E+00
     -0.316  0.0000E+00  0.0000E+00  0.2420E+00  0.2420E+00
     -0.275  0.0000E+00  0.0000E+00  0.2430E+00  0.2430E+00
     -0.235  0.0000E+00  0.0000E+00  0.2440E+00  0.2440E+00
     -0.195  0.0000E+00  0.0000E+00  0.2450E+00  0.2440E+00
     -0.155  0.0000E+00  0.0000E+00  0.2450E+00  0.2450E+00
     -0.114  0.0000E+00  0.0000E+00  0.2460E+00  0.2450E+00
     -0.074  0.0000E+00  0.0000E+00  0.2460E+00  0.2460E+00
     -0.034  0.0000E+00  0.0000E+00  0.2470E+00  0.2470E+00
      0.006  0.0000E+00  0.0000E+00  0.2470E+00  0.2470E+00
      0.047  0.0000E+00  0.0000E+00  0.2480E+00  0.2470E+00
      0.087  0.0000E+00  0.0000E+00  0.2480E+00  0.2480E+00
      0.127  0.0000E+00  0.0000E+00  0.2490E+00  0.2490E+00
      0.168  0.0000E+00  0.0000E+00  0.2500E+00  0.2490E+00
      0.208  0.0000E+00  0.0000E+00  0.2510E+00  0.2500E+00
      0.248  0.0000E+00  0.0000E+00  0.2510E+00  0.2510E+00
      0.288  0.0000E+00  0.0000E+00  0.2510E+00  0.2510E+00
      0.329  0.0000E+00  0.0000E+00  0.2510E+00  0.2510E+00
      0.369  0.0000E+00  0.0000E+00  0.2510E+00  0.2510E+00
      0.409  0.0000E+00  0.0000E+00  0.2510E+00  0.2510E+00
      0.449  0.0000E+00  0.0000E+00  0.2520E+00  0.2510E+00
      0.490  0.0000E+00  0.0000E+00  0.2520E+00  0.2520E+00
      0.530  0.0000E+00  0.0000E+00  0.2530E+00  0.2520E+00
      0.570  0.0000E+00  0.0000E+00  0.2540E+00  0.2540E+00
      0.611  0.0000E+00  0.0000E+00  0.2540E+00  0.2540E+00
      0.651  0.0000E+00  0.0000E+00  0.2540E+00  0.2540E+00
      0.691  0.0000E+00  0.0000E+00  0.2540E+00  0.2540E+00
      0.731  0.0000E+00  0.0000E+00  0.2550E+00  0.2550E+00
      0.772  0.0000E+00  0.0000E+00  0.2570E+00  0.2560E+00
      0.812  0.0000E+00  0.0000E+00  0.2570E+00  0.2570E+00
      0.852  0.0000E+00  0.0000E+00  0.2580E+00  0.2570E+00
      0.892  0.0000E+00  0.0000E+00  0.2590E+00  0.2590E+00
      0.933  0.0000E+00  0.0000E+00  0.2600E+00  0.2590E+00
      0.973  0.0000E+00  0.0000E+00  0.2620E+00  0.2620E+00
      1.013  0.0000E+00  0.2483E-01  0.2630E+00  0.2630E+00
      1.054  0.0000E+00  0.0000E+00  0.2650E+00  0.2640E+00
      1.094  0.0000E+00  0.0000E+00  0.2680E+00  0.2670E+00
      1.134  0.0000E+00  0.0000E+00  0.2700E+00  0.2690E+00
      1.174  0.0000E+00  0.0000E+00  0.2710E+00  0.2700E+00
      1.215  0.0000E+00  0.0000E+00  0.2720E+00  0.2710E+00
      1.255  0.0000E+00  0.0000E+00  0.2730E+00  0.2730E+00
      1.295  0.0000E+00  0.0000E+00  0.2760E+00  0.2750E+00
      1.335  0.0000E+00  0.0000E+00  0.2770E+00  0.2760E+00
      1.376  0.0000E+00  0.0000E+00  0.2790E+00  0.2790E+00
      1.416  0.0000E+00  0.0000E+00  0.2800E+00  0.2800E+00
      1.456  0.0000E+00  0.0000E+00  0.2800E+00  0.2800E+00
      1.497  0.0000E+00  0.0000E+00  0.2800E+00  0.2800E+00
      1.537  0.0000E+00  0.0000E+00  0.2800E+00  0.2800E+00
      1.577  0.0000E+00  0.0000E+00  0.2800E+00  0.2800E+00
      1.617  0.0000E+00  0.0000E+00  0.2800E+00  0.2800E+00
      1.658  0.0000E+00  0.0000E+00  0.2800E+00  0.2800E+00
      1.698  0.0000E+00  0.0000E+00  0.2800E+00  0.2800E+00
      1.738  0.0000E+00  0.0000E+00  0.2800E+00  0.2800E+00
      1.778  0.0000E+00  0.0000E+00  0.2800E+00  0.2800E+00
      1.819  0.0000E+00  0.0000E+00  0.2800E+00  0.2800E+00
      1.859  0.0000E+00  0.0000E+00  0.2800E+00  0.2800E+00
      1.899  0.0000E+00  0.0000E+00  0.2800E+00  0.2800E+00
      1.939  0.0000E+00  0.0000E+00  0.2800E+00  0.2800E+00
