  20  20   0   0
  0.4849723E+03  0.2132631E-08  0.2132631E-08  0.2132631E-08  0.1000000E-15
  1.000000000000000E-004
  CAR 
 unknown system                          
      1.30488377     -9.85985868  301     -3.96115309      1.00000000
     -9.860  0.0000E+00  0.0000E+00  0.0000E+00  0.0000E+00
     -9.823  0.0000E+00  0.0000E+00  0.0000E+00  0.0000E+00
     -9.785  0.0000E+00  0.0000E+00  0.0000E+00  0.0000E+00
     -9.748  0.0000E+00  0.0000E+00  0.0000E+00  0.0000E+00
     -9.711  0.0000E+00  0.0000E+00  0.0000E+00  0.0000E+00
     -9.674  0.0000E+00  0.0000E+00  0.0000E+00  0.0000E+00
     -9.637  0.0000E+00  0.0000E+00  0.0000E+00  0.0000E+00
     -9.599  0.0000E+00  0.0000E+00  0.0000E+00  0.0000E+00
     -9.562  0.0000E+00  0.0000E+00  0.0000E+00  0.0000E+00
     -9.525  0.0000E+00  0.0000E+00  0.0000E+00  0.0000E+00
     -9.488  0.0000E+00  0.0000E+00  0.0000E+00  0.0000E+00
     -9.450  0.0000E+00  0.0000E+00  0.0000E+00  0.0000E+00
     -9.413  0.0000E+00  0.0000E+00  0.0000E+00  0.0000E+00
     -9.376  0.0000E+00  0.0000E+00  0.0000E+00  0.0000E+00
     -9.339  0.0000E+00  0.0000E+00  0.1000E-02  0.1000E-02
     -9.302  0.0000E+00  0.0000E+00  0.1000E-02  0.1000E-02
     -9.264  0.0000E+00  0.0000E+00  0.1000E-02  0.1000E-02
     -9.227  0.0000E+00  0.0000E+00  0.1000E-02  0.1000E-02
     -9.190  0.0000E+00  0.0000E+00  0.1000E-02  0.1000E-02
     -9.153  0.0000E+00  0.0000E+00  0.1000E-02  0.1000E-02
     -9.116  0.0000E+00  0.0000E+00  0.1000E-02  0.1000E-02
     -9.078  0.0000E+00  0.0000E+00  0.2000E-02  0.2000E-02
     -9.041  0.0000E+00  0.0000E+00  0.3000E-02  0.3000E-02
     -9.004  0.0000E+00  0.0000E+00  0.3000E-02  0.3000E-02
     -8.967  0.0000E+00  0.0000E+00  0.4000E-02  0.4000E-02
     -8.929  0.0000E+00  0.0000E+00  0.4000E-02  0.4000E-02
     -8.892  0.0000E+00  0.0000E+00  0.4000E-02  0.4000E-02
     -8.855  0.0000E+00  0.0000E+00  0.5000E-02  0.5000E-02
     -8.818  0.0000E+00  0.0000E+00  0.6000E-02  0.6000E-02
     -8.781  0.0000E+00  0.0000E+00  0.8000E-02  0.8000E-02
     -8.743  0.0000E+00  0.0000E+00  0.8000E-02  0.8000E-02
     -8.706  0.0000E+00  0.0000E+00  0.9000E-02  0.9000E-02
     -8.669  0.0000E+00  0.0000E+00  0.1100E-01  0.1100E-01
     -8.632  0.0000E+00  0.0000E+00  0.1200E-01  0.1200E-01
     -8.595  0.0000E+00  0.0000E+00  0.1500E-01  0.1500E-01
     -8.557  0.0000E+00  0.0000E+00  0.1500E-01  0.1500E-01
     -8.520  0.0000E+00  0.0000E+00  0.1600E-01  0.1600E-01
     -8.483  0.0000E+00  0.0000E+00  0.1700E-01  0.1700E-01
     -8.446  0.2135E-01  0.2134E-01  0.1979E-01  0.1979E-01
     -8.408  0.0000E+00  0.0000E+00  0.2000E-01  0.2000E-01
     -8.371  0.0000E+00  0.0000E+00  0.2100E-01  0.2100E-01
     -8.334  0.0000E+00  0.0000E+00  0.2300E-01  0.2300E-01
     -8.297  0.0000E+00  0.0000E+00  0.2400E-01  0.2400E-01
     -8.260  0.0000E+00  0.0000E+00  0.2600E-01  0.2600E-01
     -8.222  0.0000E+00  0.0000E+00  0.2700E-01  0.2700E-01
     -8.185  0.0000E+00  0.0000E+00  0.2900E-01  0.2900E-01
     -8.148  0.0000E+00  0.0000E+00  0.3000E-01  0.3000E-01
     -8.111  0.0000E+00  0.0000E+00  0.3100E-01  0.3100E-01
     -8.073  0.0000E+00  0.0000E+00  0.3200E-01  0.3200E-01
     -8.036  0.0000E+00  0.0000E+00  0.3300E-01  0.3300E-01
     -7.999  0.0000E+00  0.0000E+00  0.3400E-01  0.3400E-01
     -7.962  0.0000E+00  0.0000E+00  0.3600E-01  0.3600E-01
     -7.925  0.0000E+00  0.0000E+00  0.3800E-01  0.3800E-01
     -7.887  0.0000E+00  0.0000E+00  0.3800E-01  0.3800E-01
     -7.850  0.0000E+00  0.0000E+00  0.3800E-01  0.3800E-01
     -7.813  0.0000E+00  0.0000E+00  0.4000E-01  0.4000E-01
     -7.776  0.2246E-01  0.2245E-01  0.4084E-01  0.4084E-01
     -7.739  0.0000E+00  0.0000E+00  0.4200E-01  0.4200E-01
     -7.701  0.0000E+00  0.0000E+00  0.4300E-01  0.4300E-01
     -7.664  0.0000E+00  0.0000E+00  0.4400E-01  0.4400E-01
     -7.627  0.0000E+00  0.0000E+00  0.4600E-01  0.4600E-01
     -7.590  0.0000E+00  0.0000E+00  0.4700E-01  0.4700E-01
     -7.552  0.2687E-01  0.2687E-01  0.4800E-01  0.4800E-01
     -7.515  0.0000E+00  0.0000E+00  0.4900E-01  0.4900E-01
     -7.478  0.0000E+00  0.0000E+00  0.4900E-01  0.4900E-01
     -7.441  0.0000E+00  0.0000E+00  0.5000E-01  0.5000E-01
     -7.404  0.0000E+00  0.0000E+00  0.5100E-01  0.5100E-01
     -7.366  0.0000E+00  0.0000E+00  0.5300E-01  0.5300E-01
     -7.329  0.0000E+00  0.0000E+00  0.5400E-01  0.5400E-01
     -7.292  0.0000E+00  0.0000E+00  0.5600E-01  0.5600E-01
     -7.255  0.0000E+00  0.0000E+00  0.5800E-01  0.5800E-01
     -7.218  0.0000E+00  0.0000E+00  0.6000E-01  0.6000E-01
     -7.180  0.0000E+00  0.0000E+00  0.6100E-01  0.6100E-01
     -7.143  0.0000E+00  0.0000E+00  0.6200E-01  0.6200E-01
     -7.106  0.0000E+00  0.0000E+00  0.6300E-01  0.6300E-01
     -7.069  0.0000E+00  0.0000E+00  0.6800E-01  0.6800E-01
     -7.031  0.0000E+00  0.0000E+00  0.6900E-01  0.6900E-01
     -6.994  0.0000E+00  0.0000E+00  0.7100E-01  0.7100E-01
     -6.957  0.0000E+00  0.0000E+00  0.7200E-01  0.7200E-01
     -6.920  0.0000E+00  0.0000E+00  0.7400E-01  0.7400E-01
     -6.883  0.0000E+00  0.0000E+00  0.7600E-01  0.7600E-01
     -6.845  0.0000E+00  0.0000E+00  0.7800E-01  0.7800E-01
     -6.808  0.2687E-01  0.2687E-01  0.8000E-01  0.8000E-01
     -6.771  0.0000E+00  0.0000E+00  0.8100E-01  0.8100E-01
     -6.734  0.0000E+00  0.0000E+00  0.8300E-01  0.8300E-01
     -6.697  0.0000E+00  0.0000E+00  0.8500E-01  0.8500E-01
     -6.659  0.0000E+00  0.0000E+00  0.8800E-01  0.8800E-01
     -6.622  0.4016E-02  0.4015E-02  0.8915E-01  0.8915E-01
     -6.585  0.0000E+00  0.0000E+00  0.9100E-01  0.9100E-01
     -6.548  0.0000E+00  0.0000E+00  0.9200E-01  0.9200E-01
     -6.510  0.0000E+00  0.0000E+00  0.9400E-01  0.9400E-01
     -6.473  0.0000E+00  0.0000E+00  0.9600E-01  0.9600E-01
     -6.436  0.2687E-01  0.2687E-01  0.9800E-01  0.9800E-01
     -6.399  0.2687E-01  0.2687E-01  0.9900E-01  0.9900E-01
     -6.362  0.0000E+00  0.0000E+00  0.1000E+00  0.1000E+00
     -6.324  0.0000E+00  0.0000E+00  0.1000E+00  0.1000E+00
     -6.287  0.0000E+00  0.0000E+00  0.1020E+00  0.1020E+00
     -6.250  0.0000E+00  0.0000E+00  0.1020E+00  0.1020E+00
     -6.213  0.0000E+00  0.0000E+00  0.1020E+00  0.1020E+00
     -6.175  0.0000E+00  0.0000E+00  0.1020E+00  0.1020E+00
     -6.138  0.0000E+00  0.0000E+00  0.1030E+00  0.1030E+00
     -6.101  0.0000E+00  0.0000E+00  0.1040E+00  0.1040E+00
     -6.064  0.0000E+00  0.0000E+00  0.1040E+00  0.1040E+00
     -6.027  0.0000E+00  0.0000E+00  0.1040E+00  0.1040E+00
     -5.989  0.0000E+00  0.0000E+00  0.1040E+00  0.1040E+00
     -5.952  0.0000E+00  0.0000E+00  0.1040E+00  0.1040E+00
     -5.915  0.0000E+00  0.0000E+00  0.1040E+00  0.1040E+00
     -5.878  0.0000E+00  0.0000E+00  0.1040E+00  0.1040E+00
     -5.841  0.0000E+00  0.0000E+00  0.1040E+00  0.1040E+00
     -5.803  0.0000E+00  0.0000E+00  0.1040E+00  0.1040E+00
     -5.766  0.0000E+00  0.0000E+00  0.1040E+00  0.1040E+00
     -5.729  0.0000E+00  0.0000E+00  0.1040E+00  0.1040E+00
     -5.692  0.0000E+00  0.0000E+00  0.1040E+00  0.1040E+00
     -5.654  0.0000E+00  0.0000E+00  0.1040E+00  0.1040E+00
     -5.617  0.0000E+00  0.0000E+00  0.1040E+00  0.1040E+00
     -5.580  0.0000E+00  0.0000E+00  0.1040E+00  0.1040E+00
     -5.543  0.0000E+00  0.0000E+00  0.1040E+00  0.1040E+00
     -5.506  0.0000E+00  0.0000E+00  0.1040E+00  0.1040E+00
     -5.468  0.0000E+00  0.0000E+00  0.1040E+00  0.1040E+00
     -5.431  0.0000E+00  0.0000E+00  0.1040E+00  0.1040E+00
     -5.394  0.0000E+00  0.0000E+00  0.1050E+00  0.1050E+00
     -5.357  0.0000E+00  0.0000E+00  0.1050E+00  0.1050E+00
     -5.320  0.0000E+00  0.0000E+00  0.1050E+00  0.1050E+00
     -5.282  0.0000E+00  0.0000E+00  0.1050E+00  0.1050E+00
     -5.245  0.0000E+00  0.0000E+00  0.1050E+00  0.1050E+00
     -5.208  0.0000E+00  0.0000E+00  0.1050E+00  0.1050E+00
     -5.171  0.0000E+00  0.0000E+00  0.1050E+00  0.1050E+00
     -5.133  0.0000E+00  0.0000E+00  0.1050E+00  0.1050E+00
     -5.096  0.0000E+00  0.0000E+00  0.1050E+00  0.1050E+00
     -5.059  0.0000E+00  0.0000E+00  0.1050E+00  0.1050E+00
     -5.022  0.0000E+00  0.0000E+00  0.1050E+00  0.1050E+00
     -4.985  0.0000E+00  0.0000E+00  0.1050E+00  0.1050E+00
     -4.947  0.0000E+00  0.0000E+00  0.1050E+00  0.1050E+00
     -4.910  0.0000E+00  0.0000E+00  0.1050E+00  0.1050E+00
     -4.873  0.0000E+00  0.0000E+00  0.1060E+00  0.1060E+00
     -4.836  0.0000E+00  0.0000E+00  0.1060E+00  0.1060E+00
     -4.799  0.0000E+00  0.0000E+00  0.1060E+00  0.1060E+00
     -4.761  0.0000E+00  0.0000E+00  0.1060E+00  0.1060E+00
     -4.724  0.0000E+00  0.0000E+00  0.1060E+00  0.1060E+00
     -4.687  0.0000E+00  0.0000E+00  0.1060E+00  0.1060E+00
     -4.650  0.0000E+00  0.0000E+00  0.1060E+00  0.1060E+00
     -4.612  0.2687E-01  0.2687E-01  0.1070E+00  0.1070E+00
     -4.575  0.0000E+00  0.0000E+00  0.1070E+00  0.1070E+00
     -4.538  0.0000E+00  0.0000E+00  0.1070E+00  0.1070E+00
     -4.501  0.0000E+00  0.0000E+00  0.1080E+00  0.1080E+00
     -4.464  0.0000E+00  0.0000E+00  0.1080E+00  0.1080E+00
     -4.426  0.0000E+00  0.0000E+00  0.1080E+00  0.1080E+00
     -4.389  0.0000E+00  0.0000E+00  0.1080E+00  0.1080E+00
     -4.352  0.0000E+00  0.0000E+00  0.1080E+00  0.1080E+00
     -4.315  0.0000E+00  0.0000E+00  0.1080E+00  0.1080E+00
     -4.277  0.0000E+00  0.0000E+00  0.1080E+00  0.1080E+00
     -4.240  0.0000E+00  0.0000E+00  0.1080E+00  0.1080E+00
     -4.203  0.0000E+00  0.0000E+00  0.1080E+00  0.1080E+00
     -4.166  0.0000E+00  0.0000E+00  0.1080E+00  0.1080E+00
     -4.129  0.0000E+00  0.0000E+00  0.1080E+00  0.1080E+00
     -4.091  0.0000E+00  0.0000E+00  0.1080E+00  0.1080E+00
     -4.054  0.0000E+00  0.0000E+00  0.1090E+00  0.1090E+00
     -4.017  0.0000E+00  0.0000E+00  0.1090E+00  0.1090E+00
     -3.980  0.0000E+00  0.0000E+00  0.1090E+00  0.1090E+00
     -3.943  0.0000E+00  0.0000E+00  0.1100E+00  0.1100E+00
     -3.905  0.0000E+00  0.0000E+00  0.1100E+00  0.1100E+00
     -3.868  0.0000E+00  0.0000E+00  0.1100E+00  0.1100E+00
     -3.831  0.0000E+00  0.0000E+00  0.1100E+00  0.1100E+00
     -3.794  0.0000E+00  0.0000E+00  0.1100E+00  0.1100E+00
     -3.756  0.0000E+00  0.0000E+00  0.1100E+00  0.1100E+00
     -3.719  0.0000E+00  0.0000E+00  0.1100E+00  0.1100E+00
     -3.682  0.0000E+00  0.0000E+00  0.1100E+00  0.1100E+00
     -3.645  0.0000E+00  0.0000E+00  0.1100E+00  0.1100E+00
     -3.608  0.0000E+00  0.0000E+00  0.1100E+00  0.1100E+00
     -3.570  0.0000E+00  0.0000E+00  0.1100E+00  0.1100E+00
     -3.533  0.0000E+00  0.0000E+00  0.1100E+00  0.1100E+00
     -3.496  0.0000E+00  0.0000E+00  0.1100E+00  0.1100E+00
     -3.459  0.0000E+00  0.0000E+00  0.1100E+00  0.1100E+00
     -3.422  0.0000E+00  0.0000E+00  0.1100E+00  0.1100E+00
     -3.384  0.0000E+00  0.0000E+00  0.1100E+00  0.1100E+00
     -3.347  0.0000E+00  0.0000E+00  0.1100E+00  0.1100E+00
     -3.310  0.0000E+00  0.0000E+00  0.1110E+00  0.1110E+00
     -3.273  0.0000E+00  0.0000E+00  0.1110E+00  0.1110E+00
     -3.235  0.0000E+00  0.0000E+00  0.1110E+00  0.1110E+00
     -3.198  0.0000E+00  0.0000E+00  0.1110E+00  0.1110E+00
     -3.161  0.0000E+00  0.0000E+00  0.1110E+00  0.1110E+00
     -3.124  0.0000E+00  0.0000E+00  0.1110E+00  0.1110E+00
     -3.087  0.0000E+00  0.0000E+00  0.1110E+00  0.1110E+00
     -3.049  0.0000E+00  0.0000E+00  0.1110E+00  0.1110E+00
     -3.012  0.0000E+00  0.0000E+00  0.1110E+00  0.1110E+00
     -2.975  0.0000E+00  0.0000E+00  0.1120E+00  0.1120E+00
     -2.938  0.0000E+00  0.0000E+00  0.1120E+00  0.1120E+00
     -2.901  0.0000E+00  0.0000E+00  0.1120E+00  0.1120E+00
     -2.863  0.0000E+00  0.0000E+00  0.1120E+00  0.1120E+00
     -2.826  0.0000E+00  0.0000E+00  0.1120E+00  0.1120E+00
     -2.789  0.0000E+00  0.0000E+00  0.1120E+00  0.1120E+00
     -2.752  0.0000E+00  0.0000E+00  0.1130E+00  0.1130E+00
     -2.714  0.0000E+00  0.0000E+00  0.1130E+00  0.1130E+00
     -2.677  0.0000E+00  0.0000E+00  0.1130E+00  0.1130E+00
     -2.640  0.0000E+00  0.0000E+00  0.1130E+00  0.1130E+00
     -2.603  0.0000E+00  0.0000E+00  0.1130E+00  0.1130E+00
     -2.566  0.0000E+00  0.0000E+00  0.1130E+00  0.1130E+00
     -2.528  0.0000E+00  0.0000E+00  0.1130E+00  0.1130E+00
     -2.491  0.0000E+00  0.0000E+00  0.1140E+00  0.1140E+00
     -2.454  0.0000E+00  0.0000E+00  0.1140E+00  0.1140E+00
     -2.417  0.0000E+00  0.0000E+00  0.1140E+00  0.1140E+00
     -2.379  0.0000E+00  0.0000E+00  0.1140E+00  0.1140E+00
     -2.342  0.0000E+00  0.0000E+00  0.1140E+00  0.1140E+00
     -2.305  0.0000E+00  0.0000E+00  0.1140E+00  0.1140E+00
     -2.268  0.0000E+00  0.0000E+00  0.1150E+00  0.1150E+00
     -2.231  0.0000E+00  0.0000E+00  0.1150E+00  0.1150E+00
     -2.193  0.0000E+00  0.0000E+00  0.1160E+00  0.1160E+00
     -2.156  0.0000E+00  0.0000E+00  0.1160E+00  0.1160E+00
     -2.119  0.0000E+00  0.0000E+00  0.1170E+00  0.1170E+00
     -2.082  0.0000E+00  0.0000E+00  0.1170E+00  0.1170E+00
     -2.045  0.0000E+00  0.0000E+00  0.1180E+00  0.1180E+00
     -2.007  0.0000E+00  0.0000E+00  0.1180E+00  0.1180E+00
     -1.970  0.0000E+00  0.0000E+00  0.1180E+00  0.1180E+00
     -1.933  0.0000E+00  0.0000E+00  0.1180E+00  0.1180E+00
     -1.896  0.0000E+00  0.0000E+00  0.1180E+00  0.1180E+00
     -1.858  0.0000E+00  0.0000E+00  0.1180E+00  0.1180E+00
     -1.821  0.0000E+00  0.0000E+00  0.1180E+00  0.1180E+00
     -1.784  0.0000E+00  0.0000E+00  0.1190E+00  0.1190E+00
     -1.747  0.0000E+00  0.0000E+00  0.1190E+00  0.1190E+00
     -1.710  0.0000E+00  0.0000E+00  0.1190E+00  0.1190E+00
     -1.672  0.0000E+00  0.0000E+00  0.1190E+00  0.1190E+00
     -1.635  0.0000E+00  0.0000E+00  0.1200E+00  0.1200E+00
     -1.598  0.0000E+00  0.0000E+00  0.1200E+00  0.1200E+00
     -1.561  0.0000E+00  0.0000E+00  0.1210E+00  0.1210E+00
     -1.524  0.0000E+00  0.0000E+00  0.1210E+00  0.1210E+00
     -1.486  0.0000E+00  0.0000E+00  0.1210E+00  0.1210E+00
     -1.449  0.0000E+00  0.0000E+00  0.1210E+00  0.1210E+00
     -1.412  0.0000E+00  0.0000E+00  0.1210E+00  0.1210E+00
     -1.375  0.0000E+00  0.0000E+00  0.1210E+00  0.1210E+00
     -1.337  0.0000E+00  0.0000E+00  0.1210E+00  0.1210E+00
     -1.300  0.0000E+00  0.0000E+00  0.1210E+00  0.1210E+00
     -1.263  0.0000E+00  0.0000E+00  0.1210E+00  0.1210E+00
     -1.226  0.0000E+00  0.0000E+00  0.1210E+00  0.1210E+00
     -1.189  0.0000E+00  0.0000E+00  0.1210E+00  0.1210E+00
     -1.151  0.0000E+00  0.0000E+00  0.1210E+00  0.1210E+00
     -1.114  0.0000E+00  0.0000E+00  0.1220E+00  0.1220E+00
     -1.077  0.0000E+00  0.0000E+00  0.1220E+00  0.1220E+00
     -1.040  0.0000E+00  0.0000E+00  0.1220E+00  0.1220E+00
     -1.002  0.0000E+00  0.0000E+00  0.1230E+00  0.1230E+00
     -0.965  0.0000E+00  0.0000E+00  0.1230E+00  0.1230E+00
     -0.928  0.0000E+00  0.0000E+00  0.1230E+00  0.1230E+00
     -0.891  0.0000E+00  0.0000E+00  0.1240E+00  0.1240E+00
     -0.854  0.0000E+00  0.0000E+00  0.1240E+00  0.1240E+00
     -0.816  0.0000E+00  0.0000E+00  0.1240E+00  0.1240E+00
     -0.779  0.0000E+00  0.0000E+00  0.1240E+00  0.1240E+00
     -0.742  0.0000E+00  0.0000E+00  0.1240E+00  0.1240E+00
     -0.705  0.0000E+00  0.0000E+00  0.1240E+00  0.1240E+00
     -0.668  0.0000E+00  0.0000E+00  0.1240E+00  0.1240E+00
     -0.630  0.0000E+00  0.0000E+00  0.1240E+00  0.1240E+00
     -0.593  0.0000E+00  0.0000E+00  0.1250E+00  0.1250E+00
     -0.556  0.0000E+00  0.0000E+00  0.1250E+00  0.1250E+00
     -0.519  0.0000E+00  0.0000E+00  0.1250E+00  0.1250E+00
     -0.481  0.0000E+00  0.0000E+00  0.1260E+00  0.1260E+00
     -0.444  0.0000E+00  0.0000E+00  0.1260E+00  0.1260E+00
     -0.407  0.0000E+00  0.0000E+00  0.1270E+00  0.1270E+00
     -0.370  0.0000E+00  0.0000E+00  0.1270E+00  0.1270E+00
     -0.333  0.0000E+00  0.0000E+00  0.1270E+00  0.1270E+00
     -0.295  0.0000E+00  0.0000E+00  0.1270E+00  0.1270E+00
     -0.258  0.0000E+00  0.0000E+00  0.1280E+00  0.1280E+00
     -0.221  0.0000E+00  0.0000E+00  0.1280E+00  0.1280E+00
     -0.184  0.0000E+00  0.0000E+00  0.1290E+00  0.1290E+00
     -0.147  0.0000E+00  0.0000E+00  0.1290E+00  0.1290E+00
     -0.109  0.0000E+00  0.0000E+00  0.1290E+00  0.1290E+00
     -0.072  0.0000E+00  0.0000E+00  0.1290E+00  0.1290E+00
     -0.035  0.0000E+00  0.0000E+00  0.1290E+00  0.1290E+00
      0.002  0.0000E+00  0.0000E+00  0.1300E+00  0.1300E+00
      0.040  0.0000E+00  0.0000E+00  0.1310E+00  0.1310E+00
      0.077  0.0000E+00  0.0000E+00  0.1310E+00  0.1310E+00
      0.114  0.0000E+00  0.0000E+00  0.1310E+00  0.1310E+00
      0.151  0.0000E+00  0.0000E+00  0.1320E+00  0.1320E+00
      0.188  0.0000E+00  0.0000E+00  0.1320E+00  0.1320E+00
      0.226  0.0000E+00  0.0000E+00  0.1330E+00  0.1330E+00
      0.263  0.0000E+00  0.0000E+00  0.1330E+00  0.1330E+00
      0.300  0.0000E+00  0.0000E+00  0.1340E+00  0.1340E+00
      0.337  0.0000E+00  0.0000E+00  0.1340E+00  0.1340E+00
      0.374  0.0000E+00  0.0000E+00  0.1350E+00  0.1350E+00
      0.412  0.0000E+00  0.0000E+00  0.1350E+00  0.1350E+00
      0.449  0.0000E+00  0.0000E+00  0.1360E+00  0.1360E+00
      0.486  0.0000E+00  0.0000E+00  0.1360E+00  0.1360E+00
      0.523  0.0000E+00  0.0000E+00  0.1360E+00  0.1360E+00
      0.561  0.0000E+00  0.0000E+00  0.1370E+00  0.1370E+00
      0.598  0.0000E+00  0.0000E+00  0.1380E+00  0.1380E+00
      0.635  0.0000E+00  0.0000E+00  0.1380E+00  0.1380E+00
      0.672  0.0000E+00  0.0000E+00  0.1400E+00  0.1400E+00
      0.709  0.0000E+00  0.0000E+00  0.1420E+00  0.1420E+00
      0.747  0.0000E+00  0.0000E+00  0.1430E+00  0.1430E+00
      0.784  0.0000E+00  0.0000E+00  0.1430E+00  0.1430E+00
      0.821  0.0000E+00  0.0000E+00  0.1440E+00  0.1440E+00
      0.858  0.0000E+00  0.0000E+00  0.1440E+00  0.1440E+00
      0.896  0.0000E+00  0.0000E+00  0.1440E+00  0.1440E+00
      0.933  0.0000E+00  0.0000E+00  0.1440E+00  0.1440E+00
      0.970  0.0000E+00  0.0000E+00  0.1440E+00  0.1440E+00
      1.007  0.0000E+00  0.0000E+00  0.1440E+00  0.1440E+00
      1.044  0.0000E+00  0.0000E+00  0.1440E+00  0.1440E+00
      1.082  0.0000E+00  0.0000E+00  0.1440E+00  0.1440E+00
      1.119  0.0000E+00  0.0000E+00  0.1440E+00  0.1440E+00
      1.156  0.0000E+00  0.0000E+00  0.1440E+00  0.1440E+00
      1.193  0.0000E+00  0.0000E+00  0.1440E+00  0.1440E+00
      1.230  0.0000E+00  0.0000E+00  0.1440E+00  0.1440E+00
      1.268  0.0000E+00  0.0000E+00  0.1440E+00  0.1440E+00
      1.305  0.0000E+00  0.0000E+00  0.1440E+00  0.1440E+00
