<?xml version="1.0" encoding="ISO-8859-1"?>
<modeling>
 <generator>
  <i name="program" type="string">vasp </i>
  <i name="version" type="string">5.3.5  </i>
  <i name="subversion" type="string">31Mar14 (build Feb 01 2018 12:10:03) gamma-only                       parallel </i>
  <i name="platform" type="string">LinuxIFC </i>
  <i name="date" type="string">2019 03 21 </i>
  <i name="time" type="string">20:57:49 </i>
 </generator>
 <incar>
  <i type="string" name="PREC">normal</i>
  <i type="int" name="ISPIN">     2</i>
  <i type="int" name="IBRION">     2</i>
  <i type="int" name="NSW">  1000</i>
  <i type="int" name="ISIF">     2</i>
  <i name="POTIM">      0.10000000</i>
  <i type="logical" name="LPLANE"> T  </i>
  <i type="int" name="ISMEAR">     0</i>
  <i name="SIGMA">      0.00010000</i>
  <i type="logical" name="LWAVE"> F  </i>
  <i type="logical" name="LCHARG"> F  </i>
  <i type="logical" name="LVTOT"> F  </i>
  <i type="string" name="GGA"> PE</i>
 </incar>
 <kpoints>
  <varray name="kpointlist" >
   <v>       0.00000000       0.00000000       0.00000000 </v>
  </varray>
  <varray name="weights" >
   <v>       1.00000000 </v>
  </varray>
 </kpoints>
 <parameters>
  <separator name="general" >
   <i type="string" name="SYSTEM">unknown system</i>
   <i type="logical" name="LCOMPAT"> F  </i>
  </separator>
  <separator name="electronic" >
   <i type="string" name="PREC">normal</i>
   <i name="ENMAX">    249.84400000</i>
   <i name="ENAUG">    412.49600000</i>
   <i name="EDIFF">      0.00010000</i>
   <i type="int" name="IALGO">    38</i>
   <i type="int" name="IWAVPR">    11</i>
   <i type="int" name="NBANDS">   136</i>
   <i name="NELECT">    209.00000000</i>
   <i type="int" name="TURBO">     0</i>
   <i type="int" name="IRESTART">     0</i>
   <i type="int" name="NREBOOT">     0</i>
   <i type="int" name="NMIN">     0</i>
   <i name="EREF">      0.00000000</i>
   <separator name="electronic smearing" >
    <i type="int" name="ISMEAR">     0</i>
    <i name="SIGMA">      0.00010000</i>
    <i name="KSPACING">      0.50000000</i>
    <i type="logical" name="KGAMMA"> T  </i>
   </separator>
   <separator name="electronic projectors" >
    <i type="logical" name="LREAL"> F  </i>
    <v name="ROPT">      0.00000000</v>
    <i type="int" name="LMAXPAW">  -100</i>
    <i type="int" name="LMAXMIX">     2</i>
    <i type="logical" name="NLSPLINE"> F  </i>
   </separator>
   <separator name="electronic startup" >
    <i type="int" name="ISTART">     0</i>
    <i type="int" name="ICHARG">     2</i>
    <i type="int" name="INIWAV">     1</i>
   </separator>
   <separator name="electronic spin" >
    <i type="int" name="ISPIN">     2</i>
    <i type="logical" name="LNONCOLLINEAR"> F  </i>
    <v name="MAGMOM">      1.00000000      1.00000000      1.00000000      1.00000000      1.00000000      1.00000000      1.00000000      1.00000000      1.00000000      1.00000000      1.00000000      1.00000000      1.00000000      1.00000000      1.00000000      1.00000000      1.00000000      1.00000000      1.00000000</v>
    <i name="NUPDOWN">     -1.00000000</i>
    <i type="logical" name="LSORBIT"> F  </i>
    <v name="SAXIS">      0.00000000      0.00000000      1.00000000</v>
    <i type="logical" name="LSPIRAL"> F  </i>
    <v name="QSPIRAL">      0.00000000      0.00000000      0.00000000</v>
    <i type="logical" name="LZEROZ"> F  </i>
   </separator>
   <separator name="electronic exchange-correlation" >
    <i type="logical" name="LASPH"> F  </i>
    <i type="logical" name="LMETAGGA"> F  </i>
   </separator>
   <separator name="electronic convergence" >
    <i type="int" name="NELM">    60</i>
    <i type="int" name="NELMDL">    -5</i>
    <i type="int" name="NELMIN">     2</i>
    <i name="ENINI">    249.84400000</i>
    <separator name="electronic convergence detail" >
     <i type="logical" name="LDIAG"> T  </i>
     <i type="logical" name="LSUBROT"> F  </i>
     <i name="WEIMIN">      0.00100000</i>
     <i name="EBREAK">      0.00000018</i>
     <i name="DEPER">      0.30000000</i>
     <i type="int" name="NRMM">     4</i>
     <i name="TIME">      0.40000000</i>
    </separator>
   </separator>
   <separator name="electronic mixer" >
    <i name="AMIX">      0.40000000</i>
    <i name="BMIX">      1.00000000</i>
    <i name="AMIN">      0.10000000</i>
    <i name="AMIX_MAG">      1.60000000</i>
    <i name="BMIX_MAG">      1.00000000</i>
    <separator name="electronic mixer details" >
     <i type="int" name="IMIX">     4</i>
     <i type="int" name="MAXMIX">   -45</i>
     <i name="WC">    100.00000000</i>
     <i type="int" name="INIMIX">     1</i>
     <i type="int" name="MIXPRE">     1</i>
     <i type="int" name="MREMOVE">     5</i>
    </separator>
   </separator>
   <separator name="electronic dipolcorrection" >
    <i type="logical" name="LDIPOL"> F  </i>
    <i type="logical" name="LMONO"> F  </i>
    <i type="int" name="IDIPOL">     0</i>
    <i name="EPSILON">      1.00000000</i>
    <v name="DIPOL">   -100.00000000   -100.00000000   -100.00000000</v>
    <i name="EFIELD">      0.00000000</i>
   </separator>
  </separator>
  <separator name="grids" >
   <i type="int" name="NGX">    80</i>
   <i type="int" name="NGY">    80</i>
   <i type="int" name="NGZ">    80</i>
   <i type="int" name="NGXF">   160</i>
   <i type="int" name="NGYF">   160</i>
   <i type="int" name="NGZF">   160</i>
   <i type="logical" name="ADDGRID"> F  </i>
  </separator>
  <separator name="ionic" >
   <i type="int" name="NSW">  1000</i>
   <i type="int" name="IBRION">     2</i>
   <i type="int" name="ISIF">     2</i>
   <i name="PSTRESS">      0.00000000</i>
   <i name="EDIFFG">      0.00100000</i>
   <i type="int" name="NFREE">     1</i>
   <i name="POTIM">      0.10000000</i>
   <i name="SMASS">     -3.00000000</i>
   <i name="SCALEE">      1.00000000</i>
  </separator>
  <separator name="ionic md" >
   <i name="TEBEG">      0.00010000</i>
   <i name="TEEND">      0.00010000</i>
   <i type="int" name="NBLOCK">     1</i>
   <i type="int" name="KBLOCK">  1000</i>
   <i type="int" name="NPACO">   256</i>
   <i name="APACO">     16.00000000</i>
  </separator>
  <separator name="symmetry" >
   <i type="int" name="ISYM">     2</i>
   <i name="SYMPREC">      0.00001000</i>
  </separator>
  <separator name="dos" >
   <i type="logical" name="LORBIT"> F  </i>
   <v name="RWIGS">     -1.00000000</v>
   <i type="int" name="NEDOS">   301</i>
   <i name="EMIN">     10.00000000</i>
   <i name="EMAX">    -10.00000000</i>
   <i name="EFERMI">      0.00000000</i>
  </separator>
  <separator name="writing" >
   <i type="int" name="NWRITE">     2</i>
   <i type="logical" name="LWAVE"> F  </i>
   <i type="logical" name="LCHARG"> F  </i>
   <i type="logical" name="LPARD"> F  </i>
   <i type="logical" name="LVTOT"> F  </i>
   <i type="logical" name="LVHAR"> F  </i>
   <i type="logical" name="LELF"> F  </i>
   <i type="logical" name="LOPTICS"> F  </i>
   <v name="STM">      0.00000000      0.00000000      0.00000000      0.00000000      0.00000000      0.00000000      0.00000000</v>
  </separator>
  <separator name="performance" >
   <i type="int" name="NPAR">     4</i>
   <i type="int" name="NSIM">     4</i>
   <i type="int" name="NBLK">    -1</i>
   <i type="logical" name="LPLANE"> T  </i>
   <i type="logical" name="LSCALAPACK"> T  </i>
   <i type="logical" name="LSCAAWARE"> F  </i>
   <i type="logical" name="LSCALU"> F  </i>
   <i type="logical" name="LASYNC"> F  </i>
   <i type="logical" name="LORBITALREAL"> F  </i>
  </separator>
  <separator name="miscellaneous" >
   <i type="int" name="IDIOT">     3</i>
   <i type="logical" name="LMUSIC"> F  </i>
   <v name="POMASS">    107.86800000</v>
   <v name="DARWINR">      0.00000000</v>
   <v name="DARWINV">      1.00000000</v>
   <i type="logical" name="LCORR"> T  </i>
  </separator>
  <i type="logical" name="GGA_COMPAT"> T  </i>
  <i type="logical" name="LBERRY"> F  </i>
  <i type="int" name="ICORELEVEL">     0</i>
  <i type="logical" name="LDAU"> F  </i>
  <i type="int" name="I_CONSTRAINED_M">     0</i>
  <separator name="electronic exchange-correlation" >
   <i type="string" name="GGA">PE</i>
   <i type="int" name="VOSKOWN">     0</i>
   <i type="logical" name="LHFCALC"> F  </i>
   <i type="string" name="PRECFOCK"></i>
   <i type="logical" name="LSYMGRAD"> F  </i>
   <i type="logical" name="LHFONE"> F  </i>
   <i type="logical" name="LRHFCALC"> F  </i>
   <i type="logical" name="LTHOMAS"> F  </i>
   <i type="logical" name="LMODELHF"> F  </i>
   <i name="ENCUT4O">     -1.00000000</i>
   <i type="int" name="EXXOEP">     0</i>
   <i type="int" name="FOURORBIT">     0</i>
   <i name="AEXX">      0.00000000</i>
   <i name="HFALPHA">      0.00000000</i>
   <i name="MCALPHA">      0.00000000</i>
   <i name="ALDAX">      1.00000000</i>
   <i name="AGGAX">      1.00000000</i>
   <i name="ALDAC">      1.00000000</i>
   <i name="AGGAC">      1.00000000</i>
   <i type="int" name="NKREDX">     1</i>
   <i type="int" name="NKREDY">     1</i>
   <i type="int" name="NKREDZ">     1</i>
   <i type="logical" name="SHIFTRED"> F  </i>
   <i type="logical" name="ODDONLY"> F  </i>
   <i type="logical" name="EVENONLY"> F  </i>
   <i type="int" name="LMAXFOCK">     0</i>
   <i type="int" name="NMAXFOCKAE">     0</i>
   <i type="logical" name="LFOCKAEDFT"> F  </i>
   <i name="HFSCREEN">      0.00000000</i>
   <i name="HFSCREENC">      0.00000000</i>
   <i type="int" name="NBANDSGWLOW">     0</i>
  </separator>
  <separator name="vdW DFT" >
   <i type="logical" name="LUSE_VDW"> F  </i>
   <i name="Zab_VDW">     -0.84910000</i>
   <i name="PARAM1">      0.12340000</i>
   <i name="PARAM2">      1.00000000</i>
   <i name="PARAM3">      0.00000000</i>
  </separator>
  <separator name="model GW" >
   <i type="int" name="MODEL_GW">     0</i>
   <i name="MODEL_EPS0">    252.07289997</i>
   <i name="MODEL_ALPHA">      1.00000000</i>
  </separator>
  <separator name="linear response parameters" >
   <i type="logical" name="LEPSILON"> F  </i>
   <i type="logical" name="LRPA"> F  </i>
   <i type="logical" name="LNABLA"> F  </i>
   <i type="logical" name="LVEL"> F  </i>
   <i type="int" name="KINTER">     0</i>
   <i name="CSHIFT">      0.10000000</i>
   <i name="OMEGAMAX">     -1.00000000</i>
   <i name="DEG_THRESHOLD">      0.00200000</i>
  </separator>
  <separator name="orbital magnetization" >
   <i type="logical" name="NUCIND"> F  </i>
   <v name="MAGPOS">      0.00000000      0.00000000      0.00000000</v>
   <i type="logical" name="LNICSALL"> T  </i>
   <i type="logical" name="ORBITALMAG"> F  </i>
   <i type="logical" name="LMAGBLOCH"> F  </i>
   <i type="logical" name="LCHIMAG"> F  </i>
   <i type="logical" name="LGAUGE"> T  </i>
   <i type="int" name="MAGATOM">     0</i>
   <v name="MAGDIPOL">      0.00000000      0.00000000      0.00000000</v>
   <v name="AVECCONST">      0.00000000      0.00000000      0.00000000</v>
  </separator>
  <separator name="response functions" >
   <i type="logical" name="LADDER"> F  </i>
   <i type="logical" name="LFXC"> F  </i>
   <i type="logical" name="LHARTREE"> T  </i>
   <i type="int" name="IBSE">     0</i>
   <i type="logical" name="LTCTE"> F  </i>
   <i type="logical" name="LTETE"> F  </i>
   <i type="logical" name="LTRIPLET"> F  </i>
   <i type="logical" name="LFXCEPS"> F  </i>
   <i type="logical" name="LFXHEG"> F  </i>
   <i type="logical" name="L2ORDER"> F  </i>
   <i type="logical" name="LUSEW"> F  </i>
   <i name="ENCUTGW">     -2.00000000</i>
   <i name="ENCUTGWSOFT">     -2.00000000</i>
   <i name="ENCUTLF">     -1.00000000</i>
   <i type="int" name="LMAXMP2">    -1</i>
   <i name="SCISSOR">      0.00000000</i>
   <i type="int" name="NOMEGA">     0</i>
   <i type="int" name="NOMEGAR">     0</i>
   <i type="int" name="NBANDSGW">    -1</i>
   <i type="int" name="NBANDSO">    -1</i>
   <i type="int" name="NBANDSV">    -1</i>
   <i type="int" name="NELM">     1</i>
   <i type="int" name="DIM">     3</i>
   <i type="int" name="ANTIRES">     0</i>
   <i name="OMEGAMAX">    -30.00000000</i>
   <i name="OMEGAMIN">    -30.00000000</i>
   <i name="OMEGATL">   -200.00000000</i>
   <i type="int" name="OMEGAGRID">     0</i>
   <i name="CSHIFT">     -0.10000000</i>
   <i type="logical" name="SELFENERGY"> F  </i>
   <i type="logical" name="LSPECTRAL"> F  </i>
   <i type="logical" name="ODDONLYGW"> F  </i>
   <i type="logical" name="EVENONLYGW"> F  </i>
   <i type="int" name="NKREDLFX">     1</i>
   <i type="int" name="NKREDLFY">     1</i>
   <i type="int" name="NKREDLFZ">     1</i>
   <i type="int" name="MAXMEM">  1800</i>
   <i type="int" name="TELESCOPE">     0</i>
   <i type="int" name="TAUPAR">     1</i>
  </separator>
  <separator name="External order field" >
   <i name="OFIELD_KAPPA">      0.00000000</i>
   <v name="OFIELD_K">      0.00000000      0.00000000      0.00000000</v>
   <i name="OFIELD_Q6_NEAR">      0.00000000</i>
   <i name="OFIELD_Q6_FAR">      0.00000000</i>
   <i name="OFIELD_A">      0.00000000</i>
  </separator>
 </parameters>
 <atominfo>
  <atoms>      19 </atoms>
  <types>       1 </types>
  <array name="atoms" >
   <dimension dim="1">ion</dimension>
   <field type="string">element</field>
   <field type="int">atomtype</field>
   <set>
    <rc><c>Ag</c><c>   1</c></rc>
    <rc><c>Ag</c><c>   1</c></rc>
    <rc><c>Ag</c><c>   1</c></rc>
    <rc><c>Ag</c><c>   1</c></rc>
    <rc><c>Ag</c><c>   1</c></rc>
    <rc><c>Ag</c><c>   1</c></rc>
    <rc><c>Ag</c><c>   1</c></rc>
    <rc><c>Ag</c><c>   1</c></rc>
    <rc><c>Ag</c><c>   1</c></rc>
    <rc><c>Ag</c><c>   1</c></rc>
    <rc><c>Ag</c><c>   1</c></rc>
    <rc><c>Ag</c><c>   1</c></rc>
    <rc><c>Ag</c><c>   1</c></rc>
    <rc><c>Ag</c><c>   1</c></rc>
    <rc><c>Ag</c><c>   1</c></rc>
    <rc><c>Ag</c><c>   1</c></rc>
    <rc><c>Ag</c><c>   1</c></rc>
    <rc><c>Ag</c><c>   1</c></rc>
    <rc><c>Ag</c><c>   1</c></rc>
   </set>
  </array>
  <array name="atomtypes" >
   <dimension dim="1">type</dimension>
   <field type="int">atomspertype</field>
   <field type="string">element</field>
   <field>mass</field>
   <field>valence</field>
   <field type="string">pseudopotential</field>
   <set>
    <rc><c>  19</c><c>Ag</c><c>    107.86800000</c><c>     11.00000000</c><c>  PAW_PBE Ag 02Apr2005                  </c></rc>
   </set>
  </array>
 </atominfo>
 <structure name="initialpos" >
  <crystal>
   <varray name="basis" >
    <v>      19.98524620       0.00000000       0.00000000 </v>
    <v>       0.00000000      19.98524620       0.00000000 </v>
    <v>       0.00000000       0.00000000      19.98524620 </v>
   </varray>
   <i name="volume">   7982.30849897 </i>
   <varray name="rec_basis" >
    <v>       0.05003691       0.00000000       0.00000000 </v>
    <v>       0.00000000       0.05003691       0.00000000 </v>
    <v>       0.00000000       0.00000000       0.05003691 </v>
   </varray>
  </crystal>
  <varray name="positions" >
   <v>       0.65115748       0.65257410       0.52939107 </v>
   <v>       0.60227844       0.57648915       0.63846138 </v>
   <v>       0.65335052       0.50206391       0.53429533 </v>
   <v>       0.53595187       0.57240781       0.51303734 </v>
   <v>       0.51268114       0.63931449       0.38983681 </v>
   <v>       0.42701688       0.65763962       0.49212942 </v>
   <v>       0.63803771       0.56868945       0.41506007 </v>
   <v>       0.47518386       0.64733939       0.61761379 </v>
   <v>       0.47702812       0.52862454       0.68881874 </v>
   <v>       0.41023013       0.53484177       0.56412874 </v>
   <v>       0.40884828       0.41691452       0.64629494 </v>
   <v>       0.43206620       0.53022185       0.42722799 </v>
   <v>       0.53674646       0.45168159       0.58697792 </v>
   <v>       0.55808606       0.44735784       0.45062724 </v>
   <v>       0.53452136       0.51634123       0.33006651 </v>
   <v>       0.42052499       0.41835972       0.49972340 </v>
   <v>       0.48115752       0.32266587       0.57996793 </v>
   <v>       0.45354763       0.40830590       0.35652549 </v>
   <v>       0.50102988       0.31863415       0.44714228 </v>
  </varray>
 </structure>
 <calculation>
  <scstep>
   <time name="dav">    1.54    1.55</time>
   <time name="total">    1.79    1.82</time>
   <energy>
    <i name="alphaZ">     38.46740363 </i>
    <i name="ewald">  30933.25770672 </i>
    <i name="hartreedc"> -49810.98765545 </i>
    <i name="XCdc">   -209.59402812 </i>
    <i name="pawpsdc">  19064.07138332 </i>
    <i name="pawaedc"> -18188.02756870 </i>
    <i name="eentropy">      0.00000000 </i>
    <i name="bandstr">    318.76636029 </i>
    <i name="atom">  19706.77397164 </i>
    <i name="e_fr_energy">   1852.72757333 </i>
    <i name="e_wo_entrp">   1852.72757333 </i>
    <i name="e_0_energy">   1852.72757333 </i>
   </energy>
  </scstep>
  <scstep>
   <time name="dav">    2.54    2.54</time>
   <time name="total">    2.54    2.55</time>
   <energy>
    <i name="e_fr_energy">    475.21236215 </i>
    <i name="e_wo_entrp">    475.21236215 </i>
    <i name="e_0_energy">    475.21236215 </i>
   </energy>
  </scstep>
  <scstep>
   <time name="dav">    2.00    2.00</time>
   <time name="total">    2.00    2.01</time>
   <energy>
    <i name="e_fr_energy">     -8.13590323 </i>
    <i name="e_wo_entrp">     -8.13590323 </i>
    <i name="e_0_energy">     -8.13590323 </i>
   </energy>
  </scstep>
  <scstep>
   <time name="dav">    1.68    1.68</time>
   <time name="total">    1.68    1.69</time>
   <energy>
    <i name="e_fr_energy">    -37.27230906 </i>
    <i name="e_wo_entrp">    -37.27230906 </i>
    <i name="e_0_energy">    -37.27230906 </i>
   </energy>
  </scstep>
  <scstep>
   <time name="dav">    1.76    1.76</time>
   <time name="total">    1.85    1.86</time>
   <energy>
    <i name="e_fr_energy">    -37.68463685 </i>
    <i name="e_wo_entrp">    -37.68463685 </i>
    <i name="e_0_energy">    -37.68463685 </i>
   </energy>
  </scstep>
  <scstep>
   <time name="dav">    1.59    1.59</time>
   <time name="total">    1.91    1.91</time>
   <energy>
    <i name="e_fr_energy">    -11.20433706 </i>
    <i name="e_wo_entrp">    -11.20433706 </i>
    <i name="e_0_energy">    -11.20433706 </i>
   </energy>
  </scstep>
  <scstep>
   <time name="dav">    1.66    1.66</time>
   <time name="total">    1.98    1.98</time>
   <energy>
    <i name="e_fr_energy">     -9.58460939 </i>
    <i name="e_wo_entrp">     -9.58460939 </i>
    <i name="e_0_energy">     -9.58460939 </i>
   </energy>
  </scstep>
  <scstep>
   <time name="dav">    1.68    1.68</time>
   <time name="total">    2.00    2.04</time>
   <energy>
    <i name="e_fr_energy">    -11.98132521 </i>
    <i name="e_wo_entrp">    -11.98132521 </i>
    <i name="e_0_energy">    -11.98132521 </i>
   </energy>
  </scstep>
  <scstep>
   <time name="dav">    1.74    1.73</time>
   <time name="total">    2.05    2.05</time>
   <energy>
    <i name="e_fr_energy">    -12.15556463 </i>
    <i name="e_wo_entrp">    -12.15556463 </i>
    <i name="e_0_energy">    -12.15556463 </i>
   </energy>
  </scstep>
  <scstep>
   <time name="dav">    1.63    1.63</time>
   <time name="total">    1.95    1.95</time>
   <energy>
    <i name="e_fr_energy">    -17.25244112 </i>
    <i name="e_wo_entrp">    -17.25244112 </i>
    <i name="e_0_energy">    -17.25244112 </i>
   </energy>
  </scstep>
  <scstep>
   <time name="dav">    1.62    1.63</time>
   <time name="total">    1.94    1.95</time>
   <energy>
    <i name="e_fr_energy">    -25.99254226 </i>
    <i name="e_wo_entrp">    -25.99254226 </i>
    <i name="e_0_energy">    -25.99254226 </i>
   </energy>
  </scstep>
  <scstep>
   <time name="dav">    1.83    1.83</time>
   <time name="total">    2.16    2.16</time>
   <energy>
    <i name="e_fr_energy">    -26.53171650 </i>
    <i name="e_wo_entrp">    -26.53171650 </i>
    <i name="e_0_energy">    -26.53171650 </i>
   </energy>
  </scstep>
  <scstep>
   <time name="dav">    1.66    1.66</time>
   <time name="total">    1.98    1.99</time>
   <energy>
    <i name="e_fr_energy">    -28.49278787 </i>
    <i name="e_wo_entrp">    -28.49278787 </i>
    <i name="e_0_energy">    -28.49278787 </i>
   </energy>
  </scstep>
  <scstep>
   <time name="dav">    1.63    1.63</time>
   <time name="total">    1.95    1.96</time>
   <energy>
    <i name="e_fr_energy">    -32.63228845 </i>
    <i name="e_wo_entrp">    -32.63228845 </i>
    <i name="e_0_energy">    -32.63228845 </i>
   </energy>
  </scstep>
  <scstep>
   <time name="dav">    1.66    1.67</time>
   <time name="total">    1.99    1.99</time>
   <energy>
    <i name="e_fr_energy">    -34.60132102 </i>
    <i name="e_wo_entrp">    -34.60132102 </i>
    <i name="e_0_energy">    -34.60132102 </i>
   </energy>
  </scstep>
  <scstep>
   <time name="dav">    1.65    1.65</time>
   <time name="total">    1.97    1.97</time>
   <energy>
    <i name="e_fr_energy">    -35.60290269 </i>
    <i name="e_wo_entrp">    -35.60290269 </i>
    <i name="e_0_energy">    -35.60290269 </i>
   </energy>
  </scstep>
  <scstep>
   <time name="dav">    1.59    1.60</time>
   <time name="total">    1.92    2.08</time>
   <energy>
    <i name="e_fr_energy">    -36.62278703 </i>
    <i name="e_wo_entrp">    -36.62278703 </i>
    <i name="e_0_energy">    -36.62278703 </i>
   </energy>
  </scstep>
  <scstep>
   <time name="dav">    1.68    1.68</time>
   <time name="total">    2.00    2.01</time>
   <energy>
    <i name="e_fr_energy">    -36.89829394 </i>
    <i name="e_wo_entrp">    -36.89829394 </i>
    <i name="e_0_energy">    -36.89829394 </i>
   </energy>
  </scstep>
  <scstep>
   <time name="dav">    1.70    1.70</time>
   <time name="total">    2.02    2.07</time>
   <energy>
    <i name="e_fr_energy">    -37.05815790 </i>
    <i name="e_wo_entrp">    -37.05815790 </i>
    <i name="e_0_energy">    -37.05815790 </i>
   </energy>
  </scstep>
  <scstep>
   <time name="dav">    1.67    1.67</time>
   <time name="total">    2.00    2.01</time>
   <energy>
    <i name="e_fr_energy">    -37.11155161 </i>
    <i name="e_wo_entrp">    -37.11155161 </i>
    <i name="e_0_energy">    -37.11155161 </i>
   </energy>
  </scstep>
  <scstep>
   <time name="dav">    1.43    1.43</time>
   <time name="total">    1.75    1.77</time>
   <energy>
    <i name="e_fr_energy">    -37.12328867 </i>
    <i name="e_wo_entrp">    -37.12328867 </i>
    <i name="e_0_energy">    -37.12328867 </i>
   </energy>
  </scstep>
  <scstep>
   <time name="dav">    1.28    1.28</time>
   <time name="total">    1.60    1.62</time>
   <energy>
    <i name="e_fr_energy">    -37.12341925 </i>
    <i name="e_wo_entrp">    -37.12341925 </i>
    <i name="e_0_energy">    -37.12341925 </i>
   </energy>
  </scstep>
  <scstep>
   <time name="dav">    1.28    1.28</time>
   <time name="total">    1.60    1.61</time>
   <energy>
    <i name="e_fr_energy">    -37.12570726 </i>
    <i name="e_wo_entrp">    -37.12570726 </i>
    <i name="e_0_energy">    -37.12570726 </i>
   </energy>
  </scstep>
  <scstep>
   <time name="dav">    1.26    1.26</time>
   <time name="total">    1.58    1.60</time>
   <energy>
    <i name="e_fr_energy">    -37.12936363 </i>
    <i name="e_wo_entrp">    -37.12936363 </i>
    <i name="e_0_energy">    -37.12936363 </i>
   </energy>
  </scstep>
  <scstep>
   <time name="dav">    1.24    1.24</time>
   <time name="total">    1.57    1.57</time>
   <energy>
    <i name="e_fr_energy">    -37.13065243 </i>
    <i name="e_wo_entrp">    -37.13065243 </i>
    <i name="e_0_energy">    -37.13065243 </i>
   </energy>
  </scstep>
  <scstep>
   <time name="dav">    1.23    1.23</time>
   <time name="total">    1.55    1.59</time>
   <energy>
    <i name="e_fr_energy">    -37.13088786 </i>
    <i name="e_wo_entrp">    -37.13088786 </i>
    <i name="e_0_energy">    -37.13088786 </i>
   </energy>
  </scstep>
  <scstep>
   <time name="dav">    1.23    1.23</time>
   <time name="total">    1.46    1.64</time>
   <energy>
    <i name="alphaZ">     38.46740363 </i>
    <i name="ewald">  30933.25770672 </i>
    <i name="hartreedc"> -49796.17724291 </i>
    <i name="XCdc">   -216.31874993 </i>
    <i name="pawpsdc">  20540.58319907 </i>
    <i name="pawaedc"> -19697.64134577 </i>
    <i name="eentropy">      0.00000000 </i>
    <i name="bandstr">  -1546.07577466 </i>
    <i name="atom">  19706.77397164 </i>
    <i name="e_fr_energy">    -37.13083221 </i>
    <i name="e_wo_entrp">    -37.13083221 </i>
    <i name="e_0_energy">    -37.13083221 </i>
   </energy>
  </scstep>
  <structure>
   <crystal>
    <varray name="basis" >
     <v>      19.98524620       0.00000000       0.00000000 </v>
     <v>       0.00000000      19.98524620       0.00000000 </v>
     <v>       0.00000000       0.00000000      19.98524620 </v>
    </varray>
    <i name="volume">   7982.30849897 </i>
    <varray name="rec_basis" >
     <v>       0.05003691       0.00000000       0.00000000 </v>
     <v>       0.00000000       0.05003691       0.00000000 </v>
     <v>       0.00000000       0.00000000       0.05003691 </v>
    </varray>
   </crystal>
   <varray name="positions" >
    <v>       0.65115748       0.65257410       0.52939107 </v>
    <v>       0.60227844       0.57648915       0.63846138 </v>
    <v>       0.65335052       0.50206391       0.53429533 </v>
    <v>       0.53595187       0.57240781       0.51303734 </v>
    <v>       0.51268114       0.63931449       0.38983681 </v>
    <v>       0.42701688       0.65763962       0.49212942 </v>
    <v>       0.63803771       0.56868945       0.41506007 </v>
    <v>       0.47518386       0.64733939       0.61761379 </v>
    <v>       0.47702812       0.52862454       0.68881874 </v>
    <v>       0.41023013       0.53484177       0.56412874 </v>
    <v>       0.40884828       0.41691452       0.64629494 </v>
    <v>       0.43206620       0.53022185       0.42722799 </v>
    <v>       0.53674646       0.45168159       0.58697792 </v>
    <v>       0.55808606       0.44735784       0.45062724 </v>
    <v>       0.53452136       0.51634123       0.33006651 </v>
    <v>       0.42052499       0.41835972       0.49972340 </v>
    <v>       0.48115752       0.32266587       0.57996793 </v>
    <v>       0.45354763       0.40830590       0.35652549 </v>
    <v>       0.50102988       0.31863415       0.44714228 </v>
   </varray>
  </structure>
  <varray name="forces" >
   <v>      -0.00373415      -0.35372989      -0.02033253 </v>
   <v>      -0.21349692      -0.02757034       0.10728448 </v>
   <v>       0.47444237       0.01552873       0.09503626 </v>
   <v>       0.18560253       0.43292116       0.02942472 </v>
   <v>       0.21837815      -0.04185336      -0.22250624 </v>
   <v>      -0.50985277       0.16228986      -0.08455444 </v>
   <v>      -0.14506370      -0.00875512      -0.19138886 </v>
   <v>       0.15024268      -0.01762441       0.26975041 </v>
   <v>       0.12153327       0.10587614      -0.02275188 </v>
   <v>      -0.31696914       0.26271228       0.45196455 </v>
   <v>      -0.13250220       0.18529446      -0.08569668 </v>
   <v>      -0.14630528       0.23326715      -0.51576248 </v>
   <v>      -0.08725057      -0.21603180       0.40338357 </v>
   <v>       0.07051439      -0.24337509      -0.38112240 </v>
   <v>       0.14162691       0.11153511       0.05900990 </v>
   <v>      -0.02320900      -0.51935241       0.01022853 </v>
   <v>       0.17671108      -0.12281388       0.13659037 </v>
   <v>      -0.17616306       0.19225152       0.02873092 </v>
   <v>       0.21549540      -0.15057011      -0.06728822 </v>
  </varray>
  <varray name="stress" >
   <v>      -0.77197614      -0.35726708      -0.04969177 </v>
   <v>      -0.35726708      -0.96867023      -0.04750668 </v>
   <v>      -0.04969177      -0.04750668      -0.58454547 </v>
  </varray>
  <energy>
   <i name="e_fr_energy">    -37.13083221 </i>
   <i name="e_wo_entrp">    -37.13083221 </i>
   <i name="e_0_energy">      0.00000000 </i>
  </energy>
  <time name="totalsc">   53.56   54.22</time>
 </calculation>
 <calculation>
  <scstep>
   <time name="dav">    1.71    1.71</time>
   <time name="total">    2.03    2.04</time>
   <energy>
    <i name="alphaZ">     38.46740363 </i>
    <i name="ewald">  30898.31477890 </i>
    <i name="hartreedc"> -49761.43935226 </i>
    <i name="XCdc">   -216.37007161 </i>
    <i name="pawpsdc">  20540.64701737 </i>
    <i name="pawaedc"> -19697.70605499 </i>
    <i name="eentropy">      0.00000000 </i>
    <i name="bandstr">  -1545.84484313 </i>
    <i name="atom">  19706.77397164 </i>
    <i name="e_fr_energy">    -37.15715045 </i>
    <i name="e_wo_entrp">    -37.15715045 </i>
    <i name="e_0_energy">    -37.15715045 </i>
   </energy>
  </scstep>
  <scstep>
   <time name="dav">    1.64    1.64</time>
   <time name="total">    1.96    1.97</time>
   <energy>
    <i name="e_fr_energy">    -37.15808881 </i>
    <i name="e_wo_entrp">    -37.15808881 </i>
    <i name="e_0_energy">    -37.15808881 </i>
   </energy>
  </scstep>
  <scstep>
   <time name="dav">    1.23    1.23</time>
   <time name="total">    1.46    1.48</time>
   <energy>
    <i name="alphaZ">     38.46740363 </i>
    <i name="ewald">  30898.31477890 </i>
    <i name="hartreedc"> -49761.70787444 </i>
    <i name="XCdc">   -216.36433939 </i>
    <i name="pawpsdc">  20535.84551621 </i>
    <i name="pawaedc"> -19692.82728667 </i>
    <i name="eentropy">      0.00000000 </i>
    <i name="bandstr">  -1545.66027683 </i>
    <i name="atom">  19706.77397164 </i>
    <i name="e_fr_energy">    -37.15810695 </i>
    <i name="e_wo_entrp">    -37.15810695 </i>
    <i name="e_0_energy">    -37.15810695 </i>
   </energy>
  </scstep>
  <structure>
   <crystal>
    <varray name="basis" >
     <v>      19.98524620       0.00000000       0.00000000 </v>
     <v>       0.00000000      19.98524620       0.00000000 </v>
     <v>       0.00000000       0.00000000      19.98524620 </v>
    </varray>
    <i name="volume">   7982.30849897 </i>
    <varray name="rec_basis" >
     <v>       0.05003691       0.00000000       0.00000000 </v>
     <v>       0.00000000       0.05003691       0.00000000 </v>
     <v>       0.00000000       0.00000000       0.05003691 </v>
    </varray>
   </crystal>
   <varray name="positions" >
    <v>       0.65115568       0.65240333       0.52938125 </v>
    <v>       0.60217537       0.57647584       0.63851318 </v>
    <v>       0.65357958       0.50207140       0.53434121 </v>
    <v>       0.53604147       0.57261682       0.51305155 </v>
    <v>       0.51278657       0.63929428       0.38972939 </v>
    <v>       0.42677074       0.65771797       0.49208860 </v>
    <v>       0.63796768       0.56868522       0.41496767 </v>
    <v>       0.47525640       0.64733088       0.61774402 </v>
    <v>       0.47708680       0.52867566       0.68880776 </v>
    <v>       0.41007710       0.53496861       0.56434694 </v>
    <v>       0.40878431       0.41700398       0.64625357 </v>
    <v>       0.43199556       0.53033447       0.42697899 </v>
    <v>       0.53670434       0.45157730       0.58717267 </v>
    <v>       0.55812010       0.44724034       0.45044324 </v>
    <v>       0.53458973       0.51639508       0.33009500 </v>
    <v>       0.42051378       0.41810899       0.49972834 </v>
    <v>       0.48124284       0.32260658       0.58003387 </v>
    <v>       0.45346258       0.40839872       0.35653936 </v>
    <v>       0.50113391       0.31856146       0.44710979 </v>
   </varray>
  </structure>
  <varray name="forces" >
   <v>       0.00593111      -0.33564190      -0.01876402 </v>
   <v>      -0.19968093      -0.03172129       0.09973119 </v>
   <v>       0.42230250       0.01180188       0.08512740 </v>
   <v>       0.15432668       0.38361570       0.02468849 </v>
   <v>       0.19790119      -0.03058362      -0.19850014 </v>
   <v>      -0.47377851       0.14128174      -0.07934702 </v>
   <v>      -0.13551121      -0.01523842      -0.17681395 </v>
   <v>       0.13851747      -0.00884102       0.24246750 </v>
   <v>       0.11336271       0.09725221      -0.01178020 </v>
   <v>      -0.29010274       0.23196605       0.38911443 </v>
   <v>      -0.12782275       0.17512437      -0.08550604 </v>
   <v>      -0.14095348       0.20765826      -0.44748837 </v>
   <v>      -0.06572267      -0.18927975       0.35187291 </v>
   <v>       0.07301742      -0.21375598      -0.32865150 </v>
   <v>       0.13598086       0.10102236       0.04678223 </v>
   <v>      -0.01798197      -0.44322727       0.00866176 </v>
   <v>       0.17263282      -0.11875038       0.13180830 </v>
   <v>      -0.16989285       0.18243316       0.03151227 </v>
   <v>       0.20747436      -0.14511610      -0.06491523 </v>
  </varray>
  <varray name="stress" >
   <v>      -0.80503300      -0.35335906      -0.04257039 </v>
   <v>      -0.35335907      -1.01764633      -0.04654485 </v>
   <v>      -0.04257040      -0.04654486      -0.65926389 </v>
  </varray>
  <energy>
   <i name="e_fr_energy">    -37.15810695 </i>
   <i name="e_wo_entrp">    -37.15810695 </i>
   <i name="e_0_energy">      0.00000000 </i>
  </energy>
  <time name="totalsc">    8.19    8.26</time>
 </calculation>
 <calculation>
  <scstep>
   <time name="dav">    1.60    1.61</time>
   <time name="total">    1.92    1.98</time>
   <energy>
    <i name="alphaZ">     38.46740363 </i>
    <i name="ewald">  30794.08201237 </i>
    <i name="hartreedc"> -49658.35996427 </i>
    <i name="XCdc">   -216.51029051 </i>
    <i name="pawpsdc">  20532.91445178 </i>
    <i name="pawaedc"> -19689.85455247 </i>
    <i name="eentropy">      0.00000000 </i>
    <i name="bandstr">  -1544.73072562 </i>
    <i name="atom">  19706.77397164 </i>
    <i name="e_fr_energy">    -37.21769346 </i>
    <i name="e_wo_entrp">    -37.21769346 </i>
    <i name="e_0_energy">    -37.21769346 </i>
   </energy>
  </scstep>
  <scstep>
   <time name="dav">    1.71    1.71</time>
   <time name="total">    2.03    2.03</time>
   <energy>
    <i name="e_fr_energy">    -37.22553198 </i>
    <i name="e_wo_entrp">    -37.22553198 </i>
    <i name="e_0_energy">    -37.22553198 </i>
   </energy>
  </scstep>
  <scstep>
   <time name="dav">    1.69    1.69</time>
   <time name="total">    2.01    2.51</time>
   <energy>
    <i name="e_fr_energy">    -37.22536735 </i>
    <i name="e_wo_entrp">    -37.22536735 </i>
    <i name="e_0_energy">    -37.22536735 </i>
   </energy>
  </scstep>
  <scstep>
   <time name="dav">    1.68    1.68</time>
   <time name="total">    2.00    2.05</time>
   <energy>
    <i name="e_fr_energy">    -37.22526543 </i>
    <i name="e_wo_entrp">    -37.22526543 </i>
    <i name="e_0_energy">    -37.22526543 </i>
   </energy>
  </scstep>
  <scstep>
   <time name="dav">    1.22    1.22</time>
   <time name="total">    1.45    1.47</time>
   <energy>
    <i name="alphaZ">     38.46740363 </i>
    <i name="ewald">  30794.08201237 </i>
    <i name="hartreedc"> -49659.31519523 </i>
    <i name="XCdc">   -216.48849851 </i>
    <i name="pawpsdc">  20510.38139179 </i>
    <i name="pawaedc"> -19666.96694407 </i>
    <i name="eentropy">      0.00000000 </i>
    <i name="bandstr">  -1544.15940607 </i>
    <i name="atom">  19706.77397164 </i>
    <i name="e_fr_energy">    -37.22526446 </i>
    <i name="e_wo_entrp">    -37.22526446 </i>
    <i name="e_0_energy">    -37.22526446 </i>
   </energy>
  </scstep>
  <structure>
   <crystal>
    <varray name="basis" >
     <v>      19.98524620       0.00000000       0.00000000 </v>
     <v>       0.00000000      19.98524620       0.00000000 </v>
     <v>       0.00000000       0.00000000      19.98524620 </v>
    </varray>
    <i name="volume">   7982.30849897 </i>
    <varray name="rec_basis" >
     <v>       0.05003691       0.00000000       0.00000000 </v>
     <v>       0.00000000       0.05003691       0.00000000 </v>
     <v>       0.00000000       0.00000000       0.05003691 </v>
    </varray>
   </crystal>
   <varray name="positions" >
    <v>       0.65115027       0.65189100       0.52935180 </v>
    <v>       0.60186615       0.57643590       0.63866856 </v>
    <v>       0.65426673       0.50209389       0.53447886 </v>
    <v>       0.53631029       0.57324384       0.51309416 </v>
    <v>       0.51310286       0.63923366       0.38940713 </v>
    <v>       0.42603229       0.65795302       0.49196613 </v>
    <v>       0.63775757       0.56867254       0.41469048 </v>
    <v>       0.47547400       0.64730536       0.61813471 </v>
    <v>       0.47726282       0.52882900       0.68877480 </v>
    <v>       0.40961802       0.53534911       0.56500155 </v>
    <v>       0.40859240       0.41727235       0.64612945 </v>
    <v>       0.43178366       0.53067232       0.42623199 </v>
    <v>       0.53657797       0.45126441       0.58775691 </v>
    <v>       0.55822223       0.44688785       0.44989124 </v>
    <v>       0.53479486       0.51655662       0.33018047 </v>
    <v>       0.42048017       0.41735679       0.49974315 </v>
    <v>       0.48149878       0.32242870       0.58023170 </v>
    <v>       0.45320744       0.40867716       0.35658097 </v>
    <v>       0.50144603       0.31834338       0.44701233 </v>
   </varray>
  </structure>
  <varray name="forces" >
   <v>       0.03475518      -0.30881072      -0.01599257 </v>
   <v>      -0.17564540      -0.04566748       0.08533569 </v>
   <v>       0.31299058       0.00398296       0.06390329 </v>
   <v>       0.07797109       0.27536631       0.01305973 </v>
   <v>       0.15598850      -0.00188654      -0.14801322 </v>
   <v>      -0.40911541       0.09168437      -0.07040379 </v>
   <v>      -0.11863295      -0.03351738      -0.14867179 </v>
   <v>       0.11568226       0.01473508       0.18615537 </v>
   <v>       0.09839046       0.08041958       0.01778013 </v>
   <v>      -0.23801121       0.16701623       0.24987907 </v>
   <v>      -0.12424729       0.15993071      -0.09221960 </v>
   <v>      -0.13594608       0.15617391      -0.29666429 </v>
   <v>      -0.01296294      -0.13156256       0.23794014 </v>
   <v>       0.08361865      -0.14963378      -0.21047397 </v>
   <v>       0.12942190       0.07923936       0.01602220 </v>
   <v>      -0.00574892      -0.27083470       0.00485207 </v>
   <v>       0.17797196      -0.11570293       0.12820788 </v>
   <v>      -0.16583860       0.16892362       0.04203742 </v>
   <v>       0.19935821      -0.13985602      -0.06273377 </v>
  </varray>
  <varray name="stress" >
   <v>      -0.89238614      -0.34005623      -0.02545377 </v>
   <v>      -0.34005623      -1.13808299      -0.04371900 </v>
   <v>      -0.02545377      -0.04371900      -0.84602440 </v>
  </varray>
  <energy>
   <i name="e_fr_energy">    -37.22526446 </i>
   <i name="e_wo_entrp">    -37.22526446 </i>
   <i name="e_0_energy">      0.00000000 </i>
  </energy>
  <time name="totalsc">   12.16   13.07</time>
 </calculation>
 <calculation>
  <scstep>
   <time name="dav">    1.61    1.61</time>
   <time name="total">    1.93    1.94</time>
   <energy>
    <i name="alphaZ">     38.46740363 </i>
    <i name="ewald">  30588.22160175 </i>
    <i name="hartreedc"> -49454.86011502 </i>
    <i name="XCdc">   -216.75904756 </i>
    <i name="pawpsdc">  20510.56262711 </i>
    <i name="pawaedc"> -19667.15140106 </i>
    <i name="eentropy">      0.00000000 </i>
    <i name="bandstr">  -1542.52675876 </i>
    <i name="atom">  19706.77397164 </i>
    <i name="e_fr_energy">    -37.27171828 </i>
    <i name="e_wo_entrp">    -37.27171828 </i>
    <i name="e_0_energy">    -37.27171828 </i>
   </energy>
  </scstep>
  <scstep>
   <time name="dav">    1.64    1.65</time>
   <time name="total">    1.96    1.97</time>
   <energy>
    <i name="e_fr_energy">    -37.30308906 </i>
    <i name="e_wo_entrp">    -37.30308906 </i>
    <i name="e_0_energy">    -37.30308906 </i>
   </energy>
  </scstep>
  <scstep>
   <time name="dav">    1.70    1.70</time>
   <time name="total">    2.02    2.03</time>
   <energy>
    <i name="e_fr_energy">    -37.30253519 </i>
    <i name="e_wo_entrp">    -37.30253519 </i>
    <i name="e_0_energy">    -37.30253519 </i>
   </energy>
  </scstep>
  <scstep>
   <time name="dav">    1.66    1.66</time>
   <time name="total">    1.98    2.01</time>
   <energy>
    <i name="e_fr_energy">    -37.30209970 </i>
    <i name="e_wo_entrp">    -37.30209970 </i>
    <i name="e_0_energy">    -37.30209970 </i>
   </energy>
  </scstep>
  <scstep>
   <time name="dav">    1.25    1.25</time>
   <time name="total">    1.49    1.49</time>
   <energy>
    <i name="alphaZ">     38.46740363 </i>
    <i name="ewald">  30588.22160175 </i>
    <i name="hartreedc"> -49456.70003736 </i>
    <i name="XCdc">   -216.71788158 </i>
    <i name="pawpsdc">  20472.23620748 </i>
    <i name="pawaedc"> -19628.19416892 </i>
    <i name="eentropy">      0.00000000 </i>
    <i name="bandstr">  -1541.38920860 </i>
    <i name="atom">  19706.77397164 </i>
    <i name="e_fr_energy">    -37.30211197 </i>
    <i name="e_wo_entrp">    -37.30211197 </i>
    <i name="e_0_energy">    -37.30211197 </i>
   </energy>
  </scstep>
  <structure>
   <crystal>
    <varray name="basis" >
     <v>      19.98524620       0.00000000       0.00000000 </v>
     <v>       0.00000000      19.98524620       0.00000000 </v>
     <v>       0.00000000       0.00000000      19.98524620 </v>
    </varray>
    <i name="volume">   7982.30849897 </i>
    <varray name="rec_basis" >
     <v>       0.05003691       0.00000000       0.00000000 </v>
     <v>       0.00000000       0.05003691       0.00000000 </v>
     <v>       0.00000000       0.00000000       0.05003691 </v>
    </varray>
   </crystal>
   <varray name="positions" >
    <v>       0.65113945       0.65086636       0.52929291 </v>
    <v>       0.60124771       0.57635604       0.63897933 </v>
    <v>       0.65564105       0.50213888       0.53475415 </v>
    <v>       0.53684792       0.57449788       0.51317940 </v>
    <v>       0.51373543       0.63911243       0.38876259 </v>
    <v>       0.42455540       0.65842312       0.49172120 </v>
    <v>       0.63733737       0.56864718       0.41413608 </v>
    <v>       0.47590921       0.64725430       0.61891610 </v>
    <v>       0.47761486       0.52913569       0.68870890 </v>
    <v>       0.40869986       0.53611010       0.56631075 </v>
    <v>       0.40820858       0.41780909       0.64588121 </v>
    <v>       0.43135986       0.53134803       0.42473798 </v>
    <v>       0.53632523       0.45063863       0.58892539 </v>
    <v>       0.55842649       0.44618287       0.44878725 </v>
    <v>       0.53520511       0.51687970       0.33035140 </v>
    <v>       0.42041294       0.41585238       0.49977278 </v>
    <v>       0.48201065       0.32207295       0.58062736 </v>
    <v>       0.45269715       0.40923406       0.35666419 </v>
    <v>       0.50207025       0.31790722       0.44681742 </v>
   </varray>
  </structure>
  <varray name="forces" >
   <v>       0.10220127      -0.23608241      -0.00781127 </v>
   <v>      -0.11401001      -0.07249230       0.05320812 </v>
   <v>       0.10233513      -0.00827290       0.02150330 </v>
   <v>      -0.07919389       0.06867813      -0.01200366 </v>
   <v>       0.07016949       0.05845255      -0.04952937 </v>
   <v>      -0.25988120      -0.01404055      -0.04804277 </v>
   <v>      -0.07459219      -0.06845429      -0.08576616 </v>
   <v>       0.06622370       0.06641817       0.07469477 </v>
   <v>       0.06105418       0.03917755       0.08158224 </v>
   <v>      -0.13857065       0.05312740      -0.00219904 </v>
   <v>      -0.11548464       0.12191266      -0.09948129 </v>
   <v>      -0.12654192       0.07594101      -0.02637429 </v>
   <v>       0.08929864      -0.02592467       0.02458618 </v>
   <v>       0.10238840      -0.03200684       0.01216103 </v>
   <v>       0.10763554       0.02692214      -0.05192834 </v>
   <v>       0.01419426       0.04503795      -0.00225536 </v>
   <v>       0.16761694      -0.10793463       0.11499082 </v>
   <v>      -0.15085148       0.13377919       0.05933752 </v>
   <v>       0.17600845      -0.12423816      -0.05667244 </v>
  </varray>
  <varray name="stress" >
   <v>      -1.03695381      -0.31000567       0.00762560 </v>
   <v>      -0.31000566      -1.35089322      -0.03736670 </v>
   <v>       0.00762560      -0.03736670      -1.18649942 </v>
  </varray>
  <energy>
   <i name="e_fr_energy">    -37.30211197 </i>
   <i name="e_wo_entrp">    -37.30211197 </i>
   <i name="e_0_energy">      0.00000000 </i>
  </energy>
  <time name="totalsc">   12.12   12.21</time>
 </calculation>
 <calculation>
  <scstep>
   <time name="dav">    1.61    1.61</time>
   <time name="total">    1.93    1.94</time>
   <energy>
    <i name="alphaZ">     38.46740363 </i>
    <i name="ewald">  30186.30479947 </i>
    <i name="hartreedc"> -49056.87917220 </i>
    <i name="XCdc">   -217.17211707 </i>
    <i name="pawpsdc">  20472.51176304 </i>
    <i name="pawaedc"> -19628.47464789 </i>
    <i name="eentropy">      0.00000000 </i>
    <i name="bandstr">  -1538.66983370 </i>
    <i name="atom">  19706.77397164 </i>
    <i name="e_fr_energy">    -37.13783308 </i>
    <i name="e_wo_entrp">    -37.13783308 </i>
    <i name="e_0_energy">    -37.13783308 </i>
   </energy>
  </scstep>
  <scstep>
   <time name="dav">    1.64    1.64</time>
   <time name="total">    1.96    1.97</time>
   <energy>
    <i name="e_fr_energy">    -37.26693294 </i>
    <i name="e_wo_entrp">    -37.26693294 </i>
    <i name="e_0_energy">    -37.26693294 </i>
   </energy>
  </scstep>
  <scstep>
   <time name="dav">    1.73    1.73</time>
   <time name="total">    2.05    2.05</time>
   <energy>
    <i name="e_fr_energy">    -37.26586820 </i>
    <i name="e_wo_entrp">    -37.26586820 </i>
    <i name="e_0_energy">    -37.26586820 </i>
   </energy>
  </scstep>
  <scstep>
   <time name="dav">    1.64    1.64</time>
   <time name="total">    1.96    1.97</time>
   <energy>
    <i name="e_fr_energy">    -37.26375753 </i>
    <i name="e_wo_entrp">    -37.26375753 </i>
    <i name="e_0_energy">    -37.26375753 </i>
   </energy>
  </scstep>
  <scstep>
   <time name="dav">    1.70    1.69</time>
   <time name="total">    2.02    2.02</time>
   <energy>
    <i name="e_fr_energy">    -37.26392148 </i>
    <i name="e_wo_entrp">    -37.26392148 </i>
    <i name="e_0_energy">    -37.26392148 </i>
   </energy>
  </scstep>
  <scstep>
   <time name="dav">    1.28    1.29</time>
   <time name="total">    1.52    1.69</time>
   <energy>
    <i name="alphaZ">     38.46740363 </i>
    <i name="ewald">  30186.30479947 </i>
    <i name="hartreedc"> -49059.82752621 </i>
    <i name="XCdc">   -217.09800496 </i>
    <i name="pawpsdc">  20417.53332803 </i>
    <i name="pawaedc"> -19572.50924822 </i>
    <i name="eentropy">      0.00000000 </i>
    <i name="bandstr">  -1536.90864220 </i>
    <i name="atom">  19706.77397164 </i>
    <i name="e_fr_energy">    -37.26391883 </i>
    <i name="e_wo_entrp">    -37.26391883 </i>
    <i name="e_0_energy">    -37.26391883 </i>
   </energy>
  </scstep>
  <structure>
   <crystal>
    <varray name="basis" >
     <v>      19.98524620       0.00000000       0.00000000 </v>
     <v>       0.00000000      19.98524620       0.00000000 </v>
     <v>       0.00000000       0.00000000      19.98524620 </v>
    </varray>
    <i name="volume">   7982.30849897 </i>
    <varray name="rec_basis" >
     <v>       0.05003691       0.00000000       0.00000000 </v>
     <v>       0.00000000       0.05003691       0.00000000 </v>
     <v>       0.00000000       0.00000000       0.05003691 </v>
    </varray>
   </crystal>
   <varray name="positions" >
    <v>       0.65111782       0.64881706       0.52917511 </v>
    <v>       0.60001084       0.57619632       0.63960087 </v>
    <v>       0.65838968       0.50222884       0.53530473 </v>
    <v>       0.53792319       0.57700596       0.51334987 </v>
    <v>       0.51500058       0.63886995       0.38747353 </v>
    <v>       0.42160163       0.65936333       0.49123135 </v>
    <v>       0.63649696       0.56859646       0.41302729 </v>
    <v>       0.47677962       0.64715220       0.62047887 </v>
    <v>       0.47831895       0.52974907       0.68857709 </v>
    <v>       0.40686353       0.53763210       0.56892916 </v>
    <v>       0.40744094       0.41888257       0.64538474 </v>
    <v>       0.43051226       0.53269943       0.42174996 </v>
    <v>       0.53581975       0.44938707       0.59126235 </v>
    <v>       0.55883500       0.44477290       0.44657925 </v>
    <v>       0.53602561       0.51752587       0.33069327 </v>
    <v>       0.42027848       0.41284357       0.49983204 </v>
    <v>       0.48303441       0.32136144       0.58141869 </v>
    <v>       0.45167656       0.41034785       0.35683064 </v>
    <v>       0.50331870       0.31703491       0.44642759 </v>
   </varray>
  </structure>
  <varray name="forces" >
   <v>       0.27285159      -0.06183819       0.01965584 </v>
   <v>       0.03527355      -0.12234651      -0.01389577 </v>
   <v>      -0.24172535      -0.02482428      -0.04644752 </v>
   <v>      -0.39739392      -0.27234802      -0.07013541 </v>
   <v>      -0.08479979       0.18491076       0.11651980 </v>
   <v>      -0.01478122      -0.21216107      -0.00439378 </v>
   <v>       0.03392268      -0.12948804       0.04242970 </v>
   <v>      -0.02893939       0.18082463      -0.12116981 </v>
   <v>      -0.02662752      -0.05429195       0.22093499 </v>
   <v>       0.00067932      -0.08457643      -0.37849732 </v>
   <v>      -0.10828797       0.05569990      -0.10708947 </v>
   <v>      -0.11474277      -0.01944753       0.38349935 </v>
   <v>       0.26574928       0.13996745      -0.31874184 </v>
   <v>       0.13687016       0.14157025       0.36254430 </v>
   <v>       0.05288966      -0.09043785      -0.19992936 </v>
   <v>       0.05427385       0.50773428      -0.01505745 </v>
   <v>       0.14719199      -0.09923580       0.08700365 </v>
   <v>      -0.11664763       0.05903141       0.08667099 </v>
   <v>       0.13424348      -0.09874300      -0.04390088 </v>
  </varray>
  <varray name="stress" >
   <v>      -1.18422619      -0.23829139       0.06966265 </v>
   <v>      -0.23829138      -1.61714448      -0.02460400 </v>
   <v>       0.06966266      -0.02460400      -1.69907735 </v>
  </varray>
  <energy>
   <i name="e_fr_energy">    -37.26391883 </i>
   <i name="e_wo_entrp">    -37.26391883 </i>
   <i name="e_0_energy">      0.00000000 </i>
  </energy>
  <time name="totalsc">   14.18   14.45</time>
 </calculation>
 <calculation>
  <scstep>
   <time name="dav">    1.61    1.61</time>
   <time name="total">    1.93    1.94</time>
   <energy>
    <i name="alphaZ">     38.46740363 </i>
    <i name="ewald">  30439.53147501 </i>
    <i name="hartreedc"> -49312.10434561 </i>
    <i name="XCdc">   -216.81246062 </i>
    <i name="pawpsdc">  20417.82123339 </i>
    <i name="pawaedc"> -19572.79789720 </i>
    <i name="eentropy">      0.00000000 </i>
    <i name="bandstr">  -1538.14355466 </i>
    <i name="atom">  19706.77397164 </i>
    <i name="e_fr_energy">    -37.26417442 </i>
    <i name="e_wo_entrp">    -37.26417442 </i>
    <i name="e_0_energy">    -37.26417442 </i>
   </energy>
  </scstep>
  <scstep>
   <time name="dav">    1.71    1.71</time>
   <time name="total">    2.03    2.06</time>
   <energy>
    <i name="e_fr_energy">    -37.31643208 </i>
    <i name="e_wo_entrp">    -37.31643208 </i>
    <i name="e_0_energy">    -37.31643208 </i>
   </energy>
  </scstep>
  <scstep>
   <time name="dav">    1.72    1.71</time>
   <time name="total">    2.04    2.06</time>
   <energy>
    <i name="e_fr_energy">    -37.31579814 </i>
    <i name="e_wo_entrp">    -37.31579814 </i>
    <i name="e_0_energy">    -37.31579814 </i>
   </energy>
  </scstep>
  <scstep>
   <time name="dav">    1.70    1.70</time>
   <time name="total">    2.02    2.04</time>
   <energy>
    <i name="e_fr_energy">    -37.31537603 </i>
    <i name="e_wo_entrp">    -37.31537603 </i>
    <i name="e_0_energy">    -37.31537603 </i>
   </energy>
  </scstep>
  <scstep>
   <time name="dav">    1.25    1.25</time>
   <time name="total">    1.49    1.51</time>
   <energy>
    <i name="alphaZ">     38.46740363 </i>
    <i name="ewald">  30439.53147501 </i>
    <i name="hartreedc"> -49310.10222490 </i>
    <i name="XCdc">   -216.86749386 </i>
    <i name="pawpsdc">  20450.47558184 </i>
    <i name="pawaedc"> -19606.04525281 </i>
    <i name="eentropy">      0.00000000 </i>
    <i name="bandstr">  -1539.54889871 </i>
    <i name="atom">  19706.77397164 </i>
    <i name="e_fr_energy">    -37.31543818 </i>
    <i name="e_wo_entrp">    -37.31543818 </i>
    <i name="e_0_energy">    -37.31543818 </i>
   </energy>
  </scstep>
  <structure>
   <crystal>
    <varray name="basis" >
     <v>      19.98524620       0.00000000       0.00000000 </v>
     <v>       0.00000000      19.98524620       0.00000000 </v>
     <v>       0.00000000       0.00000000      19.98524620 </v>
    </varray>
    <i name="volume">   7982.30849897 </i>
    <varray name="rec_basis" >
     <v>       0.05003691       0.00000000       0.00000000 </v>
     <v>       0.00000000       0.05003691       0.00000000 </v>
     <v>       0.00000000       0.00000000       0.05003691 </v>
    </varray>
   </crystal>
   <varray name="positions" >
    <v>       0.65113153       0.65011572       0.52924976 </v>
    <v>       0.60079466       0.57629754       0.63920700 </v>
    <v>       0.65664785       0.50217183       0.53495582 </v>
    <v>       0.53724179       0.57541657       0.51324184 </v>
    <v>       0.51419885       0.63902361       0.38829042 </v>
    <v>       0.42347346       0.65876751       0.49154177 </v>
    <v>       0.63702953       0.56862860       0.41372994 </v>
    <v>       0.47622803       0.64721690       0.61948853 </v>
    <v>       0.47787277       0.52936037       0.68866062 </v>
    <v>       0.40802723       0.53666760       0.56726985 </v>
    <v>       0.40792740       0.41820230       0.64569936 </v>
    <v>       0.43104939       0.53184304       0.42364349 </v>
    <v>       0.53614008       0.45018019       0.58978140 </v>
    <v>       0.55857612       0.44566641       0.44797848 </v>
    <v>       0.53550565       0.51711639       0.33047662 </v>
    <v>       0.42036369       0.41475028       0.49979449 </v>
    <v>       0.48238565       0.32181233       0.58091722 </v>
    <v>       0.45232331       0.40964203       0.35672516 </v>
    <v>       0.50252755       0.31758770       0.44667463 </v>
   </varray>
  </structure>
  <varray name="forces" >
   <v>       0.15833287      -0.17366850       0.00108426 </v>
   <v>      -0.06115026      -0.09130398       0.02809575 </v>
   <v>      -0.03649817      -0.01573840      -0.00729774 </v>
   <v>      -0.19811297      -0.07081464      -0.03260622 </v>
   <v>       0.00863344       0.10474182       0.01881073 </v>
   <v>      -0.15667213      -0.09113271      -0.02945539 </v>
   <v>      -0.03670986      -0.09249545      -0.03680919 </v>
   <v>       0.02916094       0.10758615      -0.00314102 </v>
   <v>       0.02892388       0.00555355       0.13192039 </v>
   <v>      -0.06964721      -0.01481507      -0.16639610 </v>
   <v>      -0.11040118       0.09249040      -0.10166463 </v>
   <v>      -0.12060989       0.03010275       0.14809377 </v>
   <v>       0.15756491       0.04499568      -0.11949670 </v>
   <v>       0.11192154       0.04320594       0.15956278 </v>
   <v>       0.08682405      -0.01578574      -0.10535055 </v>
   <v>       0.03231056       0.24640980      -0.00706242 </v>
   <v>       0.15673744      -0.10211253       0.10387989 </v>
   <v>      -0.13716146       0.10528585       0.06999382 </v>
   <v>       0.15655350      -0.11250489      -0.05216145 </v>
  </varray>
  <varray name="stress" >
   <v>      -1.09278568      -0.29160218       0.03690511 </v>
   <v>      -0.29160217      -1.47669169      -0.03360975 </v>
   <v>       0.03690511      -0.03360975      -1.41237570 </v>
  </varray>
  <energy>
   <i name="e_fr_energy">    -37.31543818 </i>
   <i name="e_wo_entrp">    -37.31543818 </i>
   <i name="e_0_energy">      0.00000000 </i>
  </energy>
  <time name="totalsc">   12.26   13.01</time>
 </calculation>
 <calculation>
  <scstep>
   <time name="dav">    1.65    1.65</time>
   <time name="total">    1.97    1.98</time>
   <energy>
    <i name="alphaZ">     38.46740363 </i>
    <i name="ewald">  30399.39572683 </i>
    <i name="hartreedc"> -49270.41673864 </i>
    <i name="XCdc">   -216.94417585 </i>
    <i name="pawpsdc">  20450.00085307 </i>
    <i name="pawaedc"> -19605.56593994 </i>
    <i name="eentropy">      0.00000000 </i>
    <i name="bandstr">  -1539.04212662 </i>
    <i name="atom">  19706.77397164 </i>
    <i name="e_fr_energy">    -37.33102587 </i>
    <i name="e_wo_entrp">    -37.33102587 </i>
    <i name="e_0_energy">    -37.33102587 </i>
   </energy>
  </scstep>
  <scstep>
   <time name="dav">    1.66    1.66</time>
   <time name="total">    1.98    1.99</time>
   <energy>
    <i name="e_fr_energy">    -37.33400747 </i>
    <i name="e_wo_entrp">    -37.33400747 </i>
    <i name="e_0_energy">    -37.33400747 </i>
   </energy>
  </scstep>
  <scstep>
   <time name="dav">    1.73    1.73</time>
   <time name="total">    1.97    2.05</time>
   <energy>
    <i name="alphaZ">     38.46740363 </i>
    <i name="ewald">  30399.39572683 </i>
    <i name="hartreedc"> -49270.80539182 </i>
    <i name="XCdc">   -216.93350938 </i>
    <i name="pawpsdc">  20443.69849751 </i>
    <i name="pawaedc"> -19599.17114677 </i>
    <i name="eentropy">      0.00000000 </i>
    <i name="bandstr">  -1538.75954594 </i>
    <i name="atom">  19706.77397164 </i>
    <i name="e_fr_energy">    -37.33399430 </i>
    <i name="e_wo_entrp">    -37.33399430 </i>
    <i name="e_0_energy">    -37.33399430 </i>
   </energy>
  </scstep>
  <structure>
   <crystal>
    <varray name="basis" >
     <v>      19.98524620       0.00000000       0.00000000 </v>
     <v>       0.00000000      19.98524620       0.00000000 </v>
     <v>       0.00000000       0.00000000      19.98524620 </v>
    </varray>
    <i name="volume">   7982.30849897 </i>
    <varray name="rec_basis" >
     <v>       0.05003691       0.00000000       0.00000000 </v>
     <v>       0.00000000       0.05003691       0.00000000 </v>
     <v>       0.00000000       0.00000000       0.05003691 </v>
    </varray>
   </crystal>
   <varray name="positions" >
    <v>       0.65141120       0.64965945       0.52924319 </v>
    <v>       0.60059684       0.57612384       0.63930173 </v>
    <v>       0.65678126       0.50215036       0.53498257 </v>
    <v>       0.53696745       0.57547168       0.51319622 </v>
    <v>       0.51430543       0.63919216       0.38823086 </v>
    <v>       0.42298214       0.65867345       0.49145412 </v>
    <v>       0.63690372       0.56846066       0.41358459 </v>
    <v>       0.47634261       0.64740063       0.61959566 </v>
    <v>       0.47797492       0.52941447       0.68888543 </v>
    <v>       0.40777108       0.53675105       0.56716314 </v>
    <v>       0.40767594       0.41844400       0.64548298 </v>
    <v>       0.43077403       0.53199397       0.42369104 </v>
    <v>       0.53638349       0.45016985       0.58973769 </v>
    <v>       0.55880438       0.44564146       0.44810265 </v>
    <v>       0.53571904       0.51713495       0.33031416 </v>
    <v>       0.42041138       0.41497095       0.49978622 </v>
    <v>       0.48273788       0.32157964       0.58115880 </v>
    <v>       0.45200608       0.40990937       0.35686149 </v>
    <v>       0.50289566       0.31732496       0.44655387 </v>
   </varray>
  </structure>
  <varray name="forces" >
   <v>       0.14754802      -0.17231325       0.00276264 </v>
   <v>      -0.04806400      -0.08594706       0.01267322 </v>
   <v>      -0.03754657      -0.00712997      -0.00852950 </v>
   <v>      -0.17326498      -0.06406380      -0.02900173 </v>
   <v>      -0.00623535       0.08454908       0.02818759 </v>
   <v>      -0.13791475      -0.08872386      -0.02346767 </v>
   <v>      -0.03200702      -0.09095471      -0.02104655 </v>
   <v>       0.01548751       0.08456411      -0.02017109 </v>
   <v>       0.01174655      -0.00218004       0.09812815 </v>
   <v>      -0.05782819       0.00346548      -0.13265078 </v>
   <v>      -0.08651192       0.08318225      -0.11037043 </v>
   <v>      -0.09919984       0.03967932       0.11722397 </v>
   <v>       0.13006981       0.03817310      -0.09973632 </v>
   <v>       0.09344993       0.03512915       0.13493591 </v>
   <v>       0.05875855      -0.02057483      -0.07829413 </v>
   <v>       0.06699873       0.18730167      -0.00012326 </v>
   <v>       0.13988534      -0.05575142       0.07336280 </v>
   <v>      -0.11459625       0.09677425       0.08708269 </v>
   <v>       0.12922440      -0.06517947      -0.03096552 </v>
  </varray>
  <varray name="stress" >
   <v>      -1.15908157      -0.26862196       0.03779767 </v>
   <v>      -0.26862197      -1.53513379      -0.02979980 </v>
   <v>       0.03779768      -0.02979980      -1.48469594 </v>
  </varray>
  <energy>
   <i name="e_fr_energy">    -37.33399430 </i>
   <i name="e_wo_entrp">    -37.33399430 </i>
   <i name="e_0_energy">      0.00000000 </i>
  </energy>
  <time name="totalsc">    8.69    8.83</time>
 </calculation>
 <calculation>
  <scstep>
   <time name="dav">    1.63    1.63</time>
   <time name="total">    1.95    1.97</time>
   <energy>
    <i name="alphaZ">     38.46740363 </i>
    <i name="ewald">  30279.12407265 </i>
    <i name="hartreedc"> -49151.86869050 </i>
    <i name="XCdc">   -217.15043418 </i>
    <i name="pawpsdc">  20439.83137010 </i>
    <i name="pawaedc"> -19595.24489817 </i>
    <i name="eentropy">     -0.00000000 </i>
    <i name="bandstr">  -1537.27699321 </i>
    <i name="atom">  19706.77397164 </i>
    <i name="e_fr_energy">    -37.34419804 </i>
    <i name="e_wo_entrp">    -37.34419804 </i>
    <i name="e_0_energy">    -37.34419804 </i>
   </energy>
  </scstep>
  <scstep>
   <time name="dav">    1.72    1.72</time>
   <time name="total">    2.04    2.04</time>
   <energy>
    <i name="e_fr_energy">    -37.37061628 </i>
    <i name="e_wo_entrp">    -37.37061628 </i>
    <i name="e_0_energy">    -37.37061628 </i>
   </energy>
  </scstep>
  <scstep>
   <time name="dav">    1.76    1.76</time>
   <time name="total">    2.08    2.09</time>
   <energy>
    <i name="e_fr_energy">    -37.37040155 </i>
    <i name="e_wo_entrp">    -37.37040155 </i>
    <i name="e_0_energy">    -37.37040155 </i>
   </energy>
  </scstep>
  <scstep>
   <time name="dav">    1.70    1.70</time>
   <time name="total">    2.02    2.02</time>
   <energy>
    <i name="e_fr_energy">    -37.36969281 </i>
    <i name="e_wo_entrp">    -37.36969281 </i>
    <i name="e_0_energy">    -37.36969281 </i>
   </energy>
  </scstep>
  <scstep>
   <time name="dav">    1.36    1.36</time>
   <time name="total">    1.59    1.62</time>
   <energy>
    <i name="alphaZ">     38.46740363 </i>
    <i name="ewald">  30279.12407265 </i>
    <i name="hartreedc"> -49153.53695500 </i>
    <i name="XCdc">   -217.10829868 </i>
    <i name="pawpsdc">  20408.38143201 </i>
    <i name="pawaedc"> -19563.27222040 </i>
    <i name="eentropy">      0.00000000 </i>
    <i name="bandstr">  -1536.19908703 </i>
    <i name="atom">  19706.77397164 </i>
    <i name="e_fr_energy">    -37.36968118 </i>
    <i name="e_wo_entrp">    -37.36968118 </i>
    <i name="e_0_energy">    -37.36968118 </i>
   </energy>
  </scstep>
  <structure>
   <crystal>
    <varray name="basis" >
     <v>      19.98524620       0.00000000       0.00000000 </v>
     <v>       0.00000000      19.98524620       0.00000000 </v>
     <v>       0.00000000       0.00000000      19.98524620 </v>
    </varray>
    <i name="volume">   7982.30849897 </i>
    <varray name="rec_basis" >
     <v>       0.05003691       0.00000000       0.00000000 </v>
     <v>       0.00000000       0.05003691       0.00000000 </v>
     <v>       0.00000000       0.00000000       0.05003691 </v>
    </varray>
   </crystal>
   <varray name="positions" >
    <v>       0.65225021       0.64829063       0.52922348 </v>
    <v>       0.60000337       0.57560276       0.63958592 </v>
    <v>       0.65718149       0.50208596       0.53506281 </v>
    <v>       0.53614443       0.57563700       0.51305936 </v>
    <v>       0.51462517       0.63969783       0.38805219 </v>
    <v>       0.42150820       0.65839127       0.49119118 </v>
    <v>       0.63652627       0.56795681       0.41314854 </v>
    <v>       0.47668632       0.64795183       0.61991705 </v>
    <v>       0.47828139       0.52957678       0.68955986 </v>
    <v>       0.40700264       0.53700142       0.56684302 </v>
    <v>       0.40692157       0.41916911       0.64483382 </v>
    <v>       0.42994795       0.53244678       0.42383367 </v>
    <v>       0.53711373       0.45013882       0.58960658 </v>
    <v>       0.55948916       0.44556662       0.44847516 </v>
    <v>       0.53635922       0.51719064       0.32982675 </v>
    <v>       0.42055446       0.41563297       0.49976141 </v>
    <v>       0.48379458       0.32088157       0.58188355 </v>
    <v>       0.45105438       0.41071138       0.35727048 </v>
    <v>       0.50400000       0.31653672       0.44619157 </v>
   </varray>
  </structure>
  <varray name="forces" >
   <v>       0.11343385      -0.15908664       0.00887594 </v>
   <v>      -0.00672340      -0.07228905      -0.03343151 </v>
   <v>      -0.04881509       0.01514963      -0.01341656 </v>
   <v>      -0.11176693      -0.05418515      -0.02059426 </v>
   <v>      -0.05024148       0.02876368       0.05787732 </v>
   <v>      -0.07817584      -0.08556094      -0.00696082 </v>
   <v>      -0.01573678      -0.08796949       0.02767227 </v>
   <v>      -0.02281578       0.02355615      -0.06913522 </v>
   <v>      -0.03841229      -0.02600537       0.01180720 </v>
   <v>      -0.01857517       0.04932723      -0.05259353 </v>
   <v>      -0.02159623       0.06661178      -0.13482148 </v>
   <v>      -0.03493557       0.06073532       0.04683725 </v>
   <v>       0.05308782       0.02236374      -0.05756193 </v>
   <v>       0.03660645       0.01725620       0.07612694 </v>
   <v>      -0.01870919      -0.03685042      -0.01100393 </v>
   <v>       0.16073218       0.04217964       0.01784089 </v>
   <v>       0.09467837       0.06578657      -0.00637881 </v>
   <v>      -0.05080559       0.06975898       0.13440626 </v>
   <v>       0.05877066       0.06045814       0.02445395 </v>
  </varray>
  <varray name="stress" >
   <v>      -1.30490117      -0.21164090       0.04699696 </v>
   <v>      -0.21164090      -1.68366895      -0.02021319 </v>
   <v>       0.04699696      -0.02021319      -1.68746774 </v>
  </varray>
  <energy>
   <i name="e_fr_energy">    -37.36968118 </i>
   <i name="e_wo_entrp">    -37.36968118 </i>
   <i name="e_0_energy">      0.00000000 </i>
  </energy>
  <time name="totalsc">   12.43   13.19</time>
 </calculation>
 <calculation>
  <scstep>
   <time name="dav">    1.61    1.61</time>
   <time name="total">    1.93    1.95</time>
   <energy>
    <i name="alphaZ">     38.46740363 </i>
    <i name="ewald">  30039.30405041 </i>
    <i name="hartreedc"> -48915.76676155 </i>
    <i name="XCdc">   -217.51092233 </i>
    <i name="pawpsdc">  20408.60488916 </i>
    <i name="pawaedc"> -19563.49393485 </i>
    <i name="eentropy">      0.00000000 </i>
    <i name="bandstr">  -1533.63574978 </i>
    <i name="atom">  19706.77397164 </i>
    <i name="e_fr_energy">    -37.25705367 </i>
    <i name="e_wo_entrp">    -37.25705367 </i>
    <i name="e_0_energy">    -37.25705367 </i>
   </energy>
  </scstep>
  <scstep>
   <time name="dav">    1.66    1.66</time>
   <time name="total">    1.99    1.99</time>
   <energy>
    <i name="e_fr_energy">    -37.36499598 </i>
    <i name="e_wo_entrp">    -37.36499598 </i>
    <i name="e_0_energy">    -37.36499598 </i>
   </energy>
  </scstep>
  <scstep>
   <time name="dav">    1.73    1.73</time>
   <time name="total">    2.05    2.08</time>
   <energy>
    <i name="e_fr_energy">    -37.36486706 </i>
    <i name="e_wo_entrp">    -37.36486706 </i>
    <i name="e_0_energy">    -37.36486706 </i>
   </energy>
  </scstep>
  <scstep>
   <time name="dav">    1.66    1.66</time>
   <time name="total">    1.98    2.00</time>
   <energy>
    <i name="e_fr_energy">    -37.36248403 </i>
    <i name="e_wo_entrp">    -37.36248403 </i>
    <i name="e_0_energy">    -37.36248403 </i>
   </energy>
  </scstep>
  <scstep>
   <time name="dav">    1.70    1.70</time>
   <time name="total">    2.02    2.07</time>
   <energy>
    <i name="e_fr_energy">    -37.36248719 </i>
    <i name="e_wo_entrp">    -37.36248719 </i>
    <i name="e_0_energy">    -37.36248719 </i>
   </energy>
  </scstep>
  <scstep>
   <time name="dav">    1.32    1.33</time>
   <time name="total">    1.65    1.65</time>
   <energy>
    <i name="e_fr_energy">    -37.36260624 </i>
    <i name="e_wo_entrp">    -37.36260624 </i>
    <i name="e_0_energy">    -37.36260624 </i>
   </energy>
  </scstep>
  <scstep>
   <time name="dav">    1.26    1.25</time>
   <time name="total">    1.58    1.59</time>
   <energy>
    <i name="e_fr_energy">    -37.36282634 </i>
    <i name="e_wo_entrp">    -37.36282634 </i>
    <i name="e_0_energy">    -37.36282634 </i>
   </energy>
  </scstep>
  <scstep>
   <time name="dav">    1.27    1.28</time>
   <time name="total">    1.60    1.60</time>
   <energy>
    <i name="e_fr_energy">    -37.36305711 </i>
    <i name="e_wo_entrp">    -37.36305711 </i>
    <i name="e_0_energy">    -37.36305711 </i>
   </energy>
  </scstep>
  <scstep>
   <time name="dav">    1.26    1.26</time>
   <time name="total">    1.58    1.58</time>
   <energy>
    <i name="e_fr_energy">    -37.36326959 </i>
    <i name="e_wo_entrp">    -37.36326959 </i>
    <i name="e_0_energy">    -37.36326959 </i>
   </energy>
  </scstep>
  <scstep>
   <time name="dav">    1.26    1.26</time>
   <time name="total">    1.58    1.60</time>
   <energy>
    <i name="e_fr_energy">    -37.36337571 </i>
    <i name="e_wo_entrp">    -37.36337571 </i>
    <i name="e_0_energy">    -37.36337571 </i>
   </energy>
  </scstep>
  <scstep>
   <time name="dav">    1.24    1.24</time>
   <time name="total">    1.56    1.57</time>
   <energy>
    <i name="e_fr_energy">    -37.36356886 </i>
    <i name="e_wo_entrp">    -37.36356886 </i>
    <i name="e_0_energy">    -37.36356886 </i>
   </energy>
  </scstep>
  <scstep>
   <time name="dav">    1.30    1.31</time>
   <time name="total">    1.54    1.57</time>
   <energy>
    <i name="alphaZ">     38.46740363 </i>
    <i name="ewald">  30039.30405041 </i>
    <i name="hartreedc"> -48919.06075054 </i>
    <i name="XCdc">   -217.43117925 </i>
    <i name="pawpsdc">  20359.00266841 </i>
    <i name="pawaedc"> -19513.00466506 </i>
    <i name="eentropy">      0.00000000 </i>
    <i name="bandstr">  -1531.41512405 </i>
    <i name="atom">  19706.77397164 </i>
    <i name="e_fr_energy">    -37.36362481 </i>
    <i name="e_wo_entrp">    -37.36362481 </i>
    <i name="e_0_energy">    -37.36362481 </i>
   </energy>
  </scstep>
  <structure>
   <crystal>
    <varray name="basis" >
     <v>      19.98524620       0.00000000       0.00000000 </v>
     <v>       0.00000000      19.98524620       0.00000000 </v>
     <v>       0.00000000       0.00000000      19.98524620 </v>
    </varray>
    <i name="volume">   7982.30849897 </i>
    <varray name="rec_basis" >
     <v>       0.05003691       0.00000000       0.00000000 </v>
     <v>       0.00000000       0.05003691       0.00000000 </v>
     <v>       0.00000000       0.00000000       0.05003691 </v>
    </varray>
   </crystal>
   <varray name="positions" >
    <v>       0.65392824       0.64555301       0.52918406 </v>
    <v>       0.59881644       0.57456059       0.64015431 </v>
    <v>       0.65798194       0.50195717       0.53522329 </v>
    <v>       0.53449840       0.57596764       0.51278563 </v>
    <v>       0.51526465       0.64070916       0.38769484 </v>
    <v>       0.41856031       0.65782691       0.49066529 </v>
    <v>       0.63577137       0.56694911       0.41227645 </v>
    <v>       0.47737375       0.64905422       0.62055984 </v>
    <v>       0.47889432       0.52990139       0.69090873 </v>
    <v>       0.40546575       0.53750215       0.56620276 </v>
    <v>       0.40541281       0.42061934       0.64353552 </v>
    <v>       0.42829580       0.53335239       0.42411893 </v>
    <v>       0.53857420       0.45007676       0.58934435 </v>
    <v>       0.56085871       0.44541694       0.44922019 </v>
    <v>       0.53763958       0.51730203       0.32885194 </v>
    <v>       0.42084061       0.41695700       0.49971178 </v>
    <v>       0.48590798       0.31948544       0.58333306 </v>
    <v>       0.44915098       0.41231541       0.35808845 </v>
    <v>       0.50620867       0.31496025       0.44546698 </v>
   </varray>
  </structure>
  <varray name="forces" >
   <v>       0.04812182      -0.12062935       0.01400992 </v>
   <v>       0.09430290      -0.02953771      -0.13122088 </v>
   <v>      -0.06535407       0.04342358      -0.01991478 </v>
   <v>       0.01428326      -0.03234755      -0.00204079 </v>
   <v>      -0.12883602      -0.07693796       0.11400139 </v>
   <v>       0.02058311      -0.05842132       0.02496209 </v>
   <v>       0.03247852      -0.06572028       0.13374203 </v>
   <v>      -0.09371576      -0.09124268      -0.15530251 </v>
   <v>      -0.14234892      -0.07691562      -0.13791629 </v>
   <v>       0.04577478       0.13808223       0.09711939 </v>
   <v>       0.09327924       0.01904011      -0.16315008 </v>
   <v>       0.08505598       0.09493808      -0.08431618 </v>
   <v>      -0.09578436      -0.01667055       0.02075800 </v>
   <v>      -0.07910078      -0.02035936      -0.04000675 </v>
   <v>      -0.17373031      -0.07141262       0.10378585 </v>
   <v>       0.31601368      -0.20564432       0.04742659 </v>
   <v>      -0.00364275       0.26840819      -0.14444496 </v>
   <v>       0.08041236       0.01568216       0.20210758 </v>
   <v>      -0.04779267       0.28626497       0.12040036 </v>
  </varray>
  <varray name="stress" >
   <v>      -1.53956797      -0.11440959       0.06372197 </v>
   <v>      -0.11440960      -1.92052335      -0.00250232 </v>
   <v>       0.06372197      -0.00250232      -2.01263767 </v>
  </varray>
  <energy>
   <i name="e_fr_energy">    -37.36362481 </i>
   <i name="e_wo_entrp">    -37.36362481 </i>
   <i name="e_0_energy">      0.00000000 </i>
  </energy>
  <time name="totalsc">   23.82   24.52</time>
 </calculation>
 <calculation>
  <scstep>
   <time name="dav">    1.62    1.61</time>
   <time name="total">    1.94    1.95</time>
   <energy>
    <i name="alphaZ">     38.46740363 </i>
    <i name="ewald">  30169.04451655 </i>
    <i name="hartreedc"> -49047.93821615 </i>
    <i name="XCdc">   -217.21184724 </i>
    <i name="pawpsdc">  20359.01018481 </i>
    <i name="pawaedc"> -19513.01217363 </i>
    <i name="eentropy">      0.00000000 </i>
    <i name="bandstr">  -1532.48204073 </i>
    <i name="atom">  19706.77397164 </i>
    <i name="e_fr_energy">    -37.34820113 </i>
    <i name="e_wo_entrp">    -37.34820113 </i>
    <i name="e_0_energy">    -37.34820113 </i>
   </energy>
  </scstep>
  <scstep>
   <time name="dav">    1.70    1.70</time>
   <time name="total">    2.02    2.03</time>
   <energy>
    <i name="e_fr_energy">    -37.37999556 </i>
    <i name="e_wo_entrp">    -37.37999556 </i>
    <i name="e_0_energy">    -37.37999556 </i>
   </energy>
  </scstep>
  <scstep>
   <time name="dav">    1.72    1.72</time>
   <time name="total">    2.04    2.04</time>
   <energy>
    <i name="e_fr_energy">    -37.37969488 </i>
    <i name="e_wo_entrp">    -37.37969488 </i>
    <i name="e_0_energy">    -37.37969488 </i>
   </energy>
  </scstep>
  <scstep>
   <time name="dav">    1.72    1.72</time>
   <time name="total">    2.04    2.04</time>
   <energy>
    <i name="e_fr_energy">    -37.37914184 </i>
    <i name="e_wo_entrp">    -37.37914184 </i>
    <i name="e_0_energy">    -37.37914184 </i>
   </energy>
  </scstep>
  <scstep>
   <time name="dav">    1.24    1.24</time>
   <time name="total">    1.47    1.48</time>
   <energy>
    <i name="alphaZ">     38.46740363 </i>
    <i name="ewald">  30169.04451655 </i>
    <i name="hartreedc"> -49046.10616498 </i>
    <i name="XCdc">   -217.26054643 </i>
    <i name="pawpsdc">  20385.56585389 </i>
    <i name="pawaedc"> -19540.03269319 </i>
    <i name="eentropy">      0.00000000 </i>
    <i name="bandstr">  -1533.83149829 </i>
    <i name="atom">  19706.77397164 </i>
    <i name="e_fr_energy">    -37.37915718 </i>
    <i name="e_wo_entrp">    -37.37915718 </i>
    <i name="e_0_energy">    -37.37915718 </i>
   </energy>
  </scstep>
  <structure>
   <crystal>
    <varray name="basis" >
     <v>      19.98524620       0.00000000       0.00000000 </v>
     <v>       0.00000000      19.98524620       0.00000000 </v>
     <v>       0.00000000       0.00000000      19.98524620 </v>
    </varray>
    <i name="volume">   7982.30849897 </i>
    <varray name="rec_basis" >
     <v>       0.05003691       0.00000000       0.00000000 </v>
     <v>       0.00000000       0.05003691       0.00000000 </v>
     <v>       0.00000000       0.00000000       0.05003691 </v>
    </varray>
   </crystal>
   <varray name="positions" >
    <v>       0.65301953       0.64703553       0.52920541 </v>
    <v>       0.59945921       0.57512496       0.63984651 </v>
    <v>       0.65754847       0.50202692       0.53513638 </v>
    <v>       0.53538978       0.57578859       0.51293386 </v>
    <v>       0.51491835       0.64016149       0.38788835 </v>
    <v>       0.42015670       0.65813253       0.49095008 </v>
    <v>       0.63618017       0.56749481       0.41274872 </v>
    <v>       0.47700149       0.64845723       0.62021175 </v>
    <v>       0.47856239       0.52972560       0.69017827 </v>
    <v>       0.40629803       0.53723098       0.56654948 </v>
    <v>       0.40622986       0.41983399       0.64423860 </v>
    <v>       0.42919050       0.53286197       0.42396445 </v>
    <v>       0.53778330       0.45011037       0.58948636 </v>
    <v>       0.56011705       0.44549800       0.44881673 </v>
    <v>       0.53694622       0.51724171       0.32937984 </v>
    <v>       0.42068565       0.41623999       0.49973866 </v>
    <v>       0.48476350       0.32024150       0.58254810 </v>
    <v>       0.45018174       0.41144677       0.35764549 </v>
    <v>       0.50501259       0.31581397       0.44585937 </v>
   </varray>
  </structure>
  <varray name="forces" >
   <v>       0.07975752      -0.13730849       0.01326973 </v>
   <v>       0.04041181      -0.05197389      -0.07828856 </v>
   <v>      -0.05862317       0.03137297      -0.01723859 </v>
   <v>      -0.05135546      -0.04479362      -0.01191589 </v>
   <v>      -0.08999342      -0.02478785       0.08591576 </v>
   <v>      -0.02405163      -0.07422548       0.00850661 </v>
   <v>       0.00625799      -0.07696710       0.07691571 </v>
   <v>      -0.05807195      -0.03317467      -0.11274273 </v>
   <v>      -0.08684162      -0.04979823      -0.06613163 </v>
   <v>       0.01811825       0.09016158       0.01938265 </v>
   <v>       0.03401362       0.04256611      -0.14873157 </v>
   <v>       0.02693528       0.07628488      -0.01524976 </v>
   <v>      -0.01998503       0.00633582      -0.01989180 </v>
   <v>      -0.01997917       0.00139402       0.02059805 </v>
   <v>      -0.09359356      -0.05260418       0.04869634 </v>
   <v>       0.23763364      -0.08216408       0.03261811 </v>
   <v>       0.04299740       0.16609709      -0.07730111 </v>
[...]
       <r>    -1.1062     0.0000   115.0000 </r>
       <r>    -1.0683     0.0000   115.0000 </r>
       <r>    -1.0303     0.0000   116.0000 </r>
       <r>    -0.9924     0.0000   117.0000 </r>
       <r>    -0.9545     0.0000   117.0000 </r>
       <r>    -0.9166     0.0000   117.0000 </r>
       <r>    -0.8786     0.0000   117.0000 </r>
       <r>    -0.8407     0.0000   117.0000 </r>
       <r>    -0.8028     0.0000   118.0000 </r>
       <r>    -0.7649     0.0000   119.0000 </r>
       <r>    -0.7269     0.0000   119.0000 </r>
       <r>    -0.6890     0.0000   119.0000 </r>
       <r>    -0.6511     0.0000   119.0000 </r>
       <r>    -0.6132     0.0000   120.0000 </r>
       <r>    -0.5753     0.0000   121.0000 </r>
       <r>    -0.5373     0.0000   121.0000 </r>
       <r>    -0.4994     0.0000   121.0000 </r>
       <r>    -0.4615     0.0000   121.0000 </r>
       <r>    -0.4236     0.0000   122.0000 </r>
       <r>    -0.3856     0.0000   122.0000 </r>
       <r>    -0.3477     0.0000   122.0000 </r>
       <r>    -0.3098     0.0000   122.0000 </r>
       <r>    -0.2719     0.0000   123.0000 </r>
       <r>    -0.2339     0.0000   123.0000 </r>
       <r>    -0.1960     0.0000   123.0000 </r>
       <r>    -0.1581     0.0000   123.0000 </r>
       <r>    -0.1202     0.0000   123.0000 </r>
       <r>    -0.0822     0.0000   123.0000 </r>
       <r>    -0.0443     0.0000   123.0000 </r>
       <r>    -0.0064     0.0000   123.0000 </r>
       <r>     0.0315     0.0000   123.0000 </r>
       <r>     0.0694     0.0000   123.0000 </r>
       <r>     0.1074     0.0000   124.0000 </r>
       <r>     0.1453     0.0000   124.0000 </r>
       <r>     0.1832     0.0000   124.0000 </r>
       <r>     0.2211     0.0000   124.0000 </r>
       <r>     0.2591     0.0000   124.0000 </r>
       <r>     0.2970     0.0000   124.0000 </r>
       <r>     0.3349     0.0000   125.0000 </r>
       <r>     0.3728     0.0000   125.0000 </r>
       <r>     0.4108     0.0000   127.0000 </r>
       <r>     0.4487     0.0000   128.0000 </r>
       <r>     0.4866     0.0000   128.0000 </r>
       <r>     0.5245     0.0000   128.0000 </r>
       <r>     0.5625     0.0000   128.0000 </r>
       <r>     0.6004     0.0000   129.0000 </r>
       <r>     0.6383     0.0000   129.0000 </r>
       <r>     0.6762     0.0000   131.0000 </r>
       <r>     0.7141     0.0000   131.0000 </r>
       <r>     0.7521     0.0000   132.0000 </r>
       <r>     0.7900     0.0000   133.0000 </r>
       <r>     0.8279     0.0000   135.0000 </r>
       <r>     0.8658     0.0000   136.0000 </r>
       <r>     0.9038     0.0000   136.0000 </r>
       <r>     0.9417     0.0000   136.0000 </r>
       <r>     0.9796     0.0000   136.0000 </r>
       <r>     1.0175     0.0000   136.0000 </r>
       <r>     1.0555     0.0000   136.0000 </r>
       <r>     1.0934     0.0000   136.0000 </r>
       <r>     1.1313     0.0000   136.0000 </r>
       <r>     1.1692     0.0000   136.0000 </r>
       <r>     1.2072     0.0000   136.0000 </r>
       <r>     1.2451     0.0000   136.0000 </r>
       <r>     1.2830     0.0000   136.0000 </r>
       <r>     1.3209     0.0000   136.0000 </r>
       <r>     1.3588     0.0000   136.0000 </r>
       <r>     1.3968     0.0000   136.0000 </r>
      </set>
      <set comment="spin 2">
       <r>    -9.9803     0.0000     0.0000 </r>
       <r>    -9.9424     0.0000     0.0000 </r>
       <r>    -9.9045     0.0000     0.0000 </r>
       <r>    -9.8665     0.0000     0.0000 </r>
       <r>    -9.8286     0.0000     0.0000 </r>
       <r>    -9.7907     0.0000     0.0000 </r>
       <r>    -9.7528     0.0000     0.0000 </r>
       <r>    -9.7148     0.0000     0.0000 </r>
       <r>    -9.6769     0.0000     0.0000 </r>
       <r>    -9.6390     0.0000     0.0000 </r>
       <r>    -9.6011     0.0000     0.0000 </r>
       <r>    -9.5631     0.0000     0.0000 </r>
       <r>    -9.5252     0.0000     0.0000 </r>
       <r>    -9.4873     0.0000     0.0000 </r>
       <r>    -9.4494     0.0000     0.0000 </r>
       <r>    -9.4115     0.0000     1.0000 </r>
       <r>    -9.3735     0.0000     1.0000 </r>
       <r>    -9.3356     0.0000     1.0000 </r>
       <r>    -9.2977     0.0000     1.0000 </r>
       <r>    -9.2598     0.0000     1.0000 </r>
       <r>    -9.2218     0.0000     1.0000 </r>
       <r>    -9.1839     0.0000     1.0000 </r>
       <r>    -9.1460     0.0000     1.0000 </r>
       <r>    -9.1081     0.0000     1.0000 </r>
       <r>    -9.0701     0.0000     3.0000 </r>
       <r>    -9.0322     0.0000     3.0000 </r>
       <r>    -8.9943     0.0000     4.0000 </r>
       <r>    -8.9564     0.0000     4.0000 </r>
       <r>    -8.9184    26.3620     5.9997 </r>
       <r>    -8.8805     0.0000     6.0000 </r>
       <r>    -8.8426     0.0000     7.0000 </r>
       <r>    -8.8047     0.0000     9.0000 </r>
       <r>    -8.7667     0.0000    10.0000 </r>
       <r>    -8.7288     0.0000    11.0000 </r>
       <r>    -8.6909     0.0000    11.0000 </r>
       <r>    -8.6530     0.0000    11.0000 </r>
       <r>    -8.6151     0.0000    12.0000 </r>
       <r>    -8.5771     0.0000    12.0000 </r>
       <r>    -8.5392     0.0000    14.0000 </r>
       <r>    -8.5013     0.0000    15.0000 </r>
       <r>    -8.4634     0.0000    16.0000 </r>
       <r>    -8.4254     0.0000    17.0000 </r>
       <r>    -8.3875     0.0000    17.0000 </r>
       <r>    -8.3496     0.0000    20.0000 </r>
       <r>    -8.3117     0.0000    21.0000 </r>
       <r>    -8.2737     0.0000    23.0000 </r>
       <r>    -8.2358     0.0000    23.0000 </r>
       <r>    -8.1979     0.0000    26.0000 </r>
       <r>    -8.1600     0.0000    26.0000 </r>
       <r>    -8.1220     0.0000    28.0000 </r>
       <r>    -8.0841     0.0000    28.0000 </r>
       <r>    -8.0462     0.0000    29.0000 </r>
       <r>    -8.0083     0.0000    29.0000 </r>
       <r>    -7.9704     0.0000    32.0000 </r>
       <r>    -7.9324     0.0000    32.0000 </r>
       <r>    -7.8945     0.0000    34.0000 </r>
       <r>    -7.8566     0.0000    36.0000 </r>
       <r>    -7.8187     0.0000    37.0000 </r>
       <r>    -7.7807     0.0000    38.0000 </r>
       <r>    -7.7428     0.0000    41.0000 </r>
       <r>    -7.7049     0.0000    42.0000 </r>
       <r>    -7.6670     0.0000    43.0000 </r>
       <r>    -7.6290     0.0000    44.0000 </r>
       <r>    -7.5911     0.0000    44.0000 </r>
       <r>    -7.5532     0.0000    45.0000 </r>
       <r>    -7.5153     0.0000    46.0000 </r>
       <r>    -7.4773     0.0000    48.0000 </r>
       <r>    -7.4394     0.0000    49.0000 </r>
       <r>    -7.4015     0.0000    49.0000 </r>
       <r>    -7.3636     0.0000    51.0000 </r>
       <r>    -7.3257     0.0000    52.0000 </r>
       <r>    -7.2877     0.0000    53.0000 </r>
       <r>    -7.2498     0.0000    55.0000 </r>
       <r>    -7.2119     0.0000    56.0000 </r>
       <r>    -7.1740     0.0000    56.0000 </r>
       <r>    -7.1360     0.0000    57.0000 </r>
       <r>    -7.0981     0.0000    60.0000 </r>
       <r>    -7.0602     0.0000    62.0000 </r>
       <r>    -7.0223     0.0000    63.0000 </r>
       <r>    -6.9843     0.0000    64.0000 </r>
       <r>    -6.9464     0.0000    66.0000 </r>
       <r>    -6.9085     0.0000    69.0000 </r>
       <r>    -6.8706     0.0000    70.0000 </r>
       <r>    -6.8326     0.0000    72.0000 </r>
       <r>    -6.7947     0.0000    73.0000 </r>
       <r>    -6.7568     0.0000    76.0000 </r>
       <r>    -6.7189     0.0000    79.0000 </r>
       <r>    -6.6810     0.0000    81.0000 </r>
       <r>    -6.6430     0.0000    82.0000 </r>
       <r>    -6.6051     0.0000    83.0000 </r>
       <r>    -6.5672     0.0000    84.0000 </r>
       <r>    -6.5293     0.0000    89.0000 </r>
       <r>    -6.4913     0.0000    89.0000 </r>
       <r>    -6.4534     0.0000    90.0000 </r>
       <r>    -6.4155     0.0000    93.0000 </r>
       <r>    -6.3776    26.3688    94.0000 </r>
       <r>    -6.3396     0.0000    95.0000 </r>
       <r>    -6.3017     0.0000    97.0000 </r>
       <r>    -6.2638     0.0000    98.0000 </r>
       <r>    -6.2259     0.0000    98.0000 </r>
       <r>    -6.1879     0.0000    98.0000 </r>
       <r>    -6.1500     0.0000    98.0000 </r>
       <r>    -6.1121     0.0000    98.0000 </r>
       <r>    -6.0742     0.0000    98.0000 </r>
       <r>    -6.0363     0.0000    98.0000 </r>
       <r>    -5.9983     0.0000    98.0000 </r>
       <r>    -5.9604     0.0000    98.0000 </r>
       <r>    -5.9225     0.0000    99.0000 </r>
       <r>    -5.8846     0.0000    99.0000 </r>
       <r>    -5.8466     0.0000    99.0000 </r>
       <r>    -5.8087     0.0000    99.0000 </r>
       <r>    -5.7708     0.0000    99.0000 </r>
       <r>    -5.7329     0.0000    99.0000 </r>
       <r>    -5.6949     0.0000    99.0000 </r>
       <r>    -5.6570     0.0000    99.0000 </r>
       <r>    -5.6191     0.0000    99.0000 </r>
       <r>    -5.5812     0.0000    99.0000 </r>
       <r>    -5.5432     0.0000    99.0000 </r>
       <r>    -5.5053     0.0000    99.0000 </r>
       <r>    -5.4674     0.0000    99.0000 </r>
       <r>    -5.4295     0.0000    99.0000 </r>
       <r>    -5.3916     0.0000    99.0000 </r>
       <r>    -5.3536     0.0000    99.0000 </r>
       <r>    -5.3157     0.0000    99.0000 </r>
       <r>    -5.2778     0.0000    99.0000 </r>
       <r>    -5.2399     0.0000    99.0000 </r>
       <r>    -5.2019     0.0000    99.0000 </r>
       <r>    -5.1640     0.0000    99.0000 </r>
       <r>    -5.1261     0.0000    99.0000 </r>
       <r>    -5.0882     0.0000    99.0000 </r>
       <r>    -5.0502     0.0000    99.0000 </r>
       <r>    -5.0123     0.0000   100.0000 </r>
       <r>    -4.9744     0.0000   100.0000 </r>
       <r>    -4.9365     0.0000   100.0000 </r>
       <r>    -4.8985     0.0000   100.0000 </r>
       <r>    -4.8606     0.0000   100.0000 </r>
       <r>    -4.8227     0.0000   101.0000 </r>
       <r>    -4.7848     0.0000   101.0000 </r>
       <r>    -4.7468     0.0000   101.0000 </r>
       <r>    -4.7089     0.0000   101.0000 </r>
       <r>    -4.6710     0.0000   101.0000 </r>
       <r>    -4.6331     0.0000   101.0000 </r>
       <r>    -4.5952     0.0000   101.0000 </r>
       <r>    -4.5572     0.0000   101.0000 </r>
       <r>    -4.5193     0.0000   101.0000 </r>
       <r>    -4.4814     0.0000   101.0000 </r>
       <r>    -4.4435     0.0000   101.0000 </r>
       <r>    -4.4055     0.0000   102.0000 </r>
       <r>    -4.3676     0.0000   102.0000 </r>
       <r>    -4.3297     0.0000   102.0000 </r>
       <r>    -4.2918     0.0000   102.0000 </r>
       <r>    -4.2538     0.0000   102.0000 </r>
       <r>    -4.2159     0.0000   102.0000 </r>
       <r>    -4.1780     0.0000   103.0000 </r>
       <r>    -4.1401     0.0000   103.0000 </r>
       <r>    -4.1021     0.0000   103.0000 </r>
       <r>    -4.0642     0.0000   103.0000 </r>
       <r>    -4.0263     0.0000   103.0000 </r>
       <r>    -3.9884     0.0000   103.0000 </r>
       <r>    -3.9505     0.0000   103.0000 </r>
       <r>    -3.9125     0.0000   104.0000 </r>
       <r>    -3.8746     0.0000   104.0000 </r>
       <r>    -3.8367     0.0000   104.0000 </r>
       <r>    -3.7988     0.0000   104.0000 </r>
       <r>    -3.7608     0.0000   104.0000 </r>
       <r>    -3.7229     0.0000   104.0000 </r>
       <r>    -3.6850     0.0000   104.0000 </r>
       <r>    -3.6471     0.0000   104.0000 </r>
       <r>    -3.6091     0.0000   104.0000 </r>
       <r>    -3.5712     0.0000   104.0000 </r>
       <r>    -3.5333     0.0000   104.0000 </r>
       <r>    -3.4954     0.0000   104.0000 </r>
       <r>    -3.4574     0.0000   104.0000 </r>
       <r>    -3.4195     0.0000   104.0000 </r>
       <r>    -3.3816     0.0000   104.0000 </r>
       <r>    -3.3437     0.0000   104.0000 </r>
       <r>    -3.3058     0.0000   104.0000 </r>
       <r>    -3.2678     0.0000   104.0000 </r>
       <r>    -3.2299     0.0000   105.0000 </r>
       <r>    -3.1920     0.0000   105.0000 </r>
       <r>    -3.1541     0.0000   105.0000 </r>
       <r>    -3.1161     0.0000   105.0000 </r>
       <r>    -3.0782     0.0000   105.0000 </r>
       <r>    -3.0403     0.0000   105.0000 </r>
       <r>    -3.0024     0.0000   106.0000 </r>
       <r>    -2.9644     0.0000   106.0000 </r>
       <r>    -2.9265     0.0000   106.0000 </r>
       <r>    -2.8886     0.0000   106.0000 </r>
       <r>    -2.8507     0.0000   106.0000 </r>
       <r>    -2.8127     0.0000   107.0000 </r>
       <r>    -2.7748     0.0000   107.0000 </r>
       <r>    -2.7369     0.0000   107.0000 </r>
       <r>    -2.6990     0.0000   107.0000 </r>
       <r>    -2.6611     0.0000   107.0000 </r>
       <r>    -2.6231     0.0000   107.0000 </r>
       <r>    -2.5852     0.0000   107.0000 </r>
       <r>    -2.5473     0.0000   107.0000 </r>
       <r>    -2.5094     0.0000   107.0000 </r>
       <r>    -2.4714     0.0000   107.0000 </r>
       <r>    -2.4335     0.0000   108.0000 </r>
       <r>    -2.3956     0.0000   109.0000 </r>
       <r>    -2.3577     0.0000   109.0000 </r>
       <r>    -2.3197     0.0000   109.0000 </r>
       <r>    -2.2818     0.0000   111.0000 </r>
       <r>    -2.2439     0.0000   111.0000 </r>
       <r>    -2.2060     0.0000   111.0000 </r>
       <r>    -2.1680     0.0000   111.0000 </r>
       <r>    -2.1301     0.0000   111.0000 </r>
       <r>    -2.0922     0.0000   112.0000 </r>
       <r>    -2.0543     0.0000   112.0000 </r>
       <r>    -2.0164     0.0000   112.0000 </r>
       <r>    -1.9784     0.0000   112.0000 </r>
       <r>    -1.9405     0.0000   112.0000 </r>
       <r>    -1.9026     0.0000   112.0000 </r>
       <r>    -1.8647     0.0000   112.0000 </r>
       <r>    -1.8267     0.0000   112.0000 </r>
       <r>    -1.7888     0.0000   112.0000 </r>
       <r>    -1.7509     0.0000   112.0000 </r>
       <r>    -1.7130     0.0000   112.0000 </r>
       <r>    -1.6750     0.0000   112.0000 </r>
       <r>    -1.6371     0.0000   112.0000 </r>
       <r>    -1.5992     0.0000   112.0000 </r>
       <r>    -1.5613     0.0000   112.0000 </r>
       <r>    -1.5233     0.0000   112.0000 </r>
       <r>    -1.4854     0.0000   113.0000 </r>
       <r>    -1.4475     0.0000   113.0000 </r>
       <r>    -1.4096     0.0000   114.0000 </r>
       <r>    -1.3716     0.0000   114.0000 </r>
       <r>    -1.3337     0.0000   114.0000 </r>
       <r>    -1.2958     0.0000   114.0000 </r>
       <r>    -1.2579     0.0000   114.0000 </r>
       <r>    -1.2200     0.0000   114.0000 </r>
       <r>    -1.1820     0.0000   115.0000 </r>
       <r>    -1.1441     0.0000   115.0000 </r>
       <r>    -1.1062     0.0000   115.0000 </r>
       <r>    -1.0683     0.0000   115.0000 </r>
       <r>    -1.0303     0.0000   115.0000 </r>
       <r>    -0.9924     0.0000   116.0000 </r>
       <r>    -0.9545     0.0000   116.0000 </r>
       <r>    -0.9166     0.0000   117.0000 </r>
       <r>    -0.8786     0.0000   117.0000 </r>
       <r>    -0.8407     0.0000   117.0000 </r>
       <r>    -0.8028     0.0000   117.0000 </r>
       <r>    -0.7649     0.0000   118.0000 </r>
       <r>    -0.7269     0.0000   119.0000 </r>
       <r>    -0.6890     0.0000   119.0000 </r>
       <r>    -0.6511     0.0000   119.0000 </r>
       <r>    -0.6132     0.0000   119.0000 </r>
       <r>    -0.5753     0.0000   120.0000 </r>
       <r>    -0.5373     0.0000   121.0000 </r>
       <r>    -0.4994     0.0000   121.0000 </r>
       <r>    -0.4615     0.0000   121.0000 </r>
       <r>    -0.4236     0.0000   121.0000 </r>
       <r>    -0.3856     0.0000   122.0000 </r>
       <r>    -0.3477     0.0000   122.0000 </r>
       <r>    -0.3098     0.0000   122.0000 </r>
       <r>    -0.2719     0.0000   122.0000 </r>
       <r>    -0.2339     0.0000   123.0000 </r>
       <r>    -0.1960     0.0000   123.0000 </r>
       <r>    -0.1581     0.0000   123.0000 </r>
       <r>    -0.1202     0.0000   123.0000 </r>
       <r>    -0.0822     0.0000   123.0000 </r>
       <r>    -0.0443     0.0000   123.0000 </r>
       <r>    -0.0064     0.0000   123.0000 </r>
       <r>     0.0315     0.0000   123.0000 </r>
       <r>     0.0694     0.0000   123.0000 </r>
       <r>     0.1074     0.0000   123.0000 </r>
       <r>     0.1453     0.0000   124.0000 </r>
       <r>     0.1832     0.0000   124.0000 </r>
       <r>     0.2211     0.0000   124.0000 </r>
       <r>     0.2591     0.0000   124.0000 </r>
       <r>     0.2970     0.0000   124.0000 </r>
       <r>     0.3349     0.0000   124.0000 </r>
       <r>     0.3728     0.0000   124.0000 </r>
       <r>     0.4108     0.0000   125.0000 </r>
       <r>     0.4487     0.0000   126.0000 </r>
       <r>     0.4866     0.0000   127.0000 </r>
       <r>     0.5245     0.0000   128.0000 </r>
       <r>     0.5625     0.0000   128.0000 </r>
       <r>     0.6004     0.0000   128.0000 </r>
       <r>     0.6383     0.0000   128.0000 </r>
       <r>     0.6762     0.0000   129.0000 </r>
       <r>     0.7141     0.0000   131.0000 </r>
       <r>     0.7521     0.0000   131.0000 </r>
       <r>     0.7900     0.0000   132.0000 </r>
       <r>     0.8279     0.0000   134.0000 </r>
       <r>     0.8658     0.0000   135.0000 </r>
       <r>     0.9038     0.0000   136.0000 </r>
       <r>     0.9417     0.0000   136.0000 </r>
       <r>     0.9796     0.0000   136.0000 </r>
       <r>     1.0175     0.0000   136.0000 </r>
       <r>     1.0555     0.0000   136.0000 </r>
       <r>     1.0934     0.0000   136.0000 </r>
       <r>     1.1313     0.0000   136.0000 </r>
       <r>     1.1692     0.0000   136.0000 </r>
       <r>     1.2072     0.0000   136.0000 </r>
       <r>     1.2451     0.0000   136.0000 </r>
       <r>     1.2830     0.0000   136.0000 </r>
       <r>     1.3209     0.0000   136.0000 </r>
       <r>     1.3588     0.0000   136.0000 </r>
       <r>     1.3968     0.0000   136.0000 </r>
      </set>
     </set>
    </array>
   </total>
  </dos>
 </calculation>
 <structure name="finalpos" >
  <crystal>
   <varray name="basis" >
    <v>      19.98524620       0.00000000       0.00000000 </v>
    <v>       0.00000000      19.98524620       0.00000000 </v>
    <v>       0.00000000       0.00000000      19.98524620 </v>
   </varray>
   <i name="volume">   7982.30849897 </i>
   <varray name="rec_basis" >
    <v>       0.05003691       0.00000000       0.00000000 </v>
    <v>       0.00000000       0.05003691       0.00000000 </v>
    <v>       0.00000000       0.00000000       0.05003691 </v>
   </varray>
  </crystal>
  <varray name="positions" >
   <v>       0.65986723       0.63926222       0.52970228 </v>
   <v>       0.59899307       0.57360602       0.63883590 </v>
   <v>       0.65906653       0.49896274       0.53571549 </v>
   <v>       0.53486046       0.57538624       0.51255089 </v>
   <v>       0.51296163       0.64044531       0.39038936 </v>
   <v>       0.41481622       0.65793827       0.49019788 </v>
   <v>       0.63573391       0.56424707       0.41312157 </v>
   <v>       0.47609860       0.64861119       0.61657600 </v>
   <v>       0.47475354       0.52991054       0.68733906 </v>
   <v>       0.40215393       0.53998539       0.56548767 </v>
   <v>       0.40361714       0.42088157       0.63839410 </v>
   <v>       0.42562240       0.53516966       0.42365468 </v>
   <v>       0.53950095       0.45144060       0.59090003 </v>
   <v>       0.56246581       0.44607569       0.44904914 </v>
   <v>       0.53265081       0.51713632       0.33128828 </v>
   <v>       0.42816799       0.41860807       0.50085551 </v>
   <v>       0.48926381       0.32319692       0.58315124 </v>
   <v>       0.44813185       0.41166932       0.36268197 </v>
   <v>       0.51071863       0.31793377       0.44743534 </v>
  </varray>
 </structure>
</modeling>
