   16   16 1000    2
  0.4443296E+03  0.1922834E-08  0.1922834E-08  0.1922834E-08  0.1000000E-15
  1.000000000000000E-004
  CAR 
 unknown system                          
    176      1    116
 
  0.0000000E+00  0.0000000E+00  0.0000000E+00  0.1000000E+01
    1       -8.714510     -8.714510
    2       -8.710787     -8.710787
    3       -8.658342     -8.658342
    4       -8.653881     -8.653881
    5       -8.643590     -8.643590
    6       -8.643590     -8.643590
    7       -8.637953     -8.637953
    8       -8.637953     -8.637953
    9       -8.531837     -8.531837
   10       -8.495769     -8.495769
   11       -8.455139     -8.455139
   12       -8.455139     -8.455139
   13       -8.451851     -8.451851
   14       -8.433705     -8.433705
   15       -8.404184     -8.404184
   16       -8.404184     -8.404184
   17       -8.394888     -8.394888
   18       -8.345274     -8.345274
   19       -8.345274     -8.345274
   20       -8.237283     -8.237283
   21       -8.208456     -8.208456
   22       -8.178046     -8.178046
   23       -8.175013     -8.175012
   24       -8.155079     -8.155079
   25       -8.155079     -8.155079
   26       -8.033866     -8.033866
   27       -8.022564     -8.022563
   28       -7.995704     -7.995704
   29       -7.938967     -7.938967
   30       -7.938967     -7.938967
   31       -7.783877     -7.783877
   32       -7.783877     -7.783877
   33       -7.752415     -7.752415
   34       -7.729939     -7.729939
   35       -7.644270     -7.644270
   36       -7.568766     -7.568766
   37       -7.568766     -7.568766
   38       -7.496863     -7.496863
   39       -7.474478     -7.474478
   40       -7.419973     -7.419973
   41       -7.398684     -7.398684
   42       -7.398684     -7.398684
   43       -7.365521     -7.365521
   44       -7.273916     -7.273916
   45       -7.254364     -7.254364
   46       -7.254364     -7.254364
   47       -7.175755     -7.175755
   48       -7.163201     -7.163201
   49       -7.163201     -7.163201
   50       -7.138567     -7.138567
   51       -7.057668     -7.057668
   52       -7.026225     -7.026225
   53       -6.976881     -6.976881
   54       -6.958751     -6.958751
   55       -6.958751     -6.958751
   56       -6.898575     -6.898575
   57       -6.873135     -6.873135
   58       -6.873135     -6.873135
   59       -6.811614     -6.811614
   60       -6.811614     -6.811614
   61       -6.787054     -6.787054
   62       -6.763237     -6.763237
   63       -6.763237     -6.763237
   64       -6.733254     -6.733254
   65       -6.720054     -6.720054
   66       -6.700925     -6.700925
   67       -6.643923     -6.643923
   68       -6.631923     -6.631923
   69       -6.631923     -6.631923
   70       -6.611065     -6.611065
   71       -6.596663     -6.596663
   72       -6.596663     -6.596663
   73       -6.590292     -6.590292
   74       -6.566671     -6.566671
   75       -6.536465     -6.536465
   76       -6.536465     -6.536465
   77       -6.483572     -6.483572
   78       -6.402013     -6.402013
   79       -6.371040     -6.371040
   80       -6.266366     -6.266366
   81       -6.266366     -6.266366
   82       -6.001610     -6.001610
   83       -5.946195     -5.946195
   84       -5.946195     -5.946195
   85       -4.438726     -4.438726
   86       -4.419715     -4.419715
   87       -4.116309     -4.116309
   88       -4.116309     -4.116309
   89       -3.949007     -3.949007
   90       -2.872498     -2.872498
   91       -2.121956     -2.121958
   92       -2.068042     -2.068042
   93       -2.068042     -2.068042
   94       -2.050587     -2.050587
   95       -1.853252     -1.853253
   96       -1.853252     -1.853253
   97       -1.774515     -1.774516
   98       -1.280850     -1.280854
   99       -1.260603     -1.260608
  100       -1.260603     -1.260608
  101       -0.093431     -0.093456
  102        0.022652      0.022630
  103        0.144595      0.144590
  104        0.144595      0.144590
  105        0.210096      0.210091
  106        0.212667      0.212639
  107        0.334978      0.334947
  108        0.334978      0.334947
  109        0.335705      0.335354
  110        0.425584      0.425488
  111        0.571668      0.571634
  112        0.620791      0.620595
  113        0.698945      0.698814
  114        0.745700      0.745461
  115        0.745700      0.745461
  116        0.851656      0.850149
