 vasp.5.3.5 31Mar14 (build Feb 01 2018 12:10:03) gamma-only                     
  
 executed on             LinuxIFC date 2019.03.21  20:09:18
 running on   32 total cores
 distrk:  each k-point on   32 cores,    1 groups
 distr:  one band on NCORES_PER_BAND=   8 cores,    4 groups


--------------------------------------------------------------------------------------------------------


 INCAR:
 POTCAR:    PAW_PBE Ag 02Apr2005                  
 POTCAR:    PAW_PBE Ag 02Apr2005                  
   VRHFIN =Ag : s1 d10                                                          
   LEXCH  = PE                                                                  
   EATOM  =  1037.2675 eV,   76.2370 Ry                                         
                                                                                
   TITEL  = PAW_PBE Ag 02Apr2005                                                
   LULTRA =        F    use ultrasoft PP ?                                      
   IUNSCR =        1    unscreen: 0-lin 1-nonlin 2-no                           
   RPACOR =    2.000    partial core radius                                     
   POMASS =  107.868; ZVAL   =   11.000    mass and valenz                      
   RCORE  =    2.500    outmost cutoff radius                                   
   RWIGS  =    2.840; RWIGS  =    1.503    wigner-seitz radius (au A)           
   ENMAX  =  249.844; ENMIN  =  187.383 eV                                      
   ICORE  =        3    local potential                                         
   LCOR   =        T    correct aug charges                                     
   LPAW   =        T    paw PP                                                  
   EAUG   =  412.496                                                            
   DEXC   =    0.000                                                            
   RMAX   =    2.560    core radius for proj-oper                               
   RAUG   =    1.300    factor for augmentation sphere                          
   RDEP   =    2.576    radius for radial grids                                 
   RDEPT  =    2.072    core radius for aug-charge                              
                                                                                
   Atomic configuration                                                         
   12 entries                                                                   
     n  l   j            E        occ.                                          
     1  0  0.50    -25324.9161   2.0000                                         
     2  0  0.50     -3728.5341   2.0000                                         
     2  1  1.50     -3344.0404   6.0000                                         
     3  0  0.50      -683.5581   2.0000                                         
     3  1  1.50      -557.3225   6.0000                                         
     3  2  2.50      -358.3853  10.0000                                         
     4  0  0.50       -95.0341   2.0000                                         
     4  1  1.50       -58.5511   6.0000                                         
     4  2  2.50        -7.4440  10.0000                                         
     5  0  0.50        -4.4045   1.0000                                         
     5  1  0.50        -1.3606   0.0000                                         
     4  3  2.50        -1.3606   0.0000                                         
   Description                                                                  
     l       E           TYP  RCUT    TYP  RCUT                                 
     2     -7.4439781     23  2.400                                             
     2     -8.8045607     23  2.400                                             
     0     -4.4044681     23  2.400                                             
     0      1.9520038     23  2.400                                             
     1     -1.3605826     23  2.500                                             
     1     27.2116520     23  2.500                                             
     3     -4.0817478     23  2.400                                             
  local pseudopotential read in
  partial core-charges read in
  partial kinetic energy density read in
  atomic valenz-charges read in
  non local Contribution for L=           2  read in
    real space projection operators read in
  non local Contribution for L=           2  read in
    real space projection operators read in
  non local Contribution for L=           0  read in
    real space projection operators read in
  non local Contribution for L=           0  read in
    real space projection operators read in
  non local Contribution for L=           1  read in
    real space projection operators read in
  non local Contribution for L=           1  read in
    real space projection operators read in
    PAW grid and wavefunctions read in
 
   number of l-projection  operators is LMAX  =           6
   number of lm-projection operators is LMMAX =          18
 
  PAW_PBE Ag 02Apr2005                  :
 energy of atom  1       EATOM=-1037.2675
 kinetic energy error for atom=    0.0689 (will be added to EATOM!!)
 
 
 POSCAR: Ag16, -792.0 <s> Ag </s>                
  positions in direct lattice
  No initial velocities read in
 exchange correlation table for  LEXCH =        8
   RHO(1)=    0.500       N(1)  =     2000
   RHO(2)=  100.500       N(2)  =     4000
 


--------------------------------------------------------------------------------------------------------


 ion  position               nearest neighbor table
   1  0.576  0.641  0.556-   7 2.77   6 2.78   3 2.83   2 2.94   5 3.03
   2  0.424  0.641  0.556-   8 2.77   4 2.78   3 2.83   1 2.94   5 3.03
   3  0.500  0.573  0.662-   9 2.82   2 2.83   1 2.83   6 2.90   4 2.90
   4  0.401  0.500  0.576-   2 2.78  15 2.78   9 2.90   3 2.90   8 3.03  16 3.03
   5  0.500  0.599  0.424-   7 2.78   8 2.78  12 2.90  14 2.90   1 3.03   2 3.03
   6  0.599  0.500  0.576-   1 2.78  13 2.78   9 2.90   3 2.90  11 3.03   7 3.03
   7  0.641  0.576  0.444-   1 2.77   5 2.78  12 2.83  11 2.94   6 3.03
   8  0.359  0.576  0.444-   2 2.77   5 2.78  14 2.83  16 2.94   4 3.03
   9  0.500  0.427  0.662-   3 2.82  13 2.83  15 2.83   4 2.90   6 2.90
  10  0.500  0.401  0.424-  11 2.78  16 2.78  14 2.90  12 2.90  15 3.03  13 3.03
  11  0.641  0.424  0.444-  13 2.77  10 2.78  12 2.83   7 2.94   6 3.03
  12  0.573  0.500  0.338-  14 2.82  11 2.83   7 2.83   5 2.90  10 2.90
  13  0.576  0.359  0.556-  11 2.77   6 2.78   9 2.83  15 2.94  10 3.03
  14  0.427  0.500  0.338-  12 2.82   8 2.83  16 2.83   5 2.90  10 2.90
  15  0.424  0.359  0.556-  16 2.77   4 2.78   9 2.83  13 2.94  10 3.03
  16  0.359  0.424  0.444-  15 2.77  10 2.78  14 2.83   8 2.94   4 3.03
 
  LATTYP: Found a simple cubic cell.
 ALAT       =    19.2283380000
  
  Lattice vectors:
  
 A1 = (  19.2283380000,   0.0000000000,   0.0000000000)
 A2 = (   0.0000000000,  19.2283380000,   0.0000000000)
 A3 = (   0.0000000000,   0.0000000000,  19.2283380000)


Analysis of symmetry for initial positions (statically):
=====================================================================
 Subroutine PRICEL returns:
 Original cell was already a primitive cell.
 

 Routine SETGRP: Setting up the symmetry group for a 
 simple cubic supercell.


 Subroutine GETGRP returns: Found  8 space group operations
 (whereof  8 operations were pure point group operations)
 out of a pool of 48 trial point group operations.


The static configuration has the point symmetry D_2d.


Analysis of symmetry for dynamics (positions and initial velocities):
=====================================================================
 Subroutine PRICEL returns:
 Original cell was already a primitive cell.
 

 Routine SETGRP: Setting up the symmetry group for a 
 simple cubic supercell.


 Subroutine GETGRP returns: Found  8 space group operations
 (whereof  8 operations were pure point group operations)
 out of a pool of 48 trial point group operations.


The dynamic configuration has the point symmetry D_2d.


Analysis of magnetic symmetry:
=====================================================================
 Subroutine PRICEL returns:
 Original cell was already a primitive cell.
 

 Subroutine MAGSYM returns: Found  8 space group operations
 (whereof  8 operations were pure point group operations)
 out of a pool of  8 trial space group operations
 (whereof  8 operations were pure point group operations)
 and found also     1 'primitive' translations


The magnetic configuration has the point symmetry D_2d.
 
 
 KPOINTS: Gamma-point only                        
  k-points in reciprocal lattice
Space group operators:
 irot       det(A)        alpha          n_x          n_y          n_z        tau_x        tau_y        tau_z
    1     1.000000     0.000000     1.000000     0.000000     0.000000     0.000000     0.000000     0.000000
    2    -1.000000    90.000000     0.000000     0.000000    -1.000000     0.000000     0.000000     0.000000
    3     1.000000   180.000000     0.000000     0.000000     1.000000     0.000000     0.000000     0.000000
    4    -1.000000    90.000000     0.000000     0.000000     1.000000     0.000000     0.000000     0.000000
    5    -1.000000   180.000000     1.000000     0.000000     0.000000     0.000000     0.000000     0.000000
    6     1.000000   180.000000     0.707107     0.707107     0.000000     0.000000     0.000000     0.000000
    7    -1.000000   180.000000     0.000000     1.000000     0.000000     0.000000     0.000000     0.000000
    8     1.000000   180.000000     0.707107    -0.707107     0.000000     0.000000     0.000000     0.000000


--------------------------------------------------------------------------------------------------------




 Dimension of arrays:
   k-points           NKPTS =      1   k-points in BZ     NKDIM =      1   number of bands    NBANDS=    116
   number of dos      NEDOS =    301   number of ions     NIONS =     16
   non local maximal  LDIM  =      6   non local SUM 2l+1 LMDIM =     18
   total plane-waves  NPLWV = 512000
   max r-space proj   IRMAX =      1   max aug-charges    IRDMAX=   3740
   dimension x,y,z NGX =    80 NGY =   80 NGZ =   80
   dimension x,y,z NGXF=   160 NGYF=  160 NGZF=  160
   support grid    NGXF=   160 NGYF=  160 NGZF=  160
   ions per type =              16
 NGX,Y,Z   is equivalent  to a cutoff of   6.92,  6.92,  6.92 a.u.
 NGXF,Y,Z  is equivalent  to a cutoff of  13.83, 13.83, 13.83 a.u.


 I would recommend the setting:
   dimension x,y,z NGX =    74 NGY =   74 NGZ =   74
 SYSTEM =  unknown system                          
 POSCAR =  Ag16, -792.0 <s> Ag </s>                

 Startparameter for this run:
   NWRITE =      2    write-flag & timer
   PREC   = normal    normal or accurate (medium, high low for compatibility)
   ISTART =      0    job   : 0-new  1-cont  2-samecut
   ICHARG =      2    charge: 1-file 2-atom 10-const
   ISPIN  =      2    spin polarized calculation?
   LNONCOLLINEAR =      F non collinear calculations
   LSORBIT =      F    spin-orbit coupling
   INIWAV =      1    electr: 0-lowe 1-rand  2-diag
   LASPH  =      F    aspherical Exc in radial PAW
   METAGGA=      F    non-selfconsistent MetaGGA calc.

 Electronic Relaxation 1
   ENCUT  =  249.8 eV  18.36 Ry    4.29 a.u.  24.78 24.78 24.78*2*pi/ulx,y,z
   ENINI  =  249.8     initial cutoff
   ENAUG  =  412.5 eV  augmentation charge cutoff
   NELM   =     60;   NELMIN=  2; NELMDL= -5     # of ELM steps 
   EDIFF  = 0.1E-03   stopping-criterion for ELM
   LREAL  =      F    real-space projection
   NLSPLINE    = F    spline interpolate recip. space projectors
   LCOMPAT=      F    compatible to vasp.4.4
   GGA_COMPAT  = T    GGA compatible to vasp.4.4-vasp.4.6
   LMAXPAW     = -100 max onsite density
   LMAXMIX     =    2 max onsite mixed and CHGCAR
   VOSKOWN=      0    Vosko Wilk Nusair interpolation
   ROPT   =    0.00000
 Ionic relaxation
   EDIFFG = 0.1E-02   stopping-criterion for IOM
   NSW    =   1000    number of steps for IOM
   NBLOCK =      1;   KBLOCK =   1000    inner block; outer block 
   IBRION =      2    ionic relax: 0-MD 1-quasi-New 2-CG
   NFREE  =      1    steps in history (QN), initial steepest desc. (CG)
   ISIF   =      2    stress and relaxation
   IWAVPR =     11    prediction:  0-non 1-charg 2-wave 3-comb
   ISYM   =      2    0-nonsym 1-usesym 2-fastsym
   LCORR  =      T    Harris-Foulkes like correction to forces

   POTIM  = 0.1000    time-step for ionic-motion
   TEIN   =    0.0    initial temperature
   TEBEG  =    0.0;   TEEND  =   0.0 temperature during run
   SMASS  =  -3.00    Nose mass-parameter (am)
   estimated Nose-frequenzy (Omega)   =  0.10E-29 period in steps =****** mass=  -0.845E-26a.u.
   SCALEE = 1.0000    scale energy and forces
   NPACO  =    256;   APACO  = 16.0  distance and # of slots for P.C.
   PSTRESS=    0.0 pullay stress

  Mass of Ions in am
   POMASS = 107.87
  Ionic Valenz
   ZVAL   =  11.00
  Atomic Wigner-Seitz radii
   RWIGS  =  -1.00
  virtual crystal weights 
   VCA    =   1.00
   NELECT =     176.0000    total number of electrons
   NUPDOWN=      -1.0000    fix difference up-down

 DOS related values:
   EMIN   =  10.00;   EMAX   =-10.00  energy-range for DOS
   EFERMI =   0.00
   ISMEAR =     0;   SIGMA  =   0.00  broadening in eV -4-tet -1-fermi 0-gaus

 Electronic relaxation 2 (details)
   IALGO  =     38    algorithm
   LDIAG  =      T    sub-space diagonalisation (order eigenvalues)
   LSUBROT=      F    optimize rotation matrix (better conditioning)
   TURBO    =      0    0=normal 1=particle mesh
   IRESTART =      0    0=no restart 2=restart with 2 vectors
   NREBOOT  =      0    no. of reboots
   NMIN     =      0    reboot dimension
   EREF     =   0.00    reference energy to select bands
   IMIX   =      4    mixing-type and parameters
     AMIX     =   0.40;   BMIX     =  1.00
     AMIX_MAG =   1.60;   BMIX_MAG =  1.00
     AMIN     =   0.10
     WC   =   100.;   INIMIX=   1;  MIXPRE=   1;  MAXMIX= -45

 Intra band minimization:
   WEIMIN = 0.0010     energy-eigenvalue tresh-hold
   EBREAK =  0.22E-06  absolut break condition
   DEPER  =   0.30     relativ break condition  

   TIME   =   0.40     timestep for ELM

  volume/ion in A,a.u.               =     444.33      2998.48
  Fermi-wavevector in a.u.,A,eV,Ry     =   0.477131  0.901646  3.097416  0.227654
  Thomas-Fermi vector in A             =   1.472898
 
 Write flags
   LWAVE  =      F    write WAVECAR
   LCHARG =      F    write CHGCAR
   LVTOT  =      F    write LOCPOT, total local potential
   LVHAR  =      F    write LOCPOT, Hartree potential only
   LELF   =      F    write electronic localiz. function (ELF)
   LORBIT =      0    0 simple, 1 ext, 2 COOP (PROOUT)


 Dipole corrections
   LMONO  =      F    monopole corrections only (constant potential shift)
   LDIPOL =      F    correct potential (dipole corrections)
   IDIPOL =      0    1-x, 2-y, 3-z, 4-all directions 
   EPSILON=  1.0000000 bulk dielectric constant

 Exchange correlation treatment:
   GGA     =    PE    GGA type
   LEXCH   =     8    internal setting for exchange type
   VOSKOWN=      0    Vosko Wilk Nusair interpolation
   LHFCALC =     F    Hartree Fock is set to
   LHFONE  =     F    Hartree Fock one center treatment
   AEXX    =    0.0000 exact exchange contribution

 Linear response parameters
   LEPSILON=     F    determine dielectric tensor
   LRPA    =     F    only Hartree local field effects (RPA)
   LNABLA  =     F    use nabla operator in PAW spheres
   LVEL    =     F    velocity operator in full k-point grid
   LINTERFAST=   F  fast interpolation
   KINTER  =     0    interpolate to denser k-point grid
   CSHIFT  =0.1000    complex shift for real part using Kramers Kronig
   OMEGAMAX=  -1.0    maximum frequency
   DEG_THRESHOLD= 0.2000000E-02 threshold for treating states as degnerate
   RTIME   =    0.100 relaxation time in fs

 Orbital magnetization related:
   ORBITALMAG=     F  switch on orbital magnetization
   LCHIMAG   =     F  perturbation theory with respect to B field
   DQ        =  0.001000  dq finite difference perturbation B field



--------------------------------------------------------------------------------------------------------


 conjugate gradient relaxation of ions
 charge density and potential will be updated during run
 spin polarized calculation
 Variant of blocked Davidson
 Davidson routine will perform the subspace rotation
 perform sub-space diagonalisation
    after iterative eigenvector-optimisation
 modified Broyden-mixing scheme, WC =      100.0
 initial mixing is a Kerker type mixing with AMIX =  0.4000 and BMIX =      1.0000
 Hartree-type preconditioning will be used
 using additional bands           28
 reciprocal scheme for non local part
 use partial core corrections
 calculate Harris-corrections to forces 
   (improved forces if not selfconsistent)
 use gradient corrections 
 use of overlap-Matrix (Vanderbilt PP)
 Gauss-broadening in eV      SIGMA  =   0.00


--------------------------------------------------------------------------------------------------------


  energy-cutoff  :      249.84
  volume of cell :     7109.27
      direct lattice vectors                 reciprocal lattice vectors
    19.228338000  0.000000000  0.000000000     0.052006575  0.000000000  0.000000000
     0.000000000 19.228338000  0.000000000     0.000000000  0.052006575  0.000000000
     0.000000000  0.000000000 19.228338000     0.000000000  0.000000000  0.052006575

  length of vectors
    19.228338000 19.228338000 19.228338000     0.052006575  0.052006575  0.052006575


 
 k-points in units of 2pi/SCALE and weight: Gamma-point only                        
   0.00000000  0.00000000  0.00000000       1.000
 
 k-points in reciprocal lattice and weights: Gamma-point only                        
   0.00000000  0.00000000  0.00000000       1.000
 
 position of ions in fractional coordinates (direct lattice) 
   0.57639131  0.64113643  0.55574730
   0.42360869  0.64113643  0.55574730
   0.50000000  0.57333062  0.66195726
   0.40078893  0.50000000  0.57554902
   0.50000000  0.59921107  0.42445098
   0.59921107  0.50000000  0.57554902
   0.64113643  0.57639131  0.44425270
   0.35886357  0.57639131  0.44425270
   0.50000000  0.42666938  0.66195726
   0.50000000  0.40078893  0.42445098
   0.64113643  0.42360869  0.44425270
   0.57333062  0.50000000  0.33804274
   0.57639131  0.35886357  0.55574730
   0.42666938  0.50000000  0.33804274
   0.42360869  0.35886357  0.55574730
   0.35886357  0.42360869  0.44425270
 
 position of ions in cartesian coordinates  (Angst):
  11.08304700 12.32798800 10.68609700
   8.14529100 12.32798800 10.68609700
   9.61416900 11.02419500 12.72833800
   7.70650500  9.61416900 11.06685100
   9.61416900 11.52183300  8.16148700
  11.52183300  9.61416900 11.06685100
  12.32798800 11.08304700  8.54224100
   6.90035000 11.08304700  8.54224100
   9.61416900  8.20414300 12.72833800
   9.61416900  7.70650500  8.16148700
  12.32798800  8.14529100  8.54224100
  11.02419500  9.61416900  6.50000000
  11.08304700  6.90035000 10.68609700
   8.20414300  9.61416900  6.50000000
   8.14529100  6.90035000 10.68609700
   6.90035000  8.14529100  8.54224100
 


--------------------------------------------------------------------------------------------------------


 use parallel FFT for wavefunctions z direction half grid
 k-point  1 :   0.0000 0.0000 0.0000  plane waves:   31995

 maximum and minimum number of plane-waves per node :      4005     3993

 maximum number of plane-waves:     31995
 maximum index in each direction: 
   IXMAX=   24   IYMAX=   24   IZMAX=   24
   IXMIN=  -24   IYMIN=  -24   IZMIN=    0

 WARNING: aliasing errors must be expected set NGX to  98 to avoid them
 WARNING: aliasing errors must be expected set NGY to  98 to avoid them
 WARNING: aliasing errors must be expected set NGZ to  98 to avoid them
 aliasing errors are usually negligible using standard VASP settings
 and one can safely disregard these warnings

 parallel 3D FFT for wavefunctions:
    minimum data exchange during FFTs selected (reduces bandwidth)
 parallel 3D FFT for charge:
    minimum data exchange during FFTs selected (reduces bandwidth)


 total amount of memory used by VASP on root node    55569. kBytes
========================================================================

   base      :      30000. kBytes
   nonl-proj :       1598. kBytes
   fftplans  :       5765. kBytes
   grid      :      14451. kBytes
   one-center:         31. kBytes
   wavefun   :       3724. kBytes
 
     INWAV:  cpu time    0.00: real time    0.00
 Broyden mixing: mesh for mixing (old mesh)
   NGX = 49   NGY = 49   NGZ = 49
  (NGX  =160   NGY  =160   NGZ  =160)
  gives a total of 117649 points

 initial charge density was supplied:
 charge density of overlapping atoms calculated
 number of electron     176.0000000 magnetization      16.0000000
 keeping initial charge density in first step


--------------------------------------------------------------------------------------------------------


 Maximum index for augmentation-charges          279 (set IRDMAX)


--------------------------------------------------------------------------------------------------------


 First call to EWALD:  gamma=   0.092
 Maximum number of real-space cells 3x 3x 3
 Maximum number of reciprocal cells 3x 3x 3

 FEWALD executed in parallel
    FEWALD:  cpu time    0.00: real time    0.00


----------------------------------------- Iteration    1(   1)  ---------------------------------------


    POTLOK:  cpu time    0.23: real time    0.23
    SETDIJ:  cpu time    0.01: real time    0.01
     EDDAV:  cpu time    1.16: real time    1.16
       DOS:  cpu time    0.00: real time    0.00
    --------------------------------------------
      LOOP:  cpu time    1.40: real time    1.43

 eigenvalue-minimisations  :   464
 total energy-change (2. order) : 0.1533839E+04  (-0.2981369E+04)
 number of electron     176.0000000 magnetization      16.0000000
 augmentation part      176.0000000 magnetization      16.0000000

 Free energy of the ion-electron system (eV)
  ---------------------------------------------------
  alpha Z        PSCENC =        30.62872392
  Ewald energy   TEWEN  =     20571.22574273
  -Hartree energ DENC   =    -36487.85690825
  -exchange      EXHF   =         0.00000000
  -V(xc)+E(xc)   XCENC  =      -179.60620747
  PAW double counting   =     16053.95484911   -15316.23374206
  entropy T*S    EENTRO =         0.00000000
  eigenvalues    EBANDS =       266.54851200
  atomic energy  EATOM  =     16595.17808138
  ---------------------------------------------------
  free energy    TOTEN  =      1533.83905136 eV

  energy without entropy =     1533.83905136  energy(sigma->0) =     1533.83905136


--------------------------------------------------------------------------------------------------------




----------------------------------------- Iteration    1(   2)  ---------------------------------------


     EDDAV:  cpu time    1.88: real time    1.88
       DOS:  cpu time    0.00: real time    0.00
    --------------------------------------------
      LOOP:  cpu time    1.88: real time    1.89

 eigenvalue-minimisations  :   848
 total energy-change (2. order) :-0.1116652E+04  (-0.9834879E+03)
 number of electron     176.0000000 magnetization      16.0000000
 augmentation part      176.0000000 magnetization      16.0000000

 Free energy of the ion-electron system (eV)
  ---------------------------------------------------
  alpha Z        PSCENC =        30.62872392
  Ewald energy   TEWEN  =     20571.22574273
  -Hartree energ DENC   =    -36487.85690825
  -exchange      EXHF   =         0.00000000
  -V(xc)+E(xc)   XCENC  =      -179.60620747
  PAW double counting   =     16053.95484911   -15316.23374206
  entropy T*S    EENTRO =         0.00000000
  eigenvalues    EBANDS =      -850.10320585
  atomic energy  EATOM  =     16595.17808138
  ---------------------------------------------------
  free energy    TOTEN  =       417.18733350 eV

  energy without entropy =      417.18733350  energy(sigma->0) =      417.18733350


--------------------------------------------------------------------------------------------------------




----------------------------------------- Iteration    1(   3)  ---------------------------------------


     EDDAV:  cpu time    1.50: real time    1.51
       DOS:  cpu time    0.00: real time    0.00
    --------------------------------------------
      LOOP:  cpu time    1.51: real time    1.51

 eigenvalue-minimisations  :   640
 total energy-change (2. order) :-0.4216839E+03  (-0.3842727E+03)
 number of electron     176.0000000 magnetization      16.0000000
 augmentation part      176.0000000 magnetization      16.0000000

 Free energy of the ion-electron system (eV)
  ---------------------------------------------------
  alpha Z        PSCENC =        30.62872392
  Ewald energy   TEWEN  =     20571.22574273
  -Hartree energ DENC   =    -36487.85690825
  -exchange      EXHF   =         0.00000000
  -V(xc)+E(xc)   XCENC  =      -179.60620747
  PAW double counting   =     16053.95484911   -15316.23374206
  entropy T*S    EENTRO =         0.00000000
  eigenvalues    EBANDS =     -1271.78709958
  atomic energy  EATOM  =     16595.17808138
  ---------------------------------------------------
  free energy    TOTEN  =        -4.49656022 eV

  energy without entropy =       -4.49656022  energy(sigma->0) =       -4.49656022


--------------------------------------------------------------------------------------------------------




----------------------------------------- Iteration    1(   4)  ---------------------------------------


     EDDAV:  cpu time    1.26: real time    1.27
       DOS:  cpu time    0.00: real time    0.00
    --------------------------------------------
      LOOP:  cpu time    1.27: real time    1.28

 eigenvalue-minimisations  :   512
 total energy-change (2. order) :-0.2544733E+02  (-0.2517821E+02)
 number of electron     176.0000000 magnetization      16.0000000
 augmentation part      176.0000000 magnetization      16.0000000

 Free energy of the ion-electron system (eV)
  ---------------------------------------------------
  alpha Z        PSCENC =        30.62872392
  Ewald energy   TEWEN  =     20571.22574273
  -Hartree energ DENC   =    -36487.85690825
  -exchange      EXHF   =         0.00000000
  -V(xc)+E(xc)   XCENC  =      -179.60620747
  PAW double counting   =     16053.95484911   -15316.23374206
  entropy T*S    EENTRO =        -0.00000000
  eigenvalues    EBANDS =     -1297.23442976
  atomic energy  EATOM  =     16595.17808138
  ---------------------------------------------------
  free energy    TOTEN  =       -29.94389040 eV

  energy without entropy =      -29.94389040  energy(sigma->0) =      -29.94389040


--------------------------------------------------------------------------------------------------------




----------------------------------------- Iteration    1(   5)  ---------------------------------------


     EDDAV:  cpu time    1.32: real time    1.32
       DOS:  cpu time    0.00: real time    0.00
    CHARGE:  cpu time    0.16: real time    0.16
    MIXING:  cpu time    0.01: real time    0.01
    --------------------------------------------
      LOOP:  cpu time    1.50: real time    1.50

 eigenvalue-minimisations  :   544
 total energy-change (2. order) :-0.3450053E+00  (-0.3440421E+00)
 number of electron     176.0000938 magnetization      13.8389527
 augmentation part       83.2435126 magnetization      12.2685023

 Broyden mixing:
  rms(total) = 0.20321E+01    rms(broyden)= 0.20317E+01
  rms(prec ) = 0.20803E+01
  weight for this iteration     100.00

 Free energy of the ion-electron system (eV)
  ---------------------------------------------------
  alpha Z        PSCENC =        30.62872392
  Ewald energy   TEWEN  =     20571.22574273
  -Hartree energ DENC   =    -36487.85690825
  -exchange      EXHF   =         0.00000000
  -V(xc)+E(xc)   XCENC  =      -179.60620747
  PAW double counting   =     16053.95484911   -15316.23374206
  entropy T*S    EENTRO =        -0.00005627
  eigenvalues    EBANDS =     -1297.57937876
  atomic energy  EATOM  =     16595.17808138
  ---------------------------------------------------
  free energy    TOTEN  =       -30.28889567 eV

  energy without entropy =      -30.28883940  energy(sigma->0) =      -30.28886753


--------------------------------------------------------------------------------------------------------




----------------------------------------- Iteration    1(   6)  ---------------------------------------


    POTLOK:  cpu time    0.22: real time    0.23
    SETDIJ:  cpu time    0.01: real time    0.01
     EDDAV:  cpu time    1.18: real time    1.18
       DOS:  cpu time    0.00: real time    0.00
    CHARGE:  cpu time    0.16: real time    0.16
    MIXING:  cpu time    0.01: real time    0.01
    --------------------------------------------
      LOOP:  cpu time    1.58: real time    1.58

 eigenvalue-minimisations  :   468
 total energy-change (2. order) : 0.1966207E+02  (-0.5410820E+01)
 number of electron     176.0000955 magnetization      12.4861631
 augmentation part       84.9154646 magnetization       7.3670147

 Broyden mixing:
  rms(total) = 0.96682E+00    rms(broyden)= 0.96671E+00
  rms(prec ) = 0.98540E+00
  weight for this iteration     100.00

 eigenvalues of (default mixing * dielectric matrix)
  average eigenvalue GAMMA=   0.8358
  0.8358

 Free energy of the ion-electron system (eV)
  ---------------------------------------------------
  alpha Z        PSCENC =        30.62872392
  Ewald energy   TEWEN  =     20571.22574273
  -Hartree energ DENC   =    -36434.25083531
  -exchange      EXHF   =         0.00000000
  -V(xc)+E(xc)   XCENC  =      -170.29717087
  PAW double counting   =     16430.69441544   -15701.96217364
  entropy T*S    EENTRO =         0.00000000
  eigenvalues    EBANDS =     -1331.84361157
  atomic energy  EATOM  =     16595.17808138
  ---------------------------------------------------
  free energy    TOTEN  =       -10.62682792 eV

  energy without entropy =      -10.62682792  energy(sigma->0) =      -10.62682792


--------------------------------------------------------------------------------------------------------




----------------------------------------- Iteration    1(   7)  ---------------------------------------


    POTLOK:  cpu time    0.22: real time    0.22
    SETDIJ:  cpu time    0.01: real time    0.01
     EDDAV:  cpu time    1.28: real time    1.28
       DOS:  cpu time    0.00: real time    0.00
    CHARGE:  cpu time    0.16: real time    0.16
    MIXING:  cpu time    0.00: real time    0.01
    --------------------------------------------
      LOOP:  cpu time    1.67: real time    1.68

 eigenvalue-minimisations  :   520
 total energy-change (2. order) : 0.4527757E+01  (-0.3464866E+00)
 number of electron     176.0000956 magnetization      10.6950218
 augmentation part       84.8861722 magnetization       5.7345828

 Broyden mixing:
  rms(total) = 0.57637E+00    rms(broyden)= 0.57636E+00
  rms(prec ) = 0.58871E+00
  weight for this iteration     100.00

 eigenvalues of (default mixing * dielectric matrix)
  average eigenvalue GAMMA=   0.8892
  0.7230  1.0553

 Free energy of the ion-electron system (eV)
  ---------------------------------------------------
  alpha Z        PSCENC =        30.62872392
  Ewald energy   TEWEN  =     20571.22574273
  -Hartree energ DENC   =    -36462.77473957
  -exchange      EXHF   =         0.00000000
  -V(xc)+E(xc)   XCENC  =      -166.16616460
  PAW double counting   =     16660.70955744   -15937.41414113
  entropy T*S    EENTRO =         0.00000000
  eigenvalues    EBANDS =     -1297.48613125
  atomic energy  EATOM  =     16595.17808138
  ---------------------------------------------------
  free energy    TOTEN  =        -6.09907108 eV

  energy without entropy =       -6.09907108  energy(sigma->0) =       -6.09907108


--------------------------------------------------------------------------------------------------------




----------------------------------------- Iteration    1(   8)  ---------------------------------------


    POTLOK:  cpu time    0.22: real time    0.23
    SETDIJ:  cpu time    0.01: real time    0.01
     EDDAV:  cpu time    1.25: real time    1.25
       DOS:  cpu time    0.00: real time    0.00
    CHARGE:  cpu time    0.16: real time    0.16
    MIXING:  cpu time    0.01: real time    0.01
    --------------------------------------------
      LOOP:  cpu time    1.65: real time    1.65

 eigenvalue-minimisations  :   508
 total energy-change (2. order) :-0.3128335E+01  (-0.1435178E+00)
 number of electron     176.0000953 magnetization       8.7723309
 augmentation part       84.7297950 magnetization       5.9161487

 Broyden mixing:
  rms(total) = 0.41103E+00    rms(broyden)= 0.41099E+00
  rms(prec ) = 0.42148E+00
  weight for this iteration     100.00

 eigenvalues of (default mixing * dielectric matrix)
  average eigenvalue GAMMA=   1.1652
  0.5809  0.8774  2.0373

 Free energy of the ion-electron system (eV)
  ---------------------------------------------------
  alpha Z        PSCENC =        30.62872392
  Ewald energy   TEWEN  =     20571.22574273
  -Hartree energ DENC   =    -36495.06528701
  -exchange      EXHF   =         0.00000000
  -V(xc)+E(xc)   XCENC  =      -168.05603756
  PAW double counting   =     16901.54831297   -16183.34293951
  entropy T*S    EENTRO =        -0.00005635
  eigenvalues    EBANDS =     -1261.34394635
  atomic energy  EATOM  =     16595.17808138
  ---------------------------------------------------
  free energy    TOTEN  =        -9.22740579 eV

  energy without entropy =       -9.22734944  energy(sigma->0) =       -9.22737761


--------------------------------------------------------------------------------------------------------




----------------------------------------- Iteration    1(   9)  ---------------------------------------


    POTLOK:  cpu time    0.22: real time    0.22
    SETDIJ:  cpu time    0.00: real time    0.01
     EDDAV:  cpu time    1.27: real time    1.27
       DOS:  cpu time    0.00: real time    0.00
    CHARGE:  cpu time    0.16: real time    0.16
    MIXING:  cpu time    0.01: real time    0.01
    --------------------------------------------
      LOOP:  cpu time    1.67: real time    1.67

 eigenvalue-minimisations  :   516
 total energy-change (2. order) :-0.1486450E+01  (-0.1374747E+00)
 number of electron     176.0000951 magnetization       7.5628068
 augmentation part       84.6447757 magnetization       4.8685732

 Broyden mixing:
  rms(total) = 0.23745E+00    rms(broyden)= 0.23744E+00
  rms(prec ) = 0.24372E+00
  weight for this iteration     100.00

 eigenvalues of (default mixing * dielectric matrix)
  average eigenvalue GAMMA=   1.1092
  2.0410  1.0925  0.5694  0.7337

 Free energy of the ion-electron system (eV)
  ---------------------------------------------------
  alpha Z        PSCENC =        30.62872392
  Ewald energy   TEWEN  =     20571.22574273
  -Hartree energ DENC   =    -36520.98267284
  -exchange      EXHF   =         0.00000000
  -V(xc)+E(xc)   XCENC  =      -168.52490624
  PAW double counting   =     17071.58548901   -16356.88938151
  entropy T*S    EENTRO =        -0.00005642
  eigenvalues    EBANDS =     -1232.93487627
  atomic energy  EATOM  =     16595.17808138
  ---------------------------------------------------
  free energy    TOTEN  =       -10.71385624 eV

  energy without entropy =      -10.71379982  energy(sigma->0) =      -10.71382803


--------------------------------------------------------------------------------------------------------




----------------------------------------- Iteration    1(  10)  ---------------------------------------


    POTLOK:  cpu time    0.22: real time    0.23
    SETDIJ:  cpu time    0.01: real time    0.01
     EDDAV:  cpu time    1.19: real time    1.19
       DOS:  cpu time    0.00: real time    0.00
    CHARGE:  cpu time    0.16: real time    0.16
    MIXING:  cpu time    0.01: real time    0.01
    --------------------------------------------
      LOOP:  cpu time    1.59: real time    1.59

 eigenvalue-minimisations  :   476
 total energy-change (2. order) :-0.5020397E+01  (-0.1543754E+00)
 number of electron     176.0000951 magnetization       5.4353457
 augmentation part       84.6484356 magnetization       2.9074454

 Broyden mixing:
  rms(total) = 0.17489E+00    rms(broyden)= 0.17488E+00
  rms(prec ) = 0.17918E+00
  weight for this iteration     100.00

 eigenvalues of (default mixing * dielectric matrix)
  average eigenvalue GAMMA=   1.2719
  2.1252  2.1252  0.8174  0.6000  0.6918

 Free energy of the ion-electron system (eV)
  ---------------------------------------------------
  alpha Z        PSCENC =        30.62872392
  Ewald energy   TEWEN  =     20571.22574273
  -Hartree energ DENC   =    -36525.41280451
  -exchange      EXHF   =         0.00000000
  -V(xc)+E(xc)   XCENC  =      -172.31907034
  PAW double counting   =     17075.24416662   -16360.72497391
  entropy T*S    EENTRO =        -0.00005642
  eigenvalues    EBANDS =     -1229.55406304
  atomic energy  EATOM  =     16595.17808138
  ---------------------------------------------------
  free energy    TOTEN  =       -15.73425357 eV

  energy without entropy =      -15.73419715  energy(sigma->0) =      -15.73422536


--------------------------------------------------------------------------------------------------------




----------------------------------------- Iteration    1(  11)  ---------------------------------------


    POTLOK:  cpu time    0.22: real time    0.22
    SETDIJ:  cpu time    0.01: real time    0.01
     EDDAV:  cpu time    1.22: real time    1.22
       DOS:  cpu time    0.00: real time    0.00
    CHARGE:  cpu time    0.16: real time    0.16
    MIXING:  cpu time    0.00: real time    0.01
    --------------------------------------------
      LOOP:  cpu time    1.61: real time    1.62

 eigenvalue-minimisations  :   488
 total energy-change (2. order) :-0.6435497E+01  (-0.3195731E+00)
 number of electron     176.0000952 magnetization       4.3665747
 augmentation part       84.6719027 magnetization       2.0846791

 Broyden mixing:
  rms(total) = 0.10701E+00    rms(broyden)= 0.10700E+00
  rms(prec ) = 0.11077E+00
  weight for this iteration     100.00

 eigenvalues of (default mixing * dielectric matrix)
  average eigenvalue GAMMA=   1.3478
  3.0731  1.8633  0.9658  0.9658  0.5715  0.6474

 Free energy of the ion-electron system (eV)
  ---------------------------------------------------
  alpha Z        PSCENC =        30.62872392
  Ewald energy   TEWEN  =     20571.22574273
  -Hartree energ DENC   =    -36529.19180914
  -exchange      EXHF   =         0.00000000
  -V(xc)+E(xc)   XCENC  =      -177.24806236
  PAW double counting   =     17067.16719730   -16352.90441641
  entropy T*S    EENTRO =        -0.00005642
  eigenvalues    EBANDS =     -1227.02515187
  atomic energy  EATOM  =     16595.17808138
  ---------------------------------------------------
  free energy    TOTEN  =       -22.16975087 eV

  energy without entropy =      -22.16969445  energy(sigma->0) =      -22.16972266


--------------------------------------------------------------------------------------------------------




----------------------------------------- Iteration    1(  12)  ---------------------------------------


    POTLOK:  cpu time    0.22: real time    0.23
    SETDIJ:  cpu time    0.01: real time    0.01
     EDDAV:  cpu time    1.23: real time    1.23
       DOS:  cpu time    0.00: real time    0.00
    CHARGE:  cpu time    0.16: real time    0.16
    MIXING:  cpu time    0.01: real time    0.01
    --------------------------------------------
      LOOP:  cpu time    1.63: real time    1.63

 eigenvalue-minimisations  :   496
 total energy-change (2. order) :-0.2861004E+01  (-0.8852209E-01)
 number of electron     176.0000951 magnetization       3.3847869
 augmentation part       84.6530276 magnetization       1.2025652

 Broyden mixing:
  rms(total) = 0.76643E-01    rms(broyden)= 0.76638E-01
  rms(prec ) = 0.82799E-01
  weight for this iteration     100.00

 eigenvalues of (default mixing * dielectric matrix)
  average eigenvalue GAMMA=   1.4671
  3.3440  2.4646  1.2139  1.2139  0.5825  0.6596  0.7912

 Free energy of the ion-electron system (eV)
  ---------------------------------------------------
  alpha Z        PSCENC =        30.62872392
  Ewald energy   TEWEN  =     20571.22574273
  -Hartree energ DENC   =    -36528.04498817
  -exchange      EXHF   =         0.00000000
  -V(xc)+E(xc)   XCENC  =      -179.53288550
  PAW double counting   =     17051.20194942   -16336.98325308
  entropy T*S    EENTRO =        -0.00005638
  eigenvalues    EBANDS =     -1228.70406915
  atomic energy  EATOM  =     16595.17808138
  ---------------------------------------------------
  free energy    TOTEN  =       -25.03075484 eV

  energy without entropy =      -25.03069846  energy(sigma->0) =      -25.03072665


--------------------------------------------------------------------------------------------------------




----------------------------------------- Iteration    1(  13)  ---------------------------------------


    POTLOK:  cpu time    0.23: real time    0.23
    SETDIJ:  cpu time    0.00: real time    0.01
     EDDAV:  cpu time    1.20: real time    1.20
       DOS:  cpu time    0.00: real time    0.00
    CHARGE:  cpu time    0.16: real time    0.16
    MIXING:  cpu time    0.01: real time    0.01
    --------------------------------------------
      LOOP:  cpu time    1.60: real time    1.60

 eigenvalue-minimisations  :   480
 total energy-change (2. order) :-0.3006155E+01  (-0.9157536E-01)
 number of electron     176.0000950 magnetization       3.2103400
 augmentation part       84.6783887 magnetization       3.0489933

 Broyden mixing:
  rms(total) = 0.15273E+00    rms(broyden)= 0.15259E+00
  rms(prec ) = 0.16858E+00
  weight for this iteration     100.00

 eigenvalues of (default mixing * dielectric matrix)
  average eigenvalue GAMMA=   1.3346
  3.7097  2.3325  1.2294  1.2294  0.8078  0.5781  0.6552  0.1352

 Free energy of the ion-electron system (eV)
  ---------------------------------------------------
  alpha Z        PSCENC =        30.62872392
  Ewald energy   TEWEN  =     20571.22574273
  -Hartree energ DENC   =    -36514.34034932
  -exchange      EXHF   =         0.00000000
  -V(xc)+E(xc)   XCENC  =      -182.23384189
  PAW double counting   =     16989.59833539   -16274.67843991
  entropy T*S    EENTRO =         0.00000000
  eigenvalues    EBANDS =     -1243.41516224
  atomic energy  EATOM  =     16595.17808138
  ---------------------------------------------------
  free energy    TOTEN  =       -28.03690994 eV

  energy without entropy =      -28.03690994  energy(sigma->0) =      -28.03690994


--------------------------------------------------------------------------------------------------------




----------------------------------------- Iteration    1(  14)  ---------------------------------------


    POTLOK:  cpu time    0.23: real time    0.23
    SETDIJ:  cpu time    0.00: real time    0.01
     EDDAV:  cpu time    1.32: real time    1.31
       DOS:  cpu time    0.00: real time    0.00
    CHARGE:  cpu time    0.16: real time    0.16
    MIXING:  cpu time    0.01: real time    0.01
    --------------------------------------------
      LOOP:  cpu time    1.71: real time    1.72

 eigenvalue-minimisations  :   540
 total energy-change (2. order) :-0.7976086E-01  (-0.2164766E-02)
 number of electron     176.0000950 magnetization       2.5294047
 augmentation part       84.6762419 magnetization       2.3853495

 Broyden mixing:
  rms(total) = 0.14176E+00    rms(broyden)= 0.14175E+00
  rms(prec ) = 0.15738E+00
  weight for this iteration     100.00

 eigenvalues of (default mixing * dielectric matrix)
  average eigenvalue GAMMA=   1.3607
  4.3039  2.4017  1.2033  1.2033  0.7986  0.5903  0.6690  0.5378  0.5378

 Free energy of the ion-electron system (eV)
  ---------------------------------------------------
  alpha Z        PSCENC =        30.62872392
  Ewald energy   TEWEN  =     20571.22574273
  -Hartree energ DENC   =    -36514.07119333
  -exchange      EXHF   =         0.00000000
  -V(xc)+E(xc)   XCENC  =      -182.31150654
  PAW double counting   =     16988.79420487   -16273.89526714
  entropy T*S    EENTRO =         0.00000000
  eigenvalues    EBANDS =     -1243.66545669
  atomic energy  EATOM  =     16595.17808138
  ---------------------------------------------------
  free energy    TOTEN  =       -28.11667080 eV

  energy without entropy =      -28.11667080  energy(sigma->0) =      -28.11667080


--------------------------------------------------------------------------------------------------------




----------------------------------------- Iteration    1(  15)  ---------------------------------------


    POTLOK:  cpu time    0.22: real time    0.23
    SETDIJ:  cpu time    0.01: real time    0.01
     EDDAV:  cpu time    1.22: real time    1.22
       DOS:  cpu time    0.00: real time    0.00
    CHARGE:  cpu time    0.16: real time    0.16
    MIXING:  cpu time    0.01: real time    0.01
    --------------------------------------------
      LOOP:  cpu time    1.62: real time    1.62

 eigenvalue-minimisations  :   488
 total energy-change (2. order) :-0.4619479E+00  (-0.6168658E-02)
 number of electron     176.0000950 magnetization       1.7204102
 augmentation part       84.6958832 magnetization       1.6155310

 Broyden mixing:
  rms(total) = 0.11625E+00    rms(broyden)= 0.11625E+00
  rms(prec ) = 0.12806E+00
  weight for this iteration     100.00

 eigenvalues of (default mixing * dielectric matrix)
  average eigenvalue GAMMA=   1.4470
  5.4014  2.0053  1.6324  0.9998  0.9998  0.9677  0.7824  0.6462  0.5660  0.4687

 Free energy of the ion-electron system (eV)
  ---------------------------------------------------
  alpha Z        PSCENC =        30.62872392
  Ewald energy   TEWEN  =     20571.22574273
  -Hartree energ DENC   =    -36510.79618346
  -exchange      EXHF   =         0.00000000
  -V(xc)+E(xc)   XCENC  =      -182.77328230
  PAW double counting   =     16974.96427313   -16259.96272379
  entropy T*S    EENTRO =         0.00000000
  eigenvalues    EBANDS =     -1247.04325034
  atomic energy  EATOM  =     16595.17808138
  ---------------------------------------------------
  free energy    TOTEN  =       -28.57861873 eV

  energy without entropy =      -28.57861873  energy(sigma->0) =      -28.57861873


--------------------------------------------------------------------------------------------------------




----------------------------------------- Iteration    1(  16)  ---------------------------------------


    POTLOK:  cpu time    0.22: real time    0.23
    SETDIJ:  cpu time    0.01: real time    0.01
     EDDAV:  cpu time    1.25: real time    1.25
       DOS:  cpu time    0.00: real time    0.00
    CHARGE:  cpu time    0.16: real time    0.16
    MIXING:  cpu time    0.01: real time    0.01
    --------------------------------------------
      LOOP:  cpu time    1.65: real time    4.92

 eigenvalue-minimisations  :   504
 total energy-change (2. order) :-0.4009184E+00  (-0.5290851E-02)
 number of electron     176.0000950 magnetization       0.7659226
 augmentation part       84.6848627 magnetization       0.7006699

 Broyden mixing:
  rms(total) = 0.70066E-01    rms(broyden)= 0.70065E-01
  rms(prec ) = 0.78104E-01
  weight for this iteration     100.00

 eigenvalues of (default mixing * dielectric matrix)
  average eigenvalue GAMMA=   1.5747
  6.7441  1.8661  1.8661  1.2794  1.2794  1.0564  0.7964  0.6999  0.5974  0.5680
  0.5680

 Free energy of the ion-electron system (eV)
  ---------------------------------------------------
  alpha Z        PSCENC =        30.62872392
  Ewald energy   TEWEN  =     20571.22574273
  -Hartree energ DENC   =    -36510.30732343
  -exchange      EXHF   =         0.00000000
  -V(xc)+E(xc)   XCENC  =      -183.14467924
  PAW double counting   =     16979.87002113   -16265.03981079
  entropy T*S    EENTRO =         0.00000000
  eigenvalues    EBANDS =     -1247.39029286
  atomic energy  EATOM  =     16595.17808138
  ---------------------------------------------------
  free energy    TOTEN  =       -28.97953717 eV

  energy without entropy =      -28.97953717  energy(sigma->0) =      -28.97953717


--------------------------------------------------------------------------------------------------------




----------------------------------------- Iteration    1(  17)  ---------------------------------------


    POTLOK:  cpu time    0.22: real time    0.23
    SETDIJ:  cpu time    0.01: real time    0.01
     EDDAV:  cpu time    1.21: real time    1.21
       DOS:  cpu time    0.00: real time    0.00
    CHARGE:  cpu time    0.16: real time    0.16
    MIXING:  cpu time    0.01: real time    0.01
    --------------------------------------------
      LOOP:  cpu time    1.61: real time    2.61

 eigenvalue-minimisations  :   480
 total energy-change (2. order) :-0.7426090E+00  (-0.8840939E-02)
 number of electron     176.0000950 magnetization       0.3460785
 augmentation part       84.6819374 magnetization       0.3246606

 Broyden mixing:
  rms(total) = 0.28758E-01    rms(broyden)= 0.28753E-01
  rms(prec ) = 0.32857E-01
  weight for this iteration     100.00

 eigenvalues of (default mixing * dielectric matrix)
  average eigenvalue GAMMA=   1.6420
  7.5034  2.2879  1.7341  1.7341  1.1991  1.1991  0.8282  0.7109  0.7109  0.6072
  0.5945  0.5945

 Free energy of the ion-electron system (eV)
  ---------------------------------------------------
  alpha Z        PSCENC =        30.62872392
  Ewald energy   TEWEN  =     20571.22574273
  -Hartree energ DENC   =    -36506.64360691
  -exchange      EXHF   =         0.00000000
  -V(xc)+E(xc)   XCENC  =      -183.88092291
  PAW double counting   =     16978.98490395   -16264.12768147
  entropy T*S    EENTRO =         0.00000000
  eigenvalues    EBANDS =     -1251.08738685
  atomic energy  EATOM  =     16595.17808138
  ---------------------------------------------------
  free energy    TOTEN  =       -29.72214617 eV

  energy without entropy =      -29.72214617  energy(sigma->0) =      -29.72214617


--------------------------------------------------------------------------------------------------------




----------------------------------------- Iteration    1(  18)  ---------------------------------------


    POTLOK:  cpu time    0.23: real time    0.23
    SETDIJ:  cpu time    0.00: real time    0.01
     EDDAV:  cpu time    1.20: real time    1.20
       DOS:  cpu time    0.00: real time    0.00
    CHARGE:  cpu time    0.16: real time    0.16
    MIXING:  cpu time    0.01: real time    0.01
    --------------------------------------------
      LOOP:  cpu time    1.60: real time    1.60

 eigenvalue-minimisations  :   476
 total energy-change (2. order) :-0.3895429E+00  (-0.2870447E-02)
 number of electron     176.0000950 magnetization       0.0820185
 augmentation part       84.6882958 magnetization       0.0769662

 Broyden mixing:
  rms(total) = 0.17967E-01    rms(broyden)= 0.17964E-01
  rms(prec ) = 0.20743E-01
  weight for this iteration     100.00

 eigenvalues of (default mixing * dielectric matrix)
  average eigenvalue GAMMA=   1.7384
  8.2759  2.4167  2.1229  2.1229  1.3643  1.3643  1.0114  0.7482  0.7482  0.5855
  0.5855  0.6310  0.6223

 Free energy of the ion-electron system (eV)
  ---------------------------------------------------
  alpha Z        PSCENC =        30.62872392
  Ewald energy   TEWEN  =     20571.22574273
  -Hartree energ DENC   =    -36501.62059652
  -exchange      EXHF   =         0.00000000
  -V(xc)+E(xc)   XCENC  =      -184.30168090
  PAW double counting   =     16977.76792788   -16262.77629040
  entropy T*S    EENTRO =         0.00000000
  eigenvalues    EBANDS =     -1256.21359717
  atomic energy  EATOM  =     16595.17808138
  ---------------------------------------------------
  free energy    TOTEN  =       -30.11168909 eV

  energy without entropy =      -30.11168909  energy(sigma->0) =      -30.11168909


--------------------------------------------------------------------------------------------------------




----------------------------------------- Iteration    1(  19)  ---------------------------------------


    POTLOK:  cpu time    0.22: real time    0.22
    SETDIJ:  cpu time    0.01: real time    0.04
     EDDAV:  cpu time    1.24: real time    1.24
       DOS:  cpu time    0.00: real time    0.00
    CHARGE:  cpu time    0.16: real time    0.16
    MIXING:  cpu time    0.01: real time    0.01
    --------------------------------------------
      LOOP:  cpu time    1.64: real time    1.67

 eigenvalue-minimisations  :   496
 total energy-change (2. order) :-0.1325156E+00  (-0.8330134E-03)
 number of electron     176.0000950 magnetization       0.0473237
 augmentation part       84.6832290 magnetization       0.0491209

 Broyden mixing:
  rms(total) = 0.62176E-02    rms(broyden)= 0.62160E-02
  rms(prec ) = 0.91075E-02
  weight for this iteration     100.00

 eigenvalues of (default mixing * dielectric matrix)
  average eigenvalue GAMMA=   1.7400
  8.4112  3.1791  1.9261  1.9261  1.8464  1.1217  1.1217  0.9272  0.7432  0.7432
  0.5862  0.5862  0.6401  0.6016

 Free energy of the ion-electron system (eV)
  ---------------------------------------------------
  alpha Z        PSCENC =        30.62872392
  Ewald energy   TEWEN  =     20571.22574273
  -Hartree energ DENC   =    -36497.83109567
  -exchange      EXHF   =         0.00000000
  -V(xc)+E(xc)   XCENC  =      -184.45722852
  PAW double counting   =     16986.64416736   -16271.67995969
  entropy T*S    EENTRO =         0.00000000
  eigenvalues    EBANDS =     -1259.95263625
  atomic energy  EATOM  =     16595.17808138
  ---------------------------------------------------
  free energy    TOTEN  =       -30.24420473 eV

  energy without entropy =      -30.24420473  energy(sigma->0) =      -30.24420473


--------------------------------------------------------------------------------------------------------




----------------------------------------- Iteration    1(  20)  ---------------------------------------


    POTLOK:  cpu time    0.22: real time    0.22
    SETDIJ:  cpu time    0.01: real time    0.01
     EDDAV:  cpu time    1.24: real time    1.24
       DOS:  cpu time    0.00: real time    0.00
    CHARGE:  cpu time    0.16: real time    0.16
    MIXING:  cpu time    0.01: real time    0.01
    --------------------------------------------
      LOOP:  cpu time    1.64: real time    1.67

 eigenvalue-minimisations  :   500
 total energy-change (2. order) :-0.3157489E-01  (-0.1939320E-03)
 number of electron     176.0000950 magnetization      -0.0060527
 augmentation part       84.6804693 magnetization      -0.0070534

 Broyden mixing:
  rms(total) = 0.46808E-02    rms(broyden)= 0.46802E-02
  rms(prec ) = 0.67154E-02
  weight for this iteration     100.00

 eigenvalues of (default mixing * dielectric matrix)
  average eigenvalue GAMMA=   1.7347
  8.5401  3.4709  1.9418  1.9418  1.7522  1.3042  1.3042  1.0177  0.8263  0.8263
  0.5858  0.5858  0.6917  0.5997  0.6327

 Free energy of the ion-electron system (eV)
  ---------------------------------------------------
  alpha Z        PSCENC =        30.62872392
  Ewald energy   TEWEN  =     20571.22574273
  -Hartree energ DENC   =    -36495.10922967
  -exchange      EXHF   =         0.00000000
  -V(xc)+E(xc)   XCENC  =      -184.50518179
  PAW double counting   =     16989.55608278   -16274.59154725
  entropy T*S    EENTRO =         0.00000000
  eigenvalues    EBANDS =     -1262.65845172
  atomic energy  EATOM  =     16595.17808138
  ---------------------------------------------------
  free energy    TOTEN  =       -30.27577962 eV

  energy without entropy =      -30.27577962  energy(sigma->0) =      -30.27577962


--------------------------------------------------------------------------------------------------------




----------------------------------------- Iteration    1(  21)  ---------------------------------------


    POTLOK:  cpu time    0.22: real time    0.22
    SETDIJ:  cpu time    0.00: real time    0.01
     EDDAV:  cpu time    1.03: real time    1.03
       DOS:  cpu time    0.00: real time    0.00
    CHARGE:  cpu time    0.16: real time    0.16
    MIXING:  cpu time    0.01: real time    0.01
    --------------------------------------------
      LOOP:  cpu time    1.43: real time    1.43

 eigenvalue-minimisations  :   380
 total energy-change (2. order) :-0.5268967E-02  (-0.1114003E-03)
 number of electron     176.0000950 magnetization      -0.0040988
 augmentation part       84.6837351 magnetization      -0.0028998

 Broyden mixing:
  rms(total) = 0.39811E-02    rms(broyden)= 0.39809E-02
  rms(prec ) = 0.52428E-02
  weight for this iteration     100.00

 eigenvalues of (default mixing * dielectric matrix)
  average eigenvalue GAMMA=   1.7419
  8.5803  3.6258  2.6081  1.8998  1.8998  1.5144  1.1313  1.1313  0.9199  0.7371
  0.7371  0.5848  0.5848  0.6901  0.5947  0.6305

 Free energy of the ion-electron system (eV)
  ---------------------------------------------------
  alpha Z        PSCENC =        30.62872392
  Ewald energy   TEWEN  =     20571.22574273
  -Hartree energ DENC   =    -36492.77023706
  -exchange      EXHF   =         0.00000000
  -V(xc)+E(xc)   XCENC  =      -184.52959601
  PAW double counting   =     16989.83026153   -16274.86999274
  entropy T*S    EENTRO =         0.00000000
  eigenvalues    EBANDS =     -1264.97403235
  atomic energy  EATOM  =     16595.17808138
  ---------------------------------------------------
  free energy    TOTEN  =       -30.28104859 eV

  energy without entropy =      -30.28104859  energy(sigma->0) =      -30.28104859


--------------------------------------------------------------------------------------------------------




----------------------------------------- Iteration    1(  22)  ---------------------------------------


    POTLOK:  cpu time    0.22: real time    0.22
    SETDIJ:  cpu time    0.00: real time    0.01
     EDDAV:  cpu time    0.98: real time    0.98
       DOS:  cpu time    0.00: real time    0.00
    CHARGE:  cpu time    0.16: real time    0.16
    MIXING:  cpu time    0.01: real time    0.01
    --------------------------------------------
      LOOP:  cpu time    1.38: real time    1.39

 eigenvalue-minimisations  :   352
 total energy-change (2. order) :-0.3928032E-02  (-0.6942542E-04)
 number of electron     176.0000950 magnetization       0.0253330
 augmentation part       84.6846476 magnetization       0.0259617

 Broyden mixing:
  rms(total) = 0.20185E-02    rms(broyden)= 0.20184E-02
  rms(prec ) = 0.28765E-02
  weight for this iteration     100.00

 eigenvalues of (default mixing * dielectric matrix)
  average eigenvalue GAMMA=   1.7910
  8.3644  4.7804  2.7738  2.0993  2.0993  1.3934  1.3934  1.0906  0.9983  0.8217
  0.8217  0.7664  0.5854  0.5854  0.5997  0.6485  0.6248

 Free energy of the ion-electron system (eV)
  ---------------------------------------------------
  alpha Z        PSCENC =        30.62872392
  Ewald energy   TEWEN  =     20571.22574273
  -Hartree energ DENC   =    -36491.08193177
  -exchange      EXHF   =         0.00000000
  -V(xc)+E(xc)   XCENC  =      -184.54471863
  PAW double counting   =     16990.76693347   -16275.82777743
  entropy T*S    EENTRO =         0.00000000
  eigenvalues    EBANDS =     -1266.63003028
  atomic energy  EATOM  =     16595.17808138
  ---------------------------------------------------
  free energy    TOTEN  =       -30.28497662 eV

  energy without entropy =      -30.28497662  energy(sigma->0) =      -30.28497662


--------------------------------------------------------------------------------------------------------




----------------------------------------- Iteration    1(  23)  ---------------------------------------


    POTLOK:  cpu time    0.22: real time    0.22
    SETDIJ:  cpu time    0.01: real time    0.01
     EDDAV:  cpu time    0.98: real time    0.98
       DOS:  cpu time    0.00: real time    0.00
    CHARGE:  cpu time    0.16: real time    0.16
    MIXING:  cpu time    0.01: real time    0.01
    --------------------------------------------
      LOOP:  cpu time    1.38: real time    1.38

 eigenvalue-minimisations  :   352
 total energy-change (2. order) :-0.2010695E-02  (-0.5005068E-04)
 number of electron     176.0000950 magnetization       0.0149070
 augmentation part       84.6850673 magnetization       0.0132588

 Broyden mixing:
  rms(total) = 0.17719E-02    rms(broyden)= 0.17716E-02
  rms(prec ) = 0.21855E-02
  weight for this iteration     100.00

 eigenvalues of (default mixing * dielectric matrix)
  average eigenvalue GAMMA=   1.7932
  8.1389  5.6787  2.5162  2.3299  1.8210  1.8210  1.2982  1.2982  1.0241  1.0241
  0.7797  0.7797  0.5848  0.5848  0.7276  0.5996  0.6359  0.6359

 Free energy of the ion-electron system (eV)
  ---------------------------------------------------
  alpha Z        PSCENC =        30.62872392
  Ewald energy   TEWEN  =     20571.22574273
  -Hartree energ DENC   =    -36489.63477828
  -exchange      EXHF   =         0.00000000
  -V(xc)+E(xc)   XCENC  =      -184.55556095
  PAW double counting   =     16990.27294512   -16275.32597362
  entropy T*S    EENTRO =         0.00000000
  eigenvalues    EBANDS =     -1268.07616761
  atomic energy  EATOM  =     16595.17808138
  ---------------------------------------------------
  free energy    TOTEN  =       -30.28698732 eV

  energy without entropy =      -30.28698732  energy(sigma->0) =      -30.28698732


--------------------------------------------------------------------------------------------------------




----------------------------------------- Iteration    1(  24)  ---------------------------------------


    POTLOK:  cpu time    0.22: real time    0.22
    SETDIJ:  cpu time    0.01: real time    0.01
     EDDAV:  cpu time    0.94: real time    0.94
       DOS:  cpu time    0.00: real time    0.00
    CHARGE:  cpu time    0.16: real time    0.16
    MIXING:  cpu time    0.02: real time    0.01
    --------------------------------------------
      LOOP:  cpu time    1.35: real time    1.48

 eigenvalue-minimisations  :   332
 total energy-change (2. order) :-0.5275949E-03  (-0.8117922E-05)
 number of electron     176.0000950 magnetization       0.0011660
 augmentation part       84.6860502 magnetization       0.0002378

 Broyden mixing:
  rms(total) = 0.13440E-02    rms(broyden)= 0.13439E-02
  rms(prec ) = 0.16082E-02
  weight for this iteration     100.00

 eigenvalues of (default mixing * dielectric matrix)
  average eigenvalue GAMMA=   1.8158
  8.0855  6.1702  3.0488  2.2969  2.0273  2.0273  1.3377  1.3377  1.0183  1.0183
  0.8032  0.8032  0.8156  0.5858  0.5858  0.6586  0.6586  0.5988  0.6222

 Free energy of the ion-electron system (eV)
  ---------------------------------------------------
  alpha Z        PSCENC =        30.62872392
  Ewald energy   TEWEN  =     20571.22574273
  -Hartree energ DENC   =    -36488.97428319
  -exchange      EXHF   =         0.00000000
  -V(xc)+E(xc)   XCENC  =      -184.56095332
  PAW double counting   =     16989.63228584   -16274.67514630
  entropy T*S    EENTRO =         0.00000000
  eigenvalues    EBANDS =     -1268.74196597
  atomic energy  EATOM  =     16595.17808138
  ---------------------------------------------------
  free energy    TOTEN  =       -30.28751491 eV

  energy without entropy =      -30.28751491  energy(sigma->0) =      -30.28751491


--------------------------------------------------------------------------------------------------------




----------------------------------------- Iteration    1(  25)  ---------------------------------------


    POTLOK:  cpu time    0.22: real time    0.22
    SETDIJ:  cpu time    0.01: real time    0.01
     EDDAV:  cpu time    0.93: real time    0.93
       DOS:  cpu time    0.00: real time    0.00
    CHARGE:  cpu time    0.16: real time    0.16
    MIXING:  cpu time    0.01: real time    0.01
    --------------------------------------------
      LOOP:  cpu time    1.33: real time    1.35

 eigenvalue-minimisations  :   324
 total energy-change (2. order) :-0.1819283E-03  (-0.3951121E-05)
 number of electron     176.0000950 magnetization       0.0005798
 augmentation part       84.6859611 magnetization       0.0004562

 Broyden mixing:
  rms(total) = 0.53857E-03    rms(broyden)= 0.53848E-03
  rms(prec ) = 0.72511E-03
  weight for this iteration     100.00

 eigenvalues of (default mixing * dielectric matrix)
  average eigenvalue GAMMA=   1.8237
  7.8802  6.8543  3.3332  2.3118  2.0739  2.0739  1.3425  1.3425  1.2872  0.9202
  0.9202  0.8431  0.8431  0.5854  0.5854  0.7064  0.7064  0.6032  0.6032  0.6576

 Free energy of the ion-electron system (eV)
  ---------------------------------------------------
  alpha Z        PSCENC =        30.62872392
  Ewald energy   TEWEN  =     20571.22574273
  -Hartree energ DENC   =    -36488.70735140
  -exchange      EXHF   =         0.00000000
  -V(xc)+E(xc)   XCENC  =      -184.56212383
  PAW double counting   =     16989.89177541   -16274.93825052
  entropy T*S    EENTRO =         0.00000000
  eigenvalues    EBANDS =     -1269.00429453
  atomic energy  EATOM  =     16595.17808138
  ---------------------------------------------------
  free energy    TOTEN  =       -30.28769684 eV

  energy without entropy =      -30.28769684  energy(sigma->0) =      -30.28769684


--------------------------------------------------------------------------------------------------------




----------------------------------------- Iteration    1(  26)  ---------------------------------------


    POTLOK:  cpu time    0.22: real time    0.22
    SETDIJ:  cpu time    0.00: real time    0.01
     EDDAV:  cpu time    0.94: real time    0.94
       DOS:  cpu time    0.00: real time    0.00
    --------------------------------------------
      LOOP:  cpu time    1.16: real time    1.19

 eigenvalue-minimisations  :   328
 total energy-change (2. order) :-0.6551580E-04  (-0.8143279E-06)
 number of electron     176.0000950 magnetization       0.0005798
 augmentation part       84.6859611 magnetization       0.0004562

 Free energy of the ion-electron system (eV)
  ---------------------------------------------------
  alpha Z        PSCENC =        30.62872392
  Ewald energy   TEWEN  =     20571.22574273
  -Hartree energ DENC   =    -36488.58597724
  -exchange      EXHF   =         0.00000000
  -V(xc)+E(xc)   XCENC  =      -184.56224542
  PAW double counting   =     16990.06551682   -16275.11207805
  entropy T*S    EENTRO =         0.00000000
  eigenvalues    EBANDS =     -1269.12552649
  atomic energy  EATOM  =     16595.17808138
  ---------------------------------------------------
  free energy    TOTEN  =       -30.28776235 eV

  energy without entropy =      -30.28776235  energy(sigma->0) =      -30.28776235


--------------------------------------------------------------------------------------------------------




 average (electrostatic) potential at core
  the test charge radii are     1.1249
  (the norm of the test charge is              1.0000)
       1 -82.2470       2 -82.2470       3 -82.0711       4 -82.1388       5 -82.1388
       6 -82.1388       7 -82.2470       8 -82.2470       9 -82.0711      10 -82.1388
      11 -82.2470      12 -82.0711      13 -82.2470      14 -82.0711      15 -82.2470
      16 -82.2470
 
 
 
 E-fermi :  -4.0852     XC(G=0):  -0.9198     alpha+bet : -0.5166


 spin component 1

 k-point     1 :       0.0000    0.0000    0.0000
  band No.  band energies     occupation 
      1      -8.5130      1.00000
      2      -8.5120      1.00000
      3      -8.4593      1.00000
      4      -8.4484      1.00000
      5      -8.4484      1.00000
      6      -8.4469      1.00000
      7      -8.4441      1.00000
      8      -8.4441      1.00000
      9      -8.3386      1.00000
     10      -8.2984      1.00000
     11      -8.2627      1.00000
     12      -8.2627      1.00000
     13      -8.2560      1.00000
     14      -8.2497      1.00000
     15      -8.2213      1.00000
     16      -8.2213      1.00000
     17      -8.2006      1.00000
     18      -8.1650      1.00000
     19      -8.1650      1.00000
     20      -8.0628      1.00000
     21      -8.0331      1.00000
     22      -8.0141      1.00000
     23      -8.0139      1.00000
     24      -7.9977      1.00000
     25      -7.9977      1.00000
     26      -7.8872      1.00000
     27      -7.8731      1.00000
     28      -7.8476      1.00000
     29      -7.7966      1.00000
     30      -7.7966      1.00000
     31      -7.6590      1.00000
     32      -7.6590      1.00000
     33      -7.6311      1.00000
     34      -7.6037      1.00000
     35      -7.5408      1.00000
     36      -7.4572      1.00000
     37      -7.4572      1.00000
     38      -7.3984      1.00000
     39      -7.3838      1.00000
     40      -7.3363      1.00000
     41      -7.3127      1.00000
     42      -7.3127      1.00000
     43      -7.2990      1.00000
     44      -7.2140      1.00000
     45      -7.1905      1.00000
     46      -7.1905      1.00000
     47      -7.1148      1.00000
     48      -7.1029      1.00000
     49      -7.1029      1.00000
     50      -7.0825      1.00000
     51      -7.0013      1.00000
     52      -6.9876      1.00000
     53      -6.9414      1.00000
     54      -6.9194      1.00000
     55      -6.9194      1.00000
     56      -6.8592      1.00000
     57      -6.8387      1.00000
     58      -6.8387      1.00000
     59      -6.7926      1.00000
     60      -6.7926      1.00000
     61      -6.7570      1.00000
     62      -6.7371      1.00000
     63      -6.7371      1.00000
     64      -6.7139      1.00000
     65      -6.7120      1.00000
     66      -6.6857      1.00000
     67      -6.6433      1.00000
     68      -6.6294      1.00000
     69      -6.6294      1.00000
     70      -6.6005      1.00000
     71      -6.5861      1.00000
     72      -6.5861      1.00000
     73      -6.5754      1.00000
     74      -6.5681      1.00000
     75      -6.5388      1.00000
     76      -6.5388      1.00000
     77      -6.4825      1.00000
     78      -6.4246      1.00000
     79      -6.3867      1.00000
     80      -6.2930      1.00000
     81      -6.2930      1.00000
     82      -5.9666      1.00000
     83      -5.9126      1.00000
     84      -5.9126      1.00000
     85      -4.4336      1.00000
     86      -4.4003      1.00000
     87      -4.1009      1.00000
     88      -4.1009      1.00000
     89      -3.9176      0.00000
     90      -2.8620      0.00000
     91      -2.1686      0.00000
     92      -2.1099      0.00000
     93      -2.1099      0.00000
     94      -2.1082      0.00000
     95      -1.8970      0.00000
     96      -1.8970      0.00000
     97      -1.7525      0.00000
     98      -1.2855      0.00000
     99      -1.2679      0.00000
    100      -1.2679      0.00000
    101      -0.1402      0.00000
    102      -0.0342      0.00000
    103       0.0573      0.00000
    104       0.0573      0.00000
    105       0.1260      0.00000
    106       0.1548      0.00000
    107       0.2621      0.00000
    108       0.2621      0.00000
    109       0.3505      0.00000
    110       0.3725      0.00000
    111       0.4952      0.00000
    112       0.5970      0.00000
    113       0.6562      0.00000
    114       0.7402      0.00000
    115       0.7402      0.00000
    116       0.8763      0.00000

 spin component 2

 k-point     1 :       0.0000    0.0000    0.0000
  band No.  band energies     occupation 
      1      -8.5130      1.00000
      2      -8.5119      1.00000
      3      -8.4593      1.00000
      4      -8.4484      1.00000
      5      -8.4484      1.00000
      6      -8.4468      1.00000
      7      -8.4441      1.00000
      8      -8.4441      1.00000
      9      -8.3386      1.00000
     10      -8.2984      1.00000
     11      -8.2627      1.00000
     12      -8.2627      1.00000
     13      -8.2560      1.00000
     14      -8.2497      1.00000
     15      -8.2213      1.00000
     16      -8.2213      1.00000
     17      -8.2005      1.00000
     18      -8.1649      1.00000
     19      -8.1649      1.00000
     20      -8.0628      1.00000
     21      -8.0331      1.00000
     22      -8.0141      1.00000
     23      -8.0139      1.00000
     24      -7.9977      1.00000
     25      -7.9977      1.00000
     26      -7.8872      1.00000
     27      -7.8731      1.00000
     28      -7.8476      1.00000
     29      -7.7966      1.00000
     30      -7.7966      1.00000
     31      -7.6589      1.00000
     32      -7.6589      1.00000
     33      -7.6311      1.00000
     34      -7.6037      1.00000
     35      -7.5408      1.00000
     36      -7.4572      1.00000
     37      -7.4572      1.00000
     38      -7.3984      1.00000
     39      -7.3838      1.00000
     40      -7.3363      1.00000
     41      -7.3127      1.00000
     42      -7.3127      1.00000
     43      -7.2990      1.00000
     44      -7.2140      1.00000
     45      -7.1905      1.00000
     46      -7.1905      1.00000
     47      -7.1148      1.00000
     48      -7.1029      1.00000
     49      -7.1029      1.00000
     50      -7.0825      1.00000
     51      -7.0013      1.00000
     52      -6.9876      1.00000
     53      -6.9414      1.00000
     54      -6.9194      1.00000
     55      -6.9194      1.00000
     56      -6.8591      1.00000
     57      -6.8387      1.00000
     58      -6.8387      1.00000
     59      -6.7926      1.00000
     60      -6.7926      1.00000
     61      -6.7570      1.00000
     62      -6.7371      1.00000
     63      -6.7371      1.00000
     64      -6.7139      1.00000
     65      -6.7120      1.00000
     66      -6.6857      1.00000
     67      -6.6432      1.00000
     68      -6.6294      1.00000
     69      -6.6294      1.00000
     70      -6.6005      1.00000
     71      -6.5860      1.00000
     72      -6.5860      1.00000
     73      -6.5754      1.00000
     74      -6.5681      1.00000
     75      -6.5388      1.00000
     76      -6.5388      1.00000
     77      -6.4825      1.00000
     78      -6.4246      1.00000
     79      -6.3867      1.00000
     80      -6.2930      1.00000
     81      -6.2930      1.00000
     82      -5.9665      1.00000
     83      -5.9125      1.00000
     84      -5.9125      1.00000
     85      -4.4335      1.00000
     86      -4.4002      1.00000
     87      -4.1008      1.00000
     88      -4.1008      1.00000
     89      -3.9173      0.00000
     90      -2.8617      0.00000
     91      -2.1683      0.00000
     92      -2.1096      0.00000
     93      -2.1096      0.00000
     94      -2.1081      0.00000
     95      -1.8967      0.00000
     96      -1.8967      0.00000
     97      -1.7521      0.00000
     98      -1.2847      0.00000
     99      -1.2671      0.00000
    100      -1.2671      0.00000
    101      -0.1385      0.00000
    102      -0.0341      0.00000
    103       0.0581      0.00000
    104       0.0581      0.00000
    105       0.1268      0.00000
    106       0.1557      0.00000
    107       0.2634      0.00000
    108       0.2634      0.00000
    109       0.3321      0.00000
    110       0.3788      0.00000
    111       0.4960      0.00000
    112       0.6048      0.00000
    113       0.6573      0.00000
    114       0.7388      0.00000
    115       0.7388      0.00000
    116       0.7789      0.00000


--------------------------------------------------------------------------------------------------------


 soft charge-density along one line, spin component           1
         0         1         2         3         4         5         6         7         8         9
 total charge-density along one line
 
 soft charge-density along one line, spin component           2
         0         1         2         3         4         5         6         7         8         9
 total charge-density along one line
 
 pseudopotential strength for first ion, spin component:           1
-10.347   0.001  -0.010  -0.003  -0.001 -10.320   0.001  -0.010
  0.001 -10.341  -0.002   0.007  -0.000   0.001 -10.315  -0.002
 -0.010  -0.002 -10.335   0.002  -0.010  -0.010  -0.002 -10.309
 -0.003   0.007   0.002 -10.334   0.002  -0.003   0.007   0.002
 -0.001  -0.000  -0.010   0.002 -10.354  -0.001  -0.000  -0.010
-10.320   0.001  -0.010  -0.003  -0.001 -10.269   0.001  -0.009
  0.001 -10.315  -0.002   0.007  -0.000   0.001 -10.264  -0.002
 -0.010  -0.002 -10.309   0.002  -0.010  -0.009  -0.002 -10.258
 -0.003   0.007   0.002 -10.308   0.002  -0.002   0.006   0.002
 -0.001  -0.000  -0.010   0.002 -10.327  -0.001  -0.000  -0.009
 -0.004   0.000  -0.001  -0.003  -0.002  -0.004   0.000  -0.001
 -0.006   0.001  -0.001  -0.005  -0.003  -0.006   0.001  -0.001
  0.001   0.005  -0.019   0.000  -0.033   0.001   0.005  -0.018
  0.000   0.033   0.006   0.001  -0.000   0.000   0.032   0.005
  0.034   0.000  -0.000   0.005   0.001   0.032   0.000  -0.000
  0.001   0.006  -0.024   0.000  -0.040   0.001   0.006  -0.023
  0.000   0.041   0.007   0.002  -0.000   0.000   0.039   0.006
  0.041   0.000  -0.001   0.006   0.001   0.040   0.000  -0.000
 pseudopotential strength for first ion, spin component:           2
-10.347   0.001  -0.010  -0.003  -0.001 -10.320   0.001  -0.010
  0.001 -10.341  -0.002   0.007  -0.000   0.001 -10.315  -0.002
 -0.010  -0.002 -10.335   0.002  -0.010  -0.010  -0.002 -10.309
 -0.003   0.007   0.002 -10.334   0.002  -0.003   0.007   0.002
 -0.001  -0.000  -0.010   0.002 -10.354  -0.001  -0.000  -0.010
-10.320   0.001  -0.010  -0.003  -0.001 -10.269   0.001  -0.009
  0.001 -10.315  -0.002   0.007  -0.000   0.001 -10.264  -0.002
 -0.010  -0.002 -10.309   0.002  -0.010  -0.009  -0.002 -10.258
 -0.003   0.007   0.002 -10.308   0.002  -0.002   0.006   0.002
 -0.001  -0.000  -0.010   0.002 -10.327  -0.001  -0.000  -0.009
 -0.004   0.000  -0.001  -0.003  -0.002  -0.004   0.000  -0.001
 -0.006   0.001  -0.001  -0.005  -0.003  -0.006   0.001  -0.001
  0.001   0.005  -0.019   0.000  -0.033   0.001   0.005  -0.018
  0.000   0.033   0.006   0.001  -0.000   0.000   0.032   0.005
  0.034   0.000  -0.000   0.005   0.001   0.032   0.000  -0.000
  0.001   0.006  -0.024   0.000  -0.040   0.001   0.006  -0.023
  0.000   0.041   0.007   0.002  -0.000   0.000   0.039   0.006
  0.041   0.000  -0.001   0.006   0.001   0.040   0.000  -0.000
 total augmentation occupancy for first ion, spin component:           1
  2.562  -0.152  -0.071  -0.008   0.070  -0.513   0.169   0.025  -0.005  -0.079   0.208  -0.015  -0.009  -0.061   0.076   0.001
 -0.152   2.760   0.099   0.106   0.005   0.170  -0.713  -0.112  -0.087  -0.025  -0.021   0.014  -0.011   0.165  -0.056   0.003
 -0.071   0.099   2.551   0.016  -0.081   0.026  -0.112  -0.555   0.020   0.038  -0.023  -0.017  -0.003   0.076  -0.055  -0.010
 -0.008   0.106   0.016   2.571   0.072  -0.005  -0.087   0.020  -0.591  -0.035   0.362  -0.038  -0.045   0.074   0.002   0.003
  0.070   0.005  -0.081   0.072   2.654  -0.079  -0.025   0.038  -0.035  -0.681   0.126  -0.023  -0.072   0.007   0.102  -0.014
 -0.513   0.170   0.026  -0.005  -0.079   0.447  -0.185   0.012   0.015   0.086  -0.161   0.002   0.010   0.058  -0.098  -0.001
[...]
     10      -8.4958      1.00000
     11      -8.4551      1.00000
     12      -8.4551      1.00000
     13      -8.4519      1.00000
     14      -8.4337      1.00000
     15      -8.4042      1.00000
     16      -8.4042      1.00000
     17      -8.3949      1.00000
     18      -8.3453      1.00000
     19      -8.3453      1.00000
     20      -8.2373      1.00000
     21      -8.2085      1.00000
     22      -8.1780      1.00000
     23      -8.1750      1.00000
     24      -8.1551      1.00000
     25      -8.1551      1.00000
     26      -8.0339      1.00000
     27      -8.0226      1.00000
     28      -7.9957      1.00000
     29      -7.9390      1.00000
     30      -7.9390      1.00000
     31      -7.7839      1.00000
     32      -7.7839      1.00000
     33      -7.7524      1.00000
     34      -7.7299      1.00000
     35      -7.6443      1.00000
     36      -7.5688      1.00000
     37      -7.5688      1.00000
     38      -7.4969      1.00000
     39      -7.4745      1.00000
     40      -7.4200      1.00000
     41      -7.3987      1.00000
     42      -7.3987      1.00000
     43      -7.3655      1.00000
     44      -7.2739      1.00000
     45      -7.2544      1.00000
     46      -7.2544      1.00000
     47      -7.1758      1.00000
     48      -7.1632      1.00000
     49      -7.1632      1.00000
     50      -7.1386      1.00000
     51      -7.0577      1.00000
     52      -7.0262      1.00000
     53      -6.9769      1.00000
     54      -6.9588      1.00000
     55      -6.9588      1.00000
     56      -6.8986      1.00000
     57      -6.8731      1.00000
     58      -6.8731      1.00000
     59      -6.8116      1.00000
     60      -6.8116      1.00000
     61      -6.7871      1.00000
     62      -6.7632      1.00000
     63      -6.7632      1.00000
     64      -6.7333      1.00000
     65      -6.7201      1.00000
     66      -6.7009      1.00000
     67      -6.6439      1.00000
     68      -6.6319      1.00000
     69      -6.6319      1.00000
     70      -6.6111      1.00000
     71      -6.5967      1.00000
     72      -6.5967      1.00000
     73      -6.5903      1.00000
     74      -6.5667      1.00000
     75      -6.5365      1.00000
     76      -6.5365      1.00000
     77      -6.4836      1.00000
     78      -6.4020      1.00000
     79      -6.3710      1.00000
     80      -6.2664      1.00000
     81      -6.2664      1.00000
     82      -6.0016      1.00000
     83      -5.9462      1.00000
     84      -5.9462      1.00000
     85      -4.4387      1.00000
     86      -4.4197      1.00000
     87      -4.1163      1.00000
     88      -4.1163      1.00000
     89      -3.9490      0.00000
     90      -2.8725      0.00000
     91      -2.1220      0.00000
     92      -2.0680      0.00000
     93      -2.0680      0.00000
     94      -2.0506      0.00000
     95      -1.8533      0.00000
     96      -1.8533      0.00000
     97      -1.7745      0.00000
     98      -1.2809      0.00000
     99      -1.2606      0.00000
    100      -1.2606      0.00000
    101      -0.0935      0.00000
    102       0.0226      0.00000
    103       0.1446      0.00000
    104       0.1446      0.00000
    105       0.2101      0.00000
    106       0.2126      0.00000
    107       0.3349      0.00000
    108       0.3349      0.00000
    109       0.3354      0.00000
    110       0.4255      0.00000
    111       0.5716      0.00000
    112       0.6206      0.00000
    113       0.6988      0.00000
    114       0.7455      0.00000
    115       0.7455      0.00000
    116       0.8501      0.00000


--------------------------------------------------------------------------------------------------------


 soft charge-density along one line, spin component           1
         0         1         2         3         4         5         6         7         8         9
 total charge-density along one line
 
 soft charge-density along one line, spin component           2
         0         1         2         3         4         5         6         7         8         9
 total charge-density along one line
 
 pseudopotential strength for first ion, spin component:           1
-10.385   0.002  -0.011  -0.003  -0.001 -10.356   0.002  -0.011
  0.002 -10.379  -0.002   0.008  -0.000   0.002 -10.351  -0.002
 -0.011  -0.002 -10.373   0.003  -0.010  -0.011  -0.002 -10.345
 -0.003   0.008   0.003 -10.372   0.003  -0.003   0.007   0.002
 -0.001  -0.000  -0.010   0.003 -10.392  -0.001  -0.000  -0.010
-10.356   0.002  -0.011  -0.003  -0.001 -10.304   0.002  -0.010
  0.002 -10.351  -0.002   0.007  -0.000   0.002 -10.299  -0.002
 -0.011  -0.002 -10.345   0.002  -0.010  -0.010  -0.002 -10.293
 -0.003   0.007   0.002 -10.344   0.003  -0.003   0.007   0.002
 -0.001  -0.000  -0.010   0.003 -10.363  -0.001  -0.000  -0.010
 -0.004   0.000  -0.001  -0.004  -0.002  -0.004   0.000  -0.001
 -0.007   0.000  -0.001  -0.006  -0.003  -0.007   0.000  -0.001
  0.001   0.005  -0.018   0.000  -0.031   0.001   0.004  -0.018
  0.000   0.032   0.005   0.001  -0.000   0.000   0.030   0.005
  0.032   0.000  -0.000   0.004   0.000   0.031   0.000  -0.000
  0.001   0.005  -0.023   0.001  -0.038   0.001   0.005  -0.022
  0.001   0.039   0.006   0.001  -0.000   0.001   0.037   0.006
  0.039   0.001  -0.000   0.005   0.000   0.038   0.001  -0.000
 pseudopotential strength for first ion, spin component:           2
-10.385   0.002  -0.011  -0.003  -0.001 -10.356   0.002  -0.011
  0.002 -10.379  -0.002   0.008  -0.000   0.002 -10.351  -0.002
 -0.011  -0.002 -10.373   0.003  -0.010  -0.011  -0.002 -10.345
 -0.003   0.008   0.003 -10.372   0.003  -0.003   0.007   0.002
 -0.001  -0.000  -0.010   0.003 -10.392  -0.001  -0.000  -0.010
-10.356   0.002  -0.011  -0.003  -0.001 -10.304   0.002  -0.010
  0.002 -10.351  -0.002   0.007  -0.000   0.002 -10.299  -0.002
 -0.011  -0.002 -10.345   0.002  -0.010  -0.010  -0.002 -10.293
 -0.003   0.007   0.002 -10.344   0.003  -0.003   0.007   0.002
 -0.001  -0.000  -0.010   0.003 -10.363  -0.001  -0.000  -0.010
 -0.004   0.000  -0.001  -0.004  -0.002  -0.004   0.000  -0.001
 -0.007   0.000  -0.001  -0.006  -0.003  -0.007   0.000  -0.001
  0.001   0.005  -0.018   0.000  -0.031   0.001   0.004  -0.018
  0.000   0.032   0.005   0.001  -0.000   0.000   0.030   0.005
  0.032   0.000  -0.000   0.004   0.000   0.031   0.000  -0.000
  0.001   0.005  -0.023   0.001  -0.038   0.001   0.005  -0.022
  0.001   0.039   0.006   0.001  -0.000   0.001   0.037   0.006
  0.039   0.001  -0.000   0.005   0.000   0.038   0.001  -0.000
 total augmentation occupancy for first ion, spin component:           1
  2.647  -0.180  -0.075  -0.006   0.082  -0.607   0.201   0.024  -0.006  -0.093   0.225  -0.016  -0.009  -0.068   0.094   0.001
 -0.180   2.870   0.111   0.116   0.008   0.201  -0.833  -0.126  -0.095  -0.031  -0.016   0.014  -0.012   0.191  -0.063   0.003
 -0.075   0.111   2.636   0.007  -0.083   0.024  -0.126  -0.655   0.032   0.039  -0.026  -0.018  -0.008   0.086  -0.063  -0.010
 -0.006   0.116   0.007   2.662   0.077  -0.006  -0.096   0.032  -0.699  -0.036   0.393  -0.044  -0.052   0.087   0.006   0.004
  0.082   0.008  -0.083   0.077   2.765  -0.093  -0.031   0.039  -0.036  -0.806   0.117  -0.023  -0.089   0.010   0.121  -0.013
 -0.607   0.201   0.024  -0.006  -0.093   0.548  -0.220   0.018   0.016   0.102  -0.176   0.001   0.011   0.066  -0.115  -0.001
  0.201  -0.833  -0.126  -0.096  -0.031  -0.220   0.777   0.139   0.078   0.050   0.011  -0.009   0.011  -0.213   0.061  -0.000
  0.024  -0.126  -0.655   0.032   0.039   0.018   0.139   0.640  -0.067  -0.001   0.049  -0.003   0.027  -0.089   0.057  -0.002
 -0.006  -0.095   0.032  -0.699  -0.036   0.016   0.078  -0.067   0.700   0.000  -0.359   0.048   0.053  -0.084  -0.019  -0.004
 -0.093  -0.031   0.039  -0.036  -0.806   0.102   0.050  -0.001   0.000   0.810  -0.067  -0.000   0.129  -0.015  -0.131  -0.008
  0.225  -0.016  -0.026   0.393   0.117  -0.176   0.011   0.049  -0.359  -0.067   1.859  -0.245  -0.219  -0.044  -0.050   0.019
 -0.016   0.014  -0.018  -0.044  -0.023   0.001  -0.009  -0.003   0.048  -0.000  -0.245   0.049   0.036   0.011   0.023  -0.003
 -0.009  -0.012  -0.008  -0.052  -0.089   0.011   0.011   0.027   0.053   0.129  -0.219   0.036   0.057  -0.003  -0.006  -0.005
 -0.068   0.191   0.086   0.087   0.010   0.066  -0.213  -0.089  -0.084  -0.015  -0.044   0.011  -0.003   0.106  -0.029  -0.000
  0.094  -0.063  -0.063   0.006   0.121  -0.115   0.061   0.057  -0.019  -0.131  -0.050   0.023  -0.006  -0.029   0.077   0.000
  0.001   0.003  -0.010   0.004  -0.013  -0.001  -0.000  -0.002  -0.004  -0.008   0.019  -0.003  -0.005  -0.000   0.000   0.001
  0.004   0.009  -0.001  -0.004  -0.000  -0.004   0.012   0.005   0.004   0.001   0.004  -0.001  -0.000  -0.006   0.001   0.000
  0.014   0.003   0.003   0.002  -0.007   0.006  -0.004  -0.003   0.001   0.008   0.006  -0.002   0.000   0.001  -0.005   0.000
 total augmentation occupancy for first ion, spin component:           2
 -0.000   0.000  -0.000  -0.000  -0.000  -0.000   0.000   0.000   0.000   0.000   0.000  -0.000   0.000  -0.000  -0.000  -0.000
  0.000  -0.000   0.000  -0.000   0.000  -0.000   0.000  -0.000   0.000  -0.000  -0.000   0.000   0.000   0.000   0.000  -0.000
 -0.000   0.000   0.000  -0.000   0.000   0.000   0.000  -0.000   0.000  -0.000   0.000  -0.000  -0.000   0.000  -0.000  -0.000
 -0.000  -0.000  -0.000   0.000  -0.000   0.000   0.000   0.000  -0.000  -0.000  -0.000   0.000  -0.000   0.000   0.000   0.000
 -0.000   0.000   0.000  -0.000   0.000   0.000  -0.000  -0.000   0.000  -0.000  -0.000   0.000   0.000   0.000   0.000   0.000
 -0.000  -0.000   0.000   0.000   0.000   0.000  -0.000  -0.000  -0.000  -0.000  -0.000   0.000  -0.000   0.000   0.000   0.000
  0.000   0.000   0.000   0.000  -0.000  -0.000  -0.000   0.000  -0.000   0.000   0.000  -0.000  -0.000   0.000  -0.000  -0.000
  0.000  -0.000  -0.000   0.000  -0.000  -0.000   0.000   0.000  -0.000   0.000   0.000  -0.000  -0.000  -0.000  -0.000  -0.000
  0.000   0.000   0.000  -0.000   0.000  -0.000  -0.000  -0.000   0.000   0.000   0.000  -0.000   0.000   0.000  -0.000  -0.000
  0.000  -0.000  -0.000  -0.000  -0.000  -0.000   0.000   0.000   0.000   0.000   0.000   0.000   0.000  -0.000   0.000   0.000
  0.000  -0.000   0.000  -0.000  -0.000  -0.000   0.000   0.000   0.000   0.000  -0.000   0.000   0.000  -0.000   0.000   0.000
 -0.000   0.000  -0.000   0.000   0.000   0.000  -0.000  -0.000  -0.000   0.000   0.000  -0.000  -0.000   0.000  -0.000  -0.000
  0.000   0.000  -0.000  -0.000   0.000  -0.000  -0.000  -0.000   0.000   0.000   0.000  -0.000   0.000  -0.000  -0.000  -0.000
 -0.000   0.000   0.000   0.000   0.000   0.000   0.000  -0.000   0.000  -0.000  -0.000   0.000  -0.000   0.000   0.000   0.000
 -0.000   0.000  -0.000   0.000   0.000   0.000  -0.000  -0.000  -0.000   0.000   0.000  -0.000  -0.000   0.000  -0.000  -0.000
 -0.000  -0.000  -0.000   0.000   0.000   0.000  -0.000  -0.000  -0.000   0.000   0.000  -0.000  -0.000   0.000  -0.000   0.000
 -0.000  -0.000   0.000  -0.000   0.000  -0.000  -0.000  -0.000   0.000   0.000   0.000  -0.000   0.000   0.000  -0.000  -0.000
  0.000   0.000   0.000   0.000   0.000   0.000  -0.000   0.000   0.000  -0.000  -0.000   0.000  -0.000   0.000   0.000   0.000


------------------------ aborting loop because EDIFF is reached ----------------------------------------


    CHARGE:  cpu time    0.16: real time    0.15
    FORLOC:  cpu time    0.01: real time    0.01
    FORNL :  cpu time    0.58: real time    0.58
    STRESS:  cpu time    0.67: real time    0.67
    FORCOR:  cpu time    0.22: real time    0.23
    FORHAR:  cpu time    0.03: real time    0.03
    MIXING:  cpu time    0.01: real time    0.01
    OFIELD:  cpu time    0.00: real time    0.00

  FORCE on cell =-STRESS in cart. coord.  units (eV):
  Direction    XX          YY          ZZ          XY          YZ          ZX
  --------------------------------------------------------------------------------------
  Alpha Z    30.62872    30.62872    30.62872
  Ewald    6751.93488  6751.93488  8033.82195     0.00000    -0.00000    -0.00000
  Hartree 12068.81219 12068.81219 13299.79581    -0.00000    -0.00000    -0.00000
  E(xc)    -927.34213  -927.34213  -927.22766    -0.00000    -0.00000     0.00000
  Local  -21413.81059-21413.81059-23937.14249     0.00000     0.00000    -0.00000
  n-local  -175.37108  -175.37106  -170.93993     0.00001    -0.00000    -0.00000
  augment  1468.51250  1468.51250  1469.84678    -0.00000     0.00000     0.00000
  Kinetic  2191.17773  2191.17773  2195.30702    -0.00001     0.00000    -0.00000
  Fock        0.00000     0.00000     0.00000     0.00000     0.00000     0.00000
  -------------------------------------------------------------------------------------
  Total      -5.45776    -5.45776    -5.90980     0.00000     0.00000     0.00000
  in kB      -1.22998    -1.22998    -1.33186     0.00000     0.00000     0.00000
  external pressure =       -1.26 kB  Pullay stress =        0.00 kB


 VOLUME and BASIS-vectors are now :
 -----------------------------------------------------------------------------
  energy-cutoff  :      249.84
  volume of cell :     7109.27
      direct lattice vectors                 reciprocal lattice vectors
    19.228338000  0.000000000  0.000000000     0.052006575  0.000000000  0.000000000
     0.000000000 19.228338000  0.000000000     0.000000000  0.052006575  0.000000000
     0.000000000  0.000000000 19.228338000     0.000000000  0.000000000  0.052006575

  length of vectors
    19.228338000 19.228338000 19.228338000     0.052006575  0.052006575  0.052006575


 FORCES acting on ions
    electron-ion (+dipol)            ewald-force                    non-local-force                 convergence-correction
 -----------------------------------------------------------------------------------------------
   -.499E+03 -.914E+03 -.306E+03   0.500E+03 0.909E+03 0.305E+03   0.514E-03 0.560E+01 0.869E+00   -.260E-01 0.146E-01 -.625E-02
   0.499E+03 -.914E+03 -.306E+03   -.500E+03 0.909E+03 0.305E+03   -.514E-03 0.560E+01 0.869E+00   0.260E-01 0.146E-01 -.625E-02
   -.825E-13 -.438E+03 -.100E+04   0.533E-13 0.437E+03 0.998E+03   -.141E-21 0.147E+01 0.466E+01   -.116E-11 0.943E-02 -.323E-01
   0.756E+03 0.179E-11 -.497E+03   -.755E+03 -.853E-13 0.498E+03   -.140E+01 0.444E-23 -.421E+00   -.107E-01 -.538E-11 -.135E-01
   -.162E-12 -.756E+03 0.497E+03   -.142E-13 0.755E+03 -.498E+03   0.242E-24 0.140E+01 0.421E+00   0.849E-11 0.107E-01 0.135E-01
   -.756E+03 0.812E-11 -.497E+03   0.755E+03 0.101E-12 0.498E+03   0.140E+01 -.117E-23 -.421E+00   0.107E-01 -.611E-11 -.135E-01
   -.914E+03 -.499E+03 0.306E+03   0.909E+03 0.500E+03 -.305E+03   0.560E+01 0.514E-03 -.869E+00   0.146E-01 -.260E-01 0.625E-02
   0.914E+03 -.499E+03 0.306E+03   -.909E+03 0.500E+03 -.305E+03   -.560E+01 0.514E-03 -.869E+00   -.146E-01 -.260E-01 0.625E-02
   -.116E-12 0.438E+03 -.100E+04   -.121E-12 -.437E+03 0.998E+03   -.183E-21 -.147E+01 0.466E+01   -.144E-11 -.943E-02 -.323E-01
   -.148E-12 0.756E+03 0.497E+03   -.568E-13 -.755E+03 -.498E+03   -.349E-23 -.140E+01 0.421E+00   0.939E-11 -.107E-01 0.135E-01
   -.914E+03 0.499E+03 0.306E+03   0.909E+03 -.500E+03 -.305E+03   0.560E+01 -.514E-03 -.869E+00   0.146E-01 0.260E-01 0.625E-02
   -.438E+03 0.136E-10 0.100E+04   0.437E+03 -.107E-13 -.998E+03   0.147E+01 0.139E-21 -.466E+01   0.943E-02 0.226E-11 0.323E-01
   -.499E+03 0.914E+03 -.306E+03   0.500E+03 -.909E+03 0.305E+03   0.514E-03 -.560E+01 0.869E+00   -.260E-01 -.146E-01 -.625E-02
   0.438E+03 0.310E-13 0.100E+04   -.437E+03 -.128E-12 -.998E+03   -.147E+01 0.284E-21 -.466E+01   -.943E-02 0.759E-12 0.323E-01
   0.499E+03 0.914E+03 -.306E+03   -.500E+03 -.909E+03 0.305E+03   -.514E-03 -.560E+01 0.869E+00   0.260E-01 -.146E-01 -.625E-02
   0.914E+03 0.499E+03 0.306E+03   -.909E+03 -.500E+03 -.305E+03   -.560E+01 -.514E-03 -.869E+00   -.146E-01 0.260E-01 0.625E-02
 -----------------------------------------------------------------------------------------------
   -.483E-10 0.693E-10 -.189E-09   0.000E+00 0.341E-12 0.114E-12   0.000E+00 -.144E-14 0.777E-15   0.238E-10 -.401E-10 0.142E-09
 
 
 POSITION                                       TOTAL-FORCE (eV/Angst)
 -----------------------------------------------------------------------------------
     11.04967     12.27406     10.66432        -0.006474      0.003978     -0.018119
      8.17867     12.27406     10.66432         0.006474      0.003978     -0.018119
      9.61417     10.99788     12.66619        -0.000000     -0.012556     -0.002669
      7.73127      9.61417     11.04713        -0.006482     -0.000000     -0.014963
      9.61417     11.49707      8.18120        -0.000000      0.006482      0.014963
     11.49707      9.61417     11.04713         0.006482     -0.000000     -0.014963
     12.27406     11.04967      8.56402         0.003978     -0.006474      0.018119
      6.95428     11.04967      8.56402        -0.003978     -0.006474      0.018119
      9.61417      8.23046     12.66619        -0.000000      0.012556     -0.002669
      9.61417      7.73127      8.18120        -0.000000     -0.006482      0.014963
     12.27406      8.17867      8.56402         0.003978      0.006474      0.018119
     10.99788      9.61417      6.56215        -0.012556     -0.000000      0.002669
     11.04967      6.95428     10.66432        -0.006474     -0.003978     -0.018119
      8.23046      9.61417      6.56215         0.012556     -0.000000      0.002669
      8.17867      6.95428     10.66432         0.006474     -0.003978     -0.018119
      6.95428      8.17867      8.56402        -0.003978      0.006474      0.018119
 -----------------------------------------------------------------------------------
    total drift:                               -0.000000      0.000000     -0.000000


--------------------------------------------------------------------------------------------------------



  FREE ENERGIE OF THE ION-ELECTRON SYSTEM (eV)
  ---------------------------------------------------
  free  energy   TOTEN  =       -30.44500603 eV

  energy  without entropy=      -30.44500603  energy(sigma->0) =      -30.44500603
 
 d Force = 0.1053971E-03[ 0.897E-04, 0.121E-03]  d Energy = 0.1919123E-03-0.865E-04
 d Force =-0.2139167E+01[-0.214E+01,-0.214E+01]  d Ewald  =-0.2139166E+01-0.447E-06


--------------------------------------------------------------------------------------------------------


    POTLOK:  cpu time    0.23: real time    0.24


--------------------------------------------------------------------------------------------------------




--------------------------------------------------------------------------------------------------------


  
 reached required accuracy - stopping structural energy minimisation
     LOOP+:  cpu time    4.92: real time    4.96
    4ORBIT:  cpu time    0.00: real time    0.00

 total amount of memory used by VASP on root node    55569. kBytes
========================================================================

   base      :      30000. kBytes
   nonl-proj :       1598. kBytes
   fftplans  :       5765. kBytes
   grid      :      14451. kBytes
   one-center:         31. kBytes
   wavefun   :       3724. kBytes
 
  
  
 General timing and accounting informations for this job:
 ========================================================
  
                  Total CPU time used (sec):      104.535
                            User time (sec):      102.022
                          System time (sec):        2.512
                         Elapsed time (sec):      113.540
  
                   Maximum memory used (kb):       63284.
                   Average memory used (kb):           0.
  
                          Minor page faults:       500758
                          Major page faults:            0
                 Voluntary context switches:         3519
