       N       E                     dE             d eps       ncg     rms          rms(c)
DAV:   1     0.292235527664E+04    0.29224E+04   -0.58973E+04   864   0.580E+02
DAV:   2     0.692568896159E+03   -0.22298E+04   -0.19833E+04  1496   0.139E+02
DAV:   3    -0.197479555452E+02   -0.71232E+03   -0.65634E+03  1152   0.889E+01
DAV:   4    -0.602477682334E+02   -0.40500E+02   -0.39969E+02   952   0.234E+01
DAV:   5    -0.608181692968E+02   -0.57040E+00   -0.56946E+00   984   0.332E+00    0.321E+01
DAV:   6    -0.216472569641E+02    0.39171E+02   -0.11914E+02   880   0.163E+01    0.168E+01
DAV:   7    -0.170569237818E+02    0.45903E+01   -0.66302E+00   928   0.499E+00    0.104E+01
DAV:   8    -0.133225181879E+02    0.37344E+01   -0.22225E+00   936   0.413E+00    0.532E+00
DAV:   9    -0.189838512600E+02   -0.56613E+01   -0.13521E+00   936   0.190E+00    0.343E+00
DAV:  10    -0.296484375448E+02   -0.10665E+02   -0.32831E+00   880   0.280E+00    0.256E+00
DAV:  11    -0.418563586742E+02   -0.12208E+02   -0.59094E+00   888   0.310E+00    0.241E+00
DAV:  12    -0.437291443490E+02   -0.18728E+01   -0.39890E-01   992   0.986E-01    0.199E+00
DAV:  13    -0.493714700678E+02   -0.56423E+01   -0.20353E+00   896   0.199E+00    0.215E+00
DAV:  14    -0.510194384971E+02   -0.16480E+01   -0.28268E-01   944   0.818E-01    0.159E+00
DAV:  15    -0.542314678432E+02   -0.32120E+01   -0.84824E-01   888   0.106E+00    0.185E+00
DAV:  16    -0.546804163756E+02   -0.44895E+00   -0.50641E-02   976   0.448E-01    0.154E+00
DAV:  17    -0.559525142632E+02   -0.12721E+01   -0.21232E-01   888   0.748E-01    0.103E+00
DAV:  18    -0.576589983512E+02   -0.17065E+01   -0.31414E-01   864   0.900E-01    0.452E-01
DAV:  19    -0.586543866106E+02   -0.99539E+00   -0.72213E-02   912   0.384E-01    0.358E-01
DAV:  20    -0.594490656178E+02   -0.79468E+00   -0.29726E-02   896   0.288E-01    0.210E-01
DAV:  21    -0.598464254300E+02   -0.39736E+00   -0.15760E-02   912   0.205E-01    0.143E-01
DAV:  22    -0.599360046058E+02   -0.89579E-01   -0.21518E-03   904   0.103E-01    0.920E-02
DAV:  23    -0.600215392001E+02   -0.85535E-01   -0.26945E-03   848   0.562E-02    0.566E-02
DAV:  24    -0.600583573529E+02   -0.36818E-01   -0.11961E-03   712   0.489E-02    0.286E-02
DAV:  25    -0.600638383791E+02   -0.54810E-02   -0.21461E-04   640   0.201E-02    0.207E-02
DAV:  26    -0.600692905154E+02   -0.54521E-02   -0.14711E-04   632   0.127E-02    0.137E-02
DAV:  27    -0.600738368393E+02   -0.45463E-02   -0.15650E-04   616   0.159E-02    0.122E-02
DAV:  28    -0.600755598080E+02   -0.17230E-02   -0.37881E-05   632   0.101E-02    0.813E-03
DAV:  29    -0.600775024225E+02   -0.19426E-02   -0.19506E-05   600   0.866E-03    0.488E-03
DAV:  30    -0.600782724328E+02   -0.77001E-03   -0.10460E-05   616   0.676E-03    0.325E-03
DAV:  31    -0.600785548340E+02   -0.28240E-03   -0.37801E-06   600   0.350E-03    0.285E-03
DAV:  32    -0.600786418940E+02   -0.87060E-04   -0.19729E-06   592   0.304E-03
   1 F= -.60078642E+02 E0= -.60078642E+02  d E =-.600786E+02  mag=     0.0009
       N       E                     dE             d eps       ncg     rms          rms(c)
DAV:   1    -0.601391229185E+02   -0.60568E-01   -0.43199E+00   912   0.381E+00    0.171E-01
DAV:   2    -0.601411439523E+02   -0.20210E-02   -0.20436E-02   920   0.374E-01    0.128E-01
DAV:   3    -0.601410960432E+02    0.47909E-04   -0.41189E-04   928   0.598E-02
   2 F= -.60141096E+02 E0= -.60141096E+02  d E =-.624541E-01  mag=     0.0006
       N       E                     dE             d eps       ncg     rms          rms(c)
DAV:   1    -0.602886588694E+02   -0.14751E+00   -0.38961E+01   864   0.115E+01    0.489E-01
DAV:   2    -0.603065591384E+02   -0.17900E-01   -0.18295E-01   904   0.112E+00    0.381E-01
DAV:   3    -0.603061647538E+02    0.39438E-03   -0.35184E-03   920   0.171E-01    0.239E-01
DAV:   4    -0.603058746414E+02    0.29011E-03   -0.17431E-03   928   0.930E-02    0.413E-02
DAV:   5    -0.603058592463E+02    0.15395E-04   -0.58189E-05   568   0.233E-02
   3 F= -.60305859E+02 E0= -.60305859E+02  d E =-.227217E+00  mag=     0.0002
       N       E                     dE             d eps       ncg     rms          rms(c)
DAV:   1    -0.604732630753E+02   -0.16739E+00   -0.15618E+02   864   0.230E+01    0.853E-01
DAV:   2    -0.605441662584E+02   -0.70903E-01   -0.72323E-01   912   0.224E+00    0.732E-01
DAV:   3    -0.605430644910E+02    0.11018E-02   -0.12846E-02   920   0.315E-01    0.505E-01
DAV:   4    -0.605414386605E+02    0.16258E-02   -0.73754E-03   912   0.183E-01    0.130E-01
DAV:   5    -0.605414550572E+02   -0.16397E-04   -0.30154E-04   696   0.544E-02
   4 F= -.60541455E+02 E0= -.60541455E+02  d E =-.462813E+00  mag=     0.0001
       N       E                     dE             d eps       ncg     rms          rms(c)
DAV:   1    -0.604169133416E+02    0.12453E+00   -0.63321E+02   864   0.467E+01    0.139E+00
DAV:   2    -0.607048026565E+02   -0.28789E+00   -0.29240E+00   912   0.455E+00    0.141E+00
DAV:   3    -0.607040726841E+02    0.72997E-03   -0.49036E-02   928   0.582E-01    0.106E+00
DAV:   4    -0.606960959809E+02    0.79767E-02   -0.19026E-02   896   0.301E-01    0.540E-01
DAV:   5    -0.606961447040E+02   -0.48723E-04   -0.62110E-03   912   0.169E-01    0.163E-01
DAV:   6    -0.606959364700E+02    0.20823E-03   -0.54761E-04   904   0.478E-02    0.774E-02
DAV:   7    -0.606959170836E+02    0.19386E-04   -0.22248E-04   624   0.345E-02
   5 F= -.60695917E+02 E0= -.60695917E+02  d E =-.617275E+00  mag=     0.0000
       N       E                     dE             d eps       ncg     rms          rms(c)
DAV:   1    -0.607597677339E+02   -0.63831E-01   -0.49144E+01   864   0.129E+01    0.394E-01
DAV:   2    -0.607821461139E+02   -0.22378E-01   -0.22718E-01   912   0.123E+00    0.325E-01
DAV:   3    -0.607818043350E+02    0.34178E-03   -0.37770E-03   928   0.163E-01    0.223E-01
DAV:   4    -0.607813280969E+02    0.47624E-03   -0.19634E-03   912   0.930E-02    0.666E-02
DAV:   5    -0.607813630354E+02   -0.34938E-04   -0.11596E-04   592   0.307E-02
   6 F= -.60781363E+02 E0= -.60781363E+02  d E =-.854460E-01  mag=     0.0000
       N       E                     dE             d eps       ncg     rms          rms(c)
DAV:   1    -0.607597685892E+02    0.21560E-01   -0.20079E+02   864   0.261E+01    0.735E-01
DAV:   2    -0.608514688460E+02   -0.91700E-01   -0.92972E-01   912   0.250E+00    0.628E-01
DAV:   3    -0.608504952907E+02    0.97356E-03   -0.15030E-02   936   0.320E-01    0.447E-01
DAV:   4    -0.608483911253E+02    0.21042E-02   -0.66316E-03   912   0.173E-01    0.168E-01
DAV:   5    -0.608485073522E+02   -0.11623E-03   -0.95876E-04   928   0.716E-02    0.573E-02
DAV:   6    -0.608484355979E+02    0.71754E-04   -0.17972E-04   624   0.262E-02
   7 F= -.60848436E+02 E0= -.60848436E+02  d E =-.152519E+00  mag=     0.0000
       N       E                     dE             d eps       ncg     rms          rms(c)
DAV:   1    -0.608798586873E+02   -0.31351E-01   -0.33247E+01   864   0.106E+01    0.222E-01
DAV:   2    -0.608955143169E+02   -0.15656E-01   -0.15696E-01   912   0.103E+00    0.207E-01
DAV:   3    -0.608953525119E+02    0.16181E-03   -0.25439E-03   952   0.133E-01    0.150E-01
DAV:   4    -0.608949279363E+02    0.42458E-03   -0.72825E-04   912   0.538E-02    0.817E-02
DAV:   5    -0.608949173645E+02    0.10572E-04   -0.63576E-04   920   0.496E-02
   8 F= -.60894917E+02 E0= -.60894917E+02  d E =-.464818E-01  mag=     0.0000
       N       E                     dE             d eps       ncg     rms          rms(c)
DAV:   1    -0.608341631812E+02    0.60765E-01   -0.30141E+02   864   0.321E+01    0.814E-01
DAV:   2    -0.609791872667E+02   -0.14502E+00   -0.14580E+00   912   0.315E+00    0.632E-01
DAV:   3    -0.609770482944E+02    0.21390E-02   -0.24263E-02   952   0.422E-01    0.426E-01
DAV:   4    -0.609734331415E+02    0.36152E-02   -0.74436E-03   912   0.172E-01    0.203E-01
DAV:   5    -0.609733553388E+02    0.77803E-04   -0.30887E-03   912   0.112E-01    0.660E-02
DAV:   6    -0.609732979110E+02    0.57428E-04   -0.26428E-04   640   0.311E-02
   9 F= -.60973298E+02 E0= -.60973298E+02  d E =-.124862E+00  mag=     0.0000
       N       E                     dE             d eps       ncg     rms          rms(c)
DAV:   1    -0.609639690061E+02    0.93863E-02   -0.30620E+01   864   0.102E+01    0.237E-01
DAV:   2    -0.609783515783E+02   -0.14383E-01   -0.14439E-01   912   0.989E-01    0.214E-01
DAV:   3    -0.609781590917E+02    0.19249E-03   -0.23537E-03   944   0.129E-01    0.152E-01
DAV:   4    -0.609777503781E+02    0.40871E-03   -0.90108E-04   912   0.592E-02    0.736E-02
DAV:   5    -0.609777763387E+02   -0.25961E-04   -0.41634E-04   912   0.415E-02
  10 F= -.60977776E+02 E0= -.60977776E+02  d E =-.129341E+00  mag=     0.0000
       N       E                     dE             d eps       ncg     rms          rms(c)
DAV:   1    -0.609982368481E+02   -0.20486E-01   -0.49775E+01   864   0.130E+01    0.266E-01
DAV:   2    -0.610214961922E+02   -0.23259E-01   -0.23133E-01   896   0.125E+00    0.246E-01
DAV:   3    -0.610212181878E+02    0.27800E-03   -0.37072E-03   944   0.163E-01    0.180E-01
DAV:   4    -0.610205481134E+02    0.67007E-03   -0.10563E-03   880   0.632E-02    0.972E-02
DAV:   5    -0.610204937525E+02    0.54361E-04   -0.98653E-04   928   0.617E-02
  11 F= -.61020494E+02 E0= -.61020494E+02  d E =-.427174E-01  mag=     0.0000
       N       E                     dE             d eps       ncg     rms          rms(c)
DAV:   1    -0.608787773732E+02    0.14177E+00   -0.45358E+02   864   0.395E+01    0.997E-01
DAV:   2    -0.610945516150E+02   -0.21577E+00   -0.21596E+00   912   0.384E+00    0.750E-01
DAV:   3    -0.610909621499E+02    0.35895E-02   -0.35640E-02   944   0.516E-01    0.510E-01
DAV:   4    -0.610853089082E+02    0.56532E-02   -0.10516E-02   912   0.201E-01    0.247E-01
DAV:   5    -0.610849183770E+02    0.39053E-03   -0.47543E-03   896   0.138E-01    0.749E-02
DAV:   6    -0.610849024364E+02    0.15941E-04   -0.25567E-04   656   0.323E-02
  12 F= -.61084902E+02 E0= -.61084902E+02  d E =-.107126E+00  mag=     0.0000
       N       E                     dE             d eps       ncg     rms          rms(c)
DAV:   1    -0.610912154993E+02   -0.62971E-02   -0.12441E+02   864   0.205E+01    0.419E-01
DAV:   2    -0.611488829597E+02   -0.57667E-01   -0.57556E-01   928   0.198E+00    0.412E-01
DAV:   3    -0.611482064884E+02    0.67647E-03   -0.93386E-03   960   0.256E-01    0.301E-01
DAV:   4    -0.611463796563E+02    0.18268E-02   -0.25963E-03   912   0.102E-01    0.175E-01
DAV:   5    -0.611461208970E+02    0.25876E-03   -0.27308E-03   912   0.101E-01    0.591E-02
DAV:   6    -0.611461217301E+02   -0.83305E-06   -0.81044E-05   576   0.190E-02
  13 F= -.61146122E+02 E0= -.61146122E+02  d E =-.612193E-01  mag=     0.0000
       N       E                     dE             d eps       ncg     rms          rms(c)
DAV:   1    -0.609909280405E+02    0.15519E+00   -0.42729E+02   864   0.383E+01    0.898E-01
DAV:   2    -0.611930551860E+02   -0.20213E+00   -0.20199E+00   912   0.373E+00    0.785E-01
DAV:   3    -0.611904873313E+02    0.25679E-02   -0.33473E-02   976   0.491E-01    0.543E-01
DAV:   4    -0.611847529404E+02    0.57344E-02   -0.90627E-03   896   0.191E-01    0.304E-01
DAV:   5    -0.611840095771E+02    0.74336E-03   -0.63219E-03   928   0.156E-01    0.942E-02
DAV:   6    -0.611840226348E+02   -0.13058E-04   -0.20382E-04   624   0.298E-02
  14 F= -.61184023E+02 E0= -.61184023E+02  d E =-.991202E-01  mag=     0.0000
       N       E                     dE             d eps       ncg     rms          rms(c)
DAV:   1    -0.611499535321E+02    0.34056E-01   -0.18454E+02   864   0.251E+01    0.460E-01
DAV:   2    -0.612350302431E+02   -0.85077E-01   -0.84543E-01   896   0.241E+00    0.500E-01
DAV:   3    -0.612341674696E+02    0.86277E-03   -0.13676E-02   992   0.311E-01    0.376E-01
DAV:   4    -0.612314426542E+02    0.27248E-02   -0.28417E-03   896   0.106E-01    0.250E-01
DAV:   5    -0.612305321769E+02    0.91048E-03   -0.56603E-03   912   0.144E-01    0.853E-02
DAV:   6    -0.612305785119E+02   -0.46335E-04   -0.77255E-05   576   0.214E-02
  15 F= -.61230579E+02 E0= -.61230579E+02  d E =-.465559E-01  mag=     0.0000
       N       E                     dE             d eps       ncg     rms          rms(c)
DAV:   1    -0.611407049560E+02    0.89827E-01   -0.23668E+02   864   0.284E+01    0.537E-01
DAV:   2    -0.612495107194E+02   -0.10881E+00   -0.10867E+00   896   0.273E+00    0.562E-01
DAV:   3    -0.612483793835E+02    0.11313E-02   -0.17462E-02   992   0.349E-01    0.418E-01
DAV:   4    -0.612449617380E+02    0.34176E-02   -0.37958E-03   896   0.123E-01    0.273E-01
DAV:   5    -0.612439325757E+02    0.10292E-02   -0.62480E-03   944   0.151E-01    0.922E-02
DAV:   6    -0.612439847664E+02   -0.52191E-04   -0.88030E-05   560   0.221E-02
  16 F= -.61243985E+02 E0= -.61243985E+02  d E =-.599621E-01  mag=     0.0000
       N       E                     dE             d eps       ncg     rms          rms(c)
DAV:   1    -0.612549883237E+02   -0.11056E-01   -0.96653E+01   864   0.181E+01    0.449E-01
DAV:   2    -0.612997184831E+02   -0.44730E-01   -0.44770E-01   912   0.173E+00    0.380E-01
DAV:   3    -0.612991157074E+02    0.60278E-03   -0.70932E-03   960   0.216E-01    0.268E-01
DAV:   4    -0.612979478401E+02    0.11679E-02   -0.28326E-03   912   0.106E-01    0.113E-01
DAV:   5    -0.612979878416E+02   -0.40002E-04   -0.70504E-04   928   0.584E-02
  17 F= -.61297988E+02 E0= -.61297988E+02  d E =-.540031E-01  mag=     0.0000
       N       E                     dE             d eps       ncg     rms          rms(c)
DAV:   1    -0.611729434335E+02    0.12500E+00   -0.28144E+02   864   0.310E+01    0.775E-01
DAV:   2    -0.613050478008E+02   -0.13210E+00   -0.13265E+00   912   0.299E+00    0.625E-01
DAV:   3    -0.613035078979E+02    0.15399E-02   -0.21068E-02   944   0.373E-01    0.436E-01
DAV:   4    -0.613003485086E+02    0.31594E-02   -0.67908E-03   896   0.166E-01    0.201E-01
DAV:   5    -0.613003145326E+02    0.33976E-04   -0.22055E-03   928   0.998E-02    0.641E-02
DAV:   6    -0.613002831754E+02    0.31357E-04   -0.17924E-04   592   0.271E-02
  18 F= -.61300283E+02 E0= -.61300283E+02  d E =-.562984E-01  mag=     0.0000
       N       E                     dE             d eps       ncg     rms          rms(c)
DAV:   1    -0.612963353930E+02    0.39791E-02   -0.96034E+01   864   0.181E+01    0.590E-01
DAV:   2    -0.613402936757E+02   -0.43958E-01   -0.45385E-01   896   0.172E+00    0.439E-01
DAV:   3    -0.613396636904E+02    0.62999E-03   -0.78996E-03   960   0.214E-01    0.274E-01
DAV:   4    -0.613390565857E+02    0.60710E-03   -0.27425E-03   912   0.111E-01    0.828E-02
DAV:   5    -0.613391076832E+02   -0.51097E-04   -0.13533E-04   608   0.410E-02
  19 F= -.61339108E+02 E0= -.61339108E+02  d E =-.388245E-01  mag=     0.0000
       N       E                     dE             d eps       ncg     rms          rms(c)
DAV:   1    -0.613391948076E+02   -0.13822E-03   -0.46227E-01   880   0.125E+00    0.381E-02
DAV:   2    -0.613394111699E+02   -0.21636E-03   -0.21002E-03   928   0.118E-01    0.312E-02
DAV:   3    -0.613394095049E+02    0.16649E-05   -0.34181E-05   560   0.147E-02
  20 F= -.61339410E+02 E0= -.61339410E+02  d E =-.391263E-01  mag=     0.0000
       N       E                     dE             d eps       ncg     rms          rms(c)
DAV:   1    -0.613399954287E+02   -0.58426E-03   -0.30607E+01   864   0.102E+01    0.280E-01
DAV:   2    -0.613542763386E+02   -0.14281E-01   -0.14320E-01   880   0.975E-01    0.221E-01
DAV:   3    -0.613539825409E+02    0.29380E-03   -0.23202E-03   944   0.120E-01    0.151E-01
DAV:   4    -0.613536448582E+02    0.33768E-03   -0.12660E-03   880   0.701E-02    0.468E-02
DAV:   5    -0.613536728616E+02   -0.28003E-04   -0.85669E-05   560   0.251E-02
  21 F= -.61353673E+02 E0= -.61353673E+02  d E =-.142634E-01  mag=     0.0000
       N       E                     dE             d eps       ncg     rms          rms(c)
DAV:   1    -0.613517222508E+02    0.19226E-02   -0.77332E+00   864   0.512E+00    0.145E-01
DAV:   2    -0.613553229006E+02   -0.36006E-02   -0.36165E-02   880   0.489E-01    0.113E-01
DAV:   3    -0.613552608627E+02    0.62038E-04   -0.58091E-04   960   0.601E-02
  22 F= -.61355261E+02 E0= -.61355261E+02  d E =-.158514E-01  mag=     0.0000
       N       E                     dE             d eps       ncg     rms          rms(c)
DAV:   1    -0.613560952055E+02   -0.77230E-03   -0.24281E+01   864   0.906E+00    0.186E-01
DAV:   2    -0.613673226196E+02   -0.11227E-01   -0.11078E-01   896   0.857E-01    0.169E-01
DAV:   3    -0.613671431128E+02    0.17951E-03   -0.16297E-03   960   0.993E-02    0.127E-01
DAV:   4    -0.613667727524E+02    0.37036E-03   -0.79732E-04   880   0.554E-02    0.565E-02
DAV:   5    -0.613667772277E+02   -0.44753E-05   -0.28866E-04   672   0.357E-02
  23 F= -.61366777E+02 E0= -.61366777E+02  d E =-.115164E-01  mag=     0.0000
       N       E                     dE             d eps       ncg     rms          rms(c)
DAV:   1    -0.612900991131E+02    0.76674E-01   -0.18659E+02   864   0.252E+01    0.582E-01
DAV:   2    -0.613780581430E+02   -0.87959E-01   -0.87053E-01   896   0.241E+00    0.466E-01
DAV:   3    -0.613764178427E+02    0.16403E-02   -0.13138E-02   944   0.288E-01    0.330E-01
DAV:   4    -0.613738519705E+02    0.25659E-02   -0.56650E-03   896   0.147E-01    0.143E-01
DAV:   5    -0.613738314118E+02    0.20559E-04   -0.16383E-03   928   0.835E-02    0.527E-02
DAV:   6    -0.613738098379E+02    0.21574E-04   -0.12381E-04   560   0.223E-02
  24 F= -.61373810E+02 E0= -.61373810E+02  d E =-.185490E-01  mag=     0.0000
       N       E                     dE             d eps       ncg     rms          rms(c)
DAV:   1    -0.613690948465E+02    0.47366E-02   -0.15045E+01   864   0.713E+00    0.139E-01
DAV:   2    -0.613760460389E+02   -0.69512E-02   -0.68180E-02   912   0.673E-01    0.135E-01
DAV:   3    -0.613759592127E+02    0.86826E-04   -0.10037E-03   960   0.776E-02    0.105E-01
DAV:   4    -0.613757271751E+02    0.23204E-03   -0.43300E-04   896   0.413E-02    0.527E-02
DAV:   5    -0.613757264265E+02    0.74859E-06   -0.25518E-04   656   0.330E-02
  25 F= -.61375726E+02 E0= -.61375726E+02  d E =-.204656E-01  mag=     0.0000
       N       E                     dE             d eps       ncg     rms          rms(c)
DAV:   1    -0.613678646643E+02    0.78625E-02   -0.44666E+01   864   0.123E+01    0.242E-01
DAV:   2    -0.613885451564E+02   -0.20680E-01   -0.20379E-01   912   0.117E+00    0.242E-01
DAV:   3    -0.613882554010E+02    0.28976E-03   -0.30367E-03   976   0.137E-01    0.187E-01
DAV:   4    -0.613874824566E+02    0.77294E-03   -0.12622E-03   896   0.696E-02    0.984E-02
DAV:   5    -0.613874221119E+02    0.60345E-04   -0.88279E-04   928   0.584E-02
  26 F= -.61387422E+02 E0= -.61387422E+02  d E =-.116957E-01  mag=     0.0000
       N       E                     dE             d eps       ncg     rms          rms(c)
DAV:   1    -0.613728923674E+02    0.14590E-01   -0.36589E+01   864   0.111E+01    0.224E-01
DAV:   2    -0.613899235143E+02   -0.17031E-01   -0.16831E-01   880   0.106E+00    0.214E-01
DAV:   3    -0.613897267295E+02    0.19678E-03   -0.25155E-03   976   0.125E-01    0.160E-01
DAV:   4    -0.613891957255E+02    0.53100E-03   -0.94766E-04   880   0.611E-02    0.841E-02
DAV:   5    -0.613891717580E+02    0.23968E-04   -0.61003E-04   928   0.490E-02
  27 F= -.61389172E+02 E0= -.61389172E+02  d E =-.134453E-01  mag=     0.0000
       N       E                     dE             d eps       ncg     rms          rms(c)
DAV:   1    -0.613834328842E+02    0.57628E-02   -0.30282E+01   864   0.101E+01    0.180E-01
DAV:   2    -0.613976066287E+02   -0.14174E-01   -0.13864E-01   896   0.963E-01    0.186E-01
DAV:   3    -0.613974688163E+02    0.13781E-03   -0.20697E-03   944   0.114E-01    0.144E-01
DAV:   4    -0.613970158718E+02    0.45294E-03   -0.58095E-04   880   0.477E-02    0.875E-02
DAV:   5    -0.613969333333E+02    0.82539E-04   -0.82765E-04   912   0.555E-02
  28 F= -.61396933E+02 E0= -.61396933E+02  d E =-.776158E-02  mag=     0.0000
       N       E                     dE             d eps       ncg     rms          rms(c)
DAV:   1    -0.613626400080E+02    0.34376E-01   -0.84096E+01   864   0.169E+01    0.305E-01
DAV:   2    -0.614019456686E+02   -0.39306E-01   -0.38586E-01   896   0.161E+00    0.315E-01
DAV:   3    -0.614015294524E+02    0.41622E-03   -0.58039E-03   960   0.193E-01    0.241E-01
DAV:   4    -0.614002708213E+02    0.12586E-02   -0.15677E-03   896   0.782E-02    0.148E-01
DAV:   5    -0.614000089495E+02    0.26187E-03   -0.22169E-03   896   0.905E-02    0.539E-02
DAV:   6    -0.614000156165E+02   -0.66670E-05   -0.33839E-05   544   0.129E-02
  29 F= -.61400016E+02 E0= -.61400016E+02  d E =-.108439E-01  mag=     0.0000
       N       E                     dE             d eps       ncg     rms          rms(c)
DAV:   1    -0.613953637951E+02    0.46452E-02   -0.29718E+01   864   0.100E+01    0.186E-01
DAV:   2    -0.614091836467E+02   -0.13820E-01   -0.13655E-01   896   0.954E-01    0.186E-01
DAV:   3    -0.614090268102E+02    0.15684E-03   -0.20506E-03   928   0.113E-01    0.142E-01
DAV:   4    -0.614085655019E+02    0.46131E-03   -0.68371E-04   896   0.515E-02    0.802E-02
DAV:   5    -0.614085157904E+02    0.49711E-04   -0.67033E-04   912   0.506E-02
  30 F= -.61408516E+02 E0= -.61408516E+02  d E =-.850017E-02  mag=     0.0000
       N       E                     dE             d eps       ncg     rms          rms(c)
DAV:   1    -0.613895032061E+02    0.19062E-01   -0.49361E+01   864   0.129E+01    0.250E-01
DAV:   2    -0.614125391207E+02   -0.23036E-01   -0.22796E-01   896   0.123E+00    0.240E-01
DAV:   3    -0.614122642032E+02    0.27492E-03   -0.34502E-03   928   0.147E-01    0.180E-01
DAV:   4    -0.614115356520E+02    0.72855E-03   -0.11455E-03   896   0.668E-02    0.987E-02
DAV:   5    -0.614114700896E+02    0.65562E-04   -0.95286E-04   912   0.608E-02
  31 F= -.61411470E+02 E0= -.61411470E+02  d E =-.114545E-01  mag=     0.0000
       N       E                     dE             d eps       ncg     rms          rms(c)
DAV:   1    -0.614014646619E+02    0.10071E-01   -0.39628E+01   864   0.116E+01    0.249E-01
DAV:   2    -0.614200704697E+02   -0.18606E-01   -0.18464E-01   896   0.111E+00    0.222E-01
DAV:   3    -0.614198069686E+02    0.26350E-03   -0.28473E-03   928   0.133E-01    0.163E-01
DAV:   4    -0.614192421545E+02    0.56481E-03   -0.11383E-03   880   0.659E-02    0.765E-02
DAV:   5    -0.614192439969E+02   -0.18424E-05   -0.51781E-04   912   0.463E-02
  32 F= -.61419244E+02 E0= -.61419244E+02  d E =-.777391E-02  mag=    -0.0000
       N       E                     dE             d eps       ncg     rms          rms(c)
DAV:   1    -0.614165595553E+02    0.26826E-02   -0.71894E+00   864   0.493E+00    0.107E-01
DAV:   2    -0.614199444064E+02   -0.33849E-02   -0.33503E-02   896   0.471E-01    0.951E-02
DAV:   3    -0.614199086124E+02    0.35794E-04   -0.51490E-04   928   0.565E-02
  33 F= -.61419909E+02 E0= -.61419909E+02  d E =-.843852E-02  mag=    -0.0000
       N       E                     dE             d eps       ncg     rms          rms(c)
DAV:   1    -0.614160926348E+02    0.38518E-02   -0.24649E+01   864   0.913E+00    0.175E-01
DAV:   2    -0.614275760040E+02   -0.11483E-01   -0.11305E-01   880   0.867E-01    0.173E-01
DAV:   3    -0.614274124523E+02    0.16355E-03   -0.16935E-03   944   0.101E-01    0.136E-01
DAV:   4    -0.614269778874E+02    0.43456E-03   -0.73889E-04   896   0.525E-02    0.665E-02
DAV:   5    -0.614269587747E+02    0.19113E-04   -0.51510E-04   912   0.446E-02
  34 F= -.61426959E+02 E0= -.61426959E+02  d E =-.705016E-02  mag=    -0.0000
       N       E                     dE             d eps       ncg     rms          rms(c)
DAV:   1    -0.613969886555E+02    0.29989E-01   -0.73411E+01   864   0.158E+01    0.310E-01
DAV:   2    -0.614317187449E+02   -0.34730E-01   -0.34244E-01   880   0.151E+00    0.284E-01
DAV:   3    -0.614312544692E+02    0.46428E-03   -0.52187E-03   928   0.181E-01    0.215E-01
DAV:   4    -0.614301574608E+02    0.10970E-02   -0.17295E-03   896   0.810E-02    0.109E-01
DAV:   5    -0.614300559314E+02    0.10153E-03   -0.13171E-03   896   0.713E-02    0.395E-02
DAV:   6    -0.614300465421E+02    0.93893E-05   -0.47120E-05   552   0.140E-02
  35 F= -.61430047E+02 E0= -.61430047E+02  d E =-.101379E-01  mag=    -0.0000
       N       E                     dE             d eps       ncg     rms          rms(c)
DAV:   1    -0.614295822014E+02    0.47373E-03   -0.97998E+00   864   0.575E+00    0.966E-02
DAV:   2    -0.614341633856E+02   -0.45812E-02   -0.45039E-02   880   0.549E-01    0.105E-01
DAV:   3    -0.614341176132E+02    0.45772E-04   -0.67222E-04   912   0.642E-02
  36 F= -.61434118E+02 E0= -.61434118E+02  d E =-.407107E-02  mag=     0.0000
       N       E                     dE             d eps       ncg     rms          rms(c)
DAV:   1    -0.614026454048E+02    0.31518E-01   -0.88657E+01   864   0.173E+01    0.329E-01
DAV:   2    -0.614435516057E+02   -0.40906E-01   -0.40569E-01   896   0.165E+00    0.342E-01
DAV:   3    -0.614428966603E+02    0.65495E-03   -0.60771E-03   912   0.193E-01    0.271E-01
DAV:   4    -0.614411134034E+02    0.17833E-02   -0.25652E-03   896   0.978E-02    0.147E-01
DAV:   5    -0.614408915764E+02    0.22183E-03   -0.23310E-03   896   0.934E-02    0.572E-02
DAV:   6    -0.614408895938E+02    0.19826E-05   -0.57679E-05   560   0.158E-02
  37 F= -.61440890E+02 E0= -.61440890E+02  d E =-.108431E-01  mag=     0.0000
       N       E                     dE             d eps       ncg     rms          rms(c)
DAV:   1    -0.612668662033E+02    0.17403E+00   -0.35891E+02   864   0.351E+01    0.756E-01
DAV:   2    -0.614395619967E+02   -0.17270E+00   -0.17070E+00   880   0.340E+00    0.657E-01
DAV:   3    -0.614368459048E+02    0.27161E-02   -0.26531E-02   928   0.413E-01    0.476E-01
DAV:   4    -0.614315843621E+02    0.52615E-02   -0.77150E-03   880   0.172E-01    0.260E-01
DAV:   5    -0.614307380544E+02    0.84631E-03   -0.56592E-03   896   0.146E-01    0.819E-02
DAV:   6    -0.614307796922E+02   -0.41638E-04   -0.11654E-04   576   0.234E-02
  38 F= -.61430780E+02 E0= -.61430780E+02  d E =-.733150E-03  mag=    -0.0000
       N       E                     dE             d eps       ncg     rms          rms(c)
DAV:   1    -0.613557738725E+02    0.74964E-01   -0.19105E+02   864   0.255E+01    0.469E-01
DAV:   2    -0.614462353023E+02   -0.90461E-01   -0.88800E-01   880   0.244E+00    0.474E-01
DAV:   3    -0.614451955329E+02    0.10398E-02   -0.13517E-02   976   0.289E-01    0.370E-01
DAV:   4    -0.614422162802E+02    0.29793E-02   -0.35634E-03   880   0.118E-01    0.220E-01
DAV:   5    -0.614415398503E+02    0.67643E-03   -0.49223E-03   928   0.135E-01    0.735E-02
DAV:   6    -0.614415500062E+02   -0.10156E-04   -0.78943E-05   576   0.197E-02
  39 F= -.61441550E+02 E0= -.61441550E+02  d E =-.115035E-01  mag=     0.0000
       N       E                     dE             d eps       ncg     rms          rms(c)
DAV:   1    -0.614430631535E+02   -0.15233E-02   -0.15327E+01   864   0.721E+00    0.136E-01
DAV:   2    -0.614502018748E+02   -0.71387E-02   -0.70246E-02   912   0.683E-01    0.134E-01
DAV:   3    -0.614501065911E+02    0.95284E-04   -0.99102E-04   960   0.771E-02
  40 F= -.61450107E+02 E0= -.61450107E+02  d E =-.855658E-02  mag=     0.0000
       N       E                     dE             d eps       ncg     rms          rms(c)
DAV:   1    -0.613937950729E+02    0.56407E-01   -0.13848E+02   864   0.217E+01    0.447E-01
DAV:   2    -0.614584975587E+02   -0.64702E-01   -0.63610E-01   896   0.207E+00    0.431E-01
DAV:   3    -0.614575416544E+02    0.95590E-03   -0.95882E-03   928   0.239E-01    0.331E-01
DAV:   4    -0.614551239812E+02    0.24177E-02   -0.45723E-03   896   0.131E-01    0.158E-01
DAV:   5    -0.614550423282E+02    0.81653E-04   -0.21623E-03   896   0.924E-02    0.626E-02
DAV:   6    -0.614550212604E+02    0.21068E-04   -0.88880E-05   544   0.196E-02
  41 F= -.61455021E+02 E0= -.61455021E+02  d E =-.134713E-01  mag=    -0.0000
       N       E                     dE             d eps       ncg     rms          rms(c)
DAV:   1    -0.614512010657E+02    0.38413E-02   -0.12215E+01   864   0.643E+00    0.121E-01
DAV:   2    -0.614569053527E+02   -0.57043E-02   -0.55903E-02   896   0.609E-01    0.117E-01
DAV:   3    -0.614568411081E+02    0.64245E-04   -0.84026E-04   960   0.703E-02
  42 F= -.61456841E+02 E0= -.61456841E+02  d E =-.152911E-01  mag=    -0.0000
       N       E                     dE             d eps       ncg     rms          rms(c)
DAV:   1    -0.614542774929E+02    0.26279E-02   -0.20916E+01   864   0.839E+00    0.159E-01
DAV:   2    -0.614644996399E+02   -0.10222E-01   -0.98466E-02   896   0.809E-01    0.149E-01
DAV:   3    -0.614644253011E+02    0.74339E-04   -0.15122E-03   928   0.981E-02    0.113E-01
DAV:   4    -0.614641534175E+02    0.27188E-03   -0.38369E-04   896   0.390E-02    0.635E-02
DAV:   5    -0.614641132607E+02    0.40157E-04   -0.41785E-04   912   0.398E-02
  43 F= -.61464113E+02 E0= -.61464113E+02  d E =-.727215E-02  mag=    -0.0000
       N       E                     dE             d eps       ncg     rms          rms(c)
DAV:   1    -0.614324681487E+02    0.31685E-01   -0.73891E+01   864   0.158E+01    0.297E-01
DAV:   2    -0.614673487836E+02   -0.34881E-01   -0.34376E-01   912   0.151E+00    0.298E-01
DAV:   3    -0.614669818788E+02    0.36690E-03   -0.52416E-03   912   0.180E-01    0.230E-01
DAV:   4    -0.614658343443E+02    0.11475E-02   -0.16238E-03   912   0.794E-02    0.131E-01
DAV:   5    -0.614656698566E+02    0.16449E-03   -0.16754E-03   896   0.794E-02    0.485E-02
DAV:   6    -0.614656679078E+02    0.19488E-05   -0.37844E-05   512   0.130E-02
  44 F= -.61465668E+02 E0= -.61465668E+02  d E =-.882680E-02  mag=    -0.0000
       N       E                     dE             d eps       ncg     rms          rms(c)
DAV:   1    -0.614628775170E+02    0.27923E-02   -0.94299E+00   864   0.564E+00    0.103E-01
DAV:   2    -0.614672805387E+02   -0.44030E-02   -0.43354E-02   896   0.536E-01    0.104E-01
DAV:   3    -0.614672332042E+02    0.47334E-04   -0.65608E-04   928   0.631E-02
  45 F= -.61467233E+02 E0= -.61467233E+02  d E =-.103921E-01  mag=     0.0000
       N       E                     dE             d eps       ncg     rms          rms(c)
DAV:   1    -0.614624887850E+02    0.47918E-02   -0.24432E+01   864   0.902E+00    0.172E-01
DAV:   2    -0.614743553975E+02   -0.11867E-01   -0.11657E-01   928   0.875E-01    0.158E-01
DAV:   3    -0.614742455185E+02    0.10988E-03   -0.17757E-03   912   0.106E-01    0.119E-01
DAV:   4    -0.614739365946E+02    0.30892E-03   -0.42542E-04   880   0.412E-02    0.670E-02
DAV:   5    -0.614738936282E+02    0.42966E-04   -0.48273E-04   896   0.424E-02
  46 F= -.61473894E+02 E0= -.61473894E+02  d E =-.666042E-02  mag=     0.0000
       N       E                     dE             d eps       ncg     rms          rms(c)
DAV:   1    -0.614524796003E+02    0.21457E-01   -0.50421E+01   864   0.130E+01    0.255E-01
DAV:   2    -0.614765336426E+02   -0.24054E-01   -0.23862E-01   896   0.125E+00    0.244E-01
DAV:   3    -0.614762373996E+02    0.29624E-03   -0.36074E-03   912   0.150E-01    0.187E-01
DAV:   4    -0.614754716581E+02    0.76574E-03   -0.12128E-03   880   0.686E-02    0.994E-02
DAV:   5    -0.614754071934E+02    0.64465E-04   -0.99305E-04   912   0.611E-02
  47 F= -.61475407E+02 E0= -.61475407E+02  d E =-.817399E-02  mag=     0.0000
       N       E                     dE             d eps       ncg     rms          rms(c)
DAV:   1    -0.614660864186E+02    0.93852E-02   -0.30750E+01   864   0.101E+01    0.186E-01
DAV:   2    -0.614807991690E+02   -0.14713E-01   -0.14470E-01   880   0.969E-01    0.171E-01
DAV:   3    -0.614806097935E+02    0.18938E-03   -0.21143E-03   912   0.112E-01    0.136E-01
DAV:   4    -0.614801568475E+02    0.45295E-03   -0.74063E-04   912   0.518E-02    0.635E-02
DAV:   5    -0.614801293017E+02    0.27546E-04   -0.53795E-04   880   0.447E-02
  48 F= -.61480129E+02 E0= -.61480129E+02  d E =-.472211E-02  mag=     0.0000
       N       E                     dE             d eps       ncg     rms          rms(c)
DAV:   1    -0.614741814482E+02    0.59754E-02   -0.14493E+01   864   0.692E+00    0.126E-01
DAV:   2    -0.614811230817E+02   -0.69416E-02   -0.68016E-02   864   0.664E-01    0.117E-01
DAV:   3    -0.614810433734E+02    0.79708E-04   -0.98817E-04   896   0.761E-02
  49 F= -.61481043E+02 E0= -.61481043E+02  d E =-.563618E-02  mag=     0.0000
       N       E                     dE             d eps       ncg     rms          rms(c)
DAV:   1    -0.614808573297E+02    0.26575E-03   -0.14972E+01   864   0.711E+00    0.150E-01
DAV:   2    -0.614875564657E+02   -0.66991E-02   -0.67675E-02   880   0.672E-01    0.147E-01
DAV:   3    -0.614874338086E+02    0.12266E-03   -0.10471E-03   960   0.795E-02    0.113E-01
DAV:   4    -0.614871601117E+02    0.27370E-03   -0.57900E-04   896   0.469E-02    0.513E-02
DAV:   5    -0.614871659210E+02   -0.58093E-05   -0.22347E-04   576   0.316E-02
  50 F= -.61487166E+02 E0= -.61487166E+02  d E =-.612255E-02  mag=     0.0000
       N       E                     dE             d eps       ncg     rms          rms(c)
DAV:   1    -0.614764282602E+02    0.10732E-01   -0.29380E+01   864   0.996E+00    0.201E-01
DAV:   2    -0.614901891219E+02   -0.13761E-01   -0.13573E-01   880   0.949E-01    0.188E-01
DAV:   3    -0.614900350335E+02    0.15409E-03   -0.20986E-03   944   0.114E-01    0.140E-01
DAV:   4    -0.614896209499E+02    0.41408E-03   -0.71679E-04   880   0.532E-02    0.712E-02
DAV:   5    -0.614896037168E+02    0.17233E-04   -0.47826E-04   912   0.435E-02
  51 F= -.61489604E+02 E0= -.61489604E+02  d E =-.856034E-02  mag=     0.0000
       N       E                     dE             d eps       ncg     rms          rms(c)
DAV:   1    -0.614884766137E+02    0.11443E-02   -0.11286E+01   864   0.618E+00    0.112E-01
DAV:   2    -0.614936913714E+02   -0.52148E-02   -0.51555E-02   912   0.588E-01    0.110E-01
DAV:   3    -0.614936473546E+02    0.44017E-04   -0.80838E-04   928   0.730E-02
  52 F= -.61493647E+02 E0= -.61493647E+02  d E =-.404364E-02  mag=     0.0000
       N       E                     dE             d eps       ncg     rms          rms(c)
DAV:   1    -0.614843742229E+02    0.93171E-02   -0.26795E+01   864   0.952E+00    0.188E-01
DAV:   2    -0.614963335267E+02   -0.11959E-01   -0.11923E-01   912   0.897E-01    0.195E-01
DAV:   3    -0.614961410887E+02    0.19244E-03   -0.18428E-03   944   0.108E-01    0.155E-01
DAV:   4    -0.614956031074E+02    0.53798E-03   -0.85682E-04   880   0.569E-02    0.803E-02
DAV:   5    -0.614955675808E+02    0.35527E-04   -0.72326E-04   928   0.524E-02
  53 F= -.61495568E+02 E0= -.61495568E+02  d E =-.596386E-02  mag=     0.0000
       N       E                     dE             d eps       ncg     rms          rms(c)
DAV:   1    -0.614966941015E+02   -0.10910E-02   -0.59496E+00   864   0.449E+00    0.979E-02
DAV:   2    -0.614994642133E+02   -0.27701E-02   -0.27706E-02   928   0.432E-01    0.891E-02
DAV:   3    -0.614994460960E+02    0.18117E-04   -0.44957E-04   896   0.554E-02
  54 F= -.61499446E+02 E0= -.61499446E+02  d E =-.387852E-02  mag=     0.0000
       N       E                     dE             d eps       ncg     rms          rms(c)
DAV:   1    -0.614969298301E+02    0.25344E-02   -0.10711E+01   864   0.603E+00    0.146E-01
DAV:   2    -0.615017617492E+02   -0.48319E-02   -0.48641E-02   928   0.573E-01    0.136E-01
DAV:   3    -0.615016836380E+02    0.78111E-04   -0.78316E-04   944   0.717E-02
  55 F= -.61501684E+02 E0= -.61501684E+02  d E =-.611606E-02  mag=     0.0000
       N       E                     dE             d eps       ncg     rms          rms(c)
DAV:   1    -0.615020063605E+02   -0.24461E-03   -0.47258E+00   864   0.400E+00    0.837E-02
DAV:   2    -0.615041374646E+02   -0.21311E-02   -0.21121E-02   912   0.376E-01    0.818E-02
DAV:   3    -0.615041048985E+02    0.32566E-04   -0.29932E-04   656   0.449E-02
  56 F= -.61504105E+02 E0= -.61504105E+02  d E =-.242126E-02  mag=     0.0000
       N       E                     dE             d eps       ncg     rms          rms(c)
DAV:   1    -0.615043480322E+02   -0.21057E-03   -0.12976E+00   880   0.210E+00    0.542E-02
DAV:   2    -0.615049145850E+02   -0.56655E-03   -0.56541E-03   928   0.195E-01    0.488E-02
DAV:   3    -0.615049024085E+02    0.12177E-04   -0.76971E-05   544   0.233E-02
  57 F= -.61504902E+02 E0= -.61504902E+02  d E =-.321877E-02  mag=     0.0000
       N       E                     dE             d eps       ncg     rms          rms(c)
DAV:   1    -0.615054006213E+02   -0.48604E-03   -0.34321E+00   864   0.341E+00    0.709E-02
DAV:   2    -0.615069860208E+02   -0.15854E-02   -0.15706E-02   928   0.323E-01    0.642E-02
DAV:   3    -0.615069696827E+02    0.16338E-04   -0.22057E-04   592   0.396E-02
  58 F= -.61506970E+02 E0= -.61506970E+02  d E =-.206727E-02  mag=     0.0000
       N       E                     dE             d eps       ncg     rms          rms(c)
DAV:   1    -0.615070575218E+02   -0.71501E-04   -0.32418E-02   896   0.334E-01    0.217E-02
DAV:   2    -0.615070701263E+02   -0.12605E-04   -0.11090E-04   560   0.294E-02
  59 F= -.61507070E+02 E0= -.61507070E+02  d E =-.216772E-02  mag=     0.0000
