<?xml version="1.0" encoding="ISO-8859-1"?>
<modeling>
 <generator>
  <i name="program" type="string">vasp </i>
  <i name="version" type="string">5.3.5  </i>
  <i name="subversion" type="string">31Mar14 (build Feb 01 2018 12:10:03) gamma-only                       parallel </i>
  <i name="platform" type="string">LinuxIFC </i>
  <i name="date" type="string">2019 03 25 </i>
  <i name="time" type="string">04:37:19 </i>
 </generator>
 <incar>
  <i type="string" name="PREC">normal</i>
  <i type="int" name="ISPIN">     2</i>
  <i type="int" name="IBRION">     2</i>
  <i type="int" name="NSW">  1000</i>
  <i type="int" name="ISIF">     2</i>
  <i name="POTIM">      0.10000000</i>
  <i type="logical" name="LPLANE"> T  </i>
  <i type="int" name="ISMEAR">     0</i>
  <i name="SIGMA">      0.00010000</i>
  <i type="logical" name="LWAVE"> F  </i>
  <i type="logical" name="LCHARG"> F  </i>
  <i type="logical" name="LVTOT"> F  </i>
  <i type="string" name="GGA"> PE</i>
 </incar>
 <kpoints>
  <varray name="kpointlist" >
   <v>       0.00000000       0.00000000       0.00000000 </v>
  </varray>
  <varray name="weights" >
   <v>       1.00000000 </v>
  </varray>
 </kpoints>
 <parameters>
  <separator name="general" >
   <i type="string" name="SYSTEM">unknown system</i>
   <i type="logical" name="LCOMPAT"> F  </i>
  </separator>
  <separator name="electronic" >
   <i type="string" name="PREC">normal</i>
   <i name="ENMAX">    249.84400000</i>
   <i name="ENAUG">    412.49600000</i>
   <i name="EDIFF">      0.00010000</i>
   <i type="int" name="IALGO">    38</i>
   <i type="int" name="IWAVPR">    11</i>
   <i type="int" name="NBANDS">   376</i>
   <i name="NELECT">    583.00000000</i>
   <i type="int" name="TURBO">     0</i>
   <i type="int" name="IRESTART">     0</i>
   <i type="int" name="NREBOOT">     0</i>
   <i type="int" name="NMIN">     0</i>
   <i name="EREF">      0.00000000</i>
   <separator name="electronic smearing" >
    <i type="int" name="ISMEAR">     0</i>
    <i name="SIGMA">      0.00010000</i>
    <i name="KSPACING">      0.50000000</i>
    <i type="logical" name="KGAMMA"> T  </i>
   </separator>
   <separator name="electronic projectors" >
    <i type="logical" name="LREAL"> F  </i>
    <v name="ROPT">      0.00000000</v>
    <i type="int" name="LMAXPAW">  -100</i>
    <i type="int" name="LMAXMIX">     2</i>
    <i type="logical" name="NLSPLINE"> F  </i>
   </separator>
   <separator name="electronic startup" >
    <i type="int" name="ISTART">     0</i>
    <i type="int" name="ICHARG">     2</i>
    <i type="int" name="INIWAV">     1</i>
   </separator>
   <separator name="electronic spin" >
    <i type="int" name="ISPIN">     2</i>
    <i type="logical" name="LNONCOLLINEAR"> F  </i>
    <v name="MAGMOM">      1.00000000      1.00000000      1.00000000      1.00000000      1.00000000      1.00000000      1.00000000      1.00000000      1.00000000      1.00000000      1.00000000      1.00000000      1.00000000      1.00000000      1.00000000      1.00000000      1.00000000      1.00000000      1.00000000      1.00000000
      1.00000000      1.00000000      1.00000000      1.00000000      1.00000000      1.00000000      1.00000000      1.00000000      1.00000000      1.00000000      1.00000000      1.00000000      1.00000000      1.00000000      1.00000000      1.00000000      1.00000000      1.00000000      1.00000000      1.00000000
      1.00000000      1.00000000      1.00000000      1.00000000      1.00000000      1.00000000      1.00000000      1.00000000      1.00000000      1.00000000      1.00000000      1.00000000      1.00000000</v>
    <i name="NUPDOWN">     -1.00000000</i>
    <i type="logical" name="LSORBIT"> F  </i>
    <v name="SAXIS">      0.00000000      0.00000000      1.00000000</v>
    <i type="logical" name="LSPIRAL"> F  </i>
    <v name="QSPIRAL">      0.00000000      0.00000000      0.00000000</v>
    <i type="logical" name="LZEROZ"> F  </i>
   </separator>
   <separator name="electronic exchange-correlation" >
    <i type="logical" name="LASPH"> F  </i>
    <i type="logical" name="LMETAGGA"> F  </i>
   </separator>
   <separator name="electronic convergence" >
    <i type="int" name="NELM">    60</i>
    <i type="int" name="NELMDL">    -5</i>
    <i type="int" name="NELMIN">     2</i>
    <i name="ENINI">    249.84400000</i>
    <separator name="electronic convergence detail" >
     <i type="logical" name="LDIAG"> T  </i>
     <i type="logical" name="LSUBROT"> F  </i>
     <i name="WEIMIN">      0.00100000</i>
     <i name="EBREAK">      0.00000007</i>
     <i name="DEPER">      0.30000000</i>
     <i type="int" name="NRMM">     4</i>
     <i name="TIME">      0.40000000</i>
    </separator>
   </separator>
   <separator name="electronic mixer" >
    <i name="AMIX">      0.40000000</i>
    <i name="BMIX">      1.00000000</i>
    <i name="AMIN">      0.10000000</i>
    <i name="AMIX_MAG">      1.60000000</i>
    <i name="BMIX_MAG">      1.00000000</i>
    <separator name="electronic mixer details" >
     <i type="int" name="IMIX">     4</i>
     <i type="int" name="MAXMIX">   -45</i>
     <i name="WC">    100.00000000</i>
     <i type="int" name="INIMIX">     1</i>
     <i type="int" name="MIXPRE">     1</i>
     <i type="int" name="MREMOVE">     5</i>
    </separator>
   </separator>
   <separator name="electronic dipolcorrection" >
    <i type="logical" name="LDIPOL"> F  </i>
    <i type="logical" name="LMONO"> F  </i>
    <i type="int" name="IDIPOL">     0</i>
    <i name="EPSILON">      1.00000000</i>
    <v name="DIPOL">   -100.00000000   -100.00000000   -100.00000000</v>
    <i name="EFIELD">      0.00000000</i>
   </separator>
  </separator>
  <separator name="grids" >
   <i type="int" name="NGX">    96</i>
   <i type="int" name="NGY">    96</i>
   <i type="int" name="NGZ">    96</i>
   <i type="int" name="NGXF">   192</i>
   <i type="int" name="NGYF">   192</i>
   <i type="int" name="NGZF">   192</i>
   <i type="logical" name="ADDGRID"> F  </i>
  </separator>
  <separator name="ionic" >
   <i type="int" name="NSW">  1000</i>
   <i type="int" name="IBRION">     2</i>
   <i type="int" name="ISIF">     2</i>
   <i name="PSTRESS">      0.00000000</i>
   <i name="EDIFFG">      0.00100000</i>
   <i type="int" name="NFREE">     1</i>
   <i name="POTIM">      0.10000000</i>
   <i name="SMASS">     -3.00000000</i>
   <i name="SCALEE">      1.00000000</i>
  </separator>
  <separator name="ionic md" >
   <i name="TEBEG">      0.00010000</i>
   <i name="TEEND">      0.00010000</i>
   <i type="int" name="NBLOCK">     1</i>
   <i type="int" name="KBLOCK">  1000</i>
   <i type="int" name="NPACO">   256</i>
   <i name="APACO">     16.00000000</i>
  </separator>
  <separator name="symmetry" >
   <i type="int" name="ISYM">     2</i>
   <i name="SYMPREC">      0.00001000</i>
  </separator>
  <separator name="dos" >
   <i type="logical" name="LORBIT"> F  </i>
   <v name="RWIGS">     -1.00000000</v>
   <i type="int" name="NEDOS">   301</i>
   <i name="EMIN">     10.00000000</i>
   <i name="EMAX">    -10.00000000</i>
   <i name="EFERMI">      0.00000000</i>
  </separator>
  <separator name="writing" >
   <i type="int" name="NWRITE">     2</i>
   <i type="logical" name="LWAVE"> F  </i>
   <i type="logical" name="LCHARG"> F  </i>
   <i type="logical" name="LPARD"> F  </i>
   <i type="logical" name="LVTOT"> F  </i>
   <i type="logical" name="LVHAR"> F  </i>
   <i type="logical" name="LELF"> F  </i>
   <i type="logical" name="LOPTICS"> F  </i>
   <v name="STM">      0.00000000      0.00000000      0.00000000      0.00000000      0.00000000      0.00000000      0.00000000</v>
  </separator>
  <separator name="performance" >
   <i type="int" name="NPAR">     4</i>
   <i type="int" name="NSIM">     4</i>
   <i type="int" name="NBLK">    -1</i>
   <i type="logical" name="LPLANE"> T  </i>
   <i type="logical" name="LSCALAPACK"> T  </i>
   <i type="logical" name="LSCAAWARE"> F  </i>
   <i type="logical" name="LSCALU"> F  </i>
   <i type="logical" name="LASYNC"> F  </i>
   <i type="logical" name="LORBITALREAL"> F  </i>
  </separator>
  <separator name="miscellaneous" >
   <i type="int" name="IDIOT">     3</i>
   <i type="logical" name="LMUSIC"> F  </i>
   <v name="POMASS">    107.86800000</v>
   <v name="DARWINR">      0.00000000</v>
   <v name="DARWINV">      1.00000000</v>
   <i type="logical" name="LCORR"> T  </i>
  </separator>
  <i type="logical" name="GGA_COMPAT"> T  </i>
  <i type="logical" name="LBERRY"> F  </i>
  <i type="int" name="ICORELEVEL">     0</i>
  <i type="logical" name="LDAU"> F  </i>
  <i type="int" name="I_CONSTRAINED_M">     0</i>
  <separator name="electronic exchange-correlation" >
   <i type="string" name="GGA">PE</i>
   <i type="int" name="VOSKOWN">     0</i>
   <i type="logical" name="LHFCALC"> F  </i>
   <i type="string" name="PRECFOCK"></i>
   <i type="logical" name="LSYMGRAD"> F  </i>
   <i type="logical" name="LHFONE"> F  </i>
   <i type="logical" name="LRHFCALC"> F  </i>
   <i type="logical" name="LTHOMAS"> F  </i>
   <i type="logical" name="LMODELHF"> F  </i>
   <i name="ENCUT4O">     -1.00000000</i>
   <i type="int" name="EXXOEP">     0</i>
   <i type="int" name="FOURORBIT">     0</i>
   <i name="AEXX">      0.00000000</i>
   <i name="HFALPHA">      0.00000000</i>
   <i name="MCALPHA">      0.00000000</i>
   <i name="ALDAX">      1.00000000</i>
   <i name="AGGAX">      1.00000000</i>
   <i name="ALDAC">      1.00000000</i>
   <i name="AGGAC">      1.00000000</i>
   <i type="int" name="NKREDX">     1</i>
   <i type="int" name="NKREDY">     1</i>
   <i type="int" name="NKREDZ">     1</i>
   <i type="logical" name="SHIFTRED"> F  </i>
   <i type="logical" name="ODDONLY"> F  </i>
   <i type="logical" name="EVENONLY"> F  </i>
   <i type="int" name="LMAXFOCK">     0</i>
   <i type="int" name="NMAXFOCKAE">     0</i>
   <i type="logical" name="LFOCKAEDFT"> F  </i>
   <i name="HFSCREEN">      0.00000000</i>
   <i name="HFSCREENC">      0.00000000</i>
   <i type="int" name="NBANDSGWLOW">     0</i>
  </separator>
  <separator name="vdW DFT" >
   <i type="logical" name="LUSE_VDW"> F  </i>
   <i name="Zab_VDW">     -0.84910000</i>
   <i name="PARAM1">      0.12340000</i>
   <i name="PARAM2">      1.00000000</i>
   <i name="PARAM3">      0.00000000</i>
  </separator>
  <separator name="model GW" >
   <i type="int" name="MODEL_GW">     0</i>
   <i name="MODEL_EPS0">    151.68908261</i>
   <i name="MODEL_ALPHA">      1.00000000</i>
  </separator>
  <separator name="linear response parameters" >
   <i type="logical" name="LEPSILON"> F  </i>
   <i type="logical" name="LRPA"> F  </i>
   <i type="logical" name="LNABLA"> F  </i>
   <i type="logical" name="LVEL"> F  </i>
   <i type="int" name="KINTER">     0</i>
   <i name="CSHIFT">      0.10000000</i>
   <i name="OMEGAMAX">     -1.00000000</i>
   <i name="DEG_THRESHOLD">      0.00200000</i>
  </separator>
  <separator name="orbital magnetization" >
   <i type="logical" name="NUCIND"> F  </i>
   <v name="MAGPOS">      0.00000000      0.00000000      0.00000000</v>
   <i type="logical" name="LNICSALL"> T  </i>
   <i type="logical" name="ORBITALMAG"> F  </i>
   <i type="logical" name="LMAGBLOCH"> F  </i>
   <i type="logical" name="LCHIMAG"> F  </i>
   <i type="logical" name="LGAUGE"> T  </i>
   <i type="int" name="MAGATOM">     0</i>
   <v name="MAGDIPOL">      0.00000000      0.00000000      0.00000000</v>
   <v name="AVECCONST">      0.00000000      0.00000000      0.00000000</v>
  </separator>
  <separator name="response functions" >
   <i type="logical" name="LADDER"> F  </i>
   <i type="logical" name="LFXC"> F  </i>
   <i type="logical" name="LHARTREE"> T  </i>
   <i type="int" name="IBSE">     0</i>
   <i type="logical" name="LTCTE"> F  </i>
   <i type="logical" name="LTETE"> F  </i>
   <i type="logical" name="LTRIPLET"> F  </i>
   <i type="logical" name="LFXCEPS"> F  </i>
   <i type="logical" name="LFXHEG"> F  </i>
   <i type="logical" name="L2ORDER"> F  </i>
   <i type="logical" name="LUSEW"> F  </i>
   <i name="ENCUTGW">     -2.00000000</i>
   <i name="ENCUTGWSOFT">     -2.00000000</i>
   <i name="ENCUTLF">     -1.00000000</i>
   <i type="int" name="LMAXMP2">    -1</i>
   <i name="SCISSOR">      0.00000000</i>
   <i type="int" name="NOMEGA">     0</i>
   <i type="int" name="NOMEGAR">     0</i>
   <i type="int" name="NBANDSGW">    -1</i>
   <i type="int" name="NBANDSO">    -1</i>
   <i type="int" name="NBANDSV">    -1</i>
   <i type="int" name="NELM">     1</i>
   <i type="int" name="DIM">     3</i>
   <i type="int" name="ANTIRES">     0</i>
   <i name="OMEGAMAX">    -30.00000000</i>
   <i name="OMEGAMIN">    -30.00000000</i>
   <i name="OMEGATL">   -200.00000000</i>
   <i type="int" name="OMEGAGRID">     0</i>
   <i name="CSHIFT">     -0.10000000</i>
   <i type="logical" name="SELFENERGY"> F  </i>
   <i type="logical" name="LSPECTRAL"> F  </i>
   <i type="logical" name="ODDONLYGW"> F  </i>
   <i type="logical" name="EVENONLYGW"> F  </i>
   <i type="int" name="NKREDLFX">     1</i>
   <i type="int" name="NKREDLFY">     1</i>
   <i type="int" name="NKREDLFZ">     1</i>
   <i type="int" name="MAXMEM">  1800</i>
   <i type="int" name="TELESCOPE">     0</i>
   <i type="int" name="TAUPAR">     1</i>
  </separator>
  <separator name="External order field" >
   <i name="OFIELD_KAPPA">      0.00000000</i>
   <v name="OFIELD_K">      0.00000000      0.00000000      0.00000000</v>
   <i name="OFIELD_Q6_NEAR">      0.00000000</i>
   <i name="OFIELD_Q6_FAR">      0.00000000</i>
   <i name="OFIELD_A">      0.00000000</i>
  </separator>
 </parameters>
 <atominfo>
  <atoms>      53 </atoms>
  <types>       1 </types>
  <array name="atoms" >
   <dimension dim="1">ion</dimension>
   <field type="string">element</field>
   <field type="int">atomtype</field>
   <set>
    <rc><c>Ag</c><c>   1</c></rc>
    <rc><c>Ag</c><c>   1</c></rc>
    <rc><c>Ag</c><c>   1</c></rc>
    <rc><c>Ag</c><c>   1</c></rc>
    <rc><c>Ag</c><c>   1</c></rc>
    <rc><c>Ag</c><c>   1</c></rc>
    <rc><c>Ag</c><c>   1</c></rc>
    <rc><c>Ag</c><c>   1</c></rc>
    <rc><c>Ag</c><c>   1</c></rc>
    <rc><c>Ag</c><c>   1</c></rc>
    <rc><c>Ag</c><c>   1</c></rc>
    <rc><c>Ag</c><c>   1</c></rc>
    <rc><c>Ag</c><c>   1</c></rc>
    <rc><c>Ag</c><c>   1</c></rc>
    <rc><c>Ag</c><c>   1</c></rc>
    <rc><c>Ag</c><c>   1</c></rc>
    <rc><c>Ag</c><c>   1</c></rc>
    <rc><c>Ag</c><c>   1</c></rc>
    <rc><c>Ag</c><c>   1</c></rc>
    <rc><c>Ag</c><c>   1</c></rc>
    <rc><c>Ag</c><c>   1</c></rc>
    <rc><c>Ag</c><c>   1</c></rc>
    <rc><c>Ag</c><c>   1</c></rc>
    <rc><c>Ag</c><c>   1</c></rc>
    <rc><c>Ag</c><c>   1</c></rc>
    <rc><c>Ag</c><c>   1</c></rc>
    <rc><c>Ag</c><c>   1</c></rc>
    <rc><c>Ag</c><c>   1</c></rc>
    <rc><c>Ag</c><c>   1</c></rc>
    <rc><c>Ag</c><c>   1</c></rc>
    <rc><c>Ag</c><c>   1</c></rc>
    <rc><c>Ag</c><c>   1</c></rc>
    <rc><c>Ag</c><c>   1</c></rc>
    <rc><c>Ag</c><c>   1</c></rc>
    <rc><c>Ag</c><c>   1</c></rc>
    <rc><c>Ag</c><c>   1</c></rc>
    <rc><c>Ag</c><c>   1</c></rc>
    <rc><c>Ag</c><c>   1</c></rc>
    <rc><c>Ag</c><c>   1</c></rc>
    <rc><c>Ag</c><c>   1</c></rc>
    <rc><c>Ag</c><c>   1</c></rc>
    <rc><c>Ag</c><c>   1</c></rc>
    <rc><c>Ag</c><c>   1</c></rc>
    <rc><c>Ag</c><c>   1</c></rc>
    <rc><c>Ag</c><c>   1</c></rc>
    <rc><c>Ag</c><c>   1</c></rc>
    <rc><c>Ag</c><c>   1</c></rc>
    <rc><c>Ag</c><c>   1</c></rc>
    <rc><c>Ag</c><c>   1</c></rc>
    <rc><c>Ag</c><c>   1</c></rc>
    <rc><c>Ag</c><c>   1</c></rc>
    <rc><c>Ag</c><c>   1</c></rc>
    <rc><c>Ag</c><c>   1</c></rc>
   </set>
  </array>
  <array name="atomtypes" >
   <dimension dim="1">type</dimension>
   <field type="int">atomspertype</field>
   <field type="string">element</field>
   <field>mass</field>
   <field>valence</field>
   <field type="string">pseudopotential</field>
   <set>
    <rc><c>  53</c><c>Ag</c><c>    107.86800000</c><c>     11.00000000</c><c>  PAW_PBE Ag 02Apr2005                  </c></rc>
   </set>
  </array>
 </atominfo>
 <structure name="initialpos" >
  <crystal>
   <varray name="basis" >
    <v>      23.75160605       0.00000000       0.00000000 </v>
    <v>       0.00000000      23.75160605       0.00000000 </v>
    <v>       0.00000000       0.00000000      23.75160605 </v>
   </varray>
   <i name="volume">  13399.20229713 </i>
   <varray name="rec_basis" >
    <v>       0.04210242       0.00000000       0.00000000 </v>
    <v>       0.00000000       0.04210242       0.00000000 </v>
    <v>       0.00000000       0.00000000       0.04210242 </v>
   </varray>
  </crystal>
  <varray name="positions" >
   <v>       0.69118189       0.63907975       0.69625164 </v>
   <v>       0.67428320       0.52284821       0.68993301 </v>
   <v>       0.57946772       0.60458277       0.71764541 </v>
   <v>       0.57069458       0.49243377       0.73913061 </v>
   <v>       0.48701207       0.54012015       0.67186176 </v>
   <v>       0.48024543       0.42454289       0.68714312 </v>
   <v>       0.69346057       0.59901428       0.58512236 </v>
   <v>       0.69740781       0.48016092       0.58684118 </v>
   <v>       0.60671857       0.67588283       0.62694323 </v>
   <v>       0.49042826       0.65426083       0.65576568 </v>
   <v>       0.58938663       0.54986586       0.60985170 </v>
   <v>       0.60152188       0.43264675       0.64425228 </v>
   <v>       0.37905946       0.47839203       0.65122964 </v>
   <v>       0.51228851       0.34892794       0.60790307 </v>
   <v>       0.63075194       0.34354911       0.57920803 </v>
   <v>       0.71115871       0.39507797       0.51156763 </v>
   <v>       0.54282990       0.28170695       0.52206969 </v>
   <v>       0.39001096       0.59137217       0.63606277 </v>
   <v>       0.41004918       0.39661380       0.57817722 </v>
   <v>       0.50710099       0.46864056       0.57924791 </v>
   <v>       0.41487311       0.67869815       0.56600159 </v>
   <v>       0.67588127       0.53944814       0.48501598 </v>
   <v>       0.52596359       0.70681244       0.55413839 </v>
   <v>       0.60133025       0.62693838       0.51692832 </v>
   <v>       0.60117597       0.44791847       0.51744029 </v>
   <v>       0.48629348       0.58231201       0.55348588 </v>
   <v>       0.61935165       0.34158581       0.46117390 </v>
   <v>       0.35444991       0.69895772       0.47257949 </v>
   <v>       0.43178495       0.29480541       0.52853819 </v>
   <v>       0.54765154       0.53809509       0.46328168 </v>
   <v>       0.43502370       0.48829837       0.49619476 </v>
   <v>       0.70869867       0.53866029       0.36970344 </v>
   <v>       0.45729203       0.74633214       0.47233688 </v>
   <v>       0.66687327       0.44227021       0.41482064 </v>
   <v>       0.49800782       0.38562129       0.48531823 </v>
   <v>       0.62614795       0.61153547       0.40028709 </v>
   <v>       0.36065974       0.57903611       0.51701957 </v>
   <v>       0.47130864       0.49477527       0.39021237 </v>
   <v>       0.32487981       0.46799525       0.53781066 </v>
   <v>       0.54621382       0.68803942       0.43038236 </v>
   <v>       0.37529805       0.37775492       0.46670393 </v>
   <v>       0.44574574       0.62685080       0.44673165 </v>
   <v>       0.55937442       0.40106802       0.38663975 </v>
   <v>       0.59211744       0.50919110       0.34854615 </v>
   <v>       0.35116423       0.50295571       0.41589022 </v>
   <v>       0.51650329       0.60229435       0.35577594 </v>
   <v>       0.33031153       0.61511345       0.40717175 </v>
   <v>       0.44845120       0.37873507       0.37160375 </v>
   <v>       0.51201152       0.44289793       0.29078038 </v>
   <v>       0.26571711       0.42274610       0.44730921 </v>
   <v>       0.33192340       0.39881751       0.35961660 </v>
   <v>       0.40771675       0.57928103       0.33295722 </v>
   <v>       0.39832781       0.47003216       0.29871742 </v>
  </varray>
 </structure>
 <calculation>
  <scstep>
   <time name="dav">    7.42    7.43</time>
   <time name="total">    7.67    8.87</time>
   <energy>
    <i name="alphaZ">    178.31462969 </i>
    <i name="ewald"> 163523.37761902 </i>
    <i name="hartreedc">-216422.84571472 </i>
    <i name="XCdc">   -576.83071627 </i>
    <i name="pawpsdc">  53178.72543769 </i>
    <i name="pawaedc"> -50735.02427058 </i>
    <i name="eentropy">     -0.00002584 </i>
    <i name="bandstr">    709.12298449 </i>
    <i name="atom">  54971.52739458 </i>
    <i name="e_fr_energy">   4826.36733805 </i>
    <i name="e_wo_entrp">   4826.36736389 </i>
    <i name="e_0_energy">   4826.36735097 </i>
   </energy>
  </scstep>
  <scstep>
   <time name="dav">   10.62   10.63</time>
   <time name="total">   10.62   10.64</time>
   <energy>
    <i name="e_fr_energy">    746.96050263 </i>
    <i name="e_wo_entrp">    746.96050263 </i>
    <i name="e_0_energy">    746.96050263 </i>
   </energy>
  </scstep>
  <scstep>
   <time name="dav">    8.87    8.88</time>
   <time name="total">    8.88    8.89</time>
   <energy>
    <i name="e_fr_energy">    -83.27944149 </i>
    <i name="e_wo_entrp">    -83.27944149 </i>
    <i name="e_0_energy">    -83.27944149 </i>
   </energy>
  </scstep>
  <scstep>
   <time name="dav">    7.90    7.91</time>
   <time name="total">    7.91    8.10</time>
   <energy>
    <i name="e_fr_energy">   -115.05526966 </i>
    <i name="e_wo_entrp">   -115.05526966 </i>
    <i name="e_0_energy">   -115.05526966 </i>
   </energy>
  </scstep>
  <scstep>
   <time name="dav">    8.09    8.10</time>
   <time name="total">    8.26    8.30</time>
   <energy>
    <i name="e_fr_energy">   -115.53237758 </i>
    <i name="e_wo_entrp">   -115.53237758 </i>
    <i name="e_0_energy">   -115.53237758 </i>
   </energy>
  </scstep>
  <scstep>
   <time name="dav">    7.56    7.57</time>
   <time name="total">    8.00    8.03</time>
   <energy>
    <i name="e_fr_energy">    -56.57001026 </i>
    <i name="e_wo_entrp">    -56.57001026 </i>
    <i name="e_0_energy">    -56.57001026 </i>
   </energy>
  </scstep>
  <scstep>
   <time name="dav">    8.08    8.09</time>
   <time name="total">    8.51    8.52</time>
   <energy>
    <i name="e_fr_energy">    -41.36260872 </i>
    <i name="e_wo_entrp">    -41.36260872 </i>
    <i name="e_0_energy">    -41.36260872 </i>
   </energy>
  </scstep>
  <scstep>
   <time name="dav">    7.90    7.91</time>
   <time name="total">    8.31    8.32</time>
   <energy>
    <i name="e_fr_energy">    -38.22569731 </i>
    <i name="e_wo_entrp">    -38.22569731 </i>
    <i name="e_0_energy">    -38.22569731 </i>
   </energy>
  </scstep>
  <scstep>
   <time name="dav">    7.91    7.92</time>
   <time name="total">    8.32    8.34</time>
   <energy>
    <i name="e_fr_energy">    -41.87602160 </i>
    <i name="e_wo_entrp">    -41.87602160 </i>
    <i name="e_0_energy">    -41.87602160 </i>
   </energy>
  </scstep>
  <scstep>
   <time name="dav">    7.68    7.69</time>
   <time name="total">    8.12    8.29</time>
   <energy>
    <i name="e_fr_energy">    -56.14236053 </i>
    <i name="e_wo_entrp">    -56.14236053 </i>
    <i name="e_0_energy">    -56.14236053 </i>
   </energy>
  </scstep>
  <scstep>
   <time name="dav">    7.90    7.91</time>
   <time name="total">    8.32    8.33</time>
   <energy>
    <i name="e_fr_energy">    -70.31537524 </i>
    <i name="e_wo_entrp">    -70.31537524 </i>
    <i name="e_0_energy">    -70.31537524 </i>
   </energy>
  </scstep>
  <scstep>
   <time name="dav">    7.78    7.79</time>
   <time name="total">    8.20    8.21</time>
   <energy>
    <i name="e_fr_energy">    -80.64092134 </i>
    <i name="e_wo_entrp">    -80.64092134 </i>
    <i name="e_0_energy">    -80.64092134 </i>
   </energy>
  </scstep>
  <scstep>
   <time name="dav">    7.80    7.81</time>
   <time name="total">    8.22    8.23</time>
   <energy>
    <i name="e_fr_energy">    -87.90589777 </i>
    <i name="e_wo_entrp">    -87.90589777 </i>
    <i name="e_0_energy">    -87.90589777 </i>
   </energy>
  </scstep>
  <scstep>
   <time name="dav">    7.72    7.73</time>
   <time name="total">    8.14    8.15</time>
   <energy>
    <i name="e_fr_energy">    -96.94014744 </i>
    <i name="e_wo_entrp">    -96.94014744 </i>
    <i name="e_0_energy">    -96.94014744 </i>
   </energy>
  </scstep>
  <scstep>
   <time name="dav">    7.85    7.86</time>
   <time name="total">    8.27    8.29</time>
   <energy>
    <i name="e_fr_energy">   -100.18783510 </i>
    <i name="e_wo_entrp">   -100.18783510 </i>
    <i name="e_0_energy">   -100.18783510 </i>
   </energy>
  </scstep>
  <scstep>
   <time name="dav">    7.69    7.69</time>
   <time name="total">    8.12    8.13</time>
   <energy>
    <i name="e_fr_energy">   -105.16176595 </i>
    <i name="e_wo_entrp">   -105.16176595 </i>
    <i name="e_0_energy">   -105.16176595 </i>
   </energy>
  </scstep>
  <scstep>
   <time name="dav">    7.66    7.67</time>
   <time name="total">    8.10    8.11</time>
   <energy>
    <i name="e_fr_energy">   -109.07846606 </i>
    <i name="e_wo_entrp">   -109.07846606 </i>
    <i name="e_0_energy">   -109.07846606 </i>
   </energy>
  </scstep>
  <scstep>
   <time name="dav">    7.97    7.98</time>
   <time name="total">    8.44    8.74</time>
   <energy>
    <i name="e_fr_energy">   -109.43179624 </i>
    <i name="e_wo_entrp">   -109.43179624 </i>
    <i name="e_0_energy">   -109.43179624 </i>
   </energy>
  </scstep>
  <scstep>
   <time name="dav">    7.69    7.70</time>
   <time name="total">    8.13    8.22</time>
   <energy>
    <i name="e_fr_energy">   -110.38296389 </i>
    <i name="e_wo_entrp">   -110.38296389 </i>
    <i name="e_0_energy">   -110.38296389 </i>
   </energy>
  </scstep>
  <scstep>
   <time name="dav">    7.69    7.70</time>
   <time name="total">    8.13    8.14</time>
   <energy>
    <i name="e_fr_energy">   -112.27311140 </i>
    <i name="e_wo_entrp">   -112.27311140 </i>
    <i name="e_0_energy">   -112.27311140 </i>
   </energy>
  </scstep>
  <scstep>
   <time name="dav">    7.91    7.92</time>
   <time name="total">    8.33    8.35</time>
   <energy>
    <i name="e_fr_energy">   -112.98731775 </i>
    <i name="e_wo_entrp">   -112.98731775 </i>
    <i name="e_0_energy">   -112.98731775 </i>
   </energy>
  </scstep>
  <scstep>
   <time name="dav">    7.88    7.89</time>
   <time name="total">    8.34    8.36</time>
   <energy>
    <i name="e_fr_energy">   -113.25236910 </i>
    <i name="e_wo_entrp">   -113.25236910 </i>
    <i name="e_0_energy">   -113.25236910 </i>
   </energy>
  </scstep>
  <scstep>
   <time name="dav">    7.78    7.78</time>
   <time name="total">    8.23    8.92</time>
   <energy>
    <i name="e_fr_energy">   -113.51150507 </i>
    <i name="e_wo_entrp">   -113.51150507 </i>
    <i name="e_0_energy">   -113.51150507 </i>
   </energy>
  </scstep>
  <scstep>
   <time name="dav">    7.18    7.19</time>
   <time name="total">    7.61    7.65</time>
   <energy>
    <i name="e_fr_energy">   -113.57961586 </i>
    <i name="e_wo_entrp">   -113.57961586 </i>
    <i name="e_0_energy">   -113.57961586 </i>
   </energy>
  </scstep>
  <scstep>
   <time name="dav">    5.89    5.90</time>
   <time name="total">    6.32    6.33</time>
   <energy>
    <i name="e_fr_energy">   -113.61597642 </i>
    <i name="e_wo_entrp">   -113.61597642 </i>
    <i name="e_0_energy">   -113.61597642 </i>
   </energy>
  </scstep>
  <scstep>
   <time name="dav">    6.14    6.15</time>
   <time name="total">    6.60    6.61</time>
   <energy>
    <i name="e_fr_energy">   -113.64841970 </i>
    <i name="e_wo_entrp">   -113.64841970 </i>
    <i name="e_0_energy">   -113.64841970 </i>
   </energy>
  </scstep>
  <scstep>
   <time name="dav">    5.90    5.91</time>
   <time name="total">    6.32    6.33</time>
   <energy>
    <i name="e_fr_energy">   -113.65844346 </i>
    <i name="e_wo_entrp">   -113.65844346 </i>
    <i name="e_0_energy">   -113.65844346 </i>
   </energy>
  </scstep>
  <scstep>
   <time name="dav">    5.76    5.76</time>
   <time name="total">    6.18    6.31</time>
   <energy>
    <i name="e_fr_energy">   -113.66588358 </i>
    <i name="e_wo_entrp">   -113.66588358 </i>
    <i name="e_0_energy">   -113.66588358 </i>
   </energy>
  </scstep>
  <scstep>
   <time name="dav">    5.82    5.83</time>
   <time name="total">    6.24    6.35</time>
   <energy>
    <i name="e_fr_energy">   -113.67265443 </i>
    <i name="e_wo_entrp">   -113.67265443 </i>
    <i name="e_0_energy">   -113.67265443 </i>
   </energy>
  </scstep>
  <scstep>
   <time name="dav">    5.73    5.74</time>
   <time name="total">    6.16    6.17</time>
   <energy>
    <i name="e_fr_energy">   -113.67600003 </i>
    <i name="e_wo_entrp">   -113.67600003 </i>
    <i name="e_0_energy">   -113.67600003 </i>
   </energy>
  </scstep>
  <scstep>
   <time name="dav">    5.64    5.65</time>
   <time name="total">    6.08    6.10</time>
   <energy>
    <i name="e_fr_energy">   -113.67699824 </i>
    <i name="e_wo_entrp">   -113.67699824 </i>
    <i name="e_0_energy">   -113.67699824 </i>
   </energy>
  </scstep>
  <scstep>
   <time name="dav">    5.56    5.57</time>
   <time name="total">    5.99    6.00</time>
   <energy>
    <i name="e_fr_energy">   -113.67779952 </i>
    <i name="e_wo_entrp">   -113.67779952 </i>
    <i name="e_0_energy">   -113.67779952 </i>
   </energy>
  </scstep>
  <scstep>
   <time name="dav">    5.61    5.62</time>
   <time name="total">    6.04    7.41</time>
   <energy>
    <i name="e_fr_energy">   -113.67802738 </i>
    <i name="e_wo_entrp">   -113.67802738 </i>
    <i name="e_0_energy">   -113.67802738 </i>
   </energy>
  </scstep>
  <scstep>
   <time name="dav">    5.54    5.55</time>
   <time name="total">    5.98    5.99</time>
   <energy>
    <i name="e_fr_energy">   -113.67814254 </i>
    <i name="e_wo_entrp">   -113.67814254 </i>
    <i name="e_0_energy">   -113.67814254 </i>
   </energy>
  </scstep>
  <scstep>
   <time name="dav">    5.48    5.49</time>
   <time name="total">    5.91    5.93</time>
   <energy>
    <i name="e_fr_energy">   -113.67830634 </i>
    <i name="e_wo_entrp">   -113.67830634 </i>
    <i name="e_0_energy">   -113.67830634 </i>
   </energy>
  </scstep>
  <scstep>
   <time name="dav">    5.47    5.48</time>
   <time name="total">    5.74    5.75</time>
   <energy>
    <i name="alphaZ">    178.31462969 </i>
    <i name="ewald"> 163523.37761902 </i>
    <i name="hartreedc">-216318.36796379 </i>
    <i name="XCdc">   -598.29332548 </i>
    <i name="pawpsdc">  57600.06725796 </i>
    <i name="pawaedc"> -55259.07606464 </i>
    <i name="eentropy">      0.00000000 </i>
    <i name="bandstr">  -4211.22792425 </i>
    <i name="atom">  54971.52739458 </i>
    <i name="e_fr_energy">   -113.67837691 </i>
    <i name="e_wo_entrp">   -113.67837691 </i>
    <i name="e_0_energy">   -113.67837691 </i>
   </energy>
  </scstep>
  <structure>
   <crystal>
    <varray name="basis" >
     <v>      23.75160605       0.00000000       0.00000000 </v>
     <v>       0.00000000      23.75160605       0.00000000 </v>
     <v>       0.00000000       0.00000000      23.75160605 </v>
    </varray>
    <i name="volume">  13399.20229713 </i>
    <varray name="rec_basis" >
     <v>       0.04210242       0.00000000       0.00000000 </v>
     <v>       0.00000000       0.04210242       0.00000000 </v>
     <v>       0.00000000       0.00000000       0.04210242 </v>
    </varray>
   </crystal>
   <varray name="positions" >
    <v>       0.69118189       0.63907975       0.69625164 </v>
    <v>       0.67428320       0.52284821       0.68993301 </v>
    <v>       0.57946772       0.60458277       0.71764541 </v>
    <v>       0.57069458       0.49243377       0.73913061 </v>
    <v>       0.48701207       0.54012015       0.67186176 </v>
    <v>       0.48024543       0.42454289       0.68714312 </v>
    <v>       0.69346057       0.59901428       0.58512236 </v>
    <v>       0.69740781       0.48016092       0.58684118 </v>
    <v>       0.60671857       0.67588283       0.62694323 </v>
    <v>       0.49042826       0.65426083       0.65576568 </v>
    <v>       0.58938663       0.54986586       0.60985170 </v>
    <v>       0.60152188       0.43264675       0.64425228 </v>
    <v>       0.37905946       0.47839203       0.65122964 </v>
    <v>       0.51228851       0.34892794       0.60790307 </v>
    <v>       0.63075194       0.34354911       0.57920803 </v>
    <v>       0.71115871       0.39507797       0.51156763 </v>
    <v>       0.54282990       0.28170695       0.52206969 </v>
    <v>       0.39001096       0.59137217       0.63606277 </v>
    <v>       0.41004918       0.39661380       0.57817722 </v>
    <v>       0.50710099       0.46864056       0.57924791 </v>
    <v>       0.41487311       0.67869815       0.56600159 </v>
    <v>       0.67588127       0.53944814       0.48501598 </v>
    <v>       0.52596359       0.70681244       0.55413839 </v>
    <v>       0.60133025       0.62693838       0.51692832 </v>
    <v>       0.60117597       0.44791847       0.51744029 </v>
    <v>       0.48629348       0.58231201       0.55348588 </v>
    <v>       0.61935165       0.34158581       0.46117390 </v>
    <v>       0.35444991       0.69895772       0.47257949 </v>
    <v>       0.43178495       0.29480541       0.52853819 </v>
    <v>       0.54765154       0.53809509       0.46328168 </v>
    <v>       0.43502370       0.48829837       0.49619476 </v>
    <v>       0.70869867       0.53866029       0.36970344 </v>
    <v>       0.45729203       0.74633214       0.47233688 </v>
    <v>       0.66687327       0.44227021       0.41482064 </v>
    <v>       0.49800782       0.38562129       0.48531823 </v>
    <v>       0.62614795       0.61153547       0.40028709 </v>
    <v>       0.36065974       0.57903611       0.51701957 </v>
    <v>       0.47130864       0.49477527       0.39021237 </v>
    <v>       0.32487981       0.46799525       0.53781066 </v>
    <v>       0.54621382       0.68803942       0.43038236 </v>
    <v>       0.37529805       0.37775492       0.46670393 </v>
    <v>       0.44574574       0.62685080       0.44673165 </v>
    <v>       0.55937442       0.40106802       0.38663975 </v>
    <v>       0.59211744       0.50919110       0.34854615 </v>
    <v>       0.35116423       0.50295571       0.41589022 </v>
    <v>       0.51650329       0.60229435       0.35577594 </v>
    <v>       0.33031153       0.61511345       0.40717175 </v>
    <v>       0.44845120       0.37873507       0.37160375 </v>
    <v>       0.51201152       0.44289793       0.29078038 </v>
    <v>       0.26571711       0.42274610       0.44730921 </v>
    <v>       0.33192340       0.39881751       0.35961660 </v>
    <v>       0.40771675       0.57928103       0.33295722 </v>
    <v>       0.39832781       0.47003216       0.29871742 </v>
   </varray>
  </structure>
  <varray name="forces" >
   <v>      -0.04387173      -0.08447848       0.05037353 </v>
   <v>      -0.13376158       0.06140073       0.14419430 </v>
   <v>       0.05769232       0.10852113       0.12293494 </v>
   <v>      -0.08810977      -0.25243529       0.00438224 </v>
   <v>      -0.19471666      -0.12256654       0.39654050 </v>
   <v>      -0.02488564       0.06990273       0.13395557 </v>
   <v>       0.27280678       0.04876964       0.11938626 </v>
   <v>      -0.13893184      -0.06191571      -0.06705416 </v>
   <v>       0.09881640      -0.14422957       0.07932150 </v>
   <v>       0.06733105       0.16613344      -0.10967162 </v>
   <v>       0.08031798      -0.04577906      -0.22720551 </v>
   <v>      -0.06975641       0.04759734       0.23227585 </v>
   <v>      -0.05185422       0.14204717       0.02444527 </v>
   <v>       0.24044501      -0.00157702      -0.09684598 </v>
   <v>      -0.08832465      -0.19226753      -0.19925877 </v>
   <v>       0.09323881      -0.01242810      -0.10065508 </v>
   <v>       0.54248981      -0.43583239      -0.03975794 </v>
   <v>      -0.18959906      -0.01483395      -0.22818429 </v>
   <v>       0.00622554       0.05375387       0.20284700 </v>
   <v>       0.16661718      -0.28882898       0.40786589 </v>
   <v>      -0.13864074       0.09371152       0.01725244 </v>
   <v>       0.02435182      -0.09486790      -0.10104360 </v>
   <v>      -0.02291716       0.15606914      -0.28011746 </v>
   <v>       0.16108766       0.11237003      -0.03612620 </v>
   <v>       0.30083607      -0.19310181      -0.07043220 </v>
   <v>      -0.10869447       0.30344895       0.26609980 </v>
   <v>       0.21516961      -0.11491006       0.07266150 </v>
   <v>      -0.33202572       0.39775037       0.23112881 </v>
   <v>      -0.17452296      -0.08012991       0.08183937 </v>
   <v>       0.00538629       0.01342940      -0.02203892 </v>
   <v>      -0.17922386       0.11644178       0.10035433 </v>
   <v>      -0.01656592      -0.04331586      -0.18282004 </v>
   <v>      -0.06121959       0.19154342      -0.09390505 </v>
   <v>      -0.08720839      -0.09801276      -0.00559209 </v>
   <v>      -0.12381981       0.06921066       0.04390001 </v>
   <v>       0.04369352       0.01820880       0.04433258 </v>
   <v>       0.02155884       0.24029966       0.09023552 </v>
   <v>       0.25886457      -0.00397341      -0.76884239 </v>
   <v>       0.06911988       0.01965274       0.15617974 </v>
   <v>       0.06826093       0.12373957       0.08002643 </v>
   <v>      -0.01800302       0.29492791      -0.07719760 </v>
   <v>      -0.04010897      -0.21321814      -0.04409925 </v>
   <v>       0.18571755       0.28475185      -0.02078251 </v>
   <v>       0.14381278       0.03702611       0.17274769 </v>
   <v>      -0.24045364      -0.27109605      -0.06023822 </v>
   <v>       0.25662544      -0.05500389       0.00786198 </v>
   <v>      -0.42532221      -0.24855422      -0.22384406 </v>
   <v>      -0.39384410       0.01851974      -0.01843853 </v>
   <v>      -0.10028670       0.06196660      -0.17741696 </v>
   <v>       0.02529134       0.17049997       0.19999790 </v>
   <v>       0.09776063      -0.18043948      -0.20611042 </v>
   <v>      -0.03926095      -0.09018831      -0.02984214 </v>
   <v>       0.02241191      -0.07770984       0.00438004 </v>
  </varray>
  <varray name="stress" >
   <v>      -1.29968689      -0.56390107      -0.09179859 </v>
   <v>      -0.56390107      -1.48884361       0.02771137 </v>
   <v>      -0.09179858       0.02771137      -1.35301254 </v>
  </varray>
  <energy>
   <i name="e_fr_energy">   -113.67837691 </i>
   <i name="e_wo_entrp">   -113.67837691 </i>
   <i name="e_0_energy">      0.00000000 </i>
  </energy>
  <time name="totalsc">  287.59  292.30</time>
 </calculation>
 <calculation>
  <scstep>
   <time name="dav">    7.68    7.69</time>
   <time name="total">    8.10    8.12</time>
   <energy>
    <i name="alphaZ">    178.31462969 </i>
    <i name="ewald"> 163447.64465632 </i>
    <i name="hartreedc">-216242.98561125 </i>
    <i name="XCdc">   -598.35548482 </i>
    <i name="pawpsdc">  57600.06472152 </i>
    <i name="pawaedc"> -55259.07342297 </i>
    <i name="eentropy">      0.00000000 </i>
    <i name="bandstr">  -4210.85960436 </i>
    <i name="atom">  54971.52739458 </i>
    <i name="e_fr_energy">   -113.72272129 </i>
    <i name="e_wo_entrp">   -113.72272129 </i>
    <i name="e_0_energy">   -113.72272129 </i>
   </energy>
  </scstep>
  <scstep>
   <time name="dav">    8.21    8.22</time>
   <time name="total">    8.63    8.64</time>
   <energy>
    <i name="e_fr_energy">   -113.72411431 </i>
    <i name="e_wo_entrp">   -113.72411431 </i>
    <i name="e_0_energy">   -113.72411431 </i>
   </energy>
  </scstep>
  <scstep>
   <time name="dav">    5.58    5.59</time>
   <time name="total">    5.85    5.86</time>
   <energy>
    <i name="alphaZ">    178.31462969 </i>
    <i name="ewald"> 163447.64465632 </i>
    <i name="hartreedc">-216243.41125353 </i>
    <i name="XCdc">   -598.34803119 </i>
    <i name="pawpsdc">  57594.87839808 </i>
    <i name="pawaedc"> -55253.80067688 </i>
    <i name="eentropy">      0.00000000 </i>
    <i name="bandstr">  -4210.52919341 </i>
    <i name="atom">  54971.52739458 </i>
    <i name="e_fr_energy">   -113.72407633 </i>
    <i name="e_wo_entrp">   -113.72407633 </i>
    <i name="e_0_energy">   -113.72407633 </i>
   </energy>
  </scstep>
  <structure>
   <crystal>
    <varray name="basis" >
     <v>      23.75160605       0.00000000       0.00000000 </v>
     <v>       0.00000000      23.75160605       0.00000000 </v>
     <v>       0.00000000       0.00000000      23.75160605 </v>
    </varray>
    <i name="volume">  13399.20229713 </i>
    <varray name="rec_basis" >
     <v>       0.04210242       0.00000000       0.00000000 </v>
     <v>       0.00000000       0.04210242       0.00000000 </v>
     <v>       0.00000000       0.00000000       0.04210242 </v>
    </varray>
   </crystal>
   <varray name="positions" >
    <v>       0.69116407       0.63904543       0.69627210 </v>
    <v>       0.67422886       0.52287316       0.68999159 </v>
    <v>       0.57949116       0.60462685       0.71769535 </v>
    <v>       0.57065879       0.49233123       0.73913239 </v>
    <v>       0.48693297       0.54007036       0.67202284 </v>
    <v>       0.48023532       0.42457129       0.68719753 </v>
    <v>       0.69357139       0.59903410       0.58517086 </v>
    <v>       0.69735137       0.48013577       0.58681394 </v>
    <v>       0.60675871       0.67582424       0.62697545 </v>
    <v>       0.49045561       0.65432832       0.65572113 </v>
    <v>       0.58941926       0.54984726       0.60975940 </v>
    <v>       0.60149354       0.43266608       0.64434663 </v>
    <v>       0.37903840       0.47844973       0.65123957 </v>
    <v>       0.51238618       0.34892730       0.60786373 </v>
    <v>       0.63071606       0.34347101       0.57912708 </v>
    <v>       0.71119658       0.39507293       0.51152674 </v>
    <v>       0.54305028       0.28152991       0.52205354 </v>
    <v>       0.38993394       0.59136614       0.63597008 </v>
    <v>       0.41005171       0.39663564       0.57825962 </v>
    <v>       0.50716867       0.46852323       0.57941359 </v>
    <v>       0.41481679       0.67873622       0.56600860 </v>
    <v>       0.67589117       0.53940960       0.48497494 </v>
    <v>       0.52595428       0.70687583       0.55402460 </v>
    <v>       0.60139569       0.62698402       0.51691364 </v>
    <v>       0.60129818       0.44784003       0.51741168 </v>
    <v>       0.48624932       0.58243528       0.55359398 </v>
    <v>       0.61943906       0.34153913       0.46120342 </v>
    <v>       0.35431503       0.69911930       0.47267339 </v>
    <v>       0.43171405       0.29477286       0.52857143 </v>
    <v>       0.54765373       0.53810055       0.46327273 </v>
    <v>       0.43495090       0.48834567       0.49623552 </v>
    <v>       0.70869194       0.53864269       0.36962917 </v>
    <v>       0.45726716       0.74640995       0.47229873 </v>
    <v>       0.66683784       0.44223039       0.41481837 </v>
    <v>       0.49795752       0.38564941       0.48533607 </v>
    <v>       0.62616570       0.61154287       0.40030510 </v>
    <v>       0.36066850       0.57913373       0.51705622 </v>
    <v>       0.47141380       0.49477366       0.38990005 </v>
    <v>       0.32490789       0.46800323       0.53787410 </v>
    <v>       0.54624155       0.68808969       0.43041487 </v>
    <v>       0.37529074       0.37787473       0.46667257 </v>
    <v>       0.44572945       0.62676419       0.44671373 </v>
    <v>       0.55944986       0.40118370       0.38663131 </v>
    <v>       0.59217586       0.50920614       0.34861632 </v>
    <v>       0.35106655       0.50284558       0.41586574 </v>
    <v>       0.51660754       0.60227201       0.35577913 </v>
    <v>       0.33013876       0.61501248       0.40708082 </v>
    <v>       0.44829121       0.37874260       0.37159626 </v>
    <v>       0.51197079       0.44292311       0.29070831 </v>
    <v>       0.26572738       0.42281536       0.44739045 </v>
    <v>       0.33196311       0.39874421       0.35953287 </v>
    <v>       0.40770080       0.57924439       0.33294510 </v>
    <v>       0.39833692       0.47000059       0.29871920 </v>
   </varray>
  </structure>
  <varray name="forces" >
   <v>      -0.03743408      -0.08055200       0.05342360 </v>
   <v>      -0.13112707       0.05543646       0.13436319 </v>
   <v>       0.04874660       0.09182131       0.11756784 </v>
   <v>      -0.08478788      -0.23390793       0.01131087 </v>
   <v>      -0.18561839      -0.09819634       0.37702815 </v>
   <v>      -0.02736283       0.05469346       0.13057048 </v>
   <v>       0.26013321       0.04213698       0.10874127 </v>
   <v>      -0.13581637      -0.05621355      -0.05703919 </v>
   <v>       0.08390493      -0.13619878       0.06401427 </v>
   <v>       0.06461298       0.15018785      -0.10626300 </v>
   <v>       0.07221604      -0.04215596      -0.21701305 </v>
   <v>      -0.05623743       0.03224975       0.21434945 </v>
   <v>      -0.05186324       0.13415965       0.02578552 </v>
   <v>       0.22750419      -0.00633089      -0.09993992 </v>
   <v>      -0.08136572      -0.17639886      -0.18262414 </v>
   <v>       0.09642727      -0.01324750      -0.09448069 </v>
   <v>       0.49048893      -0.41122601      -0.03339703 </v>
   <v>      -0.17604898      -0.01171899      -0.21692415 </v>
   <v>       0.00984875       0.04504595       0.19329420 </v>
   <v>       0.15273459      -0.25983641       0.36767723 </v>
   <v>      -0.13101336       0.09941346       0.01425067 </v>
   <v>       0.02396174      -0.08790157      -0.09437156 </v>
   <v>      -0.01424168       0.14440629      -0.26096079 </v>
   <v>       0.15781264       0.10658091      -0.03190571 </v>
   <v>       0.27272576      -0.18085056      -0.06335560 </v>
   <v>      -0.09652639       0.27406511       0.25420832 </v>
   <v>       0.20274512      -0.11051738       0.05556498 </v>
   <v>      -0.31998264       0.35133926       0.19911629 </v>
   <v>      -0.14119025      -0.06972726       0.07807256 </v>
   <v>      -0.00607989       0.00882721      -0.01247632 </v>
   <v>      -0.14294504       0.11925072       0.07697186 </v>
   <v>      -0.01657655      -0.04426671      -0.17685705 </v>
   <v>      -0.06653476       0.17817708      -0.09484128 </v>
   <v>      -0.07434583      -0.09135275      -0.00909792 </v>
   <v>      -0.11412619       0.05924532       0.04213929 </v>
   <v>       0.04687066       0.02070444       0.04463860 </v>
   <v>       0.01466491       0.23199098       0.07783886 </v>
   <v>       0.24095785      -0.00091917      -0.69430862 </v>
   <v>       0.06510038       0.02417499       0.15518588 </v>
   <v>       0.06173408       0.11790504       0.07619757 </v>
   <v>      -0.01341466       0.28489714      -0.06531217 </v>
   <v>      -0.04662761      -0.19889946      -0.04363322 </v>
   <v>       0.15612122       0.26536959      -0.01402570 </v>
   <v>       0.13886272       0.03514289       0.16082373 </v>
   <v>      -0.22191462      -0.25724315      -0.05720934 </v>
   <v>       0.23800393      -0.04827082       0.00721098 </v>
   <v>      -0.39657343      -0.21498078      -0.18759159 </v>
   <v>      -0.35262082       0.02132556      -0.01608541 </v>
   <v>      -0.08829466       0.05405055      -0.17516945 </v>
   <v>       0.02763843       0.16233481       0.18344043 </v>
   <v>       0.07569407      -0.17649374      -0.19067514 </v>
   <v>      -0.03404861      -0.08247592      -0.02379442 </v>
   <v>       0.01520798      -0.07505029      -0.00443366 </v>
  </varray>
  <varray name="stress" >
   <v>      -1.34526460      -0.55824251      -0.09147291 </v>
   <v>      -0.55824250      -1.52761641       0.01822861 </v>
   <v>      -0.09147291       0.01822861      -1.39880287 </v>
  </varray>
  <energy>
   <i name="e_fr_energy">   -113.72407633 </i>
   <i name="e_wo_entrp">   -113.72407633 </i>
   <i name="e_0_energy">      0.00000000 </i>
  </energy>
  <time name="totalsc">   37.25   37.64</time>
 </calculation>
 <calculation>
  <scstep>
   <time name="dav">    7.58    7.59</time>
   <time name="total">    8.00    8.02</time>
   <energy>
    <i name="alphaZ">    178.31462969 </i>
    <i name="ewald"> 163220.98190260 </i>
    <i name="hartreedc">-216017.87418975 </i>
    <i name="XCdc">   -598.52554504 </i>
    <i name="pawpsdc">  57590.92318071 </i>
    <i name="pawaedc"> -55249.78848241 </i>
    <i name="eentropy">      0.00000000 </i>
    <i name="bandstr">  -4209.39139173 </i>
    <i name="atom">  54971.52739458 </i>
    <i name="e_fr_energy">   -113.83250134 </i>
    <i name="e_wo_entrp">   -113.83250134 </i>
    <i name="e_0_energy">   -113.83250134 </i>
   </energy>
  </scstep>
  <scstep>
   <time name="dav">    7.82    7.83</time>
   <time name="total">    8.24    8.25</time>
   <energy>
    <i name="e_fr_energy">   -113.84491706 </i>
    <i name="e_wo_entrp">   -113.84491706 </i>
    <i name="e_0_energy">   -113.84491706 </i>
   </energy>
  </scstep>
  <scstep>
   <time name="dav">    7.98    7.98</time>
   <time name="total">    8.40    8.41</time>
   <energy>
    <i name="e_fr_energy">   -113.84459419 </i>
    <i name="e_wo_entrp">   -113.84459419 </i>
    <i name="e_0_energy">   -113.84459419 </i>
   </energy>
  </scstep>
  <scstep>
   <time name="dav">    7.90    7.91</time>
   <time name="total">    8.32    8.33</time>
   <energy>
    <i name="e_fr_energy">   -113.84433863 </i>
    <i name="e_wo_entrp">   -113.84433863 </i>
    <i name="e_0_energy">   -113.84433863 </i>
   </energy>
  </scstep>
  <scstep>
   <time name="dav">    5.47    5.48</time>
   <time name="total">    5.72    5.75</time>
   <energy>
    <i name="alphaZ">    178.31462969 </i>
    <i name="ewald"> 163220.98190260 </i>
    <i name="hartreedc">-216019.51584227 </i>
    <i name="XCdc">   -598.49544925 </i>
    <i name="pawpsdc">  57563.23122643 </i>
    <i name="pawaedc"> -55221.65657365 </i>
    <i name="eentropy">      0.00000000 </i>
    <i name="bandstr">  -4208.23162426 </i>
    <i name="atom">  54971.52739458 </i>
    <i name="e_fr_energy">   -113.84433613 </i>
    <i name="e_wo_entrp">   -113.84433613 </i>
    <i name="e_0_energy">   -113.84433613 </i>
   </energy>
  </scstep>
  <structure>
   <crystal>
    <varray name="basis" >
     <v>      23.75160605       0.00000000       0.00000000 </v>
     <v>       0.00000000      23.75160605       0.00000000 </v>
     <v>       0.00000000       0.00000000      23.75160605 </v>
    </varray>
    <i name="volume">  13399.20229713 </i>
    <varray name="rec_basis" >
     <v>       0.04210242       0.00000000       0.00000000 </v>
     <v>       0.00000000       0.04210242       0.00000000 </v>
     <v>       0.00000000       0.00000000       0.04210242 </v>
    </varray>
   </crystal>
   <varray name="positions" >
    <v>       0.69111060       0.63894248       0.69633349 </v>
    <v>       0.67406585       0.52294798       0.69016732 </v>
    <v>       0.57956146       0.60475910       0.71784517 </v>
    <v>       0.57055141       0.49202359       0.73913773 </v>
    <v>       0.48669567       0.53992099       0.67250610 </v>
    <v>       0.48020500       0.42465648       0.68736078 </v>
    <v>       0.69390386       0.59909353       0.58531635 </v>
    <v>       0.69718206       0.48006031       0.58673223 </v>
    <v>       0.60687914       0.67564847       0.62707212 </v>
    <v>       0.49053766       0.65453078       0.65558748 </v>
    <v>       0.58951714       0.54979147       0.60948251 </v>
    <v>       0.60140853       0.43272409       0.64462970 </v>
    <v>       0.37897520       0.47862284       0.65126936 </v>
    <v>       0.51267921       0.34892538       0.60774570 </v>
    <v>       0.63060843       0.34323670       0.57888425 </v>
    <v>       0.71131021       0.39505778       0.51140408 </v>
    <v>       0.54371140       0.28099877       0.52200509 </v>
    <v>       0.38970288       0.59134806       0.63569199 </v>
    <v>       0.41005930       0.39670114       0.57850682 </v>
    <v>       0.50737173       0.46817124       0.57991065 </v>
    <v>       0.41464783       0.67885042       0.56602963 </v>
    <v>       0.67592084       0.53929399       0.48485180 </v>
    <v>       0.52592635       0.70706603       0.55368323 </v>
    <v>       0.60159200       0.62712097       0.51686961 </v>
    <v>       0.60166480       0.44760470       0.51732584 </v>
    <v>       0.48611686       0.58280509       0.55391827 </v>
    <v>       0.61970128       0.34139909       0.46129197 </v>
    <v>       0.35391040       0.69960403       0.47295506 </v>
    <v>       0.43150136       0.29467520       0.52867117 </v>
    <v>       0.54766029       0.53811691       0.46324587 </v>
    <v>       0.43473248       0.48848757       0.49635782 </v>
    <v>       0.70867175       0.53858990       0.36940637 </v>
    <v>       0.45719255       0.74664339       0.47218429 </v>
    <v>       0.66673157       0.44211095       0.41481155 </v>
    <v>       0.49780662       0.38573375       0.48538957 </v>
    <v>       0.62621895       0.61156506       0.40035913 </v>
    <v>       0.36069477       0.57942658       0.51716619 </v>
    <v>       0.47172927       0.49476881       0.38896308 </v>
    <v>       0.32499212       0.46802718       0.53806444 </v>
    <v>       0.54632474       0.68824049       0.43051240 </v>
    <v>       0.37526880       0.37823415       0.46657849 </v>
    <v>       0.44568057       0.62650434       0.44665999 </v>
    <v>       0.55967619       0.40153072       0.38660598 </v>
    <v>       0.59235112       0.50925126       0.34882685 </v>
    <v>       0.35077352       0.50251521       0.41579233 </v>
    <v>       0.51692029       0.60220498       0.35578871 </v>
    <v>       0.32962043       0.61470958       0.40680803 </v>
    <v>       0.44781124       0.37876517       0.37157379 </v>
    <v>       0.51184857       0.44299862       0.29049210 </v>
    <v>       0.26575820       0.42302315       0.44763418 </v>
    <v>       0.33208225       0.39852431       0.35928169 </v>
    <v>       0.40765296       0.57913448       0.33290873 </v>
    <v>       0.39836423       0.46990589       0.29872454 </v>
   </varray>
  </structure>
  <varray name="forces" >
   <v>      -0.02231042      -0.07682562       0.06585882 </v>
   <v>      -0.13303422       0.04340328       0.11726435 </v>
   <v>       0.02897730       0.05378111       0.11101990 </v>
   <v>      -0.08236667      -0.19981120       0.03225129 </v>
   <v>      -0.17438007      -0.03998964       0.34546954 </v>
   <v>      -0.03511507       0.01833686       0.13117973 </v>
   <v>       0.24193725       0.02762252       0.08793904 </v>
   <v>      -0.13512681      -0.04369746      -0.03378701 </v>
   <v>       0.04982946      -0.12384443       0.02724318 </v>
   <v>       0.06257054       0.11755164      -0.10395333 </v>
   <v>       0.05730628      -0.03543997      -0.20757337 </v>
   <v>      -0.02278039      -0.00648676       0.17949335 </v>
   <v>      -0.05511484       0.11959703       0.03013254 </v>
   <v>       0.20749446      -0.01989424      -0.11513515 </v>
   <v>      -0.06871342      -0.14755532      -0.14961036 </v>
   <v>       0.11137755      -0.01651904      -0.08392198 </v>
   <v>       0.38596421      -0.37041794      -0.01785824 </v>
   <v>      -0.15139645      -0.00491858      -0.19995698 </v>
   <v>       0.02051369       0.02432833       0.18005837 </v>
   <v>       0.12259420      -0.19706812       0.27838592 </v>
   <v>      -0.11961990       0.12144697       0.00678718 </v>
   <v>       0.02406581      -0.07456931      -0.08225770 </v>
   <v>       0.00752277       0.12098286      -0.22638214 </v>
   <v>       0.15941196       0.09844670      -0.02254632 </v>
   <v>       0.21480271      -0.15927320      -0.04761056 </v>
   <v>      -0.07110543       0.21330293       0.23852940 </v>
   <v>       0.18375518      -0.10674201       0.01344195 </v>
   <v>      -0.30694910       0.25410422       0.13109724 </v>
   <v>      -0.06537531      -0.04660935       0.07413845 </v>
   <v>      -0.03592645      -0.00214284       0.01059110 </v>
   <v>      -0.05651197       0.13317450       0.02408577 </v>
   <v>      -0.01784528      -0.04973228      -0.17156969 </v>
   <v>      -0.08518363       0.15385332      -0.10240921 </v>
   <v>      -0.04342498      -0.07948449      -0.01919697 </v>
   <v>      -0.09714117       0.03812474       0.04095657 </v>
   <v>       0.05864768       0.02887084       0.04871042 </v>
   <v>      -0.00241626       0.22621382       0.05165186 </v>
   <v>       0.21327418       0.00929774      -0.53970265 </v>
   <v>       0.05810591       0.03732574       0.16396246 </v>
   <v>       0.04839687       0.11022015       0.07195368 </v>
   <v>      -0.00211545       0.27672984      -0.03849433 </v>
   <v>      -0.06486030      -0.17742867      -0.04499097 </v>
   <v>       0.08745837       0.23003612       0.00361955 </v>
   <v>       0.13568257       0.03310675       0.13967251 </v>
   <v>      -0.18858526      -0.23679758      -0.05338585 </v>
   <v>       0.20396020      -0.03373902       0.00607028 </v>
   <v>      -0.34856879      -0.14239502      -0.10435913 </v>
   <v>      -0.26561145       0.03025898      -0.01180219 </v>
   <v>      -0.06162190       0.03560624      -0.18236354 </v>
   <v>       0.03504511       0.15344573       0.15149107 </v>
   <v>       0.02137446      -0.17721693      -0.16638816 </v>
   <v>      -0.02333620      -0.06748486      -0.00858981 </v>
   <v>      -0.00353154      -0.07308508      -0.02920987 </v>
  </varray>
  <varray name="stress" >
   <v>      -1.45236323      -0.54261619      -0.09148869 </v>
   <v>      -0.54261619      -1.61765600      -0.00552574 </v>
   <v>      -0.09148870      -0.00552575      -1.50051894 </v>
  </varray>
  <energy>
   <i name="e_fr_energy">   -113.84433613 </i>
   <i name="e_wo_entrp">   -113.84433613 </i>
   <i name="e_0_energy">      0.00000000 </i>
  </energy>
  <time name="totalsc">   53.36   53.52</time>
 </calculation>
 <calculation>
  <scstep>
   <time name="dav">    7.52    7.53</time>
   <time name="total">    7.94    7.96</time>
   <energy>
    <i name="alphaZ">    178.31462969 </i>
    <i name="ewald"> 162770.02340354 </i>
    <i name="hartreedc">-215570.27328111 </i>
    <i name="XCdc">   -598.82247467 </i>
    <i name="pawpsdc">  57563.32315506 </i>
    <i name="pawaedc"> -55221.75043129 </i>
    <i name="eentropy">      0.00000000 </i>
    <i name="bandstr">  -4206.30978112 </i>
    <i name="atom">  54971.52739458 </i>
    <i name="e_fr_energy">   -113.96738531 </i>
    <i name="e_wo_entrp">   -113.96738531 </i>
    <i name="e_0_energy">   -113.96738531 </i>
   </energy>
  </scstep>
  <scstep>
   <time name="dav">    7.67    7.68</time>
   <time name="total">    8.12    8.13</time>
   <energy>
    <i name="e_fr_energy">   -114.01745124 </i>
    <i name="e_wo_entrp">   -114.01745124 </i>
    <i name="e_0_energy">   -114.01745124 </i>
   </energy>
  </scstep>
  <scstep>
   <time name="dav">    7.81    7.82</time>
   <time name="total">    8.23    8.25</time>
   <energy>
    <i name="e_fr_energy">   -114.01628708 </i>
    <i name="e_wo_entrp">   -114.01628708 </i>
    <i name="e_0_energy">   -114.01628708 </i>
   </energy>
  </scstep>
  <scstep>
   <time name="dav">    7.94    7.95</time>
   <time name="total">    8.36    8.44</time>
   <energy>
    <i name="e_fr_energy">   -114.01512066 </i>
    <i name="e_wo_entrp">   -114.01512066 </i>
    <i name="e_0_energy">   -114.01512066 </i>
   </energy>
  </scstep>
  <scstep>
   <time name="dav">    5.64    5.65</time>
   <time name="total">    5.89    5.93</time>
   <energy>
    <i name="alphaZ">    178.31462969 </i>
    <i name="ewald"> 162770.02340354 </i>
    <i name="hartreedc">-215573.43356388 </i>
    <i name="XCdc">   -598.76678969 </i>
    <i name="pawpsdc">  57517.19174648 </i>
    <i name="pawaedc"> -55174.85078946 </i>
    <i name="eentropy">      0.00000000 </i>
    <i name="bandstr">  -4204.02117398 </i>
    <i name="atom">  54971.52739458 </i>
    <i name="e_fr_energy">   -114.01514271 </i>
    <i name="e_wo_entrp">   -114.01514271 </i>
    <i name="e_0_energy">   -114.01514271 </i>
   </energy>
  </scstep>
  <structure>
   <crystal>
    <varray name="basis" >
     <v>      23.75160605       0.00000000       0.00000000 </v>
     <v>       0.00000000      23.75160605       0.00000000 </v>
     <v>       0.00000000       0.00000000      23.75160605 </v>
    </varray>
    <i name="volume">  13399.20229713 </i>
    <varray name="rec_basis" >
     <v>       0.04210242       0.00000000       0.00000000 </v>
     <v>       0.00000000       0.04210242       0.00000000 </v>
     <v>       0.00000000       0.00000000       0.04210242 </v>
    </varray>
   </crystal>
   <varray name="positions" >
    <v>       0.69100367       0.63873658       0.69645627 </v>
    <v>       0.67373982       0.52309764       0.69051877 </v>
    <v>       0.57970208       0.60502361       0.71814480 </v>
    <v>       0.57033666       0.49140831       0.73914842 </v>
    <v>       0.48622108       0.53962226       0.67347261 </v>
    <v>       0.48014434       0.42482686       0.68768728 </v>
    <v>       0.69456879       0.59921240       0.58560734 </v>
    <v>       0.69684343       0.47990940       0.58656879 </v>
    <v>       0.60711999       0.67529693       0.62726545 </v>
    <v>       0.49070177       0.65493571       0.65532017 </v>
    <v>       0.58971290       0.54967989       0.60892873 </v>
    <v>       0.60123851       0.43284010       0.64519584 </v>
    <v>       0.37884881       0.47896906       0.65132895 </v>
    <v>       0.51326526       0.34892154       0.60750966 </v>
    <v>       0.63039315       0.34276807       0.57839859 </v>
    <v>       0.71153747       0.39502749       0.51115875 </v>
    <v>       0.54503364       0.27993649       0.52190818 </v>
    <v>       0.38924076       0.59131191       0.63513583 </v>
    <v>       0.41007447       0.39683216       0.57900124 </v>
    <v>       0.50777783       0.46746727       0.58090476 </v>
    <v>       0.41430992       0.67907883       0.56607168 </v>
    <v>       0.67598020       0.53906276       0.48460552 </v>
    <v>       0.52587049       0.70744643       0.55300048 </v>
    <v>       0.60198463       0.62739485       0.51678156 </v>
    <v>       0.60239805       0.44713404       0.51715417 </v>
    <v>       0.48585193       0.58354470       0.55456685 </v>
    <v>       0.62022573       0.34111901       0.46146907 </v>
    <v>       0.35310113       0.70057349       0.47351840 </v>
    <v>       0.43107599       0.29447990       0.52887064 </v>
    <v>       0.54767342       0.53814965       0.46319216 </v>
    <v>       0.43429565       0.48877138       0.49660242 </v>
    <v>       0.70863137       0.53848433       0.36896078 </v>
    <v>       0.45704334       0.74711025       0.47195541 </v>
    <v>       0.66651901       0.44187206       0.41479792 </v>
    <v>       0.49750483       0.38590244       0.48549657 </v>
    <v>       0.62632545       0.61160944       0.40046718 </v>
    <v>       0.36074732       0.58001228       0.51738613 </v>
    <v>       0.47236022       0.49475913       0.38708913 </v>
    <v>       0.32516059       0.46807508       0.53844510 </v>
    <v>       0.54649112       0.68854209       0.43070745 </v>
    <v>       0.37522492       0.37895300       0.46639034 </v>
    <v>       0.44558281       0.62598465       0.44655251 </v>
    <v>       0.56012885       0.40222476       0.38655533 </v>
    <v>       0.59270164       0.50934151       0.34924790 </v>
    <v>       0.35018745       0.50185445       0.41564551 </v>
    <v>       0.51754577       0.60207091       0.35580787 </v>
    <v>       0.32858376       0.61410376       0.40626244 </v>
    <v>       0.44685130       0.37881031       0.37152884 </v>
    <v>       0.51160413       0.44314966       0.29005967 </v>
    <v>       0.26581985       0.42343872       0.44812165 </v>
    <v>       0.33232053       0.39808452       0.35877933 </v>
    <v>       0.40755726       0.57891466       0.33283600 </v>
    <v>       0.39841886       0.46971648       0.29873522 </v>
   </varray>
  </structure>
  <varray name="forces" >
   <v>       0.01141662      -0.06403482       0.08941849 </v>
   <v>      -0.13164269       0.01720771       0.07773007 </v>
   <v>      -0.01413937      -0.02217612       0.09463034 </v>
   <v>      -0.07364229      -0.12118554       0.07886213 </v>
   <v>      -0.14970920       0.08010723       0.27050160 </v>
   <v>      -0.05260140      -0.06029472       0.13085304 </v>
   <v>       0.19692827      -0.00356763       0.04372428 </v>
   <v>      -0.12702968      -0.01620830       0.01589436 </v>
   <v>      -0.01865213      -0.09465330      -0.04789643 </v>
   <v>       0.05689592       0.05208396      -0.09394804 </v>
   <v>       0.02721858      -0.02057671      -0.18591966 </v>
   <v>       0.05110725      -0.08402161       0.10128239 </v>
   <v>      -0.05948917       0.08513388       0.03872325 </v>
   <v>       0.15910471      -0.05055574      -0.14009875 </v>
   <v>      -0.03399904      -0.08524848      -0.07393441 </v>
   <v>       0.14092036      -0.02285651      -0.05847280 </v>
   <v>       0.18189938      -0.28827908       0.01697871 </v>
   <v>      -0.09608700       0.01011384      -0.15298405 </v>
   <v>       0.04237722      -0.01933064       0.14566881 </v>
   <v>       0.06409795      -0.06593463       0.09678001 </v>
   <v>      -0.09226155       0.16442180      -0.00916624 </v>
   <v>       0.02338434      -0.04436865      -0.05581386 </v>
   <v>       0.04866020       0.07150304      -0.14818742 </v>
   <v>       0.15642388       0.07914391      -0.00168315 </v>
   <v>       0.08561346      -0.11042442      -0.01148850 </v>
   <v>      -0.01680771       0.08574470       0.19525511 </v>
   <v>       0.13964838      -0.09643381      -0.07636970 </v>
   <v>      -0.26732333       0.06918401       0.00370270 </v>
   <v>       0.06979964       0.00318486       0.06389043 </v>
   <v>      -0.09302175      -0.02399984       0.05544017 </v>
   <v>       0.10588880       0.15413165      -0.06140829 </v>
   <v>      -0.01818120      -0.05885050      -0.15262589 </v>
   <v>      -0.12071764       0.10085581      -0.11483464 </v>
   <v>       0.02779253      -0.05157754      -0.03916334 </v>
   <v>      -0.06074609       0.00027944       0.03523452 </v>
   <v>       0.08241761       0.04540179       0.05488560 </v>
   <v>      -0.03857351       0.20487706      -0.00760069 </v>
   <v>       0.15856244       0.03572219      -0.22588004 </v>
   <v>       0.04045418       0.06220118       0.17624009 </v>
   <v>       0.02055939       0.09102496       0.05907053 </v>
   <v>       0.01941850       0.24733541       0.01925383 </v>
   <v>      -0.09237050      -0.13037122      -0.04757710 </v>
   <v>      -0.05193850       0.14738399       0.03888258 </v>
   <v>       0.12687730       0.03233277       0.09143043 </v>
   <v>      -0.11279010      -0.17940161      -0.04710535 </v>
   <v>       0.12738700       0.00027208       0.00294641 </v>
   <v>      -0.25575009      -0.01494785       0.04592633 </v>
   <v>      -0.08118904       0.04463519      -0.00434449 </v>
   <v>       0.00038342      -0.01015400      -0.20268068 </v>
   <v>       0.04066508       0.12561968       0.08492236 </v>
   <v>      -0.09598818      -0.17132267      -0.10854545 </v>
   <v>      -0.00433678      -0.03323737       0.02229998 </v>
   <v>      -0.04691447      -0.06588885      -0.08269960 </v>
  </varray>
  <varray name="stress" >
   <v>      -1.64261646      -0.51056785      -0.09177908 </v>
   <v>      -0.51056785      -1.78254627      -0.04787733 </v>
   <v>      -0.09177907      -0.04787733      -1.68506994 </v>
  </varray>
  <energy>
   <i name="e_fr_energy">   -114.01514271 </i>
   <i name="e_wo_entrp">   -114.01514271 </i>
   <i name="e_0_energy">      0.00000000 </i>
  </energy>
  <time name="totalsc">   53.22   53.50</time>
 </calculation>
 <calculation>
  <scstep>
   <time name="dav">    7.53    7.54</time>
   <time name="total">    7.96    7.99</time>
   <energy>
    <i name="alphaZ">    178.31462969 </i>
    <i name="ewald"> 161877.20603939 </i>
    <i name="hartreedc">-214683.23249096 </i>
    <i name="XCdc">   -599.29972463 </i>
    <i name="pawpsdc">  57517.18618709 </i>
    <i name="pawaedc"> -55174.84679383 </i>
    <i name="eentropy">      0.00000000 </i>
    <i name="bandstr">  -4200.76533379 </i>
    <i name="atom">  54971.52739458 </i>
    <i name="e_fr_energy">   -113.91009245 </i>
    <i name="e_wo_entrp">   -113.91009245 </i>
    <i name="e_0_energy">   -113.91009245 </i>
   </energy>
  </scstep>
  <scstep>
   <time name="dav">    7.77    7.78</time>
   <time name="total">    8.19    8.20</time>
   <energy>
    <i name="e_fr_energy">   -114.11538890 </i>
    <i name="e_wo_entrp">   -114.11538890 </i>
    <i name="e_0_energy">   -114.11538890 </i>
   </energy>
  </scstep>
  <scstep>
   <time name="dav">    7.92    7.92</time>
   <time name="total">    8.33    8.37</time>
   <energy>
    <i name="e_fr_energy">   -114.11154000 </i>
    <i name="e_wo_entrp">   -114.11154000 </i>
    <i name="e_0_energy">   -114.11154000 </i>
   </energy>
  </scstep>
  <scstep>
   <time name="dav">    7.91    7.92</time>
   <time name="total">    8.33    8.35</time>
   <energy>
    <i name="e_fr_energy">   -114.10663561 </i>
    <i name="e_wo_entrp">   -114.10663561 </i>
    <i name="e_0_energy">   -114.10663561 </i>
   </energy>
  </scstep>
  <scstep>
   <time name="dav">    7.99    8.00</time>
   <time name="total">    8.43    8.51</time>
   <energy>
    <i name="e_fr_energy">   -114.10674002 </i>
    <i name="e_wo_entrp">   -114.10674002 </i>
    <i name="e_0_energy">   -114.10674002 </i>
   </energy>
  </scstep>
  <scstep>
   <time name="dav">    6.14    6.15</time>
   <time name="total">    6.59    6.62</time>
   <energy>
    <i name="e_fr_energy">   -114.10662862 </i>
    <i name="e_wo_entrp">   -114.10662862 </i>
    <i name="e_0_energy">   -114.10662862 </i>
   </energy>
  </scstep>
  <scstep>
   <time name="dav">    5.66    5.66</time>
   <time name="total">    5.90    5.91</time>
   <energy>
    <i name="alphaZ">    178.31462969 </i>
    <i name="ewald"> 161877.20603939 </i>
    <i name="hartreedc">-214688.74615401 </i>
    <i name="XCdc">   -599.19957109 </i>
    <i name="pawpsdc">  57453.50117398 </i>
    <i name="pawaedc"> -55109.98382229 </i>
    <i name="eentropy">      0.00000000 </i>
    <i name="bandstr">  -4196.72634584 </i>
    <i name="atom">  54971.52739458 </i>
    <i name="e_fr_energy">   -114.10665559 </i>
    <i name="e_wo_entrp">   -114.10665559 </i>
    <i name="e_0_energy">   -114.10665559 </i>
   </energy>
  </scstep>
  <structure>
   <crystal>
    <varray name="basis" >
     <v>      23.75160605       0.00000000       0.00000000 </v>
     <v>       0.00000000      23.75160605       0.00000000 </v>
     <v>       0.00000000       0.00000000      23.75160605 </v>
    </varray>
    <i name="volume">  13399.20229713 </i>
    <varray name="rec_basis" >
     <v>       0.04210242       0.00000000       0.00000000 </v>
     <v>       0.00000000       0.04210242       0.00000000 </v>
     <v>       0.00000000       0.00000000       0.04210242 </v>
    </varray>
   </crystal>
   <varray name="positions" >
    <v>       0.69078981       0.63832477       0.69670183 </v>
    <v>       0.67308777       0.52339695       0.69122168 </v>
    <v>       0.57998331       0.60555262       0.71874408 </v>
    <v>       0.56990715       0.49017776       0.73916978 </v>
    <v>       0.48527189       0.53902478       0.67540563 </v>
    <v>       0.48002303       0.42516761       0.68834027 </v>
    <v>       0.69589864       0.59945014       0.58618931 </v>
    <v>       0.69616618       0.47960758       0.58624192 </v>
    <v>       0.60760169       0.67459385       0.62765212 </v>
    <v>       0.49102999       0.65574556       0.65478555 </v>
    <v>       0.59010443       0.54945673       0.60782117 </v>
    <v>       0.60089847       0.43307212       0.64632812 </v>
    <v>       0.37859604       0.47966150       0.65144811 </v>
    <v>       0.51443736       0.34891385       0.60703756 </v>
    <v>       0.62996259       0.34183082       0.57742726 </v>
    <v>       0.71199198       0.39496690       0.51066808 </v>
    <v>       0.54767813       0.27781193       0.52171437 </v>
    <v>       0.38831652       0.59123959       0.63402349 </v>
    <v>       0.41010482       0.39709420       0.57999006 </v>
    <v>       0.50859004       0.46605931       0.58289300 </v>
    <v>       0.41363408       0.67953565       0.56615578 </v>
    <v>       0.67609891       0.53860031       0.48411296 </v>
    <v>       0.52575878       0.70820722       0.55163499 </v>
    <v>       0.60276989       0.62794263       0.51660546 </v>
    <v>       0.60386454       0.44619272       0.51681084 </v>
    <v>       0.48532207       0.58502393       0.55586401 </v>
    <v>       0.62127462       0.34055886       0.46182328 </v>
    <v>       0.35148260       0.70251241       0.47464509 </v>
    <v>       0.43022524       0.29408929       0.52926958 </v>
    <v>       0.54769968       0.53821511       0.46308472 </v>
    <v>       0.43342198       0.48933900       0.49709162 </v>
    <v>       0.70855062       0.53827317       0.36806958 </v>
    <v>       0.45674491       0.74804397       0.47149765 </v>
    <v>       0.66609389       0.44139427       0.41477066 </v>
    <v>       0.49690124       0.38623982       0.48571057 </v>
    <v>       0.62653844       0.61169820       0.40068329 </v>
    <v>       0.36085241       0.58118367       0.51782600 </v>
    <v>       0.47362211       0.49473976       0.38334124 </v>
    <v>       0.32549753       0.46817088       0.53920643 </v>
    <v>       0.54682387       0.68914528       0.43109756 </v>
    <v>       0.37513716       0.38039069       0.46601402 </v>
    <v>       0.44538729       0.62494527       0.44633753 </v>
    <v>       0.56103417       0.40361285       0.38645402 </v>
    <v>       0.59340269       0.50952200       0.35008999 </v>
    <v>       0.34901530       0.50053293       0.41535187 </v>
    <v>       0.51879675       0.60180278       0.35584620 </v>
    <v>       0.32651044       0.61289213       0.40517126 </v>
    <v>       0.44493143       0.37890059       0.37143896 </v>
    <v>       0.51111526       0.44345173       0.28919481 </v>
    <v>       0.26594313       0.42426986       0.44909658 </v>
    <v>       0.33279709       0.39720492       0.35777460 </v>
    <v>       0.40736588       0.57847502       0.33269052 </v>
    <v>       0.39852811       0.46933767       0.29875657 </v>
   </varray>
  </structure>
  <varray name="forces" >
   <v>       0.08483236      -0.03407386       0.13784460 </v>
   <v>      -0.12987471      -0.03501834       0.00427724 </v>
   <v>      -0.10329332      -0.15747542       0.06444421 </v>
   <v>      -0.05283576       0.04514389       0.18946667 </v>
   <v>      -0.10962240       0.31105083       0.12698067 </v>
   <v>      -0.09759120      -0.22331686       0.14491968 </v>
   <v>       0.11076049      -0.06429412      -0.03240347 </v>
   <v>      -0.10231820       0.03944847       0.11400847 </v>
   <v>      -0.14213228      -0.04110930      -0.18739980 </v>
   <v>       0.04674096      -0.05873289      -0.06443598 </v>
   <v>      -0.01932322       0.00480660      -0.15234590 </v>
   <v>       0.20970781      -0.23207959      -0.05128037 </v>
   <v>      -0.06635614       0.01274721       0.05599956 </v>
   <v>       0.06209281      -0.12324000      -0.18141224 </v>
   <v>       0.04925408       0.02888852       0.08302486 </v>
   <v>       0.20886647      -0.03632146      -0.00577487 </v>
   <v>      -0.13966890      -0.16805487       0.07714515 </v>
   <v>       0.00166469       0.03928555      -0.04662330 </v>
   <v>       0.08538740      -0.10432279       0.07649785 </v>
   <v>      -0.04226024       0.17914000      -0.24913475 </v>
   <v>      -0.04040637       0.25459315      -0.04191740 </v>
   <v>       0.01992454       0.01388920      -0.00793561 </v>
   <v>       0.11570324      -0.01957844       0.00526851 </v>
   <v>       0.14419199       0.04057031       0.03989786 </v>
   <v>      -0.17285060      -0.02044004       0.05488499 </v>
   <v>       0.09018603      -0.13403749       0.10309642 </v>
   <v>       0.05379444      -0.08053714      -0.25993984 </v>
   <v>      -0.19186478      -0.19039277      -0.17678350 </v>
   <v>       0.26502500       0.10049489       0.04594646 </v>
   <v>      -0.19150484      -0.06328903       0.13262769 </v>
   <v>       0.36833491       0.18628872      -0.16189722 </v>
   <v>      -0.01287664      -0.07607768      -0.11284892 </v>
   <v>      -0.19127979       0.00451164      -0.13801359 </v>
   <v>       0.18952957       0.00415561      -0.07650177 </v>
   <v>      -0.00167470      -0.04935787       0.02166455 </v>
   <v>       0.13410561       0.07942225       0.06636243 </v>
   <v>      -0.11287269       0.16264277      -0.12956907 </v>
   <v>       0.07712500       0.11245482       0.35347523 </v>
   <v>       0.00035154       0.10706741       0.20139986 </v>
   <v>      -0.03119632       0.05247778       0.02745917 </v>
   <v>       0.05262699       0.18001353       0.13774778 </v>
   <v>      -0.11925751      -0.05334069      -0.05582792 </v>
   <v>      -0.31029263      -0.02501909       0.10034953 </v>
   <v>       0.11770056       0.04626607      -0.00668254 </v>
   <v>       0.03313108      -0.05195375      -0.04820182 </v>
   <v>      -0.01770190       0.07310702      -0.00285078 </v>
   <v>      -0.07830716       0.15848025       0.27391904 </v>
   <v>       0.27218109       0.06118401       0.00616626 </v>
   <v>       0.14308788      -0.12935075      -0.29374805 </v>
   <v>       0.01953667       0.04911151      -0.02618933 </v>
   <v>      -0.34486936      -0.16107109      -0.01822834 </v>
   <v>       0.01779483       0.03607674       0.08191435 </v>
   <v>      -0.15140637      -0.05083340      -0.19884271 </v>
  </varray>
  <varray name="stress" >
   <v>      -1.87235258      -0.44999663      -0.09097599 </v>
   <v>      -0.44999663      -2.00522585      -0.10710395 </v>
   <v>      -0.09097598      -0.10710395      -1.91973130 </v>
  </varray>
  <energy>
   <i name="e_fr_energy">   -114.10665559 </i>
   <i name="e_wo_entrp">   -114.10665559 </i>
   <i name="e_0_energy">      0.00000000 </i>
  </energy>
  <time name="totalsc">   68.49   68.90</time>
 </calculation>
 <calculation>
  <scstep>
   <time name="dav">    7.59    7.60</time>
   <time name="total">    8.04    8.06</time>
   <energy>
    <i name="alphaZ">    178.31462969 </i>
    <i name="ewald"> 162053.07958903 </i>
    <i name="hartreedc">-214864.50402320 </i>
    <i name="XCdc">   -599.09952810 </i>
    <i name="pawpsdc">  57452.88033603 </i>
    <i name="pawaedc"> -55109.36096354 </i>
    <i name="eentropy">      0.00000000 </i>
    <i name="bandstr">  -4196.94300486 </i>
    <i name="atom">  54971.52739458 </i>
    <i name="e_fr_energy">   -114.10557039 </i>
    <i name="e_wo_entrp">   -114.10557039 </i>
    <i name="e_0_energy">   -114.10557039 </i>
   </energy>
  </scstep>
  <scstep>
   <time name="dav">    7.82    7.83</time>
   <time name="total">    8.24    8.26</time>
   <energy>
    <i name="e_fr_energy">   -114.11349139 </i>
    <i name="e_wo_entrp">   -114.11349139 </i>
    <i name="e_0_energy">   -114.11349139 </i>
   </energy>
  </scstep>
  <scstep>
   <time name="dav">    8.19    8.20</time>
   <time name="total">    8.61    8.65</time>
   <energy>
    <i name="e_fr_energy">   -114.11336791 </i>
[...]
       <r>     1.2223     0.0000   360.0000 </r>
       <r>     1.2636     0.0000   362.0000 </r>
       <r>     1.3049     0.0000   362.0000 </r>
       <r>     1.3463     0.0000   364.0000 </r>
       <r>     1.3876     0.0000   367.0000 </r>
       <r>     1.4289     0.0000   369.0000 </r>
       <r>     1.4702     0.0000   372.0000 </r>
       <r>     1.5115     0.0000   374.0000 </r>
       <r>     1.5528     0.0000   375.0000 </r>
       <r>     1.5941     0.0000   376.0000 </r>
       <r>     1.6355     0.0000   376.0000 </r>
       <r>     1.6768     0.0000   376.0000 </r>
       <r>     1.7181     0.0000   376.0000 </r>
       <r>     1.7594     0.0000   376.0000 </r>
       <r>     1.8007     0.0000   376.0000 </r>
       <r>     1.8420     0.0000   376.0000 </r>
       <r>     1.8834     0.0000   376.0000 </r>
       <r>     1.9247     0.0000   376.0000 </r>
       <r>     1.9660     0.0000   376.0000 </r>
       <r>     2.0073     0.0000   376.0000 </r>
       <r>     2.0486     0.0000   376.0000 </r>
       <r>     2.0899     0.0000   376.0000 </r>
       <r>     2.1312     0.0000   376.0000 </r>
      </set>
      <set comment="spin 2">
       <r>   -10.2633     0.0000     0.0000 </r>
       <r>   -10.2219     0.0000     0.0000 </r>
       <r>   -10.1806     0.0000     0.0000 </r>
       <r>   -10.1393     0.0000     0.0000 </r>
       <r>   -10.0980     0.0000     0.0000 </r>
       <r>   -10.0567     0.0000     0.0000 </r>
       <r>   -10.0154     0.0000     0.0000 </r>
       <r>    -9.9741     0.0000     0.0000 </r>
       <r>    -9.9327     0.0000     0.0000 </r>
       <r>    -9.8914     0.0000     0.0000 </r>
       <r>    -9.8501     0.0000     0.0000 </r>
       <r>    -9.8088     0.0000     0.0000 </r>
       <r>    -9.7675     0.0000     0.0000 </r>
       <r>    -9.7262     0.0000     0.0000 </r>
       <r>    -9.6848     0.0000     1.0000 </r>
       <r>    -9.6435     0.0000     1.0000 </r>
       <r>    -9.6022     0.0000     1.0000 </r>
       <r>    -9.5609     0.0000     1.0000 </r>
       <r>    -9.5196     0.0000     1.0000 </r>
       <r>    -9.4783     0.0000     1.0000 </r>
       <r>    -9.4370     0.0000     1.0000 </r>
       <r>    -9.3956     0.0000     1.0000 </r>
       <r>    -9.3543     0.0000     1.0000 </r>
       <r>    -9.3130     0.0000     1.0000 </r>
       <r>    -9.2717     0.0000     2.0000 </r>
       <r>    -9.2304     0.0000     2.0000 </r>
       <r>    -9.1891     0.0000     2.0000 </r>
       <r>    -9.1478     0.0000     2.0000 </r>
       <r>    -9.1064     0.0000     3.0000 </r>
       <r>    -9.0651     0.0000     4.0000 </r>
       <r>    -9.0238     0.0000     5.0000 </r>
       <r>    -8.9825     0.0000     7.0000 </r>
       <r>    -8.9412     0.0000     8.0000 </r>
       <r>    -8.8999     0.0000    10.0000 </r>
       <r>    -8.8585     0.0000    11.0000 </r>
       <r>    -8.8172     0.0000    13.0000 </r>
       <r>    -8.7759     0.0000    15.0000 </r>
       <r>    -8.7346     0.0000    17.0000 </r>
       <r>    -8.6933     0.0000    20.0000 </r>
       <r>    -8.6520     0.0000    22.0000 </r>
       <r>    -8.6107     0.0000    24.0000 </r>
       <r>    -8.5693     0.0000    27.0000 </r>
       <r>    -8.5280     0.0000    30.0000 </r>
       <r>    -8.4867     0.0000    34.0000 </r>
       <r>    -8.4454     0.0000    38.0000 </r>
       <r>    -8.4041     0.0000    40.0000 </r>
       <r>    -8.3628     0.0000    43.0000 </r>
       <r>    -8.3215     0.0000    46.0000 </r>
       <r>    -8.2801     0.0000    49.0000 </r>
       <r>    -8.2388     0.0000    51.0000 </r>
       <r>    -8.1975     0.0000    54.0000 </r>
       <r>    -8.1562     0.0000    58.0000 </r>
       <r>    -8.1149     0.0000    61.0000 </r>
       <r>    -8.0736     0.0000    64.0000 </r>
       <r>    -8.0322     0.0000    69.0000 </r>
       <r>    -7.9909     0.0000    71.0000 </r>
       <r>    -7.9496     0.0000    74.0000 </r>
       <r>    -7.9083     0.0000    77.0000 </r>
       <r>    -7.8670    24.2038    82.0000 </r>
       <r>    -7.8257     0.0000    84.0000 </r>
       <r>    -7.7844     0.0000    88.0000 </r>
       <r>    -7.7430     0.0000    91.0000 </r>
       <r>    -7.7017     0.0000    95.0000 </r>
       <r>    -7.6604    19.9672    98.8249 </r>
       <r>    -7.6191     0.0000   102.0000 </r>
       <r>    -7.5778     0.0000   105.0000 </r>
       <r>    -7.5365     0.2825   108.0117 </r>
       <r>    -7.4952     0.0000   111.0000 </r>
       <r>    -7.4538     0.0000   116.0000 </r>
       <r>    -7.4125     0.0000   120.0000 </r>
       <r>    -7.3712    24.2043   124.0000 </r>
       <r>    -7.3299     0.0000   127.0000 </r>
       <r>    -7.2886     0.0000   131.0000 </r>
       <r>    -7.2473     0.0000   135.0000 </r>
       <r>    -7.2059     0.0000   139.0000 </r>
       <r>    -7.1646     0.0000   142.0000 </r>
       <r>    -7.1233     0.0000   146.0000 </r>
       <r>    -7.0820     0.0000   149.0000 </r>
       <r>    -7.0407     0.0000   153.0000 </r>
       <r>    -6.9994     0.0000   156.0000 </r>
       <r>    -6.9581    10.3976   160.4296 </r>
       <r>    -6.9167     0.0000   164.0000 </r>
       <r>    -6.8754     0.0000   170.0000 </r>
       <r>    -6.8341     0.0000   174.0000 </r>
       <r>    -6.7928     0.0000   178.0000 </r>
       <r>    -6.7515    24.2043   182.0000 </r>
       <r>    -6.7102     0.0000   188.0000 </r>
       <r>    -6.6689     0.0000   193.0000 </r>
       <r>    -6.6275     0.0074   198.0003 </r>
       <r>    -6.5862     0.0000   204.0000 </r>
       <r>    -6.5449    18.6280   208.7696 </r>
       <r>    -6.5036     0.0000   214.0000 </r>
       <r>    -6.4623     0.0000   219.0000 </r>
       <r>    -6.4210     0.0000   224.0000 </r>
       <r>    -6.3796     0.0000   231.0000 </r>
       <r>    -6.3383     0.0000   235.0000 </r>
       <r>    -6.2970     0.0000   241.0000 </r>
       <r>    -6.2557     0.0000   246.0000 </r>
       <r>    -6.2144     0.0000   250.0000 </r>
       <r>    -6.1731     0.0000   255.0000 </r>
       <r>    -6.1318     0.0000   259.0000 </r>
       <r>    -6.0904     0.0000   263.0000 </r>
       <r>    -6.0491     0.0000   265.0000 </r>
       <r>    -6.0078     0.0000   269.0000 </r>
       <r>    -5.9665     0.0000   271.0000 </r>
       <r>    -5.9252     0.0000   272.0000 </r>
       <r>    -5.8839     0.0000   273.0000 </r>
       <r>    -5.8426     0.0000   273.0000 </r>
       <r>    -5.8012     0.0000   274.0000 </r>
       <r>    -5.7599     0.0000   274.0000 </r>
       <r>    -5.7186     0.0000   274.0000 </r>
       <r>    -5.6773     0.0000   274.0000 </r>
       <r>    -5.6360     0.0000   274.0000 </r>
       <r>    -5.5947     0.0000   274.0000 </r>
       <r>    -5.5533     0.0000   275.0000 </r>
       <r>    -5.5120     0.0000   275.0000 </r>
       <r>    -5.4707     0.0000   275.0000 </r>
       <r>    -5.4294     0.0000   275.0000 </r>
       <r>    -5.3881     0.0000   276.0000 </r>
       <r>    -5.3468     0.0000   276.0000 </r>
       <r>    -5.3055     0.0000   276.0000 </r>
       <r>    -5.2641     0.0000   276.0000 </r>
       <r>    -5.2228     0.0000   277.0000 </r>
       <r>    -5.1815     0.0000   277.0000 </r>
       <r>    -5.1402     0.0000   277.0000 </r>
       <r>    -5.0989     0.0000   277.0000 </r>
       <r>    -5.0576     0.0000   277.0000 </r>
       <r>    -5.0163     0.0000   279.0000 </r>
       <r>    -4.9749     0.0000   279.0000 </r>
       <r>    -4.9336     0.0000   279.0000 </r>
       <r>    -4.8923     0.0000   279.0000 </r>
       <r>    -4.8510     0.0000   280.0000 </r>
       <r>    -4.8097     0.0000   280.0000 </r>
       <r>    -4.7684     0.0000   281.0000 </r>
       <r>    -4.7270     0.0000   281.0000 </r>
       <r>    -4.6857     0.0000   281.0000 </r>
       <r>    -4.6444     0.0000   281.0000 </r>
       <r>    -4.6031     0.0000   281.0000 </r>
       <r>    -4.5618     0.0000   281.0000 </r>
       <r>    -4.5205     0.0000   281.0000 </r>
       <r>    -4.4792     0.0000   281.0000 </r>
       <r>    -4.4378     0.0000   282.0000 </r>
       <r>    -4.3965     0.0000   282.0000 </r>
       <r>    -4.3552     0.0000   282.0000 </r>
       <r>    -4.3139     0.0000   283.0000 </r>
       <r>    -4.2726     0.0000   283.0000 </r>
       <r>    -4.2313     0.0000   283.0000 </r>
       <r>    -4.1900     0.0000   283.0000 </r>
       <r>    -4.1486     0.0000   284.0000 </r>
       <r>    -4.1073     0.0000   284.0000 </r>
       <r>    -4.0660     0.0000   284.0000 </r>
       <r>    -4.0247     0.0000   284.0000 </r>
       <r>    -3.9834     0.0000   285.0000 </r>
       <r>    -3.9421     0.0000   285.0000 </r>
       <r>    -3.9007     0.0000   286.0000 </r>
       <r>    -3.8594     0.0000   286.0000 </r>
       <r>    -3.8181     0.0000   287.0000 </r>
       <r>    -3.7768     0.0000   287.0000 </r>
       <r>    -3.7355     0.0000   287.0000 </r>
       <r>    -3.6942     0.0000   287.0000 </r>
       <r>    -3.6529     0.0000   288.0000 </r>
       <r>    -3.6115     0.0000   288.0000 </r>
       <r>    -3.5702     0.0000   289.0000 </r>
       <r>    -3.5289     0.0000   289.0000 </r>
       <r>    -3.4876     0.0000   290.0000 </r>
       <r>    -3.4463     0.0000   291.0000 </r>
       <r>    -3.4050     0.0000   291.0000 </r>
       <r>    -3.3637     0.0000   291.0000 </r>
       <r>    -3.3223     0.0000   291.0000 </r>
       <r>    -3.2810     0.0000   291.0000 </r>
       <r>    -3.2397     0.0000   291.0000 </r>
       <r>    -3.1984     0.0000   291.0000 </r>
       <r>    -3.1571     0.0000   292.0000 </r>
       <r>    -3.1158     0.0000   292.0000 </r>
       <r>    -3.0744     0.0000   292.0000 </r>
       <r>    -3.0331     0.0000   292.0000 </r>
       <r>    -2.9918     0.0000   293.0000 </r>
       <r>    -2.9505     0.0000   293.0000 </r>
       <r>    -2.9092     0.0000   294.0000 </r>
       <r>    -2.8679     0.0000   294.0000 </r>
       <r>    -2.8266     0.0000   295.0000 </r>
       <r>    -2.7852     0.0000   295.0000 </r>
       <r>    -2.7439     0.0000   295.0000 </r>
       <r>    -2.7026     0.0000   295.0000 </r>
       <r>    -2.6613     0.0000   295.0000 </r>
       <r>    -2.6200    24.2043   296.0000 </r>
       <r>    -2.5787     0.0000   296.0000 </r>
       <r>    -2.5374     0.0000   297.0000 </r>
       <r>    -2.4960     0.0000   297.0000 </r>
       <r>    -2.4547     0.0000   298.0000 </r>
       <r>    -2.4134     0.0000   298.0000 </r>
       <r>    -2.3721     0.0000   298.0000 </r>
       <r>    -2.3308     0.0000   299.0000 </r>
       <r>    -2.2895     0.0000   299.0000 </r>
       <r>    -2.2481     0.0000   300.0000 </r>
       <r>    -2.2068     0.0000   301.0000 </r>
       <r>    -2.1655     0.0000   301.0000 </r>
       <r>    -2.1242     0.0000   302.0000 </r>
       <r>    -2.0829     0.0000   303.0000 </r>
       <r>    -2.0416     0.0000   304.0000 </r>
       <r>    -2.0003     0.0000   304.0000 </r>
       <r>    -1.9589     0.0000   305.0000 </r>
       <r>    -1.9176     0.0000   305.0000 </r>
       <r>    -1.8763     0.0000   305.0000 </r>
       <r>    -1.8350     0.0000   305.0000 </r>
       <r>    -1.7937     0.0000   306.0000 </r>
       <r>    -1.7524     0.0000   307.0000 </r>
       <r>    -1.7111     0.0000   307.0000 </r>
       <r>    -1.6697    24.2043   308.0000 </r>
       <r>    -1.6284     0.0000   308.0000 </r>
       <r>    -1.5871     0.0000   309.0000 </r>
       <r>    -1.5458     0.0000   309.0000 </r>
       <r>    -1.5045     0.0000   310.0000 </r>
       <r>    -1.4632     0.0000   310.0000 </r>
       <r>    -1.4218     0.0000   310.0000 </r>
       <r>    -1.3805     0.0000   311.0000 </r>
       <r>    -1.3392     0.0000   311.0000 </r>
       <r>    -1.2979     0.0000   311.0000 </r>
       <r>    -1.2566     0.0000   311.0000 </r>
       <r>    -1.2153     0.0000   311.0000 </r>
       <r>    -1.1740     0.0000   313.0000 </r>
       <r>    -1.1326     0.0000   314.0000 </r>
       <r>    -1.0913     0.0000   314.0000 </r>
       <r>    -1.0500     0.0000   315.0000 </r>
       <r>    -1.0087     0.0000   316.0000 </r>
       <r>    -0.9674     0.0000   316.0000 </r>
       <r>    -0.9261     0.0000   317.0000 </r>
       <r>    -0.8848     0.0000   317.0000 </r>
       <r>    -0.8434     0.0000   319.0000 </r>
       <r>    -0.8021     0.0000   320.0000 </r>
       <r>    -0.7608     0.0000   320.0000 </r>
       <r>    -0.7195     0.0000   320.0000 </r>
       <r>    -0.6782     0.0000   321.0000 </r>
       <r>    -0.6369     0.0000   322.0000 </r>
       <r>    -0.5955     0.0000   322.0000 </r>
       <r>    -0.5542     0.0000   322.0000 </r>
       <r>    -0.5129     0.0000   323.0000 </r>
       <r>    -0.4716     0.0000   324.0000 </r>
       <r>    -0.4303     0.0000   325.0000 </r>
       <r>    -0.3890     0.0000   326.0000 </r>
       <r>    -0.3477     0.0000   327.0000 </r>
       <r>    -0.3063     0.0000   327.0000 </r>
       <r>    -0.2650     0.0000   327.0000 </r>
       <r>    -0.2237     0.0000   328.0000 </r>
       <r>    -0.1824     0.0000   328.0000 </r>
       <r>    -0.1411     0.0000   328.0000 </r>
       <r>    -0.0998     0.0000   329.0000 </r>
       <r>    -0.0585     0.0000   330.0000 </r>
       <r>    -0.0171     0.0000   331.0000 </r>
       <r>     0.0242     0.0000   332.0000 </r>
       <r>     0.0655     0.0000   333.0000 </r>
       <r>     0.1068     0.0000   333.0000 </r>
       <r>     0.1481     0.0000   333.0000 </r>
       <r>     0.1894     0.0000   333.0000 </r>
       <r>     0.2308     0.0000   333.0000 </r>
       <r>     0.2721     0.0000   334.0000 </r>
       <r>     0.3134     0.0000   336.0000 </r>
       <r>     0.3547     0.0000   336.0000 </r>
       <r>     0.3960     0.0000   336.0000 </r>
       <r>     0.4373     0.0000   337.0000 </r>
       <r>     0.4786     0.0000   338.0000 </r>
       <r>     0.5200     0.0000   338.0000 </r>
       <r>     0.5613     0.0000   338.0000 </r>
       <r>     0.6026     0.0000   339.0000 </r>
       <r>     0.6439     0.0000   339.0000 </r>
       <r>     0.6852     0.0000   340.0000 </r>
       <r>     0.7265     0.0000   342.0000 </r>
       <r>     0.7678     0.0000   342.0000 </r>
       <r>     0.8092     0.0000   342.0000 </r>
       <r>     0.8505     0.0000   343.0000 </r>
       <r>     0.8918     0.0000   344.0000 </r>
       <r>     0.9331     0.0000   346.0000 </r>
       <r>     0.9744     0.0000   347.0000 </r>
       <r>     1.0157     0.0000   348.0000 </r>
       <r>     1.0571     0.0000   350.0000 </r>
       <r>     1.0984     0.0000   353.0000 </r>
       <r>     1.1397     0.0000   355.0000 </r>
       <r>     1.1810     0.0000   358.0000 </r>
       <r>     1.2223     0.0000   360.0000 </r>
       <r>     1.2636     0.0000   361.0000 </r>
       <r>     1.3049     0.0000   362.0000 </r>
       <r>     1.3463     0.0000   364.0000 </r>
       <r>     1.3876     0.0000   366.0000 </r>
       <r>     1.4289     0.0000   369.0000 </r>
       <r>     1.4702    24.2043   372.0000 </r>
       <r>     1.5115     0.0000   374.0000 </r>
       <r>     1.5528     0.0000   375.0000 </r>
       <r>     1.5941     0.0000   376.0000 </r>
       <r>     1.6355     0.0000   376.0000 </r>
       <r>     1.6768     0.0000   376.0000 </r>
       <r>     1.7181     0.0000   376.0000 </r>
       <r>     1.7594     0.0000   376.0000 </r>
       <r>     1.8007     0.0000   376.0000 </r>
       <r>     1.8420     0.0000   376.0000 </r>
       <r>     1.8834     0.0000   376.0000 </r>
       <r>     1.9247     0.0000   376.0000 </r>
       <r>     1.9660     0.0000   376.0000 </r>
       <r>     2.0073     0.0000   376.0000 </r>
       <r>     2.0486     0.0000   376.0000 </r>
       <r>     2.0899     0.0000   376.0000 </r>
       <r>     2.1312     0.0000   376.0000 </r>
      </set>
     </set>
    </array>
   </total>
  </dos>
 </calculation>
 <structure name="finalpos" >
  <crystal>
   <varray name="basis" >
    <v>      23.75160605       0.00000000       0.00000000 </v>
    <v>       0.00000000      23.75160605       0.00000000 </v>
    <v>       0.00000000       0.00000000      23.75160605 </v>
   </varray>
   <i name="volume">  13399.20229713 </i>
   <varray name="rec_basis" >
    <v>       0.04210242       0.00000000       0.00000000 </v>
    <v>       0.00000000       0.04210242       0.00000000 </v>
    <v>       0.00000000       0.00000000       0.04210242 </v>
   </varray>
  </crystal>
  <varray name="positions" >
   <v>       0.67544571       0.63599305       0.70640448 </v>
   <v>       0.64701527       0.52723317       0.68564513 </v>
   <v>       0.56323890       0.60423257       0.73284372 </v>
   <v>       0.56076698       0.48735283       0.75173319 </v>
   <v>       0.47980202       0.53801789       0.68248116 </v>
   <v>       0.48269700       0.41961342       0.69300940 </v>
   <v>       0.70637112       0.58540449       0.59682649 </v>
   <v>       0.69322086       0.46034791       0.59867596 </v>
   <v>       0.59139957       0.64094291       0.62679384 </v>
   <v>       0.47291713       0.65381989       0.65215693 </v>
   <v>       0.60764717       0.53510984       0.57089470 </v>
   <v>       0.60067895       0.42071934       0.66200467 </v>
   <v>       0.37635195       0.47342939       0.67846247 </v>
   <v>       0.52219073       0.34837140       0.60606191 </v>
   <v>       0.63786717       0.35242159       0.57102015 </v>
   <v>       0.71866793       0.40701483       0.50014133 </v>
   <v>       0.55052365       0.28725412       0.51316141 </v>
   <v>       0.39290813       0.56602039       0.60855091 </v>
   <v>       0.41631298       0.40419358       0.59296926 </v>
   <v>       0.51759601       0.46687285       0.58866478 </v>
   <v>       0.40668337       0.66434944       0.54723706 </v>
   <v>       0.68650093       0.53087064       0.48059626 </v>
   <v>       0.52171060       0.70101363       0.54884768 </v>
   <v>       0.62666603       0.63652799       0.51469297 </v>
   <v>       0.60163083       0.44202307       0.49996375 </v>
   <v>       0.50231770       0.58466802       0.56349818 </v>
   <v>       0.63203811       0.34071300       0.45016000 </v>
   <v>       0.35343035       0.66817223       0.43185325 </v>
   <v>       0.43301728       0.30221099       0.53683516 </v>
   <v>       0.55840673       0.54826128       0.46196133 </v>
   <v>       0.44485111       0.50078450       0.50237475 </v>
   <v>       0.71446961       0.53818682       0.36132612 </v>
   <v>       0.44924522       0.72980707       0.45873701 </v>
   <v>       0.67126092       0.43907741       0.39814967 </v>
   <v>       0.49166939       0.39107526       0.49183805 </v>
   <v>       0.63670451       0.61522435       0.39800500 </v>
   <v>       0.33938613       0.57405794       0.50260949 </v>
   <v>       0.48198473       0.51198118       0.37959935 </v>
   <v>       0.32712320       0.47553538       0.57008338 </v>
   <v>       0.55421145       0.68715224       0.43746081 </v>
   <v>       0.36950236       0.40085050       0.48301436 </v>
   <v>       0.45445191       0.60949393       0.44996555 </v>
   <v>       0.55432786       0.41546193       0.39442352 </v>
   <v>       0.59711550       0.51713944       0.34491192 </v>
   <v>       0.37012335       0.50209612       0.41117680 </v>
   <v>       0.52320159       0.61624727       0.35046990 </v>
   <v>       0.28616199       0.57898757       0.39455557 </v>
   <v>       0.43619684       0.40165694       0.38228792 </v>
   <v>       0.50962091       0.44700366       0.28918865 </v>
   <v>       0.27299858       0.47828352       0.46467823 </v>
   <v>       0.31772144       0.40631912       0.37456143 </v>
   <v>       0.39994481       0.59505486       0.34444530 </v>
   <v>       0.39528741       0.48094043       0.29931130 </v>
  </varray>
 </structure>
</modeling>
