43
Energy = -92.68110270 eV
Ag 12.851497843642495 12.391660841149704 5.8219706001343114
Ag 14.162305275000826 13.386579141983017 8.07949532103883
Ag 14.853944759611451 10.838110065491295 6.936864069963423
Ag 15.211415634568787 8.736641463733289 8.718088169168201
Ag 15.278035776687458 15.782599008550795 9.002562071640865
Ag 12.266211429304509 10.805399644797696 8.070106058356314
Ag 11.287610159443767 13.6160416309455 7.826186635030112
Ag 14.875031696553725 13.750728552141592 10.857693718409632
Ag 13.158843630654193 9.405918759235961 10.552716935879669
Ag 15.110927967762398 11.295506433816467 9.724122820718389
Ag 12.618002094517252 15.319123040849766 9.723318143502336
Ag 15.803432178103598 9.269994274440009 11.475377295105348
Ag 12.248389184039844 12.464527539888104 10.265655851138836
Ag 14.269354091415197 16.309759915532435 11.700909178898293
Ag 9.66066577599266 11.846130543755354 9.271167437286298
Ag 16.275683212373902 11.906073594885187 12.504415140375114
Ag 10.513484351606909 9.317497546981631 9.782904295670217
Ag 13.73649727104861 8.761383417261301 13.371200202850517
Ag 12.39102939710861 14.090077780244027 12.611904855007719
Ag 13.524556518830245 11.51104314498049 12.493204763122453
Ag 16.3509140632366 9.633763708596852 14.174889224804717
Ag 15.051841041457301 14.20912755959388 13.622047467760533
Ag 10.101180005418753 14.478645154206662 10.359400217305456
Ag 10.172815393923768 12.254024788562166 12.366448557642393
Ag 11.13938503354977 16.441665705533687 12.186749255876224
Ag 14.388138855804428 9.214312433373744 16.083567553993372
Ag 11.171528035538651 9.5155192365464 12.514310465888153
Ag 13.227155888425905 16.361664681982123 14.243779973205427
Ag 7.792469198746718 13.016648741634741 10.938515853451044
Ag 14.865253441086548 11.824057330435785 15.097783461458059
Ag 8.49174367338083 10.224700082904493 11.530590862943368
Ag 11.688458825554479 12.182733838524522 14.679862808812285
Ag 13.405985462581299 14.092859849764523 15.920192801197182
Ag 11.75484414576934 9.375272442842167 15.293695300056667
Ag 8.90730504033792 14.692407496056749 12.95813630956502
Ag 10.862991251345386 15.133491808929282 14.896235861569041
Ag 7.326347479896933 12.101661102269329 13.486047823812035
Ag 12.866863097067716 11.433211623555655 17.090847021780085
Ag 9.237884720191415 10.27111448612788 14.328233762343093
Ag 10.993503663017556 13.623466473442972 17.309485466165484
Ag 8.974172856132908 13.184220165599692 15.418517675145873
Ag 10.05082037696989 11.00509044125528 16.92386514417788
Ag 7.348267050942384 11.050382464727678 16.219851343695954
