 vasp.5.3.5 31Mar14 (build Feb 01 2018 12:10:03) gamma-only                     
  
 executed on             LinuxIFC date 2019.04.21  01:07:32
 running on   32 total cores
 distrk:  each k-point on   32 cores,    1 groups
 distr:  one band on NCORES_PER_BAND=   8 cores,    4 groups


--------------------------------------------------------------------------------------------------------


 INCAR:
 POTCAR:    PAW_PBE Ni 02Aug2007                  
 POTCAR:    PAW_PBE Ni 02Aug2007                  
   VRHFIN =Ni:                                                                  
   LEXCH  = PE                                                                  
   EATOM  =  1077.6739 eV,   79.2068 Ry                                         
                                                                                
   TITEL  = PAW_PBE Ni 02Aug2007                                                
   LULTRA =        F    use ultrasoft PP ?                                      
   IUNSCR =        1    unscreen: 0-lin 1-nonlin 2-no                           
   RPACOR =    2.000    partial core radius                                     
   POMASS =   58.690; ZVAL   =   10.000    mass and valenz                      
   RCORE  =    2.300    outmost cutoff radius                                   
   RWIGS  =    2.430; RWIGS  =    1.286    wigner-seitz radius (au A)           
   ENMAX  =  269.532; ENMIN  =  202.149 eV                                      
   RCLOC  =    1.201    cutoff for local pot                                    
   LCOR   =        T    correct aug charges                                     
   LPAW   =        T    paw PP                                                  
   EAUG   =  544.565                                                            
   DEXC   =    0.000                                                            
   RMAX   =    2.357    core radius for proj-oper                               
   RAUG   =    1.300    factor for augmentation sphere                          
   RDEP   =    2.390    radius for radial grids                                 
   RDEPT  =    1.838    core radius for aug-charge                              
                                                                                
   Atomic configuration                                                         
    9 entries                                                                   
     n  l   j            E        occ.                                          
     1  0  0.50     -8206.4253   2.0000                                         
     2  0  0.50      -976.1748   2.0000                                         
     2  1  1.50      -839.0571   6.0000                                         
     3  0  0.50      -105.9991   2.0000                                         
     3  1  1.50       -66.4603   6.0000                                         
     3  2  2.50        -4.6458   9.0000                                         
     4  0  0.50        -4.4926   1.0000                                         
     4  1  1.50        -4.0817   0.0000                                         
     4  3  2.50        -1.3606   0.0000                                         
   Description                                                                  
     l       E           TYP  RCUT    TYP  RCUT                                 
     2     -4.6457903     23  2.300                                             
     2     -6.0063729     23  2.300                                             
     0     -4.4925590     23  2.300                                             
     0      5.0102601     23  2.300                                             
     1     -2.7211652     23  2.300                                             
     1     16.5183231     23  2.300                                             
  local pseudopotential read in
  partial core-charges read in
  partial kinetic energy density read in
  atomic valenz-charges read in
  non local Contribution for L=           2  read in
    real space projection operators read in
  non local Contribution for L=           2  read in
    real space projection operators read in
  non local Contribution for L=           0  read in
    real space projection operators read in
  non local Contribution for L=           0  read in
    real space projection operators read in
  non local Contribution for L=           1  read in
    real space projection operators read in
  non local Contribution for L=           1  read in
    real space projection operators read in
    PAW grid and wavefunctions read in
 
   number of l-projection  operators is LMAX  =           6
   number of lm-projection operators is LMMAX =          18
 
  PAW_PBE Ni 02Aug2007                  :
 energy of atom  1       EATOM=-1077.6739
 kinetic energy error for atom=    0.0382 (will be added to EATOM!!)
 
 
 POSCAR: Li10, -12.8496064 <s> Ni </s>           
  positions in direct lattice
  velocities in cartesian coordinates
 exchange correlation table for  LEXCH =        8
   RHO(1)=    0.500       N(1)  =     2000
   RHO(2)=  100.500       N(2)  =     4000
 


--------------------------------------------------------------------------------------------------------


 ion  position               nearest neighbor table
   1  0.457  0.493  0.360-   6 2.71   2 2.72   4 2.80   5 2.91   3 3.01
   2  0.348  0.566  0.402-   9 2.72   1 2.72   4 3.03   3 3.06
   3  0.321  0.433  0.327-   9 2.82   6 2.93   1 3.01   2 3.06
   4  0.460  0.524  0.498-   1 2.80   8 2.91   2 3.03   9 3.03
   5  0.555  0.413  0.434-   8 2.80   1 2.91   6 3.03   7 3.04
   6  0.448  0.358  0.339-   1 2.71   7 2.72  10 2.82   3 2.93   5 3.03
   7  0.491  0.274  0.438-   6 2.72   8 2.72   5 3.04  10 3.06
   8  0.441  0.378  0.510-   9 2.71   7 2.72   5 2.80   4 2.91  10 3.01
   9  0.331  0.447  0.468-   8 2.71   2 2.72   3 2.82  10 2.93   4 3.03
  10  0.342  0.308  0.419-   6 2.82   9 2.93   8 3.01   7 3.06
 
  LATTYP: Found a simple cubic cell.
 ALAT       =    19.8085691959
  
  Lattice vectors:
  
 A1 = (  19.8085691959,   0.0000000000,   0.0000000000)
 A2 = (   0.0000000000,  19.8085691959,   0.0000000000)
 A3 = (   0.0000000000,   0.0000000000,  19.8085691959)


Analysis of symmetry for initial positions (statically):
=====================================================================
 Subroutine PRICEL returns:
 Original cell was already a primitive cell.
 

 Routine SETGRP: Setting up the symmetry group for a 
 simple cubic supercell.


 Subroutine GETGRP returns: Found  1 space group operations
 (whereof  1 operations were pure point group operations)
 out of a pool of 48 trial point group operations.


The static configuration has the point symmetry C_1 .


Analysis of symmetry for dynamics (positions and initial velocities):
=====================================================================
 Subroutine PRICEL returns:
 Original cell was already a primitive cell.
 

 Routine SETGRP: Setting up the symmetry group for a 
 simple cubic supercell.


 Subroutine GETGRP returns: Found  1 space group operations
 (whereof  1 operations were pure point group operations)
 out of a pool of 48 trial point group operations.


The dynamic configuration has the point symmetry C_1 .


Analysis of magnetic symmetry:
=====================================================================
 Subroutine PRICEL returns:
 Original cell was already a primitive cell.
 

 Subroutine MAGSYM returns: Found  1 space group operations
 (whereof  1 operations were pure point group operations)
 out of a pool of  1 trial space group operations
 (whereof  1 operations were pure point group operations)
 and found also     1 'primitive' translations


The magnetic configuration has the point symmetry C_1 .
 
 
 KPOINTS: Gamma-point only                        
  k-points in reciprocal lattice
Space group operators:
 irot       det(A)        alpha          n_x          n_y          n_z        tau_x        tau_y        tau_z
    1     1.000000     0.000000     1.000000     0.000000     0.000000     0.000000     0.000000     0.000000


--------------------------------------------------------------------------------------------------------




 Dimension of arrays:
   k-points           NKPTS =      1   k-points in BZ     NKDIM =      1   number of bands    NBANDS=     68
   number of dos      NEDOS =    301   number of ions     NIONS =     10
   non local maximal  LDIM  =      6   non local SUM 2l+1 LMDIM =     18
   total plane-waves  NPLWV = 512000
   max r-space proj   IRMAX =      1   max aug-charges    IRDMAX=   2335
   dimension x,y,z NGX =    80 NGY =   80 NGZ =   80
   dimension x,y,z NGXF=   160 NGYF=  160 NGZF=  160
   support grid    NGXF=   160 NGYF=  160 NGZF=  160
   ions per type =              10
 NGX,Y,Z   is equivalent  to a cutoff of   6.71,  6.71,  6.71 a.u.
 NGXF,Y,Z  is equivalent  to a cutoff of  13.43, 13.43, 13.43 a.u.


 I would recommend the setting:
   dimension x,y,z NGX =    80 NGY =   80 NGZ =   80
 SYSTEM =  unknown system                          
 POSCAR =  Li10, -12.8496064 <s> Ni </s>           

 Startparameter for this run:
   NWRITE =      2    write-flag & timer
   PREC   = normal    normal or accurate (medium, high low for compatibility)
   ISTART =      0    job   : 0-new  1-cont  2-samecut
   ICHARG =      2    charge: 1-file 2-atom 10-const
   ISPIN  =      2    spin polarized calculation?
   LNONCOLLINEAR =      F non collinear calculations
   LSORBIT =      F    spin-orbit coupling
   INIWAV =      1    electr: 0-lowe 1-rand  2-diag
   LASPH  =      F    aspherical Exc in radial PAW
   METAGGA=      F    non-selfconsistent MetaGGA calc.

 Electronic Relaxation 1
   ENCUT  =  269.5 eV  19.81 Ry    4.45 a.u.  26.52 26.52 26.52*2*pi/ulx,y,z
   ENINI  =  269.5     initial cutoff
   ENAUG  =  544.6 eV  augmentation charge cutoff
   NELM   =     60;   NELMIN=  2; NELMDL=  0     # of ELM steps 
   EDIFF  = 0.1E-03   stopping-criterion for ELM
   LREAL  =      F    real-space projection
   NLSPLINE    = F    spline interpolate recip. space projectors
   LCOMPAT=      F    compatible to vasp.4.4
   GGA_COMPAT  = T    GGA compatible to vasp.4.4-vasp.4.6
   LMAXPAW     = -100 max onsite density
   LMAXMIX     =    2 max onsite mixed and CHGCAR
   VOSKOWN=      0    Vosko Wilk Nusair interpolation
   ROPT   =    0.00000
 Ionic relaxation
   EDIFFG = 0.1E-02   stopping-criterion for IOM
   NSW    =   1000    number of steps for IOM
   NBLOCK =      1;   KBLOCK =   1000    inner block; outer block 
   IBRION =      2    ionic relax: 0-MD 1-quasi-New 2-CG
   NFREE  =      1    steps in history (QN), initial steepest desc. (CG)
   ISIF   =      2    stress and relaxation
   IWAVPR =     11    prediction:  0-non 1-charg 2-wave 3-comb
   ISYM   =      2    0-nonsym 1-usesym 2-fastsym
   LCORR  =      T    Harris-Foulkes like correction to forces

   POTIM  = 0.1000    time-step for ionic-motion
   TEIN   =    0.0    initial temperature
   TEBEG  =    0.0;   TEEND  =   0.0 temperature during run
   SMASS  =  -3.00    Nose mass-parameter (am)
   estimated Nose-frequenzy (Omega)   =  0.10E-29 period in steps =****** mass=  -0.897E-26a.u.
   SCALEE = 1.0000    scale energy and forces
   NPACO  =    256;   APACO  = 16.0  distance and # of slots for P.C.
   PSTRESS=    0.0 pullay stress

  Mass of Ions in am
   POMASS =  58.69
  Ionic Valenz
   ZVAL   =  10.00
  Atomic Wigner-Seitz radii
   RWIGS  =  -1.00
  virtual crystal weights 
   VCA    =   1.00
   NELECT =     100.0000    total number of electrons
   NUPDOWN=      -1.0000    fix difference up-down

 DOS related values:
   EMIN   =  10.00;   EMAX   =-10.00  energy-range for DOS
   EFERMI =   0.00
   ISMEAR =     0;   SIGMA  =   0.00  broadening in eV -4-tet -1-fermi 0-gaus

 Electronic relaxation 2 (details)
   IALGO  =     38    algorithm
   LDIAG  =      T    sub-space diagonalisation (order eigenvalues)
   LSUBROT=      F    optimize rotation matrix (better conditioning)
   TURBO    =      0    0=normal 1=particle mesh
   IRESTART =      0    0=no restart 2=restart with 2 vectors
   NREBOOT  =      0    no. of reboots
   NMIN     =      0    reboot dimension
   EREF     =   0.00    reference energy to select bands
   IMIX   =      4    mixing-type and parameters
     AMIX     =   0.40;   BMIX     =  1.00
     AMIX_MAG =   1.60;   BMIX_MAG =  1.00
     AMIN     =   0.10
     WC   =   100.;   INIMIX=   1;  MIXPRE=   1;  MAXMIX= -45

 Intra band minimization:
   WEIMIN = 0.0010     energy-eigenvalue tresh-hold
   EBREAK =  0.37E-06  absolut break condition
   DEPER  =   0.30     relativ break condition  

   TIME   =   0.40     timestep for ELM

  volume/ion in A,a.u.               =     777.25      5245.12
  Fermi-wavevector in a.u.,A,eV,Ry     =   0.383609  0.724915  2.002173  0.147156
  Thomas-Fermi vector in A             =   1.320681
 
 Write flags
   LWAVE  =      F    write WAVECAR
   LCHARG =      F    write CHGCAR
   LVTOT  =      F    write LOCPOT, total local potential
   LVHAR  =      F    write LOCPOT, Hartree potential only
   LELF   =      F    write electronic localiz. function (ELF)
   LORBIT =      0    0 simple, 1 ext, 2 COOP (PROOUT)


 Dipole corrections
   LMONO  =      F    monopole corrections only (constant potential shift)
   LDIPOL =      F    correct potential (dipole corrections)
   IDIPOL =      0    1-x, 2-y, 3-z, 4-all directions 
   EPSILON=  1.0000000 bulk dielectric constant

 Exchange correlation treatment:
   GGA     =    PE    GGA type
   LEXCH   =     8    internal setting for exchange type
   VOSKOWN=      0    Vosko Wilk Nusair interpolation
   LHFCALC =     F    Hartree Fock is set to
   LHFONE  =     F    Hartree Fock one center treatment
   AEXX    =    0.0000 exact exchange contribution

 Linear response parameters
   LEPSILON=     F    determine dielectric tensor
   LRPA    =     F    only Hartree local field effects (RPA)
   LNABLA  =     F    use nabla operator in PAW spheres
   LVEL    =     F    velocity operator in full k-point grid
   LINTERFAST=   F  fast interpolation
   KINTER  =     0    interpolate to denser k-point grid
   CSHIFT  =0.1000    complex shift for real part using Kramers Kronig
   OMEGAMAX=  -1.0    maximum frequency
   DEG_THRESHOLD= 0.2000000E-02 threshold for treating states as degnerate
   RTIME   =    0.100 relaxation time in fs

 Orbital magnetization related:
   ORBITALMAG=     F  switch on orbital magnetization
   LCHIMAG   =     F  perturbation theory with respect to B field
   DQ        =  0.001000  dq finite difference perturbation B field



--------------------------------------------------------------------------------------------------------


 conjugate gradient relaxation of ions
 charge density and potential will be updated during run
 spin polarized calculation
 Variant of blocked Davidson
 Davidson routine will perform the subspace rotation
 perform sub-space diagonalisation
    after iterative eigenvector-optimisation
 modified Broyden-mixing scheme, WC =      100.0
 initial mixing is a Kerker type mixing with AMIX =  0.4000 and BMIX =      1.0000
 Hartree-type preconditioning will be used
 using additional bands           18
 reciprocal scheme for non local part
 use partial core corrections
 calculate Harris-corrections to forces 
   (improved forces if not selfconsistent)
 use gradient corrections 
 use of overlap-Matrix (Vanderbilt PP)
 Gauss-broadening in eV      SIGMA  =   0.00


--------------------------------------------------------------------------------------------------------


  energy-cutoff  :      269.53
  volume of cell :     7772.47
      direct lattice vectors                 reciprocal lattice vectors
    19.808569196  0.000000000  0.000000000     0.050483202  0.000000000  0.000000000
     0.000000000 19.808569196  0.000000000     0.000000000  0.050483202  0.000000000
     0.000000000  0.000000000 19.808569196     0.000000000  0.000000000  0.050483202

  length of vectors
    19.808569196 19.808569196 19.808569196     0.050483202  0.050483202  0.050483202


 
 k-points in units of 2pi/SCALE and weight: Gamma-point only                        
   0.00000000  0.00000000  0.00000000       1.000
 
 k-points in reciprocal lattice and weights: Gamma-point only                        
   0.00000000  0.00000000  0.00000000       1.000
 
 position of ions in fractional coordinates (direct lattice) 
   0.45688919  0.49333330  0.35967672
   0.34825160  0.56577154  0.40177809
   0.32136553  0.43320694  0.32682138
   0.46003069  0.52367058  0.49757111
   0.55497468  0.41298721  0.43415821
   0.44823120  0.35833398  0.33883502
   0.49144822  0.27353567  0.43761020
   0.44105145  0.37844697  0.51044935
   0.33056230  0.44726086  0.46837580
   0.34188002  0.30813782  0.41940899
 
 position of ions in cartesian coordinates  (Angst):
   9.05032111  9.77222684  7.12468123
   6.89836582 11.20712462  7.95864910
   6.36579124  8.58120955  6.47386386
   9.11254975 10.37316501  9.85617182
  10.99325436  8.18068579  8.60005303
   8.87881869  7.09808353  6.71183690
   9.73488613  5.41835026  8.66843196
   8.73659819  7.49649293 10.11127131
   6.54796616  8.85959774  9.27785438
   6.77215410  6.10376929  8.30789196
 


--------------------------------------------------------------------------------------------------------


 use parallel FFT for wavefunctions z direction half grid
 k-point  1 :   0.0000 0.0000 0.0000  plane waves:   39103

 maximum and minimum number of plane-waves per node :      4891     4883

 maximum number of plane-waves:     39103
 maximum index in each direction: 
   IXMAX=   26   IYMAX=   26   IZMAX=   26
   IXMIN=  -26   IYMIN=  -26   IZMIN=    0

 WARNING: aliasing errors must be expected set NGX to 106 to avoid them
 WARNING: aliasing errors must be expected set NGY to 106 to avoid them
 WARNING: aliasing errors must be expected set NGZ to 106 to avoid them
 aliasing errors are usually negligible using standard VASP settings
 and one can safely disregard these warnings

 parallel 3D FFT for wavefunctions:
    minimum data exchange during FFTs selected (reduces bandwidth)
 parallel 3D FFT for charge:
    minimum data exchange during FFTs selected (reduces bandwidth)


 total amount of memory used by VASP on root node    54409. kBytes
========================================================================

   base      :      30000. kBytes
   nonl-proj :       1484. kBytes
   fftplans  :       5777. kBytes
   grid      :      14451. kBytes
   one-center:         31. kBytes
   wavefun   :       2666. kBytes
 
     INWAV:  cpu time    0.00: real time    0.00
 Broyden mixing: mesh for mixing (old mesh)
   NGX = 53   NGY = 53   NGZ = 53
  (NGX  =160   NGY  =160   NGZ  =160)
  gives a total of 148877 points

 initial charge density was supplied:
 charge density of overlapping atoms calculated
 number of electron     100.0000000 magnetization      10.0000000
 keeping initial charge density in first step


--------------------------------------------------------------------------------------------------------


 Maximum index for augmentation-charges           59 (set IRDMAX)


--------------------------------------------------------------------------------------------------------


 First call to EWALD:  gamma=   0.089
 Maximum number of real-space cells 3x 3x 3
 Maximum number of reciprocal cells 3x 3x 3

 FEWALD executed in parallel
    FEWALD:  cpu time    0.00: real time    0.00


----------------------------------------- Iteration    1(   1)  ---------------------------------------


    POTLOK:  cpu time    0.23: real time    0.24
    SETDIJ:  cpu time    0.01: real time    0.01
     EDDAV:  cpu time    0.68: real time    0.68
       DOS:  cpu time    0.00: real time    0.00
    --------------------------------------------
      LOOP:  cpu time    0.93: real time    1.94

 eigenvalue-minimisations  :   272
 total energy-change (2. order) : 0.5413075E+03  (-0.1504455E+04)
 number of electron     100.0000000 magnetization      10.0000000
 augmentation part      100.0000000 magnetization      10.0000000

 Free energy of the ion-electron system (eV)
  ---------------------------------------------------
  alpha Z        PSCENC =         6.56153961
  Ewald energy   TEWEN  =      8483.97734665
  -Hartree energ DENC   =    -18416.74815276
  -exchange      EXHF   =         0.00000000
  -V(xc)+E(xc)   XCENC  =       299.15247186
  PAW double counting   =      9628.33173603   -10296.70712275
  entropy T*S    EENTRO =        -0.00000000
  eigenvalues    EBANDS =        60.38320501
  atomic energy  EATOM  =     10776.35651235
  ---------------------------------------------------
  free energy    TOTEN  =       541.30753599 eV

  energy without entropy =      541.30753599  energy(sigma->0) =      541.30753599


--------------------------------------------------------------------------------------------------------




----------------------------------------- Iteration    1(   2)  ---------------------------------------


     EDDAV:  cpu time    0.97: real time    0.97
       DOS:  cpu time    0.00: real time    0.00
    --------------------------------------------
      LOOP:  cpu time    0.97: real time    0.98

 eigenvalue-minimisations  :   432
 total energy-change (2. order) :-0.4539175E+03  (-0.4029322E+03)
 number of electron     100.0000000 magnetization      10.0000000
 augmentation part      100.0000000 magnetization      10.0000000

 Free energy of the ion-electron system (eV)
  ---------------------------------------------------
  alpha Z        PSCENC =         6.56153961
  Ewald energy   TEWEN  =      8483.97734665
  -Hartree energ DENC   =    -18416.74815276
  -exchange      EXHF   =         0.00000000
  -V(xc)+E(xc)   XCENC  =       299.15247186
  PAW double counting   =      9628.33173603   -10296.70712275
  entropy T*S    EENTRO =        -0.00000000
  eigenvalues    EBANDS =      -393.53431886
  atomic energy  EATOM  =     10776.35651235
  ---------------------------------------------------
  free energy    TOTEN  =        87.39001213 eV

  energy without entropy =       87.39001213  energy(sigma->0) =       87.39001213


--------------------------------------------------------------------------------------------------------




----------------------------------------- Iteration    1(   3)  ---------------------------------------


     EDDAV:  cpu time    0.83: real time    0.83
       DOS:  cpu time    0.00: real time    0.00
    --------------------------------------------
      LOOP:  cpu time    0.83: real time    0.91

 eigenvalue-minimisations  :   352
 total energy-change (2. order) :-0.1094629E+03  (-0.1003405E+03)
 number of electron     100.0000000 magnetization      10.0000000
 augmentation part      100.0000000 magnetization      10.0000000

 Free energy of the ion-electron system (eV)
  ---------------------------------------------------
  alpha Z        PSCENC =         6.56153961
  Ewald energy   TEWEN  =      8483.97734665
  -Hartree energ DENC   =    -18416.74815276
  -exchange      EXHF   =         0.00000000
  -V(xc)+E(xc)   XCENC  =       299.15247186
  PAW double counting   =      9628.33173603   -10296.70712275
  entropy T*S    EENTRO =         0.00000000
  eigenvalues    EBANDS =      -502.99718321
  atomic energy  EATOM  =     10776.35651235
  ---------------------------------------------------
  free energy    TOTEN  =       -22.07285223 eV

  energy without entropy =      -22.07285223  energy(sigma->0) =      -22.07285223


--------------------------------------------------------------------------------------------------------




----------------------------------------- Iteration    1(   4)  ---------------------------------------


     EDDAV:  cpu time    0.75: real time    0.75
       DOS:  cpu time    0.00: real time    0.00
    --------------------------------------------
      LOOP:  cpu time    0.75: real time    0.76

 eigenvalue-minimisations  :   312
 total energy-change (2. order) :-0.8923446E+01  (-0.8161243E+01)
 number of electron     100.0000000 magnetization      10.0000000
 augmentation part      100.0000000 magnetization      10.0000000

 Free energy of the ion-electron system (eV)
  ---------------------------------------------------
  alpha Z        PSCENC =         6.56153961
  Ewald energy   TEWEN  =      8483.97734665
  -Hartree energ DENC   =    -18416.74815276
  -exchange      EXHF   =         0.00000000
  -V(xc)+E(xc)   XCENC  =       299.15247186
  PAW double counting   =      9628.33173603   -10296.70712275
  entropy T*S    EENTRO =         0.00000000
  eigenvalues    EBANDS =      -511.92062945
  atomic energy  EATOM  =     10776.35651235
  ---------------------------------------------------
  free energy    TOTEN  =       -30.99629846 eV

  energy without entropy =      -30.99629846  energy(sigma->0) =      -30.99629846


--------------------------------------------------------------------------------------------------------




----------------------------------------- Iteration    1(   5)  ---------------------------------------


     EDDAV:  cpu time    0.80: real time    0.79
       DOS:  cpu time    0.00: real time    0.00
    CHARGE:  cpu time    0.05: real time    0.05
    MIXING:  cpu time    0.01: real time    0.01
    --------------------------------------------
      LOOP:  cpu time    0.85: real time    0.86

 eigenvalue-minimisations  :   336
 total energy-change (2. order) :-0.1751682E+00  (-0.1687211E+00)
 number of electron     100.0000404 magnetization      10.0000009
 augmentation part       60.4645514 magnetization       7.6809654

 Broyden mixing:
  rms(total) = 0.13743E+01    rms(broyden)= 0.13626E+01
  rms(prec ) = 0.14964E+01
  weight for this iteration     100.00

 Free energy of the ion-electron system (eV)
  ---------------------------------------------------
  alpha Z        PSCENC =         6.56153961
  Ewald energy   TEWEN  =      8483.97734665
  -Hartree energ DENC   =    -18416.74815276
  -exchange      EXHF   =         0.00000000
  -V(xc)+E(xc)   XCENC  =       299.15247186
  PAW double counting   =      9628.33173603   -10296.70712275
  entropy T*S    EENTRO =         0.00000000
  eigenvalues    EBANDS =      -512.09579765
  atomic energy  EATOM  =     10776.35651235
  ---------------------------------------------------
  free energy    TOTEN  =       -31.17146666 eV

  energy without entropy =      -31.17146666  energy(sigma->0) =      -31.17146666


--------------------------------------------------------------------------------------------------------




----------------------------------------- Iteration    1(   6)  ---------------------------------------


    POTLOK:  cpu time    0.23: real time    0.23
    SETDIJ:  cpu time    0.00: real time    0.01
     EDDAV:  cpu time    0.72: real time    0.72
       DOS:  cpu time    0.00: real time    0.00
    CHARGE:  cpu time    0.05: real time    0.05
    MIXING:  cpu time    0.00: real time    0.01
    --------------------------------------------
      LOOP:  cpu time    1.01: real time    1.04

 eigenvalue-minimisations  :   296
 total energy-change (2. order) :-0.3191729E-01  (-0.4062334E+01)
 number of electron     100.0000487 magnetization       9.9245545
 augmentation part       66.2027797 magnetization       8.3909846

 Broyden mixing:
  rms(total) = 0.29850E+01    rms(broyden)= 0.29821E+01
  rms(prec ) = 0.31752E+01
  weight for this iteration     100.00

 eigenvalues of (default mixing * dielectric matrix)
  average eigenvalue GAMMA=   0.2141
  0.2141

 Free energy of the ion-electron system (eV)
  ---------------------------------------------------
  alpha Z        PSCENC =         6.56153961
  Ewald energy   TEWEN  =      8483.97734665
  -Hartree energ DENC   =    -18307.42995653
  -exchange      EXHF   =         0.00000000
  -V(xc)+E(xc)   XCENC  =       293.70470396
  PAW double counting   =      9555.18981988   -10198.32425546
  entropy T*S    EENTRO =         0.00000000
  eigenvalues    EBANDS =      -641.23909441
  atomic energy  EATOM  =     10776.35651235
  ---------------------------------------------------
  free energy    TOTEN  =       -31.20338396 eV

  energy without entropy =      -31.20338396  energy(sigma->0) =      -31.20338396


--------------------------------------------------------------------------------------------------------




----------------------------------------- Iteration    1(   7)  ---------------------------------------


    POTLOK:  cpu time    0.23: real time    0.23
    SETDIJ:  cpu time    0.01: real time    0.01
     EDDAV:  cpu time    0.72: real time    0.72
       DOS:  cpu time    0.00: real time    0.00
    CHARGE:  cpu time    0.05: real time    0.05
    MIXING:  cpu time    0.01: real time    0.01
    --------------------------------------------
      LOOP:  cpu time    1.02: real time    1.02

 eigenvalue-minimisations  :   296
 total energy-change (2. order) :-0.1173962E+01  (-0.1776476E+01)
 number of electron     100.0000415 magnetization       9.8354038
 augmentation part       64.8387609 magnetization       8.6846806

 Broyden mixing:
  rms(total) = 0.31567E+01    rms(broyden)= 0.31481E+01
  rms(prec ) = 0.33836E+01
  weight for this iteration     100.00

 eigenvalues of (default mixing * dielectric matrix)
  average eigenvalue GAMMA=   0.2723
  0.1341  0.4104

 Free energy of the ion-electron system (eV)
  ---------------------------------------------------
  alpha Z        PSCENC =         6.56153961
  Ewald energy   TEWEN  =      8483.97734665
  -Hartree energ DENC   =    -18347.35367662
  -exchange      EXHF   =         0.00000000
  -V(xc)+E(xc)   XCENC  =       295.12669790
  PAW double counting   =      9634.14227949   -10287.43355441
  entropy T*S    EENTRO =        -0.00000000
  eigenvalues    EBANDS =      -593.75449104
  atomic energy  EATOM  =     10776.35651235
  ---------------------------------------------------
  free energy    TOTEN  =       -32.37734609 eV

  energy without entropy =      -32.37734609  energy(sigma->0) =      -32.37734609


--------------------------------------------------------------------------------------------------------




----------------------------------------- Iteration    1(   8)  ---------------------------------------


    POTLOK:  cpu time    0.23: real time    0.23
    SETDIJ:  cpu time    0.01: real time    0.01
     EDDAV:  cpu time    0.84: real time    0.84
       DOS:  cpu time    0.00: real time    0.00
    CHARGE:  cpu time    0.05: real time    0.05
    MIXING:  cpu time    0.01: real time    0.01
    --------------------------------------------
      LOOP:  cpu time    1.13: real time    1.13

 eigenvalue-minimisations  :   360
 total energy-change (2. order) : 0.4147746E+01  (-0.8131889E+00)
 number of electron     100.0000429 magnetization       9.8102215
 augmentation part       64.0459364 magnetization       8.5019375

 Broyden mixing:
  rms(total) = 0.24125E+01    rms(broyden)= 0.24049E+01
  rms(prec ) = 0.26141E+01
  weight for this iteration     100.00

 eigenvalues of (default mixing * dielectric matrix)
  average eigenvalue GAMMA=   0.2085
  0.4107  0.1270  0.0879

 Free energy of the ion-electron system (eV)
  ---------------------------------------------------
  alpha Z        PSCENC =         6.56153961
  Ewald energy   TEWEN  =      8483.97734665
  -Hartree energ DENC   =    -18384.64750388
  -exchange      EXHF   =         0.00000000
  -V(xc)+E(xc)   XCENC  =       296.29885358
  PAW double counting   =      9703.03905722   -10365.44929721
  entropy T*S    EENTRO =        -0.00000000
  eigenvalues    EBANDS =      -544.36610840
  atomic energy  EATOM  =     10776.35651235
  ---------------------------------------------------
  free energy    TOTEN  =       -28.22960008 eV

  energy without entropy =      -28.22960008  energy(sigma->0) =      -28.22960008


--------------------------------------------------------------------------------------------------------




----------------------------------------- Iteration    1(   9)  ---------------------------------------


    POTLOK:  cpu time    0.23: real time    0.23
    SETDIJ:  cpu time    0.01: real time    0.01
     EDDAV:  cpu time    0.81: real time    0.81
       DOS:  cpu time    0.00: real time    0.00
    CHARGE:  cpu time    0.05: real time    0.05
    MIXING:  cpu time    0.00: real time    0.01
    --------------------------------------------
      LOOP:  cpu time    1.10: real time    1.19

 eigenvalue-minimisations  :   344
 total energy-change (2. order) : 0.5512662E+00  (-0.3497132E+00)
 number of electron     100.0000468 magnetization       9.7059726
 augmentation part       63.6912192 magnetization       8.2674843

 Broyden mixing:
  rms(total) = 0.12198E+01    rms(broyden)= 0.12028E+01
  rms(prec ) = 0.12991E+01
  weight for this iteration     100.00

 eigenvalues of (default mixing * dielectric matrix)
  average eigenvalue GAMMA=   0.2487
  0.3993  0.3993  0.1307  0.0654

 Free energy of the ion-electron system (eV)
  ---------------------------------------------------
  alpha Z        PSCENC =         6.56153961
  Ewald energy   TEWEN  =      8483.97734665
  -Hartree energ DENC   =    -18389.79735486
  -exchange      EXHF   =         0.00000000
  -V(xc)+E(xc)   XCENC  =       296.37806132
  PAW double counting   =      9713.02520892   -10376.44221973
  entropy T*S    EENTRO =        -0.00003466
  eigenvalues    EBANDS =      -537.73739345
  atomic energy  EATOM  =     10776.35651235
  ---------------------------------------------------
  free energy    TOTEN  =       -27.67833386 eV

  energy without entropy =      -27.67829920  energy(sigma->0) =      -27.67831653


--------------------------------------------------------------------------------------------------------




----------------------------------------- Iteration    1(  10)  ---------------------------------------


    POTLOK:  cpu time    0.23: real time    0.23
    SETDIJ:  cpu time    0.01: real time    0.01
     EDDAV:  cpu time    0.80: real time    0.80
       DOS:  cpu time    0.00: real time    0.00
    CHARGE:  cpu time    0.04: real time    0.05
    MIXING:  cpu time    0.01: real time    0.01
    --------------------------------------------
      LOOP:  cpu time    1.08: real time    1.09

 eigenvalue-minimisations  :   336
 total energy-change (2. order) :-0.1902846E+01  (-0.4002734E+00)
 number of electron     100.0000491 magnetization       9.6397918
 augmentation part       62.8406585 magnetization       7.3040247

 Broyden mixing:
  rms(total) = 0.39255E+01    rms(broyden)= 0.39209E+01
  rms(prec ) = 0.42923E+01
  weight for this iteration     100.00

 eigenvalues of (default mixing * dielectric matrix)
  average eigenvalue GAMMA=   0.2550
  0.5118  0.5118  0.1324  0.0595  0.0595

 Free energy of the ion-electron system (eV)
  ---------------------------------------------------
  alpha Z        PSCENC =         6.56153961
  Ewald energy   TEWEN  =      8483.97734665
  -Hartree energ DENC   =    -18401.96843584
  -exchange      EXHF   =         0.00000000
  -V(xc)+E(xc)   XCENC  =       296.54263406
  PAW double counting   =      9741.38801393   -10406.97423107
  entropy T*S    EENTRO =         0.00000000
  eigenvalues    EBANDS =      -525.46455973
  atomic energy  EATOM  =     10776.35651235
  ---------------------------------------------------
  free energy    TOTEN  =       -29.58118005 eV

  energy without entropy =      -29.58118005  energy(sigma->0) =      -29.58118005


--------------------------------------------------------------------------------------------------------




----------------------------------------- Iteration    1(  11)  ---------------------------------------


    POTLOK:  cpu time    0.23: real time    0.23
    SETDIJ:  cpu time    0.00: real time    0.01
     EDDAV:  cpu time    0.75: real time    0.75
       DOS:  cpu time    0.00: real time    0.00
    CHARGE:  cpu time    0.05: real time    0.05
    MIXING:  cpu time    0.01: real time    0.01
    --------------------------------------------
      LOOP:  cpu time    1.04: real time    1.05

 eigenvalue-minimisations  :   312
 total energy-change (2. order) : 0.1329525E+01  (-0.8087834E+00)
 number of electron     100.0000407 magnetization       9.6172170
 augmentation part       62.7677997 magnetization       7.2517951

 Broyden mixing:
  rms(total) = 0.33785E+01    rms(broyden)= 0.33759E+01
  rms(prec ) = 0.36793E+01
  weight for this iteration     100.00

 eigenvalues of (default mixing * dielectric matrix)
  average eigenvalue GAMMA=   0.2365
  0.5548  0.5548  0.1292  0.0703  0.0703  0.0398

 Free energy of the ion-electron system (eV)
  ---------------------------------------------------
  alpha Z        PSCENC =         6.56153961
  Ewald energy   TEWEN  =      8483.97734665
  -Hartree energ DENC   =    -18409.67281309
  -exchange      EXHF   =         0.00000000
  -V(xc)+E(xc)   XCENC  =       297.11688303
  PAW double counting   =      9762.02545416   -10429.15551305
  entropy T*S    EENTRO =         0.00000000
  eigenvalues    EBANDS =      -515.46106493
  atomic energy  EATOM  =     10776.35651235
  ---------------------------------------------------
  free energy    TOTEN  =       -28.25165529 eV

  energy without entropy =      -28.25165529  energy(sigma->0) =      -28.25165529


--------------------------------------------------------------------------------------------------------




----------------------------------------- Iteration    1(  12)  ---------------------------------------


    POTLOK:  cpu time    0.23: real time    0.23
    SETDIJ:  cpu time    0.01: real time    0.01
     EDDAV:  cpu time    0.78: real time    0.78
       DOS:  cpu time    0.00: real time    0.00
    CHARGE:  cpu time    0.05: real time    0.05
    MIXING:  cpu time    0.01: real time    0.01
    --------------------------------------------
      LOOP:  cpu time    1.07: real time    1.10

 eigenvalue-minimisations  :   328
 total energy-change (2. order) : 0.8383920E+00  (-0.4242228E+00)
 number of electron     100.0000461 magnetization       9.6161626
 augmentation part       62.7094437 magnetization       7.3005244

 Broyden mixing:
  rms(total) = 0.17190E+01    rms(broyden)= 0.17110E+01
  rms(prec ) = 0.18582E+01
  weight for this iteration     100.00

 eigenvalues of (default mixing * dielectric matrix)
  average eigenvalue GAMMA=   0.2198
  0.5631  0.5631  0.1296  0.1296  0.0570  0.0570  0.0391

 Free energy of the ion-electron system (eV)
  ---------------------------------------------------
  alpha Z        PSCENC =         6.56153961
  Ewald energy   TEWEN  =      8483.97734665
  -Hartree energ DENC   =    -18412.13517035
  -exchange      EXHF   =         0.00000000
  -V(xc)+E(xc)   XCENC  =       297.10417755
  PAW double counting   =      9769.92735649   -10437.66942726
  entropy T*S    EENTRO =         0.00000000
  eigenvalues    EBANDS =      -511.53559831
  atomic energy  EATOM  =     10776.35651235
  ---------------------------------------------------
  free energy    TOTEN  =       -27.41326328 eV

  energy without entropy =      -27.41326328  energy(sigma->0) =      -27.41326328


--------------------------------------------------------------------------------------------------------




----------------------------------------- Iteration    1(  13)  ---------------------------------------


    POTLOK:  cpu time    0.23: real time    0.23
    SETDIJ:  cpu time    0.01: real time    0.01
     EDDAV:  cpu time    0.83: real time    0.83
       DOS:  cpu time    0.00: real time    0.00
    CHARGE:  cpu time    0.04: real time    0.05
    MIXING:  cpu time    0.01: real time    0.01
    --------------------------------------------
      LOOP:  cpu time    1.12: real time    1.40

 eigenvalue-minimisations  :   356
 total energy-change (2. order) :-0.2215096E+00  (-0.1906909E+00)
 number of electron     100.0000519 magnetization       9.6236230
 augmentation part       62.7155614 magnetization       7.3234448

 Broyden mixing:
  rms(total) = 0.16108E+01    rms(broyden)= 0.16056E+01
  rms(prec ) = 0.17419E+01
  weight for this iteration     100.00

 eigenvalues of (default mixing * dielectric matrix)
  average eigenvalue GAMMA=   0.2190
  0.5858  0.4925  0.3243  0.1460  0.0547  0.0547  0.0354  0.0589

 Free energy of the ion-electron system (eV)
  ---------------------------------------------------
  alpha Z        PSCENC =         6.56153961
  Ewald energy   TEWEN  =      8483.97734665
  -Hartree energ DENC   =    -18411.69814001
  -exchange      EXHF   =         0.00000000
  -V(xc)+E(xc)   XCENC  =       296.86690093
  PAW double counting   =      9771.92563717   -10439.82909538
  entropy T*S    EENTRO =         0.00000000
  eigenvalues    EBANDS =      -511.79547418
  atomic energy  EATOM  =     10776.35651235
  ---------------------------------------------------
  free energy    TOTEN  =       -27.63477287 eV

  energy without entropy =      -27.63477287  energy(sigma->0) =      -27.63477287


--------------------------------------------------------------------------------------------------------




----------------------------------------- Iteration    1(  14)  ---------------------------------------


    POTLOK:  cpu time    0.23: real time    0.23
    SETDIJ:  cpu time    0.01: real time    0.01
     EDDAV:  cpu time    0.76: real time    0.77
       DOS:  cpu time    0.00: real time    0.00
    CHARGE:  cpu time    0.05: real time    0.05
    MIXING:  cpu time    0.01: real time    0.01
    --------------------------------------------
      LOOP:  cpu time    1.06: real time    1.06

 eigenvalue-minimisations  :   320
 total energy-change (2. order) : 0.1405568E+00  (-0.1097471E+00)
 number of electron     100.0000485 magnetization       9.6278118
 augmentation part       62.7664649 magnetization       7.3774847

 Broyden mixing:
  rms(total) = 0.85785E+00    rms(broyden)= 0.85238E+00
  rms(prec ) = 0.91586E+00
  weight for this iteration     100.00

 eigenvalues of (default mixing * dielectric matrix)
  average eigenvalue GAMMA=   0.2107
  0.6777  0.3873  0.3873  0.1484  0.0880  0.0604  0.0604  0.0516  0.0349

 Free energy of the ion-electron system (eV)
  ---------------------------------------------------
  alpha Z        PSCENC =         6.56153961
  Ewald energy   TEWEN  =      8483.97734665
  -Hartree energ DENC   =    -18409.83468995
  -exchange      EXHF   =         0.00000000
  -V(xc)+E(xc)   XCENC  =       296.73469047
  PAW double counting   =      9773.87164429   -10441.92059359
  entropy T*S    EENTRO =         0.00000000
  eigenvalues    EBANDS =      -513.24066586
  atomic energy  EATOM  =     10776.35651235
  ---------------------------------------------------
  free energy    TOTEN  =       -27.49421605 eV

  energy without entropy =      -27.49421605  energy(sigma->0) =      -27.49421605


--------------------------------------------------------------------------------------------------------




----------------------------------------- Iteration    1(  15)  ---------------------------------------


    POTLOK:  cpu time    0.23: real time    0.23
    SETDIJ:  cpu time    0.01: real time    0.01
     EDDAV:  cpu time    0.72: real time    0.72
       DOS:  cpu time    0.00: real time    0.00
    CHARGE:  cpu time    0.05: real time    0.05
    MIXING:  cpu time    0.01: real time    0.01
    --------------------------------------------
      LOOP:  cpu time    1.02: real time    1.04

 eigenvalue-minimisations  :   296
 total energy-change (2. order) : 0.2286471E-01  (-0.4019588E-01)
 number of electron     100.0000469 magnetization       9.6386305
 augmentation part       62.7976517 magnetization       7.4118692

 Broyden mixing:
  rms(total) = 0.66599E+00    rms(broyden)= 0.65906E+00
  rms(prec ) = 0.70222E+00
  weight for this iteration     100.00

 eigenvalues of (default mixing * dielectric matrix)
  average eigenvalue GAMMA=   0.2358
  0.7994  0.4315  0.4315  0.3000  0.1405  0.0568  0.0568  0.0581  0.0483  0.0348

 Free energy of the ion-electron system (eV)
  ---------------------------------------------------
  alpha Z        PSCENC =         6.56153961
  Ewald energy   TEWEN  =      8483.97734665
  -Hartree energ DENC   =    -18409.26985341
  -exchange      EXHF   =         0.00000000
  -V(xc)+E(xc)   XCENC  =       296.69220829
  PAW double counting   =      9774.19915702   -10442.28167630
  entropy T*S    EENTRO =        -0.00000000
  eigenvalues    EBANDS =      -513.70658554
  atomic energy  EATOM  =     10776.35651235
  ---------------------------------------------------
  free energy    TOTEN  =       -27.47135134 eV

  energy without entropy =      -27.47135134  energy(sigma->0) =      -27.47135134


--------------------------------------------------------------------------------------------------------




----------------------------------------- Iteration    1(  16)  ---------------------------------------


    POTLOK:  cpu time    0.23: real time    0.23
    SETDIJ:  cpu time    0.01: real time    0.01
     EDDAV:  cpu time    0.77: real time    0.77
       DOS:  cpu time    0.00: real time    0.00
    CHARGE:  cpu time    0.05: real time    0.05
    MIXING:  cpu time    0.01: real time    0.01
    --------------------------------------------
      LOOP:  cpu time    1.06: real time    1.07

 eigenvalue-minimisations  :   320
 total energy-change (2. order) :-0.2010958E+00  (-0.4478691E-01)
 number of electron     100.0000468 magnetization       9.6442692
 augmentation part       62.8552410 magnetization       7.4316110

 Broyden mixing:
  rms(total) = 0.89494E+00    rms(broyden)= 0.88789E+00
  rms(prec ) = 0.94966E+00
  weight for this iteration     100.00

 eigenvalues of (default mixing * dielectric matrix)
  average eigenvalue GAMMA=   0.2426
  0.9109  0.4769  0.4769  0.3171  0.1448  0.0888  0.0571  0.0571  0.0348  0.0568
  0.0479

 Free energy of the ion-electron system (eV)
  ---------------------------------------------------
  alpha Z        PSCENC =         6.56153961
  Ewald energy   TEWEN  =      8483.97734665
  -Hartree energ DENC   =    -18408.26037753
  -exchange      EXHF   =         0.00000000
  -V(xc)+E(xc)   XCENC  =       296.56571839
  PAW double counting   =      9774.42329792   -10442.54391705
  entropy T*S    EENTRO =         0.00000000
  eigenvalues    EBANDS =      -514.75256744
  atomic energy  EATOM  =     10776.35651235
  ---------------------------------------------------
  free energy    TOTEN  =       -27.67244711 eV

  energy without entropy =      -27.67244711  energy(sigma->0) =      -27.67244711


--------------------------------------------------------------------------------------------------------




----------------------------------------- Iteration    1(  17)  ---------------------------------------


    POTLOK:  cpu time    0.23: real time    0.23
    SETDIJ:  cpu time    0.00: real time    0.01
     EDDAV:  cpu time    0.73: real time    0.72
       DOS:  cpu time    0.00: real time    0.00
    CHARGE:  cpu time    0.04: real time    0.05
    MIXING:  cpu time    0.01: real time    0.01
    --------------------------------------------
      LOOP:  cpu time    1.02: real time    1.02

 eigenvalue-minimisations  :   296
 total energy-change (2. order) : 0.1140908E-01  (-0.5013996E-01)
 number of electron     100.0000437 magnetization       9.6436430
 augmentation part       62.8734393 magnetization       7.4675412

 Broyden mixing:
  rms(total) = 0.71263E+00    rms(broyden)= 0.70634E+00
  rms(prec ) = 0.75388E+00
  weight for this iteration     100.00

 eigenvalues of (default mixing * dielectric matrix)
  average eigenvalue GAMMA=   0.2660
  1.1140  0.4798  0.4798  0.3321  0.3321  0.1389  0.0570  0.0570  0.0348  0.0622
  0.0574  0.0468

 Free energy of the ion-electron system (eV)
  ---------------------------------------------------
  alpha Z        PSCENC =         6.56153961
  Ewald energy   TEWEN  =      8483.97734665
  -Hartree energ DENC   =    -18408.36563787
  -exchange      EXHF   =         0.00000000
  -V(xc)+E(xc)   XCENC  =       296.56170063
  PAW double counting   =      9775.69895719   -10443.94631727
  entropy T*S    EENTRO =         0.00000000
  eigenvalues    EBANDS =      -514.50513932
  atomic energy  EATOM  =     10776.35651235
  ---------------------------------------------------
  free energy    TOTEN  =       -27.66103803 eV

  energy without entropy =      -27.66103803  energy(sigma->0) =      -27.66103803


--------------------------------------------------------------------------------------------------------




----------------------------------------- Iteration    1(  18)  ---------------------------------------


    POTLOK:  cpu time    0.23: real time    0.23
    SETDIJ:  cpu time    0.00: real time    0.01
     EDDAV:  cpu time    0.74: real time    0.74
       DOS:  cpu time    0.00: real time    0.00
    CHARGE:  cpu time    0.05: real time    0.05
    MIXING:  cpu time    0.01: real time    0.01
    --------------------------------------------
      LOOP:  cpu time    1.04: real time    1.05

 eigenvalue-minimisations  :   304
 total energy-change (2. order) :-0.2764511E+00  (-0.1031577E+00)
 number of electron     100.0000444 magnetization       9.6426246
 augmentation part       62.8984588 magnetization       7.4687865

 Broyden mixing:
  rms(total) = 0.13167E+01    rms(broyden)= 0.13117E+01
  rms(prec ) = 0.14352E+01
  weight for this iteration     100.00

 eigenvalues of (default mixing * dielectric matrix)
  average eigenvalue GAMMA=   0.2650
  1.1995  0.5147  0.5147  0.3533  0.3533  0.1395  0.0566  0.0566  0.0642  0.0642
  0.0348  0.0470  0.0470

 Free energy of the ion-electron system (eV)
  ---------------------------------------------------
  alpha Z        PSCENC =         6.56153961
  Ewald energy   TEWEN  =      8483.97734665
  -Hartree energ DENC   =    -18409.59692691
  -exchange      EXHF   =         0.00000000
  -V(xc)+E(xc)   XCENC  =       296.48420825
  PAW double counting   =      9779.42746383   -10447.99790665
  entropy T*S    EENTRO =         0.00000000
  eigenvalues    EBANDS =      -513.14972625
  atomic energy  EATOM  =     10776.35651235
  ---------------------------------------------------
  free energy    TOTEN  =       -27.93748914 eV

  energy without entropy =      -27.93748914  energy(sigma->0) =      -27.93748914


--------------------------------------------------------------------------------------------------------




----------------------------------------- Iteration    1(  19)  ---------------------------------------


    POTLOK:  cpu time    0.23: real time    0.23
    SETDIJ:  cpu time    0.01: real time    0.01
     EDDAV:  cpu time    0.72: real time    0.72
       DOS:  cpu time    0.00: real time    0.00
    CHARGE:  cpu time    0.04: real time    0.05
    MIXING:  cpu time    0.01: real time    0.01
    --------------------------------------------
      LOOP:  cpu time    1.02: real time    1.28

 eigenvalue-minimisations  :   296
 total energy-change (2. order) : 0.2630989E+00  (-0.4047628E-01)
 number of electron     100.0000448 magnetization       9.6439015
 augmentation part       62.8910616 magnetization       7.5022768

 Broyden mixing:
  rms(total) = 0.54987E+00    rms(broyden)= 0.54093E+00
  rms(prec ) = 0.58210E+00
  weight for this iteration     100.00

 eigenvalues of (default mixing * dielectric matrix)
  average eigenvalue GAMMA=   0.2666
  1.2575  0.5431  0.5431  0.3281  0.3281  0.2326  0.1399  0.0568  0.0568  0.0612
  0.0612  0.0348  0.0448  0.0448

 Free energy of the ion-electron system (eV)
  ---------------------------------------------------
  alpha Z        PSCENC =         6.56153961
  Ewald energy   TEWEN  =      8483.97734665
  -Hartree energ DENC   =    -18410.37017949
  -exchange      EXHF   =         0.00000000
  -V(xc)+E(xc)   XCENC  =       296.55319594
  PAW double counting   =      9781.38813176   -10450.13906861
  entropy T*S    EENTRO =         0.00000000
  eigenvalues    EBANDS =      -512.00186840
  atomic energy  EATOM  =     10776.35651235
  ---------------------------------------------------
  free energy    TOTEN  =       -27.67439020 eV

  energy without entropy =      -27.67439020  energy(sigma->0) =      -27.67439020


--------------------------------------------------------------------------------------------------------




----------------------------------------- Iteration    1(  20)  ---------------------------------------


    POTLOK:  cpu time    0.23: real time    0.23
    SETDIJ:  cpu time    0.01: real time    0.01
     EDDAV:  cpu time    0.78: real time    0.78
       DOS:  cpu time    0.00: real time    0.00
    CHARGE:  cpu time    0.05: real time    0.05
    MIXING:  cpu time    0.01: real time    0.01
    --------------------------------------------
      LOOP:  cpu time    1.08: real time    1.11

 eigenvalue-minimisations  :   328
 total energy-change (2. order) :-0.1578951E+00  (-0.1438825E-01)
 number of electron     100.0000454 magnetization       9.6508238
 augmentation part       62.8943908 magnetization       7.5249035

 Broyden mixing:
  rms(total) = 0.48891E+00    rms(broyden)= 0.48711E+00
  rms(prec ) = 0.51998E+00
  weight for this iteration     100.00

 eigenvalues of (default mixing * dielectric matrix)
  average eigenvalue GAMMA=   0.3095
  1.4914  0.6778  0.6778  0.4002  0.4002  0.4057  0.1397  0.0887  0.0567  0.0567
  0.0612  0.0612  0.0348  0.0449  0.0449

 Free energy of the ion-electron system (eV)
  ---------------------------------------------------
  alpha Z        PSCENC =         6.56153961
  Ewald energy   TEWEN  =      8483.97734665
  -Hartree energ DENC   =    -18410.61733479
  -exchange      EXHF   =         0.00000000
  -V(xc)+E(xc)   XCENC  =       296.46197245
  PAW double counting   =      9781.97884521   -10450.83394324
  entropy T*S    EENTRO =         0.00000000
  eigenvalues    EBANDS =      -511.71722349
  atomic energy  EATOM  =     10776.35651235
  ---------------------------------------------------
  free energy    TOTEN  =       -27.83228526 eV

  energy without entropy =      -27.83228526  energy(sigma->0) =      -27.83228526


--------------------------------------------------------------------------------------------------------




----------------------------------------- Iteration    1(  21)  ---------------------------------------


    POTLOK:  cpu time    0.23: real time    0.23
    SETDIJ:  cpu time    0.00: real time    0.01
     EDDAV:  cpu time    0.83: real time    0.83
       DOS:  cpu time    0.00: real time    0.00
    CHARGE:  cpu time    0.05: real time    0.05
    MIXING:  cpu time    0.01: real time    0.01
    --------------------------------------------
      LOOP:  cpu time    1.12: real time    1.13

 eigenvalue-minimisations  :   352
 total energy-change (2. order) :-0.5674005E-01  (-0.7239385E-02)
 number of electron     100.0000457 magnetization       9.6891920
 augmentation part       62.9290242 magnetization       7.5872196

 Broyden mixing:
  rms(total) = 0.27567E+00    rms(broyden)= 0.27396E+00
  rms(prec ) = 0.29253E+00
  weight for this iteration     100.00

 eigenvalues of (default mixing * dielectric matrix)
  average eigenvalue GAMMA=   0.3632
  1.8109  0.6870  0.6870  0.6075  0.6075  0.4104  0.4104  0.1397  0.0908  0.0567
  0.0567  0.0610  0.0610  0.0348  0.0448  0.0448

 Free energy of the ion-electron system (eV)
  ---------------------------------------------------
  alpha Z        PSCENC =         6.56153961
  Ewald energy   TEWEN  =      8483.97734665
  -Hartree energ DENC   =    -18411.13024222
  -exchange      EXHF   =         0.00000000
  -V(xc)+E(xc)   XCENC  =       296.40037283
  PAW double counting   =      9782.64517372   -10451.79426679
  entropy T*S    EENTRO =         0.00000000
  eigenvalues    EBANDS =      -510.90546144
  atomic energy  EATOM  =     10776.35651235
  ---------------------------------------------------
  free energy    TOTEN  =       -27.88902531 eV

  energy without entropy =      -27.88902531  energy(sigma->0) =      -27.88902531


--------------------------------------------------------------------------------------------------------




----------------------------------------- Iteration    1(  22)  ---------------------------------------


    POTLOK:  cpu time    0.23: real time    0.23
    SETDIJ:  cpu time    0.00: real time    0.01
     EDDAV:  cpu time    0.80: real time    0.80
       DOS:  cpu time    0.00: real time    0.00
    CHARGE:  cpu time    0.04: real time    0.05
    MIXING:  cpu time    0.02: real time    0.01
    --------------------------------------------
      LOOP:  cpu time    1.10: real time    2.65

 eigenvalue-minimisations  :   336
 total energy-change (2. order) :-0.1073314E+00  (-0.1244764E-01)
 number of electron     100.0000460 magnetization       9.7290248
 augmentation part       63.0484870 magnetization       7.6518048

 Broyden mixing:
  rms(total) = 0.22185E+00    rms(broyden)= 0.21808E+00
  rms(prec ) = 0.23613E+00
  weight for this iteration     100.00

 eigenvalues of (default mixing * dielectric matrix)
  average eigenvalue GAMMA=   0.4006
  1.8948  0.8278  0.8278  0.6492  0.6492  0.5009  0.4352  0.4352  0.1398  0.0910
  0.0567  0.0567  0.0610  0.0610  0.0348  0.0448  0.0448

 Free energy of the ion-electron system (eV)
  ---------------------------------------------------
  alpha Z        PSCENC =         6.56153961
  Ewald energy   TEWEN  =      8483.97734665
  -Hartree energ DENC   =    -18409.87814527
  -exchange      EXHF   =         0.00000000
  -V(xc)+E(xc)   XCENC  =       296.25079020
  PAW double counting   =      9777.66735723   -10446.78699862
  entropy T*S    EENTRO =         0.00000000
  eigenvalues    EBANDS =      -512.14475883
  atomic energy  EATOM  =     10776.35651235
  ---------------------------------------------------
  free energy    TOTEN  =       -27.99635669 eV

  energy without entropy =      -27.99635669  energy(sigma->0) =      -27.99635669


--------------------------------------------------------------------------------------------------------




----------------------------------------- Iteration    1(  23)  ---------------------------------------


    POTLOK:  cpu time    0.22: real time    0.22
    SETDIJ:  cpu time    0.01: real time    0.01
     EDDAV:  cpu time    0.71: real time    0.71
       DOS:  cpu time    0.00: real time    0.00
    CHARGE:  cpu time    0.04: real time    0.05
    MIXING:  cpu time    0.02: real time    0.01
    --------------------------------------------
      LOOP:  cpu time    1.01: real time    1.09

 eigenvalue-minimisations  :   296
 total energy-change (2. order) :-0.4559762E-01  (-0.4762489E-02)
 number of electron     100.0000469 magnetization       9.7681666
 augmentation part       63.0892725 magnetization       7.7018473

 Broyden mixing:
  rms(total) = 0.19058E+00    rms(broyden)= 0.18934E+00
  rms(prec ) = 0.20390E+00
  weight for this iteration     100.00

 eigenvalues of (default mixing * dielectric matrix)
  average eigenvalue GAMMA=   0.4362
  2.1509  0.8536  0.8536  0.6722  0.6722  0.5693  0.5693  0.4600  0.4600  0.1398
  0.0910  0.0567  0.0567  0.0610  0.0610  0.0348  0.0448  0.0448

 Free energy of the ion-electron system (eV)
  ---------------------------------------------------
  alpha Z        PSCENC =         6.56153961
  Ewald energy   TEWEN  =      8483.97734665
  -Hartree energ DENC   =    -18410.53268101
  -exchange      EXHF   =         0.00000000
  -V(xc)+E(xc)   XCENC  =       296.20932630
  PAW double counting   =      9774.74703976   -10444.08609891
  entropy T*S    EENTRO =         0.00000000
  eigenvalues    EBANDS =      -511.27493904
  atomic energy  EATOM  =     10776.35651235
  ---------------------------------------------------
  free energy    TOTEN  =       -28.04195430 eV

  energy without entropy =      -28.04195430  energy(sigma->0) =      -28.04195430


--------------------------------------------------------------------------------------------------------




----------------------------------------- Iteration    1(  24)  ---------------------------------------


    POTLOK:  cpu time    0.23: real time    0.23
    SETDIJ:  cpu time    0.00: real time    0.01
     EDDAV:  cpu time    0.73: real time    0.73
       DOS:  cpu time    0.00: real time    0.00
    CHARGE:  cpu time    0.04: real time    0.05
    MIXING:  cpu time    0.02: real time    0.02
    --------------------------------------------
      LOOP:  cpu time    1.03: real time    1.04

 eigenvalue-minimisations  :   300
 total energy-change (2. order) :-0.8352059E-02  (-0.2037130E-02)
 number of electron     100.0000469 magnetization       9.8005078
 augmentation part       63.1155594 magnetization       7.7389101

 Broyden mixing:
  rms(total) = 0.14415E+00    rms(broyden)= 0.14352E+00
  rms(prec ) = 0.15589E+00
  weight for this iteration     100.00

 eigenvalues of (default mixing * dielectric matrix)
  average eigenvalue GAMMA=   0.4787
  2.3967  1.0024  1.0024  0.6845  0.6845  0.6511  0.5899  0.5899  0.4520  0.4520
  0.1398  0.0910  0.0567  0.0567  0.0610  0.0610  0.0348  0.0448  0.0448

 Free energy of the ion-electron system (eV)
  ---------------------------------------------------
  alpha Z        PSCENC =         6.56153961
  Ewald energy   TEWEN  =      8483.97734665
  -Hartree energ DENC   =    -18411.85167214
  -exchange      EXHF   =         0.00000000
  -V(xc)+E(xc)   XCENC  =       296.20646576
  PAW double counting   =      9772.74509888   -10442.42123157
  entropy T*S    EENTRO =         0.00000000
  eigenvalues    EBANDS =      -509.62436589
  atomic energy  EATOM  =     10776.35651235
  ---------------------------------------------------
  free energy    TOTEN  =       -28.05030636 eV

  energy without entropy =      -28.05030636  energy(sigma->0) =      -28.05030636


--------------------------------------------------------------------------------------------------------




----------------------------------------- Iteration    1(  25)  ---------------------------------------


    POTLOK:  cpu time    0.23: real time    0.23
    SETDIJ:  cpu time    0.00: real time    0.01
     EDDAV:  cpu time    0.85: real time    0.85
       DOS:  cpu time    0.00: real time    0.00
    CHARGE:  cpu time    0.04: real time    0.05
    MIXING:  cpu time    0.02: real time    0.02
    --------------------------------------------
      LOOP:  cpu time    1.15: real time    1.17

 eigenvalue-minimisations  :   364
 total energy-change (2. order) :-0.1397107E-01  (-0.1550464E-02)
 number of electron     100.0000466 magnetization       9.8156362
 augmentation part       63.1092653 magnetization       7.7595939

 Broyden mixing:
  rms(total) = 0.96021E-01    rms(broyden)= 0.93959E-01
  rms(prec ) = 0.10124E+00
  weight for this iteration     100.00

 eigenvalues of (default mixing * dielectric matrix)
  average eigenvalue GAMMA=   0.4862
  2.3702  0.8866  0.8866  0.6910  0.6910  0.7961  0.6986  0.6986  0.5200  0.4471
  0.4471  0.1398  0.0910  0.0567  0.0567  0.0610  0.0610  0.0348  0.0448  0.0448

 Free energy of the ion-electron system (eV)
  ---------------------------------------------------
  alpha Z        PSCENC =         6.56153961
  Ewald energy   TEWEN  =      8483.97734665
  -Hartree energ DENC   =    -18413.68853238
  -exchange      EXHF   =         0.00000000
  -V(xc)+E(xc)   XCENC  =       296.22018004
  PAW double counting   =      9772.24838531   -10442.24841121
  entropy T*S    EENTRO =         0.00000000
  eigenvalues    EBANDS =      -507.49129779
  atomic energy  EATOM  =     10776.35651235
  ---------------------------------------------------
  free energy    TOTEN  =       -28.06427743 eV

  energy without entropy =      -28.06427743  energy(sigma->0) =      -28.06427743


--------------------------------------------------------------------------------------------------------




----------------------------------------- Iteration    1(  26)  ---------------------------------------


    POTLOK:  cpu time    0.23: real time    0.23
    SETDIJ:  cpu time    0.00: real time    0.01
     EDDAV:  cpu time    0.72: real time    0.72
       DOS:  cpu time    0.00: real time    0.00
    CHARGE:  cpu time    0.05: real time    0.05
    MIXING:  cpu time    0.02: real time    0.02
    --------------------------------------------
      LOOP:  cpu time    1.02: real time    1.04

 eigenvalue-minimisations  :   292
 total energy-change (2. order) :-0.1384242E-01  (-0.9086964E-03)
 number of electron     100.0000465 magnetization       9.8222304
 augmentation part       63.1097798 magnetization       7.7651255

 Broyden mixing:
  rms(total) = 0.13334E+00    rms(broyden)= 0.13203E+00
  rms(prec ) = 0.14279E+00
  weight for this iteration     100.00

 eigenvalues of (default mixing * dielectric matrix)
  average eigenvalue GAMMA=   0.4961
  2.4449  0.8783  0.8288  0.8288  0.7880  0.7880  0.6705  0.6705  0.5061  0.5061
  0.4592  0.4592  0.1398  0.0910  0.0567  0.0567  0.0610  0.0610  0.0348  0.0448
  0.0448

 Free energy of the ion-electron system (eV)
  ---------------------------------------------------
  alpha Z        PSCENC =         6.56153961
  Ewald energy   TEWEN  =      8483.97734665
  -Hartree energ DENC   =    -18414.30540461
  -exchange      EXHF   =         0.00000000
  -V(xc)+E(xc)   XCENC  =       296.21326589
  PAW double counting   =      9771.66902291   -10441.72358149
  entropy T*S    EENTRO =         0.00000000
  eigenvalues    EBANDS =      -506.82682115
  atomic energy  EATOM  =     10776.35651235
  ---------------------------------------------------
  free energy    TOTEN  =       -28.07811985 eV

  energy without entropy =      -28.07811985  energy(sigma->0) =      -28.07811985


--------------------------------------------------------------------------------------------------------




----------------------------------------- Iteration    1(  27)  ---------------------------------------


    POTLOK:  cpu time    0.23: real time    0.23
    SETDIJ:  cpu time    0.01: real time    0.01
     EDDAV:  cpu time    0.80: real time    0.80
       DOS:  cpu time    0.00: real time    0.00
    CHARGE:  cpu time    0.05: real time    0.05
    MIXING:  cpu time    0.02: real time    0.02
    --------------------------------------------
      LOOP:  cpu time    1.10: real time    1.13

 eigenvalue-minimisations  :   336
 total energy-change (2. order) : 0.7533015E-02  (-0.2155723E-03)
 number of electron     100.0000465 magnetization       9.8283176
 augmentation part       63.1125618 magnetization       7.7705464

 Broyden mixing:
  rms(total) = 0.13782E+00    rms(broyden)= 0.13750E+00
  rms(prec ) = 0.14887E+00
  weight for this iteration     100.00

 eigenvalues of (default mixing * dielectric matrix)
  average eigenvalue GAMMA=   0.5230
  2.4715  0.9580  0.9580  0.8823  0.8823  0.6789  0.6789  0.7898  0.5993  0.5993
  0.5189  0.4490  0.4490  0.1398  0.0910  0.0567  0.0567  0.0610  0.0610  0.0348
  0.0448  0.0448

 Free energy of the ion-electron system (eV)
  ---------------------------------------------------
  alpha Z        PSCENC =         6.56153961
  Ewald energy   TEWEN  =      8483.97734665
  -Hartree energ DENC   =    -18414.52976469
  -exchange      EXHF   =         0.00000000
  -V(xc)+E(xc)   XCENC  =       296.21745526
  PAW double counting   =      9771.28274331   -10441.35748446
  entropy T*S    EENTRO =         0.00000000
  eigenvalues    EBANDS =      -506.57893484
  atomic energy  EATOM  =     10776.35651235
  ---------------------------------------------------
  free energy    TOTEN  =       -28.07058683 eV

  energy without entropy =      -28.07058683  energy(sigma->0) =      -28.07058683


--------------------------------------------------------------------------------------------------------




----------------------------------------- Iteration    1(  28)  ---------------------------------------


    POTLOK:  cpu time    0.23: real time    0.23
    SETDIJ:  cpu time    0.00: real time    0.01
     EDDAV:  cpu time    0.73: real time    0.73
       DOS:  cpu time    0.00: real time    0.00
    CHARGE:  cpu time    0.05: real time    0.05
    MIXING:  cpu time    0.02: real time    0.02
    --------------------------------------------
      LOOP:  cpu time    1.04: real time    1.06

 eigenvalue-minimisations  :   300
 total energy-change (2. order) : 0.3721614E-02  (-0.9738152E-04)
 number of electron     100.0000465 magnetization       9.8401385
 augmentation part       63.1128026 magnetization       7.7826703

 Broyden mixing:
  rms(total) = 0.12509E+00    rms(broyden)= 0.12496E+00
  rms(prec ) = 0.13540E+00
  weight for this iteration     100.00

 eigenvalues of (default mixing * dielectric matrix)
  average eigenvalue GAMMA=   0.5567
  2.4335  1.1823  1.1823  0.9725  0.9725  0.6818  0.6818  0.6843  0.6843  0.6873
  0.5698  0.5698  0.4560  0.4560  0.1398  0.0910  0.0567  0.0567  0.0610  0.0610
  0.0348  0.0448  0.0448

 Free energy of the ion-electron system (eV)
  ---------------------------------------------------
  alpha Z        PSCENC =         6.56153961
  Ewald energy   TEWEN  =      8483.97734665
  -Hartree energ DENC   =    -18414.78202283
  -exchange      EXHF   =         0.00000000
  -V(xc)+E(xc)   XCENC  =       296.22049666
  PAW double counting   =      9771.02889838   -10441.12528224
  entropy T*S    EENTRO =         0.00000000
  eigenvalues    EBANDS =      -506.30435378
  atomic energy  EATOM  =     10776.35651235
  ---------------------------------------------------
  free energy    TOTEN  =       -28.06686522 eV

  energy without entropy =      -28.06686522  energy(sigma->0) =      -28.06686522


--------------------------------------------------------------------------------------------------------




----------------------------------------- Iteration    1(  29)  ---------------------------------------


    POTLOK:  cpu time    0.23: real time    0.23
    SETDIJ:  cpu time    0.01: real time    0.01
     EDDAV:  cpu time    0.66: real time    0.66
       DOS:  cpu time    0.00: real time    0.00
    CHARGE:  cpu time    0.05: real time    0.05
    MIXING:  cpu time    0.02: real time    0.02
    --------------------------------------------
      LOOP:  cpu time    0.96: real time    1.62

 eigenvalue-minimisations  :   260
 total energy-change (2. order) :-0.6643309E-02  (-0.2644961E-03)
 number of electron     100.0000464 magnetization       9.8511243
 augmentation part       63.1107851 magnetization       7.7928054

 Broyden mixing:
  rms(total) = 0.99280E-01    rms(broyden)= 0.98887E-01
  rms(prec ) = 0.10694E+00
  weight for this iteration     100.00

 eigenvalues of (default mixing * dielectric matrix)
  average eigenvalue GAMMA=   0.5822
  2.5562  1.2323  1.2323  0.9044  0.9044  0.8886  0.8886  0.6797  0.6797  0.7120
  0.6083  0.6083  0.5809  0.4527  0.4527  0.1398  0.0910  0.0567  0.0567  0.0610
  0.0610  0.0348  0.0448  0.0448

 Free energy of the ion-electron system (eV)
  ---------------------------------------------------
  alpha Z        PSCENC =         6.56153961
  Ewald energy   TEWEN  =      8483.97734665
  -Hartree energ DENC   =    -18415.29980852
  -exchange      EXHF   =         0.00000000
  -V(xc)+E(xc)   XCENC  =       296.21986351
  PAW double counting   =      9770.64851413   -10440.78999502
  entropy T*S    EENTRO =         0.00000000
  eigenvalues    EBANDS =      -505.74748122
  atomic energy  EATOM  =     10776.35651235
  ---------------------------------------------------
  free energy    TOTEN  =       -28.07350853 eV

  energy without entropy =      -28.07350853  energy(sigma->0) =      -28.07350853


--------------------------------------------------------------------------------------------------------




----------------------------------------- Iteration    1(  30)  ---------------------------------------


    POTLOK:  cpu time    0.23: real time    0.23
    SETDIJ:  cpu time    0.00: real time    0.01
     EDDAV:  cpu time    0.75: real time    0.75
       DOS:  cpu time    0.00: real time    0.00
    CHARGE:  cpu time    0.05: real time    0.05
    MIXING:  cpu time    0.02: real time    0.02
    --------------------------------------------
      LOOP:  cpu time    1.05: real time    1.09

 eigenvalue-minimisations  :   308
 total energy-change (2. order) :-0.2462526E-02  (-0.2293025E-03)
 number of electron     100.0000463 magnetization       9.8647732
 augmentation part       63.1114506 magnetization       7.8058795

 Broyden mixing:
  rms(total) = 0.67184E-01    rms(broyden)= 0.66590E-01
  rms(prec ) = 0.71559E-01
  weight for this iteration     100.00

 eigenvalues of (default mixing * dielectric matrix)
  average eigenvalue GAMMA=   0.6160
  2.6073  1.3837  1.3837  1.1809  1.1809  0.8985  0.8985  0.6794  0.6794  0.6122
  0.6122  0.5991  0.5930  0.5930  0.4533  0.4533  0.1398  0.0910  0.0567  0.0567
  0.0610  0.0610  0.0348  0.0448  0.0448

 Free energy of the ion-electron system (eV)
  ---------------------------------------------------
  alpha Z        PSCENC =         6.56153961
  Ewald energy   TEWEN  =      8483.97734665
  -Hartree energ DENC   =    -18415.73715396
  -exchange      EXHF   =         0.00000000
  -V(xc)+E(xc)   XCENC  =       296.22118307
  PAW double counting   =      9770.19155412   -10440.37083399
  entropy T*S    EENTRO =         0.00000000
  eigenvalues    EBANDS =      -505.27611889
  atomic energy  EATOM  =     10776.35651235
  ---------------------------------------------------
  free energy    TOTEN  =       -28.07597105 eV

  energy without entropy =      -28.07597105  energy(sigma->0) =      -28.07597105


--------------------------------------------------------------------------------------------------------




----------------------------------------- Iteration    1(  31)  ---------------------------------------


    POTLOK:  cpu time    0.23: real time    0.23
    SETDIJ:  cpu time    0.00: real time    0.01
     EDDAV:  cpu time    0.70: real time    0.70
       DOS:  cpu time    0.00: real time    0.00
    CHARGE:  cpu time    0.05: real time    0.05
    MIXING:  cpu time    0.02: real time    0.02
    --------------------------------------------
      LOOP:  cpu time    1.01: real time    1.43

 eigenvalue-minimisations  :   284
 total energy-change (2. order) :-0.5222335E-02  (-0.1387377E-03)
 number of electron     100.0000463 magnetization       9.8774184
 augmentation part       63.1124110 magnetization       7.8172963

 Broyden mixing:
  rms(total) = 0.81887E-01    rms(broyden)= 0.81689E-01
  rms(prec ) = 0.88375E-01
  weight for this iteration     100.00

 eigenvalues of (default mixing * dielectric matrix)
  average eigenvalue GAMMA=   0.6297
  2.5604  1.4953  1.4953  1.2546  1.2546  0.8857  0.8857  0.6794  0.6794  0.6528
  0.6528  0.5981  0.5981  0.6202  0.5636  0.4532  0.4532  0.1398  0.0910  0.0567
  0.0567  0.0610  0.0610  0.0348  0.0448  0.0448

 Free energy of the ion-electron system (eV)
  ---------------------------------------------------
  alpha Z        PSCENC =         6.56153961
  Ewald energy   TEWEN  =      8483.97734665
  -Hartree energ DENC   =    -18416.25910201
  -exchange      EXHF   =         0.00000000
  -V(xc)+E(xc)   XCENC  =       296.22197725
  PAW double counting   =      9769.75189361   -10439.95865990
  entropy T*S    EENTRO =         0.00000000
  eigenvalues    EBANDS =      -504.73270093
  atomic energy  EATOM  =     10776.35651235
  ---------------------------------------------------
  free energy    TOTEN  =       -28.08119339 eV

  energy without entropy =      -28.08119339  energy(sigma->0) =      -28.08119339


--------------------------------------------------------------------------------------------------------




----------------------------------------- Iteration    1(  32)  ---------------------------------------


    POTLOK:  cpu time    0.23: real time    0.23
    SETDIJ:  cpu time    0.01: real time    0.01
     EDDAV:  cpu time    0.65: real time    0.65
       DOS:  cpu time    0.00: real time    0.00
    CHARGE:  cpu time    0.05: real time    0.05
    MIXING:  cpu time    0.02: real time    0.02
    --------------------------------------------
      LOOP:  cpu time    0.96: real time    0.96

 eigenvalue-minimisations  :   256
 total energy-change (2. order) :-0.3057287E-02  (-0.9137162E-04)
 number of electron     100.0000463 magnetization       9.8932496
 augmentation part       63.1130813 magnetization       7.8311820

 Broyden mixing:
  rms(total) = 0.77560E-01    rms(broyden)= 0.77317E-01
  rms(prec ) = 0.83435E-01
  weight for this iteration     100.00

 eigenvalues of (default mixing * dielectric matrix)
  average eigenvalue GAMMA=   0.6475
  2.5549  1.5954  1.5954  1.0917  1.0917  0.9633  0.9633  0.8539  0.8539  0.6810
  0.6810  0.6127  0.6127  0.6172  0.6172  0.6005  0.4531  0.4531  0.1398  0.0910
  0.0567  0.0567  0.0610  0.0610  0.0348  0.0448  0.0448

 Free energy of the ion-electron system (eV)
  ---------------------------------------------------
  alpha Z        PSCENC =         6.56153961
  Ewald energy   TEWEN  =      8483.97734665
  -Hartree energ DENC   =    -18416.73166211
  -exchange      EXHF   =         0.00000000
  -V(xc)+E(xc)   XCENC  =       296.22234136
  PAW double counting   =      9769.33168684   -10439.55112899
  entropy T*S    EENTRO =        -0.00000000
  eigenvalues    EBANDS =      -504.25088638
  atomic energy  EATOM  =     10776.35651235
  ---------------------------------------------------
  free energy    TOTEN  =       -28.08425068 eV

  energy without entropy =      -28.08425068  energy(sigma->0) =      -28.08425068


--------------------------------------------------------------------------------------------------------




----------------------------------------- Iteration    1(  33)  ---------------------------------------


    POTLOK:  cpu time    0.23: real time    0.23
    SETDIJ:  cpu time    0.01: real time    0.01
     EDDAV:  cpu time    0.60: real time    0.60
       DOS:  cpu time    0.00: real time    0.00
    CHARGE:  cpu time    0.04: real time    0.05
    MIXING:  cpu time    0.02: real time    0.02
    --------------------------------------------
      LOOP:  cpu time    0.90: real time    1.79

 eigenvalue-minimisations  :   224
 total energy-change (2. order) :-0.3616743E-02  (-0.1717113E-03)
 number of electron     100.0000462 magnetization       9.9047894
 augmentation part       63.1139500 magnetization       7.8415233

 Broyden mixing:
  rms(total) = 0.60770E-01    rms(broyden)= 0.60155E-01
  rms(prec ) = 0.64336E-01
  weight for this iteration     100.00

 eigenvalues of (default mixing * dielectric matrix)
  average eigenvalue GAMMA=   0.6701
  2.5340  1.8817  1.8817  1.0737  1.0737  0.9292  0.9292  0.9680  0.9680  0.6800
  0.6800  0.6134  0.6134  0.6143  0.6143  0.6389  0.5720  0.4532  0.4532  0.1398
  0.0910  0.0567  0.0567  0.0610  0.0610  0.0348  0.0448  0.0448

 Free energy of the ion-electron system (eV)
  ---------------------------------------------------
  alpha Z        PSCENC =         6.56153961
  Ewald energy   TEWEN  =      8483.97734665
  -Hartree energ DENC   =    -18417.31914028
  -exchange      EXHF   =         0.00000000
  -V(xc)+E(xc)   XCENC  =       296.22410013
  PAW double counting   =      9768.75977070   -10438.99332441
  entropy T*S    EENTRO =         0.00000000
  eigenvalues    EBANDS =      -503.65467216
  atomic energy  EATOM  =     10776.35651235
  ---------------------------------------------------
  free energy    TOTEN  =       -28.08786742 eV

  energy without entropy =      -28.08786742  energy(sigma->0) =      -28.08786742


--------------------------------------------------------------------------------------------------------




----------------------------------------- Iteration    1(  34)  ---------------------------------------


[...]
 
 
 
 E-fermi :  -3.8419     XC(G=0):  -0.4836     alpha+bet : -0.2304


 spin component 1

 k-point     1 :       0.0000    0.0000    0.0000
  band No.  band energies     occupation 
      1      -9.7801      1.00000
      2      -8.1797      1.00000
      3      -7.6919      1.00000
      4      -7.6343      1.00000
      5      -7.4083      1.00000
      6      -7.3202      1.00000
      7      -7.2031      1.00000
      8      -7.1806      1.00000
      9      -7.1435      1.00000
     10      -7.1019      1.00000
     11      -7.0917      1.00000
     12      -7.0098      1.00000
     13      -6.9606      1.00000
     14      -6.9215      1.00000
     15      -6.8024      1.00000
     16      -6.7832      1.00000
     17      -6.5399      1.00000
     18      -6.3873      1.00000
     19      -6.3371      1.00000
     20      -6.1201      1.00000
     21      -6.0350      1.00000
     22      -5.9623      1.00000
     23      -5.9591      1.00000
     24      -5.8376      1.00000
     25      -5.7603      1.00000
     26      -5.7210      1.00000
     27      -5.5939      1.00000
     28      -5.5761      1.00000
     29      -5.3531      1.00000
     30      -5.2492      1.00000
     31      -5.2413      1.00000
     32      -5.1793      1.00000
     33      -5.1527      1.00000
     34      -5.1342      1.00000
     35      -5.1065      1.00000
     36      -5.0884      1.00000
     37      -5.0286      1.00000
     38      -4.9918      1.00000
     39      -4.9500      1.00000
     40      -4.9268      1.00000
     41      -4.8867      1.00000
     42      -4.8184      1.00000
     43      -4.7827      1.00000
     44      -4.7292      1.00000
     45      -4.6843      1.00000
     46      -4.6707      1.00000
     47      -4.6472      1.00000
     48      -4.6367      1.00000
     49      -4.6257      1.00000
     50      -4.5778      1.00000
     51      -4.5371      1.00000
     52      -4.5173      1.00000
     53      -4.4899      1.00000
     54      -4.4858      1.00000
     55      -3.7481      0.00000
     56      -3.0134      0.00000
     57      -2.8160      0.00000
     58      -2.4821      0.00000
     59      -2.4425      0.00000
     60      -2.1027      0.00000
     61      -1.4483      0.00000
     62      -0.6591      0.00000
     63      -0.5185      0.00000
     64      -0.2110      0.00000
     65      -0.0201      0.00000
     66       0.0490      0.00000
     67       0.1243      0.00000
     68       0.1553      0.00000

 spin component 2

 k-point     1 :       0.0000    0.0000    0.0000
  band No.  band energies     occupation 
      1      -9.7796      1.00000
      2      -8.0326      1.00000
      3      -7.3894      1.00000
      4      -7.2310      1.00000
      5      -6.9964      1.00000
      6      -6.7811      1.00000
      7      -6.6041      1.00000
      8      -6.4450      1.00000
      9      -6.4295      1.00000
     10      -6.3536      1.00000
     11      -6.3036      1.00000
     12      -6.2211      1.00000
     13      -6.1782      1.00000
     14      -6.1302      1.00000
     15      -6.0316      1.00000
     16      -6.0190      1.00000
     17      -5.8658      1.00000
     18      -5.7648      1.00000
     19      -5.4524      1.00000
     20      -5.4301      1.00000
     21      -5.2566      1.00000
     22      -5.1649      1.00000
     23      -5.1376      1.00000
     24      -5.0162      1.00000
     25      -4.9733      1.00000
     26      -4.9549      1.00000
     27      -4.9167      1.00000
     28      -4.8801      1.00000
     29      -4.6531      1.00000
     30      -4.5666      1.00000
     31      -4.5449      1.00000
     32      -4.5266      1.00000
     33      -4.5142      1.00000
     34      -4.4614      1.00000
     35      -4.4494      1.00000
     36      -4.3354      1.00000
     37      -4.3136      1.00000
     38      -4.2015      1.00000
     39      -4.1298      1.00000
     40      -4.1178      1.00000
     41      -4.0624      1.00000
     42      -3.9932      1.00000
     43      -3.9895      1.00000
     44      -3.9797      1.00000
     45      -3.9619      1.00000
     46      -3.8435      1.00000
     47      -3.8140      0.00000
     48      -3.8060      0.00000
     49      -3.7225      0.00000
     50      -3.6737      0.00000
     51      -3.6642      0.00000
     52      -3.6383      0.00000
     53      -3.6225      0.00000
     54      -3.5509      0.00000
     55      -3.4432      0.00000
     56      -2.8424      0.00000
     57      -2.5448      0.00000
     58      -2.2739      0.00000
     59      -2.1899      0.00000
     60      -1.9064      0.00000
     61      -1.2957      0.00000
     62      -0.5933      0.00000
     63      -0.4097      0.00000
     64      -0.1268      0.00000
     65       0.0087      0.00000
     66       0.1150      0.00000
     67       0.1671      0.00000
     68       0.2253      0.00000


--------------------------------------------------------------------------------------------------------


 soft charge-density along one line, spin component           1
         0         1         2         3         4         5         6         7         8         9
 total charge-density along one line
 
 soft charge-density along one line, spin component           2
         0         1         2         3         4         5         6         7         8         9
 total charge-density along one line
 
 pseudopotential strength for first ion, spin component:           1
-10.099  -0.127  -0.012  -0.111  -0.056 -10.378  -0.121  -0.011
 -0.127  -9.925  -0.010   0.042   0.123  -0.121 -10.210  -0.010
 -0.012  -0.010 -10.218   0.034  -0.001  -0.011  -0.010 -10.492
 -0.111   0.042   0.034  -9.925  -0.102  -0.106   0.041   0.033
 -0.056   0.123  -0.001  -0.102 -10.013  -0.054   0.117  -0.001
-10.378  -0.121  -0.011  -0.106  -0.054 -10.601  -0.116  -0.010
 -0.121 -10.210  -0.010   0.041   0.117  -0.116 -10.441  -0.009
 -0.011  -0.010 -10.492   0.033  -0.001  -0.010  -0.009 -10.711
 -0.106   0.041   0.033 -10.211  -0.097  -0.101   0.039   0.032
 -0.054   0.117  -0.001  -0.097 -10.295  -0.052   0.112  -0.001
 -0.007   0.028  -0.001   0.025  -0.001  -0.007   0.028  -0.000
 -0.013   0.049  -0.001   0.044  -0.001  -0.013   0.048  -0.001
  0.004  -0.011  -0.003  -0.002  -0.008   0.004  -0.010  -0.002
 -0.002   0.008  -0.000   0.006   0.001  -0.002   0.008  -0.000
  0.005  -0.002  -0.002  -0.010   0.005   0.005  -0.002  -0.002
  0.004  -0.011  -0.002  -0.002  -0.008   0.003  -0.010  -0.002
 -0.002   0.008   0.003   0.005   0.001  -0.002   0.007   0.003
  0.004  -0.002  -0.002  -0.009   0.005   0.003  -0.002  -0.002
 pseudopotential strength for first ion, spin component:           2
 -9.251  -0.034  -0.044  -0.068   0.030  -9.568  -0.032  -0.043
 -0.034  -9.331  -0.066   0.022   0.061  -0.032  -9.646  -0.063
 -0.044  -0.066  -9.198  -0.076   0.008  -0.043  -0.063  -9.517
 -0.068   0.022  -0.076  -9.343  -0.045  -0.065   0.021  -0.073
  0.030   0.061   0.008  -0.045  -9.289   0.029   0.058   0.007
 -9.568  -0.032  -0.043  -0.065   0.029  -9.829  -0.031  -0.041
 -0.032  -9.646  -0.063   0.021   0.058  -0.031  -9.905  -0.060
 -0.043  -0.063  -9.517  -0.073   0.007  -0.041  -0.060  -9.780
 -0.065   0.021  -0.073  -9.657  -0.043  -0.062   0.020  -0.070
  0.029   0.058   0.007  -0.043  -9.605   0.028   0.056   0.007
 -0.010   0.017  -0.001   0.013   0.002  -0.009   0.017  -0.001
 -0.017   0.030  -0.001   0.022   0.004  -0.016   0.029  -0.001
  0.007  -0.012  -0.006  -0.000  -0.010   0.006  -0.011  -0.006
 -0.000   0.011  -0.015   0.008   0.000  -0.000   0.011  -0.014
  0.012  -0.000  -0.004  -0.011   0.008   0.011  -0.000  -0.003
  0.007  -0.011  -0.007   0.000  -0.011   0.007  -0.010  -0.007
  0.000   0.012  -0.018   0.009   0.000   0.000   0.011  -0.016
  0.013   0.000  -0.004  -0.011   0.008   0.012   0.000  -0.003
 total augmentation occupancy for first ion, spin component:           1
  2.468  -0.280  -0.274  -0.240  -0.162  -0.959   0.123   0.191   0.115   0.057   0.354   0.010   0.110   0.061   0.113   0.002
 -0.280   3.119  -0.057   0.067   0.340   0.110  -1.165   0.054   0.049  -0.169  -0.327  -0.014  -0.180   0.063   0.086  -0.002
 -0.274  -0.057   2.370   0.147   0.033   0.181   0.071  -0.999  -0.035  -0.023   0.056   0.011  -0.118  -0.182  -0.115   0.004
 -0.240   0.067   0.147   3.167  -0.357   0.091   0.045  -0.049  -1.219   0.226  -0.197  -0.025   0.086   0.071  -0.211  -0.008
 -0.162   0.340   0.033  -0.357   2.796   0.059  -0.174  -0.020   0.237  -1.086  -0.066   0.005  -0.196  -0.010   0.202   0.006
 -0.959   0.110   0.181   0.091   0.059   1.137  -0.025  -0.102  -0.023  -0.009  -0.333   0.007  -0.141  -0.094  -0.144   0.010
  0.123  -1.165   0.071   0.045  -0.174  -0.025   1.097  -0.037  -0.135   0.065   0.309   0.003   0.178  -0.081  -0.103  -0.014
  0.191   0.054  -0.999  -0.049  -0.020  -0.102  -0.037   1.222   0.001   0.011  -0.089   0.004   0.150   0.283   0.149  -0.012
  0.115   0.049  -0.035  -1.219   0.237  -0.023  -0.135   0.001   1.150  -0.156   0.193   0.015  -0.106  -0.087   0.225   0.009
  0.057  -0.169  -0.023   0.226  -1.086  -0.009   0.065   0.011  -0.156   1.164   0.043  -0.005   0.211   0.018  -0.221  -0.018
  0.354  -0.327   0.056  -0.197  -0.066  -0.333   0.309  -0.089   0.193   0.043   2.025  -0.196  -0.159   0.217  -0.153   0.028
  0.010  -0.014   0.011  -0.025   0.005   0.007   0.003   0.004   0.015  -0.005  -0.196   0.027   0.025  -0.033   0.027  -0.004
  0.110  -0.180  -0.118   0.086  -0.196  -0.141   0.178   0.150  -0.106   0.211  -0.159   0.025   0.201   0.026  -0.034  -0.018
  0.061   0.063  -0.182   0.071  -0.010  -0.094  -0.081   0.283  -0.087   0.018   0.217  -0.033   0.026   0.172   0.018   0.000
  0.113   0.086  -0.115  -0.211   0.202  -0.144  -0.103   0.149   0.225  -0.221  -0.153   0.027  -0.034   0.018   0.207   0.001
  0.002  -0.002   0.004  -0.008   0.006   0.010  -0.014  -0.012   0.009  -0.018   0.028  -0.004  -0.018   0.000   0.001   0.002
 -0.006   0.008  -0.001   0.003   0.002   0.008   0.006  -0.022   0.008  -0.003  -0.036   0.005  -0.000  -0.017   0.001  -0.000
  0.002  -0.008   0.003   0.002  -0.008   0.011   0.010  -0.012  -0.019   0.020   0.027  -0.004   0.001   0.001  -0.019   0.000
 total augmentation occupancy for first ion, spin component:           2
  1.253   0.303  -0.036   0.139   0.240  -0.587  -0.153   0.003  -0.082  -0.108  -0.015   0.008  -0.007   0.031   0.031   0.003
  0.303   0.546  -0.074  -0.092  -0.233  -0.147  -0.264   0.023   0.046   0.119   0.001  -0.007   0.027   0.016   0.007  -0.003
 -0.036  -0.074   1.682  -0.278   0.032   0.013   0.007  -0.785   0.118  -0.012   0.035   0.019  -0.033  -0.099  -0.012  -0.001
  0.139  -0.092  -0.278   0.458   0.227  -0.053   0.054   0.133  -0.207  -0.113   0.010  -0.003   0.003   0.019   0.019   0.001
  0.240  -0.233   0.032   0.227   0.960  -0.116   0.124  -0.020  -0.129  -0.466   0.015   0.001   0.012  -0.005  -0.005  -0.002
 -0.587  -0.147   0.013  -0.053  -0.116   0.174   0.065  -0.005   0.027   0.046   0.013  -0.008   0.011  -0.010  -0.010  -0.002
 -0.153  -0.264   0.007   0.054   0.124   0.065   0.057   0.004  -0.022  -0.055  -0.008   0.007  -0.018  -0.003  -0.001   0.003
  0.003   0.023  -0.785   0.133  -0.020  -0.005   0.004   0.265  -0.051   0.006  -0.010  -0.010   0.011   0.032  -0.001   0.001
 -0.082   0.046   0.118  -0.207  -0.129   0.027  -0.022  -0.051   0.023   0.056  -0.014   0.005   0.003  -0.005  -0.015  -0.001
 -0.108   0.119  -0.012  -0.113  -0.466   0.046  -0.055   0.006   0.056   0.137  -0.006  -0.000  -0.010   0.003   0.008   0.002
 -0.015   0.001   0.035   0.010   0.015   0.013  -0.008  -0.010  -0.014  -0.006  -0.139   0.046   0.006  -0.026   0.010  -0.001
  0.008  -0.007   0.019  -0.003   0.001  -0.008   0.007  -0.010   0.005  -0.000   0.046  -0.006  -0.003   0.003  -0.002   0.001
 -0.007   0.027  -0.033   0.003   0.012   0.011  -0.018   0.011   0.003  -0.010   0.006  -0.003  -0.019   0.002   0.006   0.002
  0.031   0.016  -0.099   0.019  -0.005  -0.010  -0.003   0.032  -0.005   0.003  -0.026   0.003   0.002   0.001  -0.001   0.000
  0.031   0.007  -0.012   0.019  -0.005  -0.010  -0.001  -0.001  -0.015   0.008   0.010  -0.002   0.006  -0.001  -0.014  -0.000
  0.003  -0.003  -0.001   0.001  -0.002  -0.002   0.003   0.001  -0.001   0.002  -0.001   0.001   0.002   0.000  -0.000  -0.000
  0.001   0.003  -0.008   0.002  -0.001  -0.001  -0.002   0.004  -0.002   0.000   0.002  -0.001   0.000   0.001   0.000   0.000
  0.004   0.001  -0.002  -0.003   0.004  -0.002  -0.001   0.002   0.003  -0.003  -0.002   0.001  -0.000   0.000   0.002   0.000


------------------------ aborting loop because EDIFF is reached ----------------------------------------


    CHARGE:  cpu time    0.04: real time    0.05
    FORLOC:  cpu time    0.01: real time    0.01
    FORNL :  cpu time    0.26: real time    0.26
    STRESS:  cpu time    0.34: real time    0.34
    FORCOR:  cpu time    0.22: real time    0.22
    FORHAR:  cpu time    0.03: real time    0.03
    MIXING:  cpu time    0.01: real time    0.01
    OFIELD:  cpu time    0.00: real time    0.00

  FORCE on cell =-STRESS in cart. coord.  units (eV):
  Direction    XX          YY          ZZ          XY          YZ          ZX
  --------------------------------------------------------------------------------------
  Alpha Z     6.56154     6.56154     6.56154
  Ewald    3967.03819  5818.67832  2899.66945 -1093.01777  -117.46865   418.10195
  Hartree  7301.98165  8886.73974  6372.32305  -923.12260   -99.54710   363.37849
  E(xc)    -547.96444  -547.44270  -548.23568    -0.35737    -0.03358     0.08783
  Local  -13167.52019-16598.11218-11165.18822  2010.38128   215.63846  -786.38209
  n-local  -106.39059  -105.98090  -108.19802    -0.51167     0.32875     0.54609
  augment  1765.12876  1761.90874  1762.67213     3.59170     0.61210     2.93982
  Kinetic   778.97334   775.59434   778.20266     2.93007     0.50688     1.37366
  Fock        0.00000     0.00000     0.00000     0.00000     0.00000     0.00000
  -------------------------------------------------------------------------------------
  Total      -2.19174    -2.05310    -2.19308    -0.10636     0.03686     0.04575
  in kB      -0.45179    -0.42322    -0.45207    -0.02192     0.00760     0.00943
  external pressure =       -0.44 kB  Pullay stress =        0.00 kB


 VOLUME and BASIS-vectors are now :
 -----------------------------------------------------------------------------
  energy-cutoff  :      269.53
  volume of cell :     7772.47
      direct lattice vectors                 reciprocal lattice vectors
    19.808569196  0.000000000  0.000000000     0.050483202  0.000000000  0.000000000
     0.000000000 19.808569196  0.000000000     0.000000000  0.050483202  0.000000000
     0.000000000  0.000000000 19.808569196     0.000000000  0.000000000  0.050483202

  length of vectors
    19.808569196 19.808569196 19.808569196     0.050483202  0.050483202  0.050483202


 FORCES acting on ions
    electron-ion (+dipol)            ewald-force                    non-local-force                 convergence-correction
 -----------------------------------------------------------------------------------------------
   -.495E+03 -.634E+03 0.704E+03   0.494E+03 0.632E+03 -.701E+03   0.126E+01 0.171E+01 -.225E+01   0.776E-01 -.644E-01 -.819E-01
   0.475E+03 -.992E+03 0.139E+03   -.471E+03 0.984E+03 -.137E+03   -.373E+01 0.851E+01 -.120E+01   0.520E-01 0.266E-01 -.101E+00
   0.766E+03 -.315E+02 0.802E+03   -.762E+03 0.317E+02 -.799E+03   -.338E+01 -.209E+00 -.375E+01   0.806E-01 -.153E-01 -.119E+00
   -.372E+03 -.781E+03 -.697E+03   0.370E+03 0.778E+03 0.693E+03   0.211E+01 0.371E+01 0.369E+01   0.118E+00 -.475E-01 -.481E-01
   -.111E+04 -.312E+02 -.716E+02   0.110E+04 0.307E+02 0.713E+02   0.558E+01 0.541E+00 0.291E+00   0.486E-02 -.420E-01 -.434E-01
   -.277E+03 0.480E+03 0.936E+03   0.275E+03 -.479E+03 -.932E+03   0.125E+01 -.167E+01 -.377E+01   0.840E-01 0.260E-01 0.678E-03
   -.473E+03 0.993E+03 -.138E+03   0.468E+03 -.985E+03 0.137E+03   0.415E+01 -.832E+01 0.141E+01   0.508E-01 0.293E-01 -.832E-02
   -.111E+03 0.301E+03 -.102E+04   0.111E+03 -.300E+03 0.102E+04   -.788E-03 -.107E+01 0.320E+01   0.138E+00 -.862E-01 -.104E-01
   0.878E+03 -.149E+03 -.621E+03   -.875E+03 0.148E+03 0.618E+03   -.310E+01 0.622E+00 0.265E+01   0.364E-01 -.384E-01 -.216E-01
   0.714E+03 0.844E+03 -.307E+02   -.711E+03 -.841E+03 0.306E+02   -.346E+01 -.351E+01 0.145E+00   0.104E+00 -.556E-01 -.403E-01
 -----------------------------------------------------------------------------------------------
   -.139E+01 -.399E-01 0.831E-01   -.114E-12 -.227E-12 -.313E-12   0.683E+00 0.301E+00 0.415E+00   0.746E+00 -.268E+00 -.473E+00
 
 
 POSITION                                       TOTAL-FORCE (eV/Angst)
 -----------------------------------------------------------------------------------
      8.96320      9.53681      7.24893        -0.050363     -0.028442     -0.015835
      7.12211     10.73056      7.98101         0.030709      0.059402      0.010145
      6.86597      8.59327      6.96231        -0.012129     -0.028989      0.001934
      8.87172      9.90234      9.46101        -0.003516     -0.027195     -0.003269
     10.33028      8.13339      8.50585        -0.000324      0.036556      0.005230
      8.82850      7.24877      6.86362         0.035137     -0.024852      0.011719
      9.46242      5.87455      8.62181         0.050678      0.008126      0.006946
      8.64888      7.62332      9.90490        -0.019138     -0.031153     -0.040366
      6.76577      8.80009      9.20321        -0.004653      0.062510      0.006540
      7.23186      6.64760      8.33807        -0.026401     -0.025964      0.016955
 -----------------------------------------------------------------------------------
    total drift:                                0.038607     -0.006163      0.024637


--------------------------------------------------------------------------------------------------------



  FREE ENERGIE OF THE ION-ELECTRON SYSTEM (eV)
  ---------------------------------------------------
  free  energy   TOTEN  =       -36.53580037 eV

  energy  without entropy=      -36.53580037  energy(sigma->0) =      -36.53580037
 
 d Force = 0.3075160E-04[ 0.279E-04, 0.336E-04]  d Energy = 0.2359995E-03-0.205E-03
 d Force =-0.4400066E+00[-0.440E+00,-0.440E+00]  d Ewald  =-0.4400066E+00 0.150E-08


--------------------------------------------------------------------------------------------------------


    POTLOK:  cpu time    0.24: real time    0.24


--------------------------------------------------------------------------------------------------------




--------------------------------------------------------------------------------------------------------


  
 reached required accuracy - stopping structural energy minimisation
     LOOP+:  cpu time    5.52: real time    5.89
    4ORBIT:  cpu time    0.00: real time    0.00

 total amount of memory used by VASP on root node    54409. kBytes
========================================================================

   base      :      30000. kBytes
   nonl-proj :       1484. kBytes
   fftplans  :       5777. kBytes
   grid      :      14451. kBytes
   one-center:         31. kBytes
   wavefun   :       2666. kBytes
 
  
  
 General timing and accounting informations for this job:
 ========================================================
  
                  Total CPU time used (sec):      477.282
                            User time (sec):      470.245
                          System time (sec):        7.036
                         Elapsed time (sec):      548.251
  
                   Maximum memory used (kb):       64964.
                   Average memory used (kb):           0.
  
                          Minor page faults:      1246346
                          Major page faults:            0
                 Voluntary context switches:        10364
