19
Energy = -103.77300893 eV
Rh 9.797934887267116 8.643470011327068 12.993169078183229
Rh 12.422057880015139 9.156112131251101 12.77620262537402
Rh 8.493616913343123 10.987995343206991 12.99088978785595
Rh 12.740582840328019 11.813684371512338 12.641561314624706
Rh 10.313653243278944 12.94817447966606 12.773697204105636
Rh 12.863851542489327 10.332674269892602 10.406990419433951
Rh 11.547701664076612 12.697373650831938 10.405682914818945
Rh 11.027672141790053 8.3564134088127 10.625419617461176
Rh 8.90160392633273 12.180934717921895 10.622932431410556
Rh 8.581466381880542 9.50040286275618 10.759029714278043
Rh 9.976074257888751 12.753007838065372 8.234495328710585
Rh 8.160153516666705 10.79592104163575 8.448850755131168
Rh 12.400673432331851 11.62111598457063 8.101812551168324
Rh 9.46287655885652 8.45548643354875 8.449323575349142
Rh 12.0822933101215 8.966984032632674 8.23356566813238
Rh 10.857414189297497 10.767856825018896 14.255572998964105
Rh 10.675172127907448 10.665742688912315 11.781657522673633
Rh 10.495524167481642 10.562568081353879 9.361798345955677
Rh 10.312568630667531 10.461668996982896 6.87721878536671
