19
Energy = -104.29430674 eV
Rh 7.140161327198887 6.5504716366243345 7.948929715522557
Rh 9.57872978097298 6.941123673380678 8.18901754000571
Rh 7.86800753376331 7.374959078722391 10.236480437390396
Rh 8.013843424296828 8.893312892878704 7.3401120876748625
Rh 6.075383278521554 8.635154644736028 8.992686549072577
Rh 10.793976183040177 7.25474820445915 10.379155715213708
Rh 10.702075891181835 8.683648411212824 6.855211587358588
Rh 9.234478230263374 8.466878832911686 12.112853040209902
Rh 9.442345928630518 9.169667107771604 9.501109919386296
Rh 6.944704951427683 9.487112782256983 11.323299670938876
Rh 11.89882642642615 9.452128470871008 8.82813406608739
Rh 11.38821751820136 9.627783639191096 11.322775491069926
Rh 7.5027633899282815 10.722042647648886 9.163167556207979
Rh 13.2875325568702 10.930837424907008 10.301209292047266
Rh 9.63194217125411 10.877234402851355 7.652033640893556
Rh 9.072614529771073 10.89105425653986 11.29526947177144
Rh 11.634512061724312 11.982951683982682 8.69330446192535
Rh 11.23300000873846 12.173505020022628 11.135044992719148
Rh 9.239736354521334 12.616020513406339 9.447429135804061
