17
Energy = -91.28692979 eV
Rh 10.738226119799936 8.70972775537182 12.936883344774989
Rh 11.030826559546092 9.21468782302714 10.377297920681421
Rh 11.022670875888178 6.799342262781805 11.291870376111373
Rh 12.256020387395045 11.441197364281484 10.421085035055786
Rh 10.693585746395712 11.036815712221571 12.256315245840883
Rh 8.840226100603482 8.074405352851736 11.439223512547814
Rh 13.307376621777957 9.627921367201534 9.265189560757399
Rh 9.239811614627435 12.84125218045462 11.458037072787898
Rh 8.286598131254102 13.563772215433456 9.347595958011238
Rh 11.456739879308698 8.844410767223705 7.916775115392592
Rh 8.667524904485065 10.504467269170036 10.826527086286623
Rh 10.5253967842009 12.593550352806432 9.231131812749659
Rh 9.807138407880812 7.322986643964176 9.15906555414255
Rh 9.632414425074709 10.504554455889057 8.44200127131528
Rh 9.148096776614326 8.439584431613923 7.01045691292005
Rh 7.715759127563704 8.818714680010203 9.146853921426722
Rh 7.388003418587864 11.406320137950743 8.82789928955333
