12
Energy = -61.57904725 eV
Rh 7.0902579151096905 9.952661378225843 10.567723112351032
Rh 8.445606821747731 7.930343765607209 10.411725526185348
Rh 7.209899094052409 10.734143566402642 7.332646876056654
Rh 8.959803567273951 10.342568710098165 9.082260519869738
Rh 10.454057556557606 9.325168131390887 10.803388174947488
Rh 6.756763550351034 8.616981436779126 8.503081897031121
Rh 10.635559367264408 10.225742500559 7.334305001315956
Rh 10.455166525704131 8.151936506038375 8.632998207674667
Rh 9.99088295147746 6.059660567778926 9.905148137505593
Rh 6.819351112133185 7.162516730313498 6.474265467815262
Rh 8.673196776713358 8.829733755143778 6.7532167196292
Rh 8.438274687404606 6.614004330290048 8.153543165113632
