14
Energy = -73.24944432 eV
Rh 9.763146474503305 10.903522776080314 9.8969065
Rh 11.326400161695421 12.497024419049339 11.191232751680769
Rh 11.108727938313159 10.051833533062146 12.032524017171705
Rh 12.49654434878427 10.554931510978802 9.8969065
Rh 7.5072633445797 7.87179359680262 9.8969065
Rh 7.322134730141693 10.495819181144816 9.8969065
Rh 8.816653248761277 9.153094997490001 8.245600833389084
Rh 9.427197190777068 6.741043079463223 8.61437051948265
Rh 10.784568669859349 8.505188941054055 9.8969065
Rh 11.326400161695421 12.497024419049339 8.602580248319233
Rh 11.108727938313159 10.051833533062146 7.761288982828299
Rh 8.816653248761277 9.153094997490001 11.548212166610911
Rh 9.427197190777068 6.741043079463221 11.179442480517348
Rh 9.325076353037868 13.339443088529416 9.8969065
