15
Energy = -80.16512421 eV
Rh 9.515817520705289 7.482141829121213 5.828521842928584
Rh 7.931245930551288 9.377161801633811 5.6692328101182845
Rh 8.655916063498067 8.996990206246553 8.141189436961852
Rh 6.99871195866674 10.782140073900042 7.50907720822425
Rh 8.039341166121222 6.479192569788981 7.4545544836545155
Rh 6.341708834892012 8.209631201751298 7.194081408819141
Rh 10.704139192341296 7.515771935742975 7.98386043902408
Rh 5.8756022283160005 8.027506611372546 9.576834338882582
Rh 9.725003363657693 5.426468026473783 9.01643678665924
Rh 10.908761345109166 9.729385990822376 9.11249489441974
Rh 8.84179408819717 11.463059837360383 9.156281201177636
Rh 8.085745832596631 7.09390345871043 9.949759689941283
Rh 6.693994295005444 10.24931420613761 9.983733345056365
Rh 10.508190702708266 7.490428495626296 10.50921090878445
Rh 8.924675687868733 9.427551965545995 10.66537941558287
