14
Energy = -74.89303631 eV
Rh 9.08503509303168 9.109615274480722 7.747751151809742
Rh 11.655780710005445 9.108919174010982 7.867225765859411
Rh 6.506210130599435 9.140237421940613 7.979893002241227
Rh 10.373724678815318 11.330825322555341 7.913202729138607
Rh 7.778054392305553 11.339142323804454 7.959545377666688
Rh 10.369371684108815 6.867553069139408 7.867297689877626
Rh 7.821686950895767 6.864406804649335 7.933334894810037
Rh 9.093945374037748 10.657150350271875 10.037359477612835
Rh 11.620467209547957 10.535204848576976 9.98008171118721
Rh 6.571937283886914 10.559466549644915 10.085095264798161
Rh 10.459844989260414 8.292720167356643 9.990144257025262
Rh 7.744344775453807 8.302138638613828 10.049686780711019
Rh 9.116468900186973 6.161351573197151 9.994703624367004
Rh 9.14494382786429 9.073084481757625 11.936494272895423
