14
Energy = -74.2917407 eV
Rh 8.219294594668101 10.571501728365096 11.6471868771984
Rh 10.61789947426735 10.612525580150717 10.698451692863577
Rh 9.576195773236124 8.455066881977219 11.584975396157798
Rh 8.93670602393194 12.241727589996914 9.783668258001088
Rh 9.944391053791778 10.934194965997715 7.934434842278085
Rh 10.01875769820582 8.724710457860347 9.102778453909606
Rh 10.513184769966234 8.80948792497437 6.584959955420178
Rh 10.064723159402533 6.5390706686904 7.788282046503847
Rh 7.795974907389426 10.103326320634201 9.172844278937799
Rh 7.224788885971872 8.23028923557281 10.777381705790738
Rh 8.150827958432018 9.664944703663107 6.683428637008369
Rh 9.119050490318362 6.483921704331682 10.14178784134391
Rh 8.554428006056808 7.311522809419745 5.966829389878626
Rh 7.7602097706721365 7.696231837985676 8.35803772891151
