22
Energy = -121.47638725 eV
Rh 7.522700995666669 7.966712735254924 11.777085481702258
Rh 7.4305756463970685 10.784464687995456 11.677082091892538
Rh 7.870090640454363 9.239599072941724 9.685897378339227
Rh 8.258166096266693 9.39939156781227 7.328837108194273
Rh 9.54456336484058 7.198185675523075 10.599620014722138
Rh 9.558977615978357 9.453786251929323 11.697411045166502
Rh 9.197572077279103 11.401519180338818 9.942235239572431
Rh 10.339969203145941 10.53151083213007 7.976266798998469
Rh 9.96164242118497 7.971026230600629 8.231274568139767
Rh 11.766340995560732 6.702726524264565 9.469740311334643
Rh 9.618245929959043 11.83402704616613 12.571374050064744
Rh 11.718916138205701 8.263121152483642 11.508953837753989
Rh 12.116673989752382 7.799024684706562 7.128072108374125
Rh 9.468524145723224 13.733386449681925 10.960654927320764
Rh 11.41118170442421 10.021150006486542 13.377132502493255
Rh 10.438416202473167 13.073858166096139 8.578205295574776
Rh 12.188484142768255 9.155180357985587 9.182441257858848
Rh 11.688336664461833 10.914470988658591 11.022165452513285
Rh 12.505670680920353 11.608991041660222 8.75789958939471
Rh 12.006978282384315 12.506781446628793 13.03513508462183
Rh 11.984646559836238 13.384563717637121 10.591362328719997
Rh 11.053629889946066 14.706825570647052 12.551456914877065
