29
Energy = -164.55990145 eV
Rh 10.471976603740456 10.47117514 8.403472000712286
Rh 11.758864935981785 12.704183507238175 11.819936800003948
Rh 10.471976603740456 10.47117514 12.538878279287715
Rh 7.895464934310172 10.47117514 11.819457727033463
Rh 7.5483789978138365 12.817415384813543 10.47117514
Rh 9.9009305422473 14.176779365078945 10.47117514
Rh 9.1881263354663 12.691660498925234 12.783485425195089
Rh 11.263573386457372 9.096960113955191 6.554474973883571
Rh 13.036587613274 10.47117514 8.157192355526199
Rh 11.758864935981785 8.238166772761831 9.122413479996053
Rh 9.1881263354663 8.250689781074763 8.158864854804909
Rh 8.880429012287648 10.47117514 6.5564695096489665
Rh 11.263573386457372 11.845390166044803 6.554474973883571
Rh 11.758864935981785 12.704183507238175 9.122413479996053
Rh 11.93673538175698 10.47117514 10.47117514
Rh 9.740106417319526 9.203039284049998 10.47117514
Rh 7.895464934310172 10.47117514 9.122892552966535
Rh 9.1881263354663 12.691660498925234 8.158864854804909
Rh 9.740106417319526 11.73931099595 10.47117514
Rh 9.1881263354663 8.250689781074763 12.783485425195089
Rh 11.758864935981785 8.238166772761831 11.819936800003948
Rh 7.5483789978138365 8.12493489518646 10.47117514
Rh 9.9009305422473 6.76557091492105 10.47117514
Rh 13.96866840260677 11.825672298059521 10.47117514
Rh 13.96866840260677 9.116677981940478 10.47117514
Rh 13.036587613274 10.47117514 12.785157924473795
Rh 11.263573386457372 11.845390166044803 14.387875306116431
Rh 11.263573386457372 9.096960113955191 14.387875306116431
Rh 8.880429012287648 10.47117514 14.385880770351033
