20
Energy = -110.58804802 eV
Rh 13.0716287486535 11.785983561394314 10.402225006740144
Rh 13.280406436068011 9.351226439432425 11.293520451372606
Rh 8.25707966911929 9.362059868452405 7.300111552447373
Rh 7.587687228718905 9.306872009660157 9.77862546689109
Rh 10.382263636322097 8.156828511074641 8.073637915557969
Rh 9.27006997006032 12.29935883373711 10.999995223469172
Rh 11.334237424596939 10.886167231354625 12.005015855169457
Rh 9.47259611403403 11.771588434740563 13.41638929961842
Rh 10.475522388875673 10.664446569129334 7.266565077325929
Rh 8.811321909144342 9.815000876611986 12.039264206855593
Rh 8.417150106297198 11.577499372745512 8.632826651591754
Rh 12.38480222101821 9.805525160368619 8.945866835685385
Rh 11.456450299200737 13.423230015602144 11.37092497151432
Rh 8.096701194353347 7.1621533707060845 8.500624645448527
Rh 10.941086427612248 12.342557833632801 9.082909297842873
Rh 11.925088692298383 7.556690273946849 10.046633590574942
Rh 6.996705219728987 11.398384513675417 10.903155218748221
Rh 10.12644633849926 10.034902542624659 9.81235525296985
Rh 11.080885553393658 8.401717777624247 12.35428060647305
Rh 9.441101331211948 7.707037712693959 10.584303782911052
