28
Energy = -159.7117801 eV
Rh 10.395880830058887 12.797582802771164 12.771792557150409
Rh 8.922039229153073 10.585038048568604 12.786232011503976
Rh 12.957369650246532 12.62741279749579 12.688002079279258
Rh 10.241352826299744 8.280778004977677 12.678473366458302
Rh 14.286159060636816 10.419477553089818 12.570597874367394
Rh 12.805068878532536 8.310024054525408 12.611176376791347
Rh 11.7549365066677 13.182379227442569 10.4729756775191
Rh 9.671946465888524 11.811208394850196 10.595457513454136
Rh 13.833051605730745 11.781203959330997 10.373965016909542
Rh 9.596084575431362 9.397995774885711 10.546009681167407
Rh 13.753419539815148 9.154867120338283 10.326938420615171
Rh 11.585650199239819 7.898861303992558 10.374559735077222
Rh 10.160068433247057 12.853684667303504 8.378723683816512
Rh 12.720667593693873 12.656493746379278 8.168131887631773
Rh 8.675592851466115 10.676671886350976 8.434228326620012
Rh 10.00926547366906 8.413039556921387 8.287457199333225
Rh 12.577306730676266 8.428415332969893 8.086095094473881
Rh 11.13144195825305 10.466769798872003 13.93653803647833
Rh 11.878850317857893 10.527344838978516 11.671810643906205
Rh 11.866703071584828 10.546067946140433 9.12097998511318
Rh 10.705742923796135 10.645664323561487 7.013008904476299
Rh 9.469357943021617 14.347706003512261 10.627791272585966
Rh 7.682978777029896 12.946351682063197 9.353983281402185
Rh 7.802423840833175 12.887042662942985 12.013801458971749
Rh 7.292546059248558 10.68054290611089 10.660890964757323
Rh 7.6544603402787725 8.396382975457538 11.923248093529043
Rh 7.529960671757817 8.443860690448687 9.259495222046517
Rh 9.22393920069717 6.883210055424081 10.479918996876863
