29
Energy = -166.93053598 eV
Rh 10.912917551245258 6.80677931800329 8.51647721402081
Rh 13.206870972755139 7.994638417428577 8.780254651698353
Rh 14.121185568936161 8.823890359690948 10.95324005956264
Rh 11.357019470660466 8.9191712481781 7.190582339857085
Rh 11.69625069752805 7.498321181152571 10.854502534825098
Rh 8.90645379833319 8.187511756926616 7.416687748952583
Rh 13.726184166520655 9.82166545156197 7.096116193576582
Rh 9.347339556651145 8.218919787305703 9.941955851595104
Rh 11.46123528369232 9.668909534310703 9.592906470285113
Rh 9.484934193718747 10.536846029808581 8.09379389788028
Rh 13.647805453323253 10.860341740781 9.39218918215367
Rh 11.844145375981075 11.458127429455866 7.6176460025252
Rh 12.612879091380677 8.49172394398356 13.025786903970413
Rh 10.263084978788847 9.124670984294124 12.23721822455349
Rh 12.529995982501694 10.683957811688975 11.68568424504241
Rh 7.797574916950808 9.574293797741008 11.565738940606572
Rh 11.459511807260089 10.589794667059893 14.01482944798382
Rh 7.3139246236165905 9.476836741119532 9.002123022362333
Rh 11.608401171008072 12.522477381676715 9.993956625758695
Rh 9.844251903482018 13.022646939457363 8.187775515191417
Rh 9.615434866244001 11.10641166391163 10.719442473169247
Rh 7.719604947809039 12.037759282266785 9.2205679829477
Rh 8.978049116769027 11.05655367026233 13.399768904203484
Rh 10.961549149508512 12.581260292537504 12.473982301810599
Rh 5.811248938606464 10.859920340721935 10.430927813473575
Rh 9.403353160960979 13.68099759217183 10.685076022773282
Rh 10.34867761540202 12.595388489824858 14.958880638190996
Rh 7.379659917599898 12.239985465088331 11.759535271316075
Rh 8.754182496868077 13.654267766566552 13.215523922363072
