22
Energy = -121.7316004 eV
Rh 8.056903278761958 9.204008752366816 11.545910624972569
Rh 10.571229002128314 8.359853730471611 12.046964137236133
Rh 10.976098593047462 6.679785833982711 10.11839746153412
Rh 9.252565835051275 8.250120282227615 9.583405460390551
Rh 9.525981379916674 12.221462324925428 6.377197395869824
Rh 10.782982387190412 10.150593048972455 9.845806325287214
Rh 12.574198863319694 8.391160028330388 10.532911206725005
Rh 11.539385438307455 11.449259823104 7.7531459003441885
Rh 10.183784600338049 14.44644577661538 10.627265325792434
Rh 9.704892434645087 13.023542795186485 8.685518021592873
Rh 9.188604064311377 10.306583887762145 7.842180178318594
Rh 8.51369409439987 11.461023220985398 10.191439532834636
Rh 8.708653457722525 13.071249265890499 12.01643115212303
Rh 13.968896435500485 8.852372994838293 12.42214786155574
Rh 12.040856650356378 8.753235579123096 13.87290149762708
Rh 11.470841673287515 11.083746814130503 14.187975642860707
Rh 13.319508013843254 10.604458582989729 9.44738815641952
Rh 12.503939605432345 10.814589323438803 11.881755670303276
Rh 11.785839278077503 12.527436950188012 10.074644335644534
Rh 9.8526969297934 10.761057128690783 12.292997075864886
Rh 11.19210131782717 12.957671417628767 12.511026325322218
Rh 7.17835713540164 9.613867539183966 9.165297507162466
