20
Energy = -110.39536805 eV
Rh 9.273964702153448 10.648001539159509 14.070619947200534
Rh 9.380495027236092 12.75379444930943 12.772699037224948
Rh 12.810367062865287 11.228418133932303 10.4151622971762
Rh 10.968602114950034 7.837760754559897 8.23903001603269
Rh 10.372161716694936 10.199396932188758 10.718239554151484
Rh 11.383327761788326 11.254800799311184 12.744940933820793
Rh 8.532496212345785 11.493654575229518 7.2687656970886305
Rh 10.535785587102954 12.59620690653781 8.096775292556943
Rh 9.583207469858221 12.468511005750532 10.265850795381038
Rh 12.652706636484695 13.325121300122403 9.060502001812862
Rh 11.87274220035059 7.087910728952192 11.852454675123568
Rh 7.480186913652986 11.395378140300851 9.443014401266225
Rh 9.797837473143263 7.723148125974843 10.471954462101833
Rh 8.232267356070873 10.741935712855026 11.746092880206751
Rh 12.417337213485348 8.748584036806001 10.093524058433472
Rh 10.365465021979333 8.811202966463838 12.821252862375209
Rh 11.390740999065137 10.353792538798688 8.36261746047695
Rh 12.960839595770135 9.350788673763873 12.478241288484815
Rh 9.058898058320667 9.486729531005242 8.689064382147006
Rh 11.657085374196836 13.307072730331097 11.308841367512736
