26
Energy = -146.75317542 eV
Rh 12.930922040153199 10.663254863470046 10.667225780258574
Rh 14.809068369272115 11.112120911697257 12.30961703018872
Rh 13.50243412469552 10.390245187859339 8.253508171495605
Rh 14.876370391209742 12.05968047825386 9.834679776848171
Rh 10.914869113122315 9.157249583618174 11.461915064973253
Rh 15.050192309964753 9.406573548421418 10.33477016957354
Rh 12.232615944719281 11.132713917952083 13.180910979439092
Rh 12.257938977706937 12.626767243803517 9.043252762293381
Rh 13.172721035466425 13.132948112147098 11.603096588616204
Rh 10.91790514311554 11.984982619411644 11.138372447293893
Rh 10.917396718051043 13.457734284626438 13.11216663659924
Rh 9.5753795158795 12.628732720206928 9.042222409666556
Rh 10.918182567885923 14.375393838585275 10.566325656779226
Rh 8.659226825384765 13.128125185050331 11.601351141060949
Rh 10.915479845884663 10.289104960757046 8.937680916170825
Rh 9.600838032755243 11.125257589821652 13.180800848724374
Rh 12.60800758339696 8.365103651474122 9.710067202093063
Rh 9.220091488280753 8.370554716640422 9.709272404137252
Rh 8.902783268311364 10.661075502583973 10.666610323966909
Rh 8.330883094544985 10.38737428643459 8.256163961238933
Rh 10.913660795505747 9.04654244435176 13.89893219844907
Rh 13.325653224786986 8.869467822118827 12.413011948730274
Rh 6.956811304072575 12.05773349635069 9.83595006223444
Rh 8.50773846858304 8.866950323228155 12.412412961229782
Rh 7.019565581096312 11.11423811137086 12.310144078162269
Rh 6.77880923615463 9.405619828843049 10.335083556135983
