29
Energy = -165.80527544 eV
Rh 14.547867099785217 11.37213308747579 10.992222544837164
Rh 13.534875845725887 9.654404639409695 9.275896624457515
Rh 12.580236675025706 12.076537672918228 9.675712787699625
Rh 12.964534753863923 7.396314055533253 8.201825205890826
Rh 12.636944594888996 12.600864573143934 12.303523349240821
Rh 12.599278610933995 10.011834270357033 11.75592841468014
Rh 10.95108805346838 9.95250176469824 9.408221708564438
Rh 12.001321336421586 7.875106806143007 10.504551946191285
Rh 10.787248763496683 13.835148350896263 9.573968652555516
Rh 11.014268104940426 11.899861267902772 7.640277976582169
Rh 10.568656205813442 14.243841642030523 12.050877003537341
Rh 11.97978371121442 9.490418218806177 7.1411304272883145
Rh 11.016770892222505 10.912610865030762 13.559233602300647
Rh 11.362160730966158 5.6818116868075546 9.455694256896926
Rh 11.140775779721334 13.329804279883554 14.295741086829132
Rh 9.035417179871018 13.696999684750791 7.8546320054174155
Rh 10.398780293849198 7.676014526284425 8.241621837329514
Rh 10.427106296466619 11.791820470975509 11.180860697038671
Rh 9.507593777851831 11.597875929635682 15.443634091682684
Rh 9.564136926220483 6.977507876344511 10.600546482889206
Rh 10.121563075500722 9.205063572052104 11.771531379265893
Rh 9.404933822722047 9.80524426735556 7.2142711950365035
Rh 8.897913267300519 12.572067508461567 13.156797707118745
Rh 8.426873489678647 13.423765480326123 10.70030516326772
Rh 8.78037308637547 11.541882711337495 8.984990716656975
Rh 8.461482818996378 9.061336405643964 9.491095171089261
Rh 7.995799976313641 10.890299904681518 11.31417717717048
Rh 8.599851439840151 10.04574336500255 13.697376832026988
Rh 7.718391975865527 8.373206660053157 11.841887991952387
