29
Energy = -165.3341596 eV
Rh 11.653830585189056 6.178824595974972 10.805125670668636
Rh 9.963671088448358 7.642972018609141 12.143680392456584
Rh 12.157493359492907 8.717518048102505 11.278727031107776
Rh 9.048996320172446 5.882127165155489 10.528952547486794
Rh 10.771315589151056 10.21904760227059 9.68451386123316
Rh 11.1400562604059 9.798147921324581 13.393569382625492
Rh 12.518459118102715 11.217923420857003 11.813173098739231
Rh 9.198937714040538 9.97091983989526 11.911052231067014
Rh 11.188846114995622 5.825139523973512 8.304788699681536
Rh 7.899507284420964 8.30876610478038 10.536861993078743
Rh 12.653255360847583 7.911884634105351 8.850558813834608
Rh 10.210904976162075 7.826216094464524 9.50116241133843
Rh 11.065726390460297 12.42503699796023 13.569005626532414
Rh 13.51099223171706 10.18881132251945 9.66960606055149
Rh 12.106140139435162 13.905918638226854 11.662243354049048
Rh 8.500271135150324 12.08345208311689 12.981388584713882
Rh 8.360581088180691 8.073861099542917 7.873836433830835
Rh 10.809945343729058 7.967671358829041 7.037323798169811
Rh 12.223024544792148 12.39077501459279 9.432256793450204
Rh 11.954838523493848 10.223418660417046 7.565734546846392
Rh 9.655667420881377 14.37199095601914 12.305185038853468
Rh 10.202166314024167 12.194791304221779 11.158588983294479
Rh 8.316236525054597 10.32113363505794 8.967338070838217
Rh 7.050432924692576 11.008282784281059 11.098683043955903
Rh 10.398225545834288 14.203220375726472 9.568553689289944
Rh 10.084460955432503 12.108772124806917 8.009313603346682
Rh 7.281585520582802 13.797081505439916 11.694564516381027
Rh 9.461603673424241 10.081104079117322 6.6844357658055245
Rh 8.284136469737442 12.726019554364651 9.708492911497022
