29
Energy = -166.86905919 eV
Rh 6.661251416449834 7.835725453923603 9.333134064984902
Rh 6.969378959301925 9.755320336551861 10.893500878420813
Rh 6.728467162761327 10.17450155157947 8.189853750638783
Rh 7.29955918903175 12.521918292368523 7.366426147828652
Rh 8.8755107324753 7.964265766459274 10.861001031150858
Rh 7.384679803318625 11.871188320974081 12.319735612778489
Rh 7.378138618996513 12.180946668036698 9.814569101233445
Rh 8.770919263757285 6.275519772138272 8.923814796272492
Rh 8.379022534343871 8.318303237370678 7.558214741606797
Rh 8.982123665052825 10.244674604898835 9.397863451488917
Rh 9.161074303297386 10.047092673768695 12.325736149540525
Rh 8.99650053631108 10.741224730025777 6.842739829143926
Rh 10.739918494873576 6.285164939410483 10.634615520355009
Rh 9.671183847946164 12.624342535119936 8.510719090744542
Rh 9.595492416960012 12.362578904574237 11.108495194905391
Rh 12.669062363922219 7.867124765597526 10.350303383830603
Rh 10.585383907590945 8.14445770384925 8.863405818924802
Rh 11.050140672967503 8.251334661432189 12.356509897793844
Rh 11.200200355446182 10.129225728935765 10.688178897398444
Rh 11.715983640799092 10.738412535527472 13.021284127509654
Rh 9.639393186137362 12.202735426376229 13.673841314390284
Rh 11.866198090680928 12.42368414162998 9.897938027831593
Rh 11.317005716495629 10.595052165534364 8.092604644353598
Rh 10.5984804354463 8.794380704752461 6.411579088512744
Rh 11.59046448234667 13.210580126834413 12.399683573690453
Rh 12.881632140691751 8.591201288395794 7.888299947881509
Rh 13.614451285758845 9.25687471298709 12.213319316826695
Rh 13.65000458306661 11.860646890408415 11.792027187664631
Rh 13.47330601398127 10.277112614077105 9.760268427832965
