38
Energy = -222.51508651 eV
Rh 8.72097407069614 8.388245010823491 3.9747163359737567
Rh 9.711908549061459 6.354155816458129 5.227715908787188
Rh 11.240860288470822 8.480363945750232 5.217030235798689
Rh 7.154040970345716 6.690653436334546 5.423107846732215
Rh 9.64708190153726 10.516150491392635 5.111995469321106
Rh 6.740976545353008 9.251323591879595 5.426004423499069
Rh 9.068476014328652 8.611981176475645 6.564331382777924
Rh 11.791289226426212 10.753343636977556 6.372915549746321
Rh 7.569166067863644 11.663357120756732 5.542005762914352
Rh 4.8767112277473945 7.388482632298985 6.338407606769174
Rh 10.929994641337759 6.975091448487816 7.403025901569032
Rh 8.572151553182364 5.943515889213204 7.419585734723359
Rh 12.947922082063478 8.595155066606024 7.279744907517043
Rh 10.754198929136999 9.540798934427087 8.24751988063826
Rh 6.93794665217369 7.949157253487267 7.7382491976453665
Rh 7.470846723710381 10.514042059209508 7.705906990238458
Rh 5.907844275556387 5.630927870748985 8.060122610658643
Rh 9.598518902075039 11.779763533821122 7.481939502020865
Rh 5.0871678685585815 9.756509172776223 7.40989095137718
Rh 8.701334566602025 8.914789883990396 9.596862486002625
Rh 4.567410529858874 7.73826811436295 8.909718216207793
Rh 10.97150499824398 11.750446770164098 9.643799171096106
Rh 6.137067032369331 9.675546487303295 9.799539085640253
Rh 8.433911725921863 11.42210012817191 9.842139507440393
Rh 6.813992044490273 7.110859538139842 10.132887551567238
Rh 12.078174916494268 7.64697664798361 9.604473284835676
Rh 10.891802478970874 9.498082138492894 10.854087079830753
Rh 7.934757920346345 4.858709826062234 9.546020347676915
Rh 9.761332379185786 6.586937495477477 9.673313967505507
Rh 12.988323457859854 10.158519506753388 9.347230654967204
Rh 4.298248191417203 6.868903605729713 11.155190662410446
Rh 8.672859726124438 8.763643055794764 12.048907334924726
Rh 7.092827823378923 10.708359255519216 11.932143399564046
Rh 6.009558829838941 8.443718302230796 12.01938271193443
Rh 9.587616583570842 11.231429281505696 12.03333153662324
Rh 10.740433519117994 7.218875304875306 11.891124882860673
Rh 8.342618458834123 6.1828698916151295 11.831328035363217
Rh 5.709789838738924 4.8995881888939 10.655945395829656
