38
Energy = -222.86158453 eV
Rh 9.426647494426652 10.979269709463287 7.065201074932011
Rh 9.234125850180828 8.429772147840174 7.486678674377977
Rh 11.615914050819036 9.481481526217882 7.73332907018339
Rh 9.767644496358917 13.659359035487629 6.803958161713363
Rh 11.528500816229302 12.18682637483906 7.878156269651624
Rh 11.269384963330978 14.627683677114357 8.657515903862105
Rh 11.033975918255656 7.234907559022525 8.829374194925625
Rh 13.512263626280303 13.453898870061584 8.903253983263653
Rh 7.896977239118734 9.847456544718398 9.161902803239425
Rh 8.56693592660844 12.70079536597246 8.785714560622518
Rh 10.240740422200098 10.538827630886395 9.498390050648297
Rh 12.903567959920268 10.91398120192255 9.537800304176203
Rh 12.990441253853593 8.487127392642236 9.97386610774414
Rh 8.758003072182698 7.4788630609989015 9.849392967777318
Rh 8.820430398006593 15.22670022648893 8.677578940648784
Rh 10.604338724706196 12.913139824153001 10.374560382754407
Rh 12.571133403422435 15.104128046316664 10.792580509335728
Rh 8.321120862768618 11.558589428223318 11.055509204647
Rh 10.134315610693111 5.356068504828615 10.372372523499882
Rh 10.742585581449502 8.598162800204486 11.021360090096387
Rh 12.67684695531211 5.92701050375566 10.27555133407074
Rh 9.950371630477292 15.186978715149225 11.025721203939103
Rh 7.670119405965432 14.065534395036934 10.742962785354067
Rh 13.744886578530785 7.406884652463525 12.113853812101897
Rh 8.702744528713183 6.550594788613814 12.262842934588472
Rh 13.217220446560205 12.707783806801473 11.299385620805252
Rh 13.922924420253972 10.19967414720831 11.791307626586905
Rh 8.294878950568272 9.134294316442707 11.72746941017363
Rh 11.359307658758823 10.906662100339767 11.803829128620485
Rh 11.284010830135657 6.569323168373223 12.28688790930959
Rh 9.077420272257559 13.350764961224934 12.71330886262431
Rh 9.841564533485224 8.341611788937467 13.647193886519872
Rh 12.314078255979984 8.99038782268898 13.315818257371387
Rh 11.555144973558862 13.860390483609681 12.798680067699914
Rh 12.656206229902942 11.63115633234849 13.793138749255705
Rh 9.453207722471772 10.868483525680675 13.290977044825484
Rh 11.02251414109855 10.078686539801604 15.120505158467337
Rh 10.522027393450772 12.651261622415669 14.736593027880641
