39
Energy = -227.54532055 eV
Rh 13.974954916947503 11.049093549589102 8.69451864392963
Rh 12.301771942397314 9.112648231824314 8.66670761777452
Rh 11.876454293461444 11.271119324561958 7.249353989706239
Rh 15.327953013312817 13.37378659637334 9.108550765406068
Rh 10.037311617223105 9.468566324483415 7.500657827236795
Rh 13.917956508817115 9.344281747440327 10.742246473276708
Rh 10.124774094851567 7.881582495416614 9.403048980426744
Rh 14.511616858561615 11.897638883481354 11.008206623794266
Rh 12.375528819991418 7.311198340217641 10.494773179872261
Rh 14.321713285169642 10.443307578437892 13.081878120969087
Rh 13.057165317838512 13.37571260810419 8.14015424025117
Rh 13.003383173458788 8.183586773751255 12.811192372773109
Rh 8.46265996743728 11.485411803819272 7.617575288486764
Rh 11.98100129098476 10.897451294661405 10.390344404287431
Rh 9.393386671506935 10.257385971282233 9.867828083069467
Rh 9.951999624255254 11.207267949529708 5.736305846134939
Rh 10.558526592378856 12.489847437051937 8.912032077829732
Rh 14.583708757760856 14.468085865009568 11.234742717336676
Rh 10.78390486952008 8.870099211605982 11.670803835027288
Rh 8.990224304911248 10.233329769747451 15.921699924402422
Rh 12.396942303345417 13.566677261392812 10.511653842408222
Rh 12.464368057987524 12.283164587978254 12.747858679268612
Rh 14.78804870815889 12.995940241048325 13.345764246943988
Rh 13.600038523399148 8.996996798849398 15.104487384041708
Rh 6.92425424476186 10.41598427541765 9.366261101348057
Rh 13.850187642591004 15.308456983715523 13.508102335943788
Rh 11.664705944440264 10.067498199283364 13.888066834963402
Rh 10.117445772711587 11.361450780426436 12.161388689449062
Rh 8.106254248253677 12.602201083351654 9.837302284095614
Rh 13.42179747837162 11.564483510529996 15.189750136643111
Rh 9.181757392646102 9.43285385529065 13.564631260220606
Rh 9.934249404158276 13.63043715323008 11.120756902134042
Rh 12.146554307538123 13.788326361361982 14.899586924942467
Rh 7.649464239067474 10.686395634904471 11.729981844804412
Rh 11.583760352351387 14.760454894785463 12.659882260620288
Rh 10.881718436994118 11.656002087946826 15.565783436137263
Rh 9.84874665910386 13.198902381485883 13.8313879910274
Rh 7.713428745726964 13.269967282368437 12.336423896050668
Rh 7.907959437240145 11.51008268987722 14.095986756599492
