4
Energy = -16.97915976 eV
Rh 7.803581551242938 9.330151611341565 7.406760811302116
Rh 8.769982729932286 7.923864678100322 9.087624765885465
Rh 8.468207783142875 6.650941312348927 7.081828395971025
Rh 6.340067935681677 7.476882398208965 7.805626026841396
