4
Energy = -16.97595833 eV
Rh 8.163111237171947 9.51640226442344 10.115352727334665
Rh 10.388286662251089 9.043327833522836 9.379023800221301
Rh 9.003441618202709 9.483528885267935 7.475509097449732
Rh 8.097756123260256 7.612260832700804 8.659710837629804
