41
Energy = -242.20887333 eV
Rh 13.769077140642432 8.871668350138084 9.392376821088137
Rh 13.800510836738422 9.610088044480328 6.931781386004785
Rh 13.675211880522486 8.228945893220411 11.836263864490173
Rh 14.096934033537908 10.7059743073776 11.233257944268116
Rh 14.065579424598948 11.396482454881667 8.757690223008861
Rh 11.722188000725303 8.260946692758147 7.888180562410397
Rh 13.53790336980106 12.114554365401885 6.345700958865219
Rh 13.82253119765405 7.383806958558036 14.191478338861643
Rh 11.484208067453686 8.025492853579307 10.531714222636559
Rh 14.402518866486558 9.830456042107626 13.683662011244415
Rh 11.725848552298924 10.415896382373083 9.278526820248763
Rh 14.702927760310088 12.345391074357956 13.029392482911797
Rh 14.28484505276068 13.242609957818738 10.67275441166029
Rh 11.478760028825333 10.588155481465552 6.703114433090711
Rh 14.11257005324859 13.908781452465892 8.223067395545439
Rh 11.485176826766336 7.912413753080329 13.166187061315417
Rh 12.413060111896414 9.193578765914147 15.166531506143276
Rh 11.73516605048318 10.214839283324226 11.942002914811944
Rh 9.521500537325565 9.009053643940247 9.237034885006853
Rh 11.869273507795585 12.55001800486535 10.71941140073662
Rh 11.831934192321077 12.809314560872924 8.093785294993266
Rh 12.538805950394666 11.515642277345274 14.089929907485141
Rh 9.407878302931794 8.836876870565794 11.876458297085355
Rh 9.575950677903412 11.223729368230442 10.64488683302504
Rh 10.144690286367622 10.015429495186849 14.088182399376102
Rh 9.5944722989352 11.428759887279545 8.060411178026547
Rh 12.608331658070911 13.79698713871414 12.819353449428284
Rh 12.182103193513232 14.818706037728024 9.74658261768032
Rh 11.072603973767173 11.212678229516486 16.16394432765788
Rh 10.363412299856224 12.365896117562084 12.858655795955494
Rh 7.383976715489714 9.892323296137164 10.486901015029234
Rh 9.79255031721233 13.65997814873752 9.468848404307087
Rh 8.07690025382086 10.898039475597114 12.77431025452217
Rh 11.181689191728285 13.554976645182677 15.007594661599565
Rh 7.579049297631158 12.249685163214988 9.354234850014654
Rh 8.936508466192045 12.066516434708262 15.009211451798185
Rh 10.479386467143447 14.742949929221373 11.710533604015229
Rh 8.257700248777573 13.359007757477384 11.574699257444676
Rh 6.142193979377027 11.928683835119765 11.435089485891748
Rh 9.079815756763656 14.431860695822595 13.818300043863468
Rh 6.922490799881354 12.986097703210762 13.7469248808105
