4
Energy = -13.90231818 eV
Rh 9.933045769587464 10.65598055470589 11.486351152334912
Rh 14.301061649286765 10.939214530547734 10.643364021748969
Rh 12.071003444126925 10.823081270440207 10.005762499960595
Rh 7.840345174757026 11.168865279527594 10.998220261357321
