45
Energy = -266.50576453 eV
Rh 12.298745024444251 10.52532619008804 7.768003790126687
Rh 14.210077016546684 11.79382005528185 8.894512652302204
Rh 14.214399415511496 9.075481030263315 8.568267616654458
Rh 10.564334227634623 9.24819120977582 6.109043027753626
Rh 13.415142307922483 14.217311213261048 9.91701882271839
Rh 11.905975824155338 7.955953302509732 7.870112958793987
Rh 11.897097889269682 13.068919147963316 8.1286104390998
Rh 10.082551089654219 11.590539009073396 6.960493009007554
Rh 10.84520650690684 14.741056693846534 9.760721459175592
Rh 8.117208440920622 9.863472389189948 6.90971600667941
Rh 12.292340024506423 16.23882945858205 11.152577026800033
Rh 14.445619798963595 10.028088911716578 10.886483040231795
Rh 12.227186447238886 11.972954949672904 10.44715008522502
Rh 12.123147773860547 9.336278603701633 10.129914904552924
Rh 9.300605823548478 7.4726781099465995 7.563611967639838
Rh 13.134562478768853 6.995866814902564 9.96020170845441
Rh 9.766732955690845 16.066266103791996 11.782813194071524
Rh 14.538756104698084 12.465398213427843 11.447213140263882
Rh 7.650445581668132 10.515454407897437 9.250194611972567
Rh 13.949598881883098 14.72848176417449 12.386423882011968
Rh 9.96407635978626 9.643254278364399 8.707000873108738
Rh 10.372830631110004 13.192409778470404 11.675583595061811
Rh 10.491256573852963 7.308983210407011 9.99080692425867
Rh 12.207395654081772 10.255443311302248 12.476579594482939
Rh 11.522352963096516 14.943977607959765 13.20928555238395
Rh 8.368799412467443 14.323717675226622 10.625168660958417
Rh 14.461707230664743 7.8614486357616 11.973657405201813
Rh 9.588961020231302 12.392660133838953 9.256155875408874
Rh 8.069638802779776 8.082287895270584 9.779694846580409
Rh 10.055982899961936 10.583658867696595 11.122233469850034
Rh 12.686672782904635 12.703418297862262 13.230076675058317
Rh 14.49706220351528 10.828445456035482 13.472079614412348
Rh 11.866836254583689 7.727799193488136 12.120732721812654
Rh 10.043841933492558 11.434683412654364 13.598622341399052
Rh 12.261133474903732 10.866326609587247 14.973391507967303
Rh 7.026112474111634 9.611013951734197 11.640208858837564
Rh 9.003108946716996 14.200639859870643 13.477321806035599
Rh 10.944273299589288 13.232264711790409 15.052396276344513
Rh 7.880446590386231 11.97440293578894 11.267388118748247
Rh 9.293616500263692 8.454561325728141 11.993281866339268
Rh 13.304323654426105 8.560629920351703 14.122210928735193
Rh 10.6805560218533 8.85193803632478 14.158067368496338
Rh 8.262580486330997 9.712706838148534 13.942375052188655
Rh 9.916206221527393 10.583631648882314 15.945327951904304
Rh 7.626004884281296 12.144839719099952 13.672779661602013
