46
Energy = -274.2034003 eV
Rh 14.194426113332003 10.952745964714367 12.405747528816065
Rh 14.852297357634853 8.554278844554243 12.08183246666843
Rh 14.79022801865975 12.82149091246628 10.711865291663054
Rh 13.764145203727296 9.395910467041896 14.347263843210733
Rh 14.73435748424517 10.119883139015583 9.95166239378524
Rh 13.54700453355732 13.435548796135366 12.781679336281371
Rh 12.40868713826173 11.69577786177129 14.337840673544262
Rh 13.756429831230273 13.615585501154953 8.530271221695644
Rh 13.435023186866548 15.059668399290274 10.838933190607518
Rh 12.983013805701693 8.351440309296487 10.307119170583912
Rh 12.522345381794386 7.79932467947443 12.78157628098819
Rh 11.863001572683228 10.116243270875097 11.899632639274046
Rh 13.814747570411571 8.467624556304681 7.9703165795247575
Rh 10.936225872352802 15.143105114105376 11.795097226094839
Rh 11.178278993510638 9.428636408221664 14.249430514264818
Rh 11.384431340690245 12.660549840962073 11.996205993725354
Rh 11.1816561007489 13.901425051921995 14.184804978392025
Rh 11.479904611860615 14.3516779395422 9.44487010979872
Rh 13.861959448716808 11.044378017080309 7.725686498420299
Rh 11.38841606583422 7.432089392338433 8.525588012051907
Rh 9.82517427727158 11.606656235272592 14.420023910507787
Rh 12.695569410798498 11.666677970556949 9.925056491829961
Rh 9.447896988454223 10.971568854655851 11.973746559838812
Rh 8.660779584980405 9.21480148959787 13.693448482232432
Rh 11.727941981940958 9.74229058945047 7.138939880166262
Rh 11.705014788236685 12.325252420266674 7.562978913805827
Rh 11.40722602118262 6.433394850937438 10.943292449742597
Rh 10.117012151764396 12.255177010752806 9.732741264969276
Rh 10.97086712950675 9.792007337032532 9.45857795408332
Rh 9.6434246241079 13.81812234914054 7.674060276850437
Rh 10.158113159666751 7.157146099669291 13.547467950219573
Rh 9.907146618604585 8.423455530618421 11.392362037380156
Rh 9.046784700428754 13.531979600480575 12.679976212787041
Rh 8.875451181751023 14.383777878262276 10.23401865900391
Rh 7.407065264054099 11.58441842306113 13.52690105489956
Rh 9.459660810516711 11.118976769499598 7.407708363084104
Rh 9.179330848881156 8.595772868275109 7.912579830838107
Rh 6.952977761909344 9.781493700747523 11.733181124955498
Rh 7.403273728044146 12.398609629917845 11.047124678700479
Rh 8.401037536946468 10.301051249845363 9.72692032971128
Rh 9.13824441705944 6.826133218427903 9.730479752792737
Rh 7.573352595402354 12.565993701685715 8.538540627374598
Rh 7.708284229327337 7.395561499997434 11.938734820501063
Rh 7.062153405271038 10.078839183847544 7.47754554032019
Rh 5.872945465896702 10.821176799249308 9.61749569746052
Rh 6.991428458288465 8.277017044595615 9.513409958665603
