53
Energy = -318.29296102 eV
Rh 12.00399508611143 11.072747046135026 7.347835370530526
Rh 12.442480498467948 8.70927694807219 8.40894672517092
Rh 14.406119127321185 10.03637255654168 7.468371693947337
Rh 10.104219452361745 8.36856570016625 7.6838776227585255
Rh 9.359212437124066 7.521584604164655 9.883682821937256
Rh 16.36296316272597 11.707961738538978 7.68442567530821
Rh 11.723265293942639 7.86980148933492 10.656068212102712
Rh 9.624088821331314 10.816675508034038 7.302953640543838
Rh 14.034421208217879 12.617679218448014 7.554268013089104
Rh 14.060407222715881 8.742836848082504 10.760725031273598
Rh 13.367109783839343 10.945136343337047 9.548152080298957
Rh 8.030995395063949 9.552271831981777 10.71933474086979
Rh 8.493487890238594 11.605991645024705 9.427216410002444
Rh 15.869178487313402 10.289083363151814 9.690095010575659
Rh 10.488527328327008 6.292120042194429 12.061183625497566
Rh 9.242740518178266 13.43464964302299 7.795905313801215
Rh 12.286308993402974 8.029403562760159 13.117617157728064
Rh 10.545544180476522 9.980341304497847 9.69142061070293
Rh 14.989141364431127 10.795722050896465 12.0136545135567
Rh 11.80735037804835 13.755440304371376 7.24553448141085
Rh 15.433970223605142 12.811607591970558 9.73906928012492
Rh 8.192220758175676 7.39216927764171 12.24883511081897
Rh 12.308538397952752 10.379432718758363 11.88199896226625
Rh 10.012935265577562 9.208084223413548 12.283512914672135
Rh 13.360283808941547 12.694742530242879 11.445663952876703
Rh 11.12966887971081 12.516474114231821 9.427700186052153
Rh 9.953294170609183 7.563468666046031 14.250595258021907
Rh 15.71099554583597 13.48444044451665 12.16207890318377
Rh 13.744351064557613 9.89048276742195 14.059317672881907
Rh 13.187837899384805 14.24770260724069 9.35543652709648
Rh 14.913703976463792 15.361774925234823 10.666056798411029
Rh 8.90825664158785 13.877822151839114 10.377907105861105
Rh 10.76262609246871 15.15534534064791 9.142180919905025
Rh 10.022786191220463 11.726544046046254 11.63647266164153
Rh 7.675908958321421 9.76348318219845 13.272623382558905
Rh 11.168942719571726 9.944400812692756 14.506846747670137
Rh 11.260913124838764 14.046566098367542 11.586363032517482
Rh 14.264471259386562 12.485429437152876 13.91370402583343
Rh 7.55070344596141 11.97862578460367 11.946910951862167
Rh 7.398370715195981 7.661256237196801 14.658920343244658
Rh 11.638438710535521 12.403564502836257 13.643883764636161
Rh 13.536028955280935 14.866744351030658 12.78248441119522
Rh 12.37974057758162 16.22760797083174 10.942605624567069
Rh 12.786304658512952 11.57557301446427 15.773979300565264
Rh 8.877206120851119 9.523539403543209 15.518261029711402
Rh 9.729434938244498 16.119298819813498 11.357297275286001
Rh 9.084238941605195 14.065794908817923 12.967145176932481
Rh 9.053756813093807 11.758783595246438 14.105486107511558
Rh 12.737656260676372 14.198566732630807 15.141834375556417
Rh 10.236492354283046 11.491303303885632 16.360690984157753
Rh 11.176448731211714 15.585569232678683 13.55882050888504
Rh 10.204651677019799 13.824971852010759 15.245429283591832
Rh 11.682956214991588 13.329806533527636 17.29216582629076
