54
Energy = -323.83722346 eV
Rh 13.492041916625658 14.039953827944602 6.725078729931639
Rh 10.878896024201264 14.099263584507723 6.486975079072519
Rh 11.8275251044392 15.354403022426926 8.67405812584378
Rh 14.25423136118326 14.013522783432204 9.382543497577178
Rh 12.171158049707477 11.727551222556968 6.306536384260893
Rh 12.987951418823585 15.65108992908907 10.959750290326387
Rh 14.383749560112081 11.900600373058484 7.841791078569895
Rh 9.673999900748662 13.757417411438887 8.67612330444596
Rh 10.545515054203603 14.886096592444016 10.898878291165408
Rh 12.107908367165438 12.941174316831832 8.475668326358253
Rh 9.463290924662171 11.889355337006917 6.679249607244305
Rh 14.570138658027647 13.839168787142107 11.963084318152706
Rh 12.332836365526322 12.979341215322206 10.927864179566795
Rh 13.893376866327632 10.855514039603262 10.073233234956538
Rh 15.830068377712537 12.253766007748252 10.471798796944006
Rh 12.802469982329196 9.758115506742392 8.062809533257553
Rh 12.131201043794002 14.507494286198709 13.048392582441673
Rh 8.055042317347008 14.016427386402306 10.883000293062068
Rh 9.517012880838413 14.18203735417852 13.203648793543206
Rh 10.790208980365655 9.577229569927836 6.4874036507974395
Rh 8.035152864029307 11.758513272035234 8.927613305036813
Rh 9.773365777309001 12.248234172300457 10.79022785967634
Rh 14.130787599481573 13.771495884197293 14.461505501053244
Rh 8.620026975328155 9.563377544746817 7.750373183337142
Rh 10.659057619321091 10.948265246833008 8.71930058578683
Rh 15.857159059607904 11.951281973042022 13.08279374063667
Rh 11.560503559480514 10.426118468186493 11.137196218713878
Rh 11.626685799200123 13.1481823975346 15.203142954719569
Rh 13.633033956445052 11.503510981779069 15.31519644355444
Rh 7.9095030087483185 12.170148988223264 12.599322315170488
Rh 11.029456970475733 12.128929996650788 13.03541184197669
Rh 10.747527194432982 8.289340796646876 8.852434958022833
Rh 9.074360524777383 9.731805827228614 10.413108863740204
Rh 13.465920185298536 11.47719225909078 12.747635175570084
Rh 12.963116041872588 8.431823633235561 10.330808499016095
Rh 15.143774032005343 9.696073508593836 11.845307497666065
Rh 12.86147041691263 8.916092285777383 12.981101952257836
Rh 9.261780815285515 12.012170183316547 14.87670080023713
Rh 11.506808266453023 10.382257248285196 14.830217256066431
Rh 8.390750012756229 7.160379240286678 8.56478062816935
Rh 6.788883089605223 9.099262577059658 9.488815791105752
Rh 10.722131727622859 8.053655720892506 11.562095568035412
Rh 6.333196820419953 11.765355369996861 10.653794289764214
Rh 9.510074515385512 10.033566135766984 12.976870734135442
Rh 10.071528804157785 6.084838752638365 10.149085673306837
Rh 14.860854428283115 9.63228944732212 14.367139587662118
Rh 12.159916791994142 6.406242926197992 12.73784595953471
Rh 9.275633371129294 9.4603652904738 15.611708519610007
Rh 8.098731339426255 7.473398037503035 11.083888609263827
Rh 7.265343098782036 10.406233286975976 14.357369944852866
Rh 7.028274154677679 9.730997344166614 11.938885945954064
Rh 10.76212180767345 7.978733864499627 14.17786358122512
Rh 9.55756295502201 6.120030673400862 12.750359212081506
Rh 8.115865682106287 8.045774146137386 13.681143337033102
