6
Energy = -26.87612338 eV
Rh 9.307017101868718 6.455183858008274 5.700612995383569
Rh 9.255724289396854 8.704734704163391 9.541015210323915
Rh 8.811420317199232 7.345575361549696 7.665556588245566
Rh 7.24577016629279 9.926413772669113 9.112057117477585
Rh 6.8878295124955216 8.622841843504505 7.132221635994839
Rh 7.035570293722788 7.4889126967961825 9.392174746027312
