6
Energy = -26.08104037 eV
Rh 9.30833453513213 7.050784284009355 10.36803863729832
Rh 9.785938655106888 9.163492267445207 9.956916378014414
Rh 10.26496647307615 12.61320934919739 11.565248451481857
Rh 11.187548146333938 10.36713819427831 11.440570225387676
Rh 10.021832941759644 11.505248168786883 9.388641410527939
Rh 12.277189920211995 12.12687313431812 10.152335106253195
