   45   45 1000    2
  0.2799473E+03  0.2326821E-08  0.2326821E-08  0.2326821E-08  0.1000000E-15
  1.000000000000000E-004
  CAR 
 unknown system                          
    495      1    320
 
  0.0000000E+00  0.0000000E+00  0.0000000E+00  0.1000000E+01
    1       -9.657714     -9.637348
    2       -9.167612     -9.157929
    3       -9.113640     -9.103306
    4       -9.026359     -9.017084
    5       -8.997705     -8.987344
    6       -8.991587     -8.976937
    7       -8.955496     -8.947690
    8       -8.928501     -8.919876
    9       -8.897945     -8.886247
   10       -8.854269     -8.845741
   11       -8.842371     -8.833714
   12       -8.819743     -8.809209
   13       -8.795164     -8.787865
   14       -8.773184     -8.764062
   15       -8.760376     -8.751197
   16       -8.740631     -8.729303
   17       -8.731502     -8.723188
   18       -8.726560     -8.718230
   19       -8.701268     -8.691430
   20       -8.676781     -8.667502
   21       -8.672055     -8.663046
   22       -8.650556     -8.641223
   23       -8.640248     -8.629984
   24       -8.626587     -8.617449
   25       -8.606525     -8.598865
   26       -8.600014     -8.591486
   27       -8.577048     -8.566987
   28       -8.568090     -8.560352
   29       -8.557139     -8.546969
   30       -8.539789     -8.531004
   31       -8.521470     -8.513697
   32       -8.509583     -8.501588
   33       -8.500145     -8.489860
   34       -8.491486     -8.483821
   35       -8.486790     -8.477861
   36       -8.467261     -8.460321
   37       -8.452891     -8.446304
   38       -8.427608     -8.420732
   39       -8.426993     -8.418504
   40       -8.411402     -8.404358
   41       -8.392349     -8.384819
   42       -8.373619     -8.366277
   43       -8.359121     -8.351228
   44       -8.337609     -8.330603
   45       -8.320522     -8.314959
   46       -8.311534     -8.304750
   47       -8.297110     -8.290769
   48       -8.280933     -8.272427
   49       -8.275851     -8.268188
   50       -8.265514     -8.259572
   51       -8.261875     -8.255002
   52       -8.237462     -8.230520
   53       -8.208742     -8.202802
   54       -8.192085     -8.185938
   55       -8.182150     -8.175722
   56       -8.164991     -8.158087
   57       -8.161900     -8.154230
   58       -8.149586     -8.143401
   59       -8.123768     -8.118271
   60       -8.118015     -8.111018
   61       -8.108615     -8.100600
   62       -8.101446     -8.094556
   63       -8.073543     -8.065808
   64       -8.038561     -8.032599
   65       -8.028848     -8.021410
   66       -8.015493     -8.010135
   67       -7.998146     -7.992184
   68       -7.991610     -7.984209
   69       -7.978788     -7.972459
   70       -7.967657     -7.961168
   71       -7.966659     -7.960538
   72       -7.940629     -7.933305
   73       -7.934615     -7.927910
   74       -7.916084     -7.908907
   75       -7.908084     -7.901366
   76       -7.888696     -7.880952
   77       -7.860395     -7.854210
   78       -7.843826     -7.836171
   79       -7.831390     -7.824738
   80       -7.827106     -7.820948
   81       -7.812168     -7.806718
   82       -7.778595     -7.771734
   83       -7.768014     -7.761484
   84       -7.761943     -7.754237
   85       -7.752767     -7.745231
   86       -7.743797     -7.736969
   87       -7.739267     -7.730717
   88       -7.713459     -7.705929
   89       -7.707004     -7.700878
   90       -7.685444     -7.679598
   91       -7.671030     -7.664257
   92       -7.653458     -7.647298
   93       -7.637794     -7.631542
   94       -7.616890     -7.611296
   95       -7.604306     -7.597956
   96       -7.587814     -7.581972
   97       -7.584194     -7.575825
   98       -7.571000     -7.565331
   99       -7.557228     -7.551683
  100       -7.542465     -7.534991
  101       -7.524983     -7.519170
  102       -7.502436     -7.495880
  103       -7.481726     -7.474882
  104       -7.479983     -7.470585
  105       -7.471768     -7.465434
  106       -7.463857     -7.457569
  107       -7.451179     -7.443714
  108       -7.438333     -7.430497
  109       -7.421823     -7.414774
  110       -7.405987     -7.399473
  111       -7.400792     -7.394458
  112       -7.374505     -7.367528
  113       -7.365513     -7.359103
  114       -7.351195     -7.344799
  115       -7.341597     -7.335968
  116       -7.317042     -7.310575
  117       -7.310340     -7.303487
  118       -7.305153     -7.297232
  119       -7.281412     -7.273542
  120       -7.273111     -7.267541
  121       -7.260064     -7.253241
  122       -7.252270     -7.245719
  123       -7.225412     -7.219131
  124       -7.210993     -7.204554
  125       -7.210811     -7.203318
  126       -7.198623     -7.192171
  127       -7.185962     -7.178471
  128       -7.175173     -7.168264
  129       -7.165253     -7.157734
  130       -7.159261     -7.151791
  131       -7.144168     -7.135825
  132       -7.127098     -7.116113
  133       -7.112973     -7.106648
  134       -7.090866     -7.084772
  135       -7.088637     -7.081143
  136       -7.072689     -7.065934
  137       -7.054872     -7.048275
  138       -7.044741     -7.038078
  139       -7.034491     -7.028121
  140       -7.013057     -7.005435
  141       -6.998165     -6.992353
  142       -6.992257     -6.986162
  143       -6.980193     -6.974803
  144       -6.970365     -6.964379
  145       -6.962601     -6.956638
  146       -6.944287     -6.938232
  147       -6.936126     -6.929226
  148       -6.915851     -6.909062
  149       -6.897347     -6.889701
  150       -6.888462     -6.881469
  151       -6.874553     -6.869376
  152       -6.872782     -6.865015
  153       -6.860042     -6.852514
  154       -6.854060     -6.847994
  155       -6.838714     -6.832830
  156       -6.833875     -6.828808
  157       -6.820360     -6.815742
  158       -6.805503     -6.800271
  159       -6.800332     -6.794630
  160       -6.794076     -6.788011
  161       -6.781376     -6.774665
  162       -6.768421     -6.762196
  163       -6.763829     -6.757158
  164       -6.757874     -6.753091
  165       -6.749325     -6.743410
  166       -6.741332     -6.735588
  167       -6.739256     -6.734759
  168       -6.724777     -6.720180
  169       -6.721484     -6.715309
  170       -6.711810     -6.704788
  171       -6.697944     -6.691694
  172       -6.689618     -6.683909
  173       -6.685333     -6.678591
  174       -6.676822     -6.670439
  175       -6.675985     -6.669735
  176       -6.659069     -6.653352
  177       -6.657982     -6.651648
  178       -6.644827     -6.638497
  179       -6.637774     -6.631600
  180       -6.615705     -6.608767
  181       -6.603419     -6.596977
  182       -6.600413     -6.594132
  183       -6.591445     -6.585802
  184       -6.584598     -6.578991
  185       -6.576518     -6.571402
  186       -6.570907     -6.565778
  187       -6.564387     -6.559359
  188       -6.560164     -6.554150
  189       -6.558863     -6.552976
  190       -6.545363     -6.540237
  191       -6.538081     -6.531392
  192       -6.521061     -6.514904
  193       -6.511183     -6.505893
  194       -6.502946     -6.496561
  195       -6.486606     -6.480451
  196       -6.480065     -6.474850
  197       -6.476621     -6.471513
  198       -6.466822     -6.461190
  199       -6.456824     -6.450766
  200       -6.442325     -6.436627
  201       -6.437450     -6.432614
  202       -6.426503     -6.420595
  203       -6.414198     -6.407320
  204       -6.412287     -6.406479
  205       -6.402419     -6.396273
  206       -6.396908     -6.391918
  207       -6.392300     -6.387112
  208       -6.380502     -6.374745
  209       -6.369872     -6.363014
  210       -6.358295     -6.352459
  211       -6.345166     -6.337220
  212       -6.337924     -6.332263
  213       -6.320646     -6.315274
  214       -6.303803     -6.297758
  215       -6.298979     -6.293626
  216       -6.285052     -6.278420
  217       -6.277258     -6.270602
  218       -6.267449     -6.261420
  219       -6.261575     -6.255643
  220       -6.246099     -6.241109
  221       -6.234204     -6.228562
  222       -6.206828     -6.201439
  223       -6.190535     -6.184755
  224       -6.169875     -6.164994
  225       -6.154366     -6.150484
  226       -6.125813     -6.118448
  227       -6.112336     -6.108242
  228       -6.105870     -6.100335
  229       -6.079853     -6.071263
  230       -6.065006     -6.058542
  231       -6.027149     -6.022217
  232       -5.925371     -5.907163
  233       -5.761101     -5.752097
  234       -5.639633     -5.629292
  235       -5.385037     -5.361973
  236       -5.294890     -5.280324
  237       -5.252566     -5.235774
  238       -4.894619     -4.863063
  239       -4.671947     -4.655987
  240       -4.500086     -4.482411
  241       -4.227116     -4.209391
  242       -4.113569     -4.099530
  243       -4.032454     -4.020838
  244       -3.958358     -3.937956
  245       -3.863575     -3.845139
  246       -3.634290     -3.616917
  247       -3.609256     -3.592106
  248       -3.410395     -3.338537
  249       -3.203506     -3.182305
  250       -3.038023     -3.020363
  251       -2.820672     -2.802818
  252       -2.805049     -2.779679
  253       -2.562819     -2.540595
  254       -2.505610     -2.483879
  255       -2.455748     -2.437245
  256       -2.331334     -2.320248
  257       -2.191625     -2.179384
  258       -2.147298     -2.118288
  259       -2.105077     -2.087708
  260       -2.049874     -2.029604
  261       -1.989966     -1.947421
  262       -1.853048     -1.820471
  263       -1.792051     -1.762422
  264       -1.583400     -1.545455
  265       -1.503128     -1.485927
  266       -1.442608     -1.423306
  267       -1.313243     -1.286880
  268       -1.242234     -1.228905
  269       -1.033870     -1.012499
  270       -0.990178     -0.973911
  271       -0.928026     -0.904919
  272       -0.817340     -0.792943
  273       -0.694613     -0.679113
  274       -0.617060     -0.593393
  275       -0.608143     -0.588685
  276       -0.493719     -0.468726
  277       -0.462677     -0.438033
  278       -0.380577     -0.358819
  279       -0.331060     -0.307103
  280       -0.259305     -0.230511
  281       -0.166188     -0.143037
  282       -0.104956     -0.089503
  283       -0.063285     -0.037031
  284        0.012378      0.030993
  285        0.118252      0.133602
  286        0.187403      0.214839
  287        0.318202      0.345840
  288        0.416829      0.442644
  289        0.475346      0.507227
  290        0.516435      0.537889
  291        0.564698      0.578200
  292        0.597138      0.596166
  293        0.672040      0.691313
  294        0.701473      0.730021
  295        0.731916      0.745613
  296        0.751607      0.765572
  297        0.835740      0.841951
  298        0.868304      0.895184
  299        0.928210      0.943358
  300        0.959598      0.981974
  301        0.987103      1.004553
  302        1.012257      1.031480
  303        1.034601      1.036383
  304        1.062704      1.065337
  305        1.076605      1.081288
  306        1.101346      1.101836
  307        1.122504      1.135875
  308        1.139178      1.155447
  309        1.150672      1.175252
  310        1.164868      1.187486
  311        1.189751      1.207910
  312        1.223903      1.229764
  313        1.245444      1.247345
  314        1.268814      1.277881
  315        1.289049      1.300243
  316        1.334414      1.335323
  317        1.355372      1.379457
  318        1.362668      1.381996
  319        1.392291      1.403307
  320        1.397928      1.410783
