47
Energy = -102.05834629 eV
Ag 10.40841292219059 8.712740380191457 14.640554379903119
Ag 11.685568900387329 8.317561332406573 12.049712551540475
Ag 8.920695320984427 8.21450337308205 12.310834867470318
Ag 14.403954843967222 8.738258728619668 11.909379454882947
Ag 15.999603385598745 8.085961893103041 14.123169404485148
Ag 14.538898847510003 9.326456265034551 16.255813155382484
Ag 11.889270456641626 10.128127875471733 16.97550659998243
Ag 13.203730960752214 7.577048134650685 14.275417823157067
Ag 7.902329270085514 10.065160437054361 14.108880721335076
Ag 9.898062695159396 9.314490376503182 9.964604909811245
Ag 9.867708552035264 11.374807255406573 15.540188303755414
Ag 12.671228531641919 9.435403137273255 9.657827063391592
Ag 10.448896615021082 10.845731681860192 12.305618021995578
Ag 15.287205355265877 10.418828056633412 9.746956255863028
Ag 7.723146106660217 10.651496115441677 11.33127424563802
Ag 17.031783220195912 9.6580898150359 11.962227591522387
Ag 11.39662233922863 12.931719669313752 17.31009463397648
Ag 15.477735069935354 10.814168764811148 14.046627477241374
Ag 13.360303018202321 11.40163592761754 11.811545540699424
Ag 13.822333230542673 12.038816343335851 16.113729033567232
Ag 12.657401038079879 10.263162815962717 14.241621982997094
Ag 8.566187657466868 12.674998451359528 13.344121276095201
Ag 10.852026786110358 10.290514916362492 7.5398959497861595
Ag 14.527974250929244 13.422321054531691 13.761532142427058
Ag 11.667131659620814 12.866916630933854 13.848312389535737
Ag 8.245700231120331 11.069079129211861 8.572172020317598
Ag 9.755294216844986 14.263001034653453 15.360031584564855
Ag 13.491031636630566 11.272254531331212 7.61720990478986
Ag 11.02395921290452 15.745163500285422 17.338428551859696
Ag 11.558363464814738 12.079692853610268 9.749101406054406
Ag 16.110976015045246 12.299273227836636 11.744503401676324
Ag 9.017701384953378 12.992930733192267 10.54666822066074
Ag 8.93364716732129 11.38944898616304 5.84105020049323
Ag 12.95653395643781 14.682886200956299 15.729076501357998
Ag 12.696998724591193 14.133224410884214 11.577147916002698
Ag 10.067461338472226 14.862163658971584 12.482926651929251
Ag 14.430711297809859 13.114360627378854 9.551179282522197
Ag 11.63672266460399 12.225542549773104 5.68942130113721
Ag 11.247761908825257 16.524273471430035 14.50206810411692
Ag 13.872600302214996 16.18096923382812 13.575621581139814
Ag 9.861570909100205 13.207763651326072 7.700986469556866
Ag 12.5790966609453 14.019212921833335 7.596773319801228
Ag 10.82863875711574 14.970410986841175 9.680151739397262
Ag 15.413639374840136 15.003887562542339 11.525905133003498
Ag 11.90472088654344 16.832220775210434 11.659116504571386
Ag 13.551379854977075 15.886465019600863 9.453724698426539
Ag 14.605988154397556 17.676632697197565 11.330469749517155
