    5    5 1000    2
  0.9179591E+03  0.1661873E-08  0.1661873E-08  0.1661873E-08  0.1000000E-15
  1.000000000000000E-004
  CAR 
 unknown system                          
     55      1     36
 
  0.0000000E+00  0.0000000E+00  0.0000000E+00  0.1000000E+01
    1       -8.707653     -8.663224
    2       -8.536599     -8.471328
    3       -8.476522     -8.420455
    4       -8.298329     -8.242492
    5       -8.084630     -8.019008
    6       -8.060211     -8.015419
    7       -7.876364     -7.821719
    8       -7.773858     -7.725391
    9       -7.669797     -7.618213
   10       -7.634954     -7.590691
   11       -7.591230     -7.545571
   12       -7.316613     -7.300371
   13       -7.291804     -7.246535
   14       -7.269844     -7.232849
   15       -7.256697     -7.223334
   16       -7.064876     -6.989078
   17       -7.050849     -6.976465
   18       -6.923571     -6.874804
   19       -6.913523     -6.858206
   20       -6.902508     -6.847515
   21       -6.856094     -6.832418
   22       -6.819839     -6.798668
   23       -6.781371     -6.754143
   24       -6.668585     -6.615392
   25       -6.370074     -6.261456
   26       -6.330060     -6.252339
   27       -4.942069     -4.867884
   28       -4.142748     -3.758480
   29       -2.775192     -2.705989
   30       -2.289320     -2.076828
   31       -1.775895     -1.639813
   32       -1.399259     -1.067620
   33       -0.797030     -0.707531
   34       -0.522527     -0.456973
   35       -0.264944     -0.112578
   36       -0.099028      0.136921
