<?xml version="1.0" encoding="ISO-8859-1"?>
<modeling>
 <generator>
  <i name="program" type="string">vasp </i>
  <i name="version" type="string">5.3.5  </i>
  <i name="subversion" type="string">31Mar14 (build Feb 01 2018 12:10:03) gamma-only                       parallel </i>
  <i name="platform" type="string">LinuxIFC </i>
  <i name="date" type="string">2019 03 24 </i>
  <i name="time" type="string">07:42:07 </i>
 </generator>
 <incar>
  <i type="string" name="PREC">normal</i>
  <i type="int" name="ISPIN">     2</i>
  <i type="int" name="IBRION">     2</i>
  <i type="int" name="NSW">  1000</i>
  <i type="int" name="ISIF">     2</i>
  <i name="POTIM">      0.10000000</i>
  <i type="logical" name="LPLANE"> T  </i>
  <i type="int" name="ISMEAR">     0</i>
  <i name="SIGMA">      0.00010000</i>
  <i type="logical" name="LWAVE"> F  </i>
  <i type="logical" name="LCHARG"> F  </i>
  <i type="logical" name="LVTOT"> F  </i>
  <i type="string" name="GGA"> PE</i>
 </incar>
 <kpoints>
  <varray name="kpointlist" >
   <v>       0.00000000       0.00000000       0.00000000 </v>
  </varray>
  <varray name="weights" >
   <v>       1.00000000 </v>
  </varray>
 </kpoints>
 <parameters>
  <separator name="general" >
   <i type="string" name="SYSTEM">unknown system</i>
   <i type="logical" name="LCOMPAT"> F  </i>
  </separator>
  <separator name="electronic" >
   <i type="string" name="PREC">normal</i>
   <i name="ENMAX">    249.84400000</i>
   <i name="ENAUG">    412.49600000</i>
   <i name="EDIFF">      0.00010000</i>
   <i type="int" name="IALGO">    38</i>
   <i type="int" name="IWAVPR">    11</i>
   <i type="int" name="NBANDS">   336</i>
   <i name="NELECT">    517.00000000</i>
   <i type="int" name="TURBO">     0</i>
   <i type="int" name="IRESTART">     0</i>
   <i type="int" name="NREBOOT">     0</i>
   <i type="int" name="NMIN">     0</i>
   <i name="EREF">      0.00000000</i>
   <separator name="electronic smearing" >
    <i type="int" name="ISMEAR">     0</i>
    <i name="SIGMA">      0.00010000</i>
    <i name="KSPACING">      0.50000000</i>
    <i type="logical" name="KGAMMA"> T  </i>
   </separator>
   <separator name="electronic projectors" >
    <i type="logical" name="LREAL"> F  </i>
    <v name="ROPT">      0.00000000</v>
    <i type="int" name="LMAXPAW">  -100</i>
    <i type="int" name="LMAXMIX">     2</i>
    <i type="logical" name="NLSPLINE"> F  </i>
   </separator>
   <separator name="electronic startup" >
    <i type="int" name="ISTART">     0</i>
    <i type="int" name="ICHARG">     2</i>
    <i type="int" name="INIWAV">     1</i>
   </separator>
   <separator name="electronic spin" >
    <i type="int" name="ISPIN">     2</i>
    <i type="logical" name="LNONCOLLINEAR"> F  </i>
    <v name="MAGMOM">      1.00000000      1.00000000      1.00000000      1.00000000      1.00000000      1.00000000      1.00000000      1.00000000      1.00000000      1.00000000      1.00000000      1.00000000      1.00000000      1.00000000      1.00000000      1.00000000      1.00000000      1.00000000      1.00000000      1.00000000
      1.00000000      1.00000000      1.00000000      1.00000000      1.00000000      1.00000000      1.00000000      1.00000000      1.00000000      1.00000000      1.00000000      1.00000000      1.00000000      1.00000000      1.00000000      1.00000000      1.00000000      1.00000000      1.00000000      1.00000000
      1.00000000      1.00000000      1.00000000      1.00000000      1.00000000      1.00000000      1.00000000</v>
    <i name="NUPDOWN">     -1.00000000</i>
    <i type="logical" name="LSORBIT"> F  </i>
    <v name="SAXIS">      0.00000000      0.00000000      1.00000000</v>
    <i type="logical" name="LSPIRAL"> F  </i>
    <v name="QSPIRAL">      0.00000000      0.00000000      0.00000000</v>
    <i type="logical" name="LZEROZ"> F  </i>
   </separator>
   <separator name="electronic exchange-correlation" >
    <i type="logical" name="LASPH"> F  </i>
    <i type="logical" name="LMETAGGA"> F  </i>
   </separator>
   <separator name="electronic convergence" >
    <i type="int" name="NELM">    60</i>
    <i type="int" name="NELMDL">    -5</i>
    <i type="int" name="NELMIN">     2</i>
    <i name="ENINI">    249.84400000</i>
    <separator name="electronic convergence detail" >
     <i type="logical" name="LDIAG"> T  </i>
     <i type="logical" name="LSUBROT"> F  </i>
     <i name="WEIMIN">      0.00100000</i>
     <i name="EBREAK">      0.00000007</i>
     <i name="DEPER">      0.30000000</i>
     <i type="int" name="NRMM">     4</i>
     <i name="TIME">      0.40000000</i>
    </separator>
   </separator>
   <separator name="electronic mixer" >
    <i name="AMIX">      0.40000000</i>
    <i name="BMIX">      1.00000000</i>
    <i name="AMIN">      0.10000000</i>
    <i name="AMIX_MAG">      1.60000000</i>
    <i name="BMIX_MAG">      1.00000000</i>
    <separator name="electronic mixer details" >
     <i type="int" name="IMIX">     4</i>
     <i type="int" name="MAXMIX">   -45</i>
     <i name="WC">    100.00000000</i>
     <i type="int" name="INIMIX">     1</i>
     <i type="int" name="MIXPRE">     1</i>
     <i type="int" name="MREMOVE">     5</i>
    </separator>
   </separator>
   <separator name="electronic dipolcorrection" >
    <i type="logical" name="LDIPOL"> F  </i>
    <i type="logical" name="LMONO"> F  </i>
    <i type="int" name="IDIPOL">     0</i>
    <i name="EPSILON">      1.00000000</i>
    <v name="DIPOL">   -100.00000000   -100.00000000   -100.00000000</v>
    <i name="EFIELD">      0.00000000</i>
   </separator>
  </separator>
  <separator name="grids" >
   <i type="int" name="NGX">    90</i>
   <i type="int" name="NGY">    90</i>
   <i type="int" name="NGZ">    90</i>
   <i type="int" name="NGXF">   180</i>
   <i type="int" name="NGYF">   180</i>
   <i type="int" name="NGZF">   180</i>
   <i type="logical" name="ADDGRID"> F  </i>
  </separator>
  <separator name="ionic" >
   <i type="int" name="NSW">  1000</i>
   <i type="int" name="IBRION">     2</i>
   <i type="int" name="ISIF">     2</i>
   <i name="PSTRESS">      0.00000000</i>
   <i name="EDIFFG">      0.00100000</i>
   <i type="int" name="NFREE">     1</i>
   <i name="POTIM">      0.10000000</i>
   <i name="SMASS">     -3.00000000</i>
   <i name="SCALEE">      1.00000000</i>
  </separator>
  <separator name="ionic md" >
   <i name="TEBEG">      0.00010000</i>
   <i name="TEEND">      0.00010000</i>
   <i type="int" name="NBLOCK">     1</i>
   <i type="int" name="KBLOCK">  1000</i>
   <i type="int" name="NPACO">   256</i>
   <i name="APACO">     16.00000000</i>
  </separator>
  <separator name="symmetry" >
   <i type="int" name="ISYM">     2</i>
   <i name="SYMPREC">      0.00001000</i>
  </separator>
  <separator name="dos" >
   <i type="logical" name="LORBIT"> F  </i>
   <v name="RWIGS">     -1.00000000</v>
   <i type="int" name="NEDOS">   301</i>
   <i name="EMIN">     10.00000000</i>
   <i name="EMAX">    -10.00000000</i>
   <i name="EFERMI">      0.00000000</i>
  </separator>
  <separator name="writing" >
   <i type="int" name="NWRITE">     2</i>
   <i type="logical" name="LWAVE"> F  </i>
   <i type="logical" name="LCHARG"> F  </i>
   <i type="logical" name="LPARD"> F  </i>
   <i type="logical" name="LVTOT"> F  </i>
   <i type="logical" name="LVHAR"> F  </i>
   <i type="logical" name="LELF"> F  </i>
   <i type="logical" name="LOPTICS"> F  </i>
   <v name="STM">      0.00000000      0.00000000      0.00000000      0.00000000      0.00000000      0.00000000      0.00000000</v>
  </separator>
  <separator name="performance" >
   <i type="int" name="NPAR">     4</i>
   <i type="int" name="NSIM">     4</i>
   <i type="int" name="NBLK">    -1</i>
   <i type="logical" name="LPLANE"> T  </i>
   <i type="logical" name="LSCALAPACK"> T  </i>
   <i type="logical" name="LSCAAWARE"> F  </i>
   <i type="logical" name="LSCALU"> F  </i>
   <i type="logical" name="LASYNC"> F  </i>
   <i type="logical" name="LORBITALREAL"> F  </i>
  </separator>
  <separator name="miscellaneous" >
   <i type="int" name="IDIOT">     3</i>
   <i type="logical" name="LMUSIC"> F  </i>
   <v name="POMASS">    107.86800000</v>
   <v name="DARWINR">      0.00000000</v>
   <v name="DARWINV">      1.00000000</v>
   <i type="logical" name="LCORR"> T  </i>
  </separator>
  <i type="logical" name="GGA_COMPAT"> T  </i>
  <i type="logical" name="LBERRY"> F  </i>
  <i type="int" name="ICORELEVEL">     0</i>
  <i type="logical" name="LDAU"> F  </i>
  <i type="int" name="I_CONSTRAINED_M">     0</i>
  <separator name="electronic exchange-correlation" >
   <i type="string" name="GGA">PE</i>
   <i type="int" name="VOSKOWN">     0</i>
   <i type="logical" name="LHFCALC"> F  </i>
   <i type="string" name="PRECFOCK"></i>
   <i type="logical" name="LSYMGRAD"> F  </i>
   <i type="logical" name="LHFONE"> F  </i>
   <i type="logical" name="LRHFCALC"> F  </i>
   <i type="logical" name="LTHOMAS"> F  </i>
   <i type="logical" name="LMODELHF"> F  </i>
   <i name="ENCUT4O">     -1.00000000</i>
   <i type="int" name="EXXOEP">     0</i>
   <i type="int" name="FOURORBIT">     0</i>
   <i name="AEXX">      0.00000000</i>
   <i name="HFALPHA">      0.00000000</i>
   <i name="MCALPHA">      0.00000000</i>
   <i name="ALDAX">      1.00000000</i>
   <i name="AGGAX">      1.00000000</i>
   <i name="ALDAC">      1.00000000</i>
   <i name="AGGAC">      1.00000000</i>
   <i type="int" name="NKREDX">     1</i>
   <i type="int" name="NKREDY">     1</i>
   <i type="int" name="NKREDZ">     1</i>
   <i type="logical" name="SHIFTRED"> F  </i>
   <i type="logical" name="ODDONLY"> F  </i>
   <i type="logical" name="EVENONLY"> F  </i>
   <i type="int" name="LMAXFOCK">     0</i>
   <i type="int" name="NMAXFOCKAE">     0</i>
   <i type="logical" name="LFOCKAEDFT"> F  </i>
   <i name="HFSCREEN">      0.00000000</i>
   <i name="HFSCREENC">      0.00000000</i>
   <i type="int" name="NBANDSGWLOW">     0</i>
  </separator>
  <separator name="vdW DFT" >
   <i type="logical" name="LUSE_VDW"> F  </i>
   <i name="Zab_VDW">     -0.84910000</i>
   <i name="PARAM1">      0.12340000</i>
   <i name="PARAM2">      1.00000000</i>
   <i name="PARAM3">      0.00000000</i>
  </separator>
  <separator name="model GW" >
   <i type="int" name="MODEL_GW">     0</i>
   <i name="MODEL_EPS0">    150.54390670</i>
   <i name="MODEL_ALPHA">      1.00000000</i>
  </separator>
  <separator name="linear response parameters" >
   <i type="logical" name="LEPSILON"> F  </i>
   <i type="logical" name="LRPA"> F  </i>
   <i type="logical" name="LNABLA"> F  </i>
   <i type="logical" name="LVEL"> F  </i>
   <i type="int" name="KINTER">     0</i>
   <i name="CSHIFT">      0.10000000</i>
   <i name="OMEGAMAX">     -1.00000000</i>
   <i name="DEG_THRESHOLD">      0.00200000</i>
  </separator>
  <separator name="orbital magnetization" >
   <i type="logical" name="NUCIND"> F  </i>
   <v name="MAGPOS">      0.00000000      0.00000000      0.00000000</v>
   <i type="logical" name="LNICSALL"> T  </i>
   <i type="logical" name="ORBITALMAG"> F  </i>
   <i type="logical" name="LMAGBLOCH"> F  </i>
   <i type="logical" name="LCHIMAG"> F  </i>
   <i type="logical" name="LGAUGE"> T  </i>
   <i type="int" name="MAGATOM">     0</i>
   <v name="MAGDIPOL">      0.00000000      0.00000000      0.00000000</v>
   <v name="AVECCONST">      0.00000000      0.00000000      0.00000000</v>
  </separator>
  <separator name="response functions" >
   <i type="logical" name="LADDER"> F  </i>
   <i type="logical" name="LFXC"> F  </i>
   <i type="logical" name="LHARTREE"> T  </i>
   <i type="int" name="IBSE">     0</i>
   <i type="logical" name="LTCTE"> F  </i>
   <i type="logical" name="LTETE"> F  </i>
   <i type="logical" name="LTRIPLET"> F  </i>
   <i type="logical" name="LFXCEPS"> F  </i>
   <i type="logical" name="LFXHEG"> F  </i>
   <i type="logical" name="L2ORDER"> F  </i>
   <i type="logical" name="LUSEW"> F  </i>
   <i name="ENCUTGW">     -2.00000000</i>
   <i name="ENCUTGWSOFT">     -2.00000000</i>
   <i name="ENCUTLF">     -1.00000000</i>
   <i type="int" name="LMAXMP2">    -1</i>
   <i name="SCISSOR">      0.00000000</i>
   <i type="int" name="NOMEGA">     0</i>
   <i type="int" name="NOMEGAR">     0</i>
   <i type="int" name="NBANDSGW">    -1</i>
   <i type="int" name="NBANDSO">    -1</i>
   <i type="int" name="NBANDSV">    -1</i>
   <i type="int" name="NELM">     1</i>
   <i type="int" name="DIM">     3</i>
   <i type="int" name="ANTIRES">     0</i>
   <i name="OMEGAMAX">    -30.00000000</i>
   <i name="OMEGAMIN">    -30.00000000</i>
   <i name="OMEGATL">   -200.00000000</i>
   <i type="int" name="OMEGAGRID">     0</i>
   <i name="CSHIFT">     -0.10000000</i>
   <i type="logical" name="SELFENERGY"> F  </i>
   <i type="logical" name="LSPECTRAL"> F  </i>
   <i type="logical" name="ODDONLYGW"> F  </i>
   <i type="logical" name="EVENONLYGW"> F  </i>
   <i type="int" name="NKREDLFX">     1</i>
   <i type="int" name="NKREDLFY">     1</i>
   <i type="int" name="NKREDLFZ">     1</i>
   <i type="int" name="MAXMEM">  1800</i>
   <i type="int" name="TELESCOPE">     0</i>
   <i type="int" name="TAUPAR">     1</i>
  </separator>
  <separator name="External order field" >
   <i name="OFIELD_KAPPA">      0.00000000</i>
   <v name="OFIELD_K">      0.00000000      0.00000000      0.00000000</v>
   <i name="OFIELD_Q6_NEAR">      0.00000000</i>
   <i name="OFIELD_Q6_FAR">      0.00000000</i>
   <i name="OFIELD_A">      0.00000000</i>
  </separator>
 </parameters>
 <atominfo>
  <atoms>      47 </atoms>
  <types>       1 </types>
  <array name="atoms" >
   <dimension dim="1">ion</dimension>
   <field type="string">element</field>
   <field type="int">atomtype</field>
   <set>
    <rc><c>Ag</c><c>   1</c></rc>
    <rc><c>Ag</c><c>   1</c></rc>
    <rc><c>Ag</c><c>   1</c></rc>
    <rc><c>Ag</c><c>   1</c></rc>
    <rc><c>Ag</c><c>   1</c></rc>
    <rc><c>Ag</c><c>   1</c></rc>
    <rc><c>Ag</c><c>   1</c></rc>
    <rc><c>Ag</c><c>   1</c></rc>
    <rc><c>Ag</c><c>   1</c></rc>
    <rc><c>Ag</c><c>   1</c></rc>
    <rc><c>Ag</c><c>   1</c></rc>
    <rc><c>Ag</c><c>   1</c></rc>
    <rc><c>Ag</c><c>   1</c></rc>
    <rc><c>Ag</c><c>   1</c></rc>
    <rc><c>Ag</c><c>   1</c></rc>
    <rc><c>Ag</c><c>   1</c></rc>
    <rc><c>Ag</c><c>   1</c></rc>
    <rc><c>Ag</c><c>   1</c></rc>
    <rc><c>Ag</c><c>   1</c></rc>
    <rc><c>Ag</c><c>   1</c></rc>
    <rc><c>Ag</c><c>   1</c></rc>
    <rc><c>Ag</c><c>   1</c></rc>
    <rc><c>Ag</c><c>   1</c></rc>
    <rc><c>Ag</c><c>   1</c></rc>
    <rc><c>Ag</c><c>   1</c></rc>
    <rc><c>Ag</c><c>   1</c></rc>
    <rc><c>Ag</c><c>   1</c></rc>
    <rc><c>Ag</c><c>   1</c></rc>
    <rc><c>Ag</c><c>   1</c></rc>
    <rc><c>Ag</c><c>   1</c></rc>
    <rc><c>Ag</c><c>   1</c></rc>
    <rc><c>Ag</c><c>   1</c></rc>
    <rc><c>Ag</c><c>   1</c></rc>
    <rc><c>Ag</c><c>   1</c></rc>
    <rc><c>Ag</c><c>   1</c></rc>
    <rc><c>Ag</c><c>   1</c></rc>
    <rc><c>Ag</c><c>   1</c></rc>
    <rc><c>Ag</c><c>   1</c></rc>
    <rc><c>Ag</c><c>   1</c></rc>
    <rc><c>Ag</c><c>   1</c></rc>
    <rc><c>Ag</c><c>   1</c></rc>
    <rc><c>Ag</c><c>   1</c></rc>
    <rc><c>Ag</c><c>   1</c></rc>
    <rc><c>Ag</c><c>   1</c></rc>
    <rc><c>Ag</c><c>   1</c></rc>
    <rc><c>Ag</c><c>   1</c></rc>
    <rc><c>Ag</c><c>   1</c></rc>
   </set>
  </array>
  <array name="atomtypes" >
   <dimension dim="1">type</dimension>
   <field type="int">atomspertype</field>
   <field type="string">element</field>
   <field>mass</field>
   <field>valence</field>
   <field type="string">pseudopotential</field>
   <set>
    <rc><c>  47</c><c>Ag</c><c>    107.86800000</c><c>     11.00000000</c><c>  PAW_PBE Ag 02Apr2005                  </c></rc>
   </set>
  </array>
 </atominfo>
 <structure name="initialpos" >
  <crystal>
   <varray name="basis" >
    <v>      22.76162496       0.00000000       0.00000000 </v>
    <v>       0.00000000      22.76162496       0.00000000 </v>
    <v>       0.00000000       0.00000000      22.76162496 </v>
   </varray>
   <i name="volume">  11792.60602493 </i>
   <varray name="rec_basis" >
    <v>       0.04393359       0.00000000       0.00000000 </v>
    <v>       0.00000000       0.04393359       0.00000000 </v>
    <v>       0.00000000       0.00000000       0.04393359 </v>
   </varray>
  </crystal>
  <varray name="positions" >
   <v>       0.48988971       0.69424568       0.58511365 </v>
   <v>       0.56536836       0.45629182       0.55736841 </v>
   <v>       0.50542761       0.50583707       0.71116811 </v>
   <v>       0.47194888       0.64075497       0.38376835 </v>
   <v>       0.45905429       0.42218466       0.37361826 </v>
   <v>       0.56223438       0.70586860       0.68129026 </v>
   <v>       0.65826907       0.43966321       0.39275904 </v>
   <v>       0.70566751       0.54158679       0.59698214 </v>
   <v>       0.53565441       0.69233159       0.47383139 </v>
   <v>       0.60810717       0.36311522       0.48634694 </v>
   <v>       0.59668213       0.57276965       0.54776109 </v>
   <v>       0.49306814       0.57622324       0.48530724 </v>
   <v>       0.33765630       0.45505660       0.59369886 </v>
   <v>       0.44670665       0.53468464       0.32642507 </v>
   <v>       0.28679004       0.37171540       0.52094033 </v>
   <v>       0.55795535       0.48833502       0.44244604 </v>
   <v>       0.39250764       0.53671475       0.66081694 </v>
   <v>       0.48570788       0.34291828       0.46253753 </v>
   <v>       0.44323798       0.42457070       0.64563652 </v>
   <v>       0.62442242       0.51182613       0.68730228 </v>
   <v>       0.59485454       0.66691065       0.37399128 </v>
   <v>       0.54499363       0.59254833       0.29691453 </v>
   <v>       0.40239978       0.35823331       0.54846975 </v>
   <v>       0.36882999       0.36651337       0.43063196 </v>
   <v>       0.41549668       0.66504941       0.49520819 </v>
   <v>       0.45655345       0.46320885       0.50543055 </v>
   <v>       0.63251021       0.55625987       0.37892379 </v>
   <v>       0.47221002       0.62543297       0.68773017 </v>
   <v>       0.33597418       0.47355151       0.47693454 </v>
   <v>       0.51403200       0.34600494       0.58075331 </v>
   <v>       0.72297867       0.65791133       0.56758255 </v>
   <v>       0.69264492       0.57941272       0.47657245 </v>
   <v>       0.38220389       0.57024676       0.42531531 </v>
   <v>       0.67317209       0.43018618       0.61783275 </v>
   <v>       0.57344746       0.60238319       0.74502929 </v>
   <v>       0.62953984       0.32403678       0.59574614 </v>
   <v>       0.35498743       0.56766818       0.54490499 </v>
   <v>       0.56398399       0.36595797       0.37534915 </v>
   <v>       0.65448109       0.62893282       0.66380152 </v>
   <v>       0.49512448       0.54289198       0.59890831 </v>
   <v>       0.60721355       0.69423593       0.57164373 </v>
   <v>       0.56258145       0.40689776       0.67212945 </v>
   <v>       0.55671627       0.47469964       0.32197173 </v>
   <v>       0.38128419       0.65539477       0.61770863 </v>
   <v>       0.68686828       0.46238992       0.50485820 </v>
   <v>       0.66069400       0.69277700       0.46652650 </v>
   <v>       0.35362417       0.46932600       0.35976897 </v>
  </varray>
 </structure>
 <calculation>
  <scstep>
   <time name="dav">    5.19    5.20</time>
   <time name="total">    5.42    8.12</time>
   <energy>
    <i name="alphaZ">    159.33093588 </i>
    <i name="ewald"> 133649.54719702 </i>
    <i name="hartreedc">-180540.50807449 </i>
    <i name="XCdc">   -509.47787556 </i>
    <i name="pawpsdc">  47158.49236927 </i>
    <i name="pawaedc"> -44991.43661731 </i>
    <i name="eentropy">      0.00000000 </i>
    <i name="bandstr">    581.59791240 </i>
    <i name="atom">  48748.33561406 </i>
    <i name="e_fr_energy">   4255.88146127 </i>
    <i name="e_wo_entrp">   4255.88146127 </i>
    <i name="e_0_energy">   4255.88146127 </i>
   </energy>
  </scstep>
  <scstep>
   <time name="dav">    7.53    7.54</time>
   <time name="total">    7.53    7.55</time>
   <energy>
    <i name="e_fr_energy">    622.78406011 </i>
    <i name="e_wo_entrp">    622.78406011 </i>
    <i name="e_0_energy">    622.78406011 </i>
   </energy>
  </scstep>
  <scstep>
   <time name="dav">    6.10    6.10</time>
   <time name="total">    6.10    8.96</time>
   <energy>
    <i name="e_fr_energy">    -75.95670634 </i>
    <i name="e_wo_entrp">    -75.95670634 </i>
    <i name="e_0_energy">    -75.95670634 </i>
   </energy>
  </scstep>
  <scstep>
   <time name="dav">    5.52    5.53</time>
   <time name="total">    5.53    5.54</time>
   <energy>
    <i name="e_fr_energy">   -100.73478369 </i>
    <i name="e_wo_entrp">   -100.73478369 </i>
    <i name="e_0_energy">   -100.73478369 </i>
   </energy>
  </scstep>
  <scstep>
   <time name="dav">    5.69    5.69</time>
   <time name="total">    5.83    5.84</time>
   <energy>
    <i name="e_fr_energy">   -101.10281493 </i>
    <i name="e_wo_entrp">   -101.10281493 </i>
    <i name="e_0_energy">   -101.10281493 </i>
   </energy>
  </scstep>
  <scstep>
   <time name="dav">    5.26    5.27</time>
   <time name="total">    5.63    5.89</time>
   <energy>
    <i name="e_fr_energy">    -51.35411768 </i>
    <i name="e_wo_entrp">    -51.35411768 </i>
    <i name="e_0_energy">    -51.35411768 </i>
   </energy>
  </scstep>
  <scstep>
   <time name="dav">    5.41    5.41</time>
   <time name="total">    5.77    5.78</time>
   <energy>
    <i name="e_fr_energy">    -39.93249781 </i>
    <i name="e_wo_entrp">    -39.93249781 </i>
    <i name="e_0_energy">    -39.93249781 </i>
   </energy>
  </scstep>
  <scstep>
   <time name="dav">    5.45    5.45</time>
   <time name="total">    5.82    5.82</time>
   <energy>
    <i name="e_fr_energy">    -37.92739279 </i>
    <i name="e_wo_entrp">    -37.92739279 </i>
    <i name="e_0_energy">    -37.92739279 </i>
   </energy>
  </scstep>
  <scstep>
   <time name="dav">    5.53    5.53</time>
   <time name="total">    5.89    6.93</time>
   <energy>
    <i name="e_fr_energy">    -41.81366945 </i>
    <i name="e_wo_entrp">    -41.81366945 </i>
    <i name="e_0_energy">    -41.81366945 </i>
   </energy>
  </scstep>
  <scstep>
   <time name="dav">    5.28    5.28</time>
   <time name="total">    5.64    5.68</time>
   <energy>
    <i name="e_fr_energy">    -53.78046845 </i>
    <i name="e_wo_entrp">    -53.78046845 </i>
    <i name="e_0_energy">    -53.78046845 </i>
   </energy>
  </scstep>
  <scstep>
   <time name="dav">    5.35    5.35</time>
   <time name="total">    5.71    5.73</time>
   <energy>
    <i name="e_fr_energy">    -64.11794336 </i>
    <i name="e_wo_entrp">    -64.11794336 </i>
    <i name="e_0_energy">    -64.11794336 </i>
   </energy>
  </scstep>
  <scstep>
   <time name="dav">    5.34    5.34</time>
   <time name="total">    5.70   12.03</time>
   <energy>
    <i name="e_fr_energy">    -72.59531821 </i>
    <i name="e_wo_entrp">    -72.59531821 </i>
    <i name="e_0_energy">    -72.59531821 </i>
   </energy>
  </scstep>
  <scstep>
   <time name="dav">    5.34    5.34</time>
   <time name="total">    5.71    5.72</time>
   <energy>
    <i name="e_fr_energy">    -83.07363049 </i>
    <i name="e_wo_entrp">    -83.07363049 </i>
    <i name="e_0_energy">    -83.07363049 </i>
   </energy>
  </scstep>
  <scstep>
   <time name="dav">    5.59    5.60</time>
   <time name="total">    5.96    5.98</time>
   <energy>
    <i name="e_fr_energy">    -85.86079458 </i>
    <i name="e_wo_entrp">    -85.86079458 </i>
    <i name="e_0_energy">    -85.86079458 </i>
   </energy>
  </scstep>
  <scstep>
   <time name="dav">    5.31    5.32</time>
   <time name="total">    5.68    5.69</time>
   <energy>
    <i name="e_fr_energy">    -90.42816381 </i>
    <i name="e_wo_entrp">    -90.42816381 </i>
    <i name="e_0_energy">    -90.42816381 </i>
   </energy>
  </scstep>
  <scstep>
   <time name="dav">    5.41    5.41</time>
   <time name="total">    5.78    5.82</time>
   <energy>
    <i name="e_fr_energy">    -91.87346014 </i>
    <i name="e_wo_entrp">    -91.87346014 </i>
    <i name="e_0_energy">    -91.87346014 </i>
   </energy>
  </scstep>
  <scstep>
   <time name="dav">    5.31    5.31</time>
   <time name="total">    5.68    6.57</time>
   <energy>
    <i name="e_fr_energy">    -94.73138846 </i>
    <i name="e_wo_entrp">    -94.73138846 </i>
    <i name="e_0_energy">    -94.73138846 </i>
   </energy>
  </scstep>
  <scstep>
   <time name="dav">    5.54    5.54</time>
   <time name="total">    5.91    5.92</time>
   <energy>
    <i name="e_fr_energy">    -95.11099311 </i>
    <i name="e_wo_entrp">    -95.11099311 </i>
    <i name="e_0_energy">    -95.11099311 </i>
   </energy>
  </scstep>
  <scstep>
   <time name="dav">    5.30    5.31</time>
   <time name="total">    5.67    8.49</time>
   <energy>
    <i name="e_fr_energy">    -96.08028573 </i>
    <i name="e_wo_entrp">    -96.08028573 </i>
    <i name="e_0_energy">    -96.08028573 </i>
   </energy>
  </scstep>
  <scstep>
   <time name="dav">    5.29    5.29</time>
   <time name="total">    5.66    7.53</time>
   <energy>
    <i name="e_fr_energy">    -97.83014504 </i>
    <i name="e_wo_entrp">    -97.83014504 </i>
    <i name="e_0_energy">    -97.83014504 </i>
   </energy>
  </scstep>
  <scstep>
   <time name="dav">    5.42    5.42</time>
   <time name="total">    5.79    5.81</time>
   <energy>
    <i name="e_fr_energy">    -98.60707256 </i>
    <i name="e_wo_entrp">    -98.60707256 </i>
    <i name="e_0_energy">    -98.60707256 </i>
   </energy>
  </scstep>
  <scstep>
   <time name="dav">    5.40    5.40</time>
   <time name="total">    5.76    7.37</time>
   <energy>
    <i name="e_fr_energy">    -98.93763257 </i>
    <i name="e_wo_entrp">    -98.93763257 </i>
    <i name="e_0_energy">    -98.93763257 </i>
   </energy>
  </scstep>
  <scstep>
   <time name="dav">    5.39    5.39</time>
   <time name="total">    5.76    5.82</time>
   <energy>
    <i name="e_fr_energy">    -99.25797197 </i>
    <i name="e_wo_entrp">    -99.25797197 </i>
    <i name="e_0_energy">    -99.25797197 </i>
   </energy>
  </scstep>
  <scstep>
   <time name="dav">    4.57    4.58</time>
   <time name="total">    4.94   12.93</time>
   <energy>
    <i name="e_fr_energy">    -99.31137796 </i>
    <i name="e_wo_entrp">    -99.31137796 </i>
    <i name="e_0_energy">    -99.31137796 </i>
   </energy>
  </scstep>
  <scstep>
   <time name="dav">    4.10    4.11</time>
   <time name="total">    4.47    4.51</time>
   <energy>
    <i name="e_fr_energy">    -99.33896164 </i>
    <i name="e_wo_entrp">    -99.33896164 </i>
    <i name="e_0_energy">    -99.33896164 </i>
   </energy>
  </scstep>
  <scstep>
   <time name="dav">    4.43    4.44</time>
   <time name="total">    4.81    4.84</time>
   <energy>
    <i name="e_fr_energy">    -99.35918254 </i>
    <i name="e_wo_entrp">    -99.35918254 </i>
    <i name="e_0_energy">    -99.35918254 </i>
   </energy>
  </scstep>
  <scstep>
   <time name="dav">    4.11    4.11</time>
   <time name="total">    4.48    5.77</time>
   <energy>
    <i name="e_fr_energy">    -99.36822521 </i>
    <i name="e_wo_entrp">    -99.36822521 </i>
    <i name="e_0_energy">    -99.36822521 </i>
   </energy>
  </scstep>
  <scstep>
   <time name="dav">    4.09    4.09</time>
   <time name="total">    4.46    5.05</time>
   <energy>
    <i name="e_fr_energy">    -99.37392154 </i>
    <i name="e_wo_entrp">    -99.37392154 </i>
    <i name="e_0_energy">    -99.37392154 </i>
   </energy>
  </scstep>
  <scstep>
   <time name="dav">    4.09    4.09</time>
   <time name="total">    4.46    4.48</time>
   <energy>
    <i name="e_fr_energy">    -99.37831404 </i>
    <i name="e_wo_entrp">    -99.37831404 </i>
    <i name="e_0_energy">    -99.37831404 </i>
   </energy>
  </scstep>
  <scstep>
   <time name="dav">    4.04    4.04</time>
   <time name="total">    4.41    5.41</time>
   <energy>
    <i name="e_fr_energy">    -99.38075795 </i>
    <i name="e_wo_entrp">    -99.38075795 </i>
    <i name="e_0_energy">    -99.38075795 </i>
   </energy>
  </scstep>
  <scstep>
   <time name="dav">    3.89    3.89</time>
   <time name="total">    4.26    4.27</time>
   <energy>
    <i name="e_fr_energy">    -99.38138252 </i>
    <i name="e_wo_entrp">    -99.38138252 </i>
    <i name="e_0_energy">    -99.38138252 </i>
   </energy>
  </scstep>
  <scstep>
   <time name="dav">    3.86    3.87</time>
   <time name="total">    4.24    4.26</time>
   <energy>
    <i name="e_fr_energy">    -99.38162141 </i>
    <i name="e_wo_entrp">    -99.38162141 </i>
    <i name="e_0_energy">    -99.38162141 </i>
   </energy>
  </scstep>
  <scstep>
   <time name="dav">    3.89    3.89</time>
   <time name="total">    4.12    4.12</time>
   <energy>
    <i name="alphaZ">    159.33093588 </i>
    <i name="ewald"> 133649.54719702 </i>
    <i name="hartreedc">-180417.52731845 </i>
    <i name="XCdc">   -528.49350121 </i>
    <i name="pawpsdc">  51513.50104927 </i>
    <i name="pawaedc"> -49446.09224214 </i>
    <i name="eentropy">      0.00000000 </i>
    <i name="bandstr">  -3777.98341543 </i>
    <i name="atom">  48748.33561406 </i>
    <i name="e_fr_energy">    -99.38168100 </i>
    <i name="e_wo_entrp">    -99.38168100 </i>
    <i name="e_0_energy">    -99.38168100 </i>
   </energy>
  </scstep>
  <structure>
   <crystal>
    <varray name="basis" >
     <v>      22.76162496       0.00000000       0.00000000 </v>
     <v>       0.00000000      22.76162496       0.00000000 </v>
     <v>       0.00000000       0.00000000      22.76162496 </v>
    </varray>
    <i name="volume">  11792.60602493 </i>
    <varray name="rec_basis" >
     <v>       0.04393359       0.00000000       0.00000000 </v>
     <v>       0.00000000       0.04393359       0.00000000 </v>
     <v>       0.00000000       0.00000000       0.04393359 </v>
    </varray>
   </crystal>
   <varray name="positions" >
    <v>       0.48988971       0.69424568       0.58511365 </v>
    <v>       0.56536836       0.45629182       0.55736841 </v>
    <v>       0.50542761       0.50583707       0.71116811 </v>
    <v>       0.47194888       0.64075497       0.38376835 </v>
    <v>       0.45905429       0.42218466       0.37361826 </v>
    <v>       0.56223438       0.70586860       0.68129026 </v>
    <v>       0.65826907       0.43966321       0.39275904 </v>
    <v>       0.70566751       0.54158679       0.59698214 </v>
    <v>       0.53565441       0.69233159       0.47383139 </v>
    <v>       0.60810717       0.36311522       0.48634694 </v>
    <v>       0.59668213       0.57276965       0.54776109 </v>
    <v>       0.49306814       0.57622324       0.48530724 </v>
    <v>       0.33765630       0.45505660       0.59369886 </v>
    <v>       0.44670665       0.53468464       0.32642507 </v>
    <v>       0.28679004       0.37171540       0.52094033 </v>
    <v>       0.55795535       0.48833502       0.44244604 </v>
    <v>       0.39250764       0.53671475       0.66081694 </v>
    <v>       0.48570788       0.34291828       0.46253753 </v>
    <v>       0.44323798       0.42457070       0.64563652 </v>
    <v>       0.62442242       0.51182613       0.68730228 </v>
    <v>       0.59485454       0.66691065       0.37399128 </v>
    <v>       0.54499363       0.59254833       0.29691453 </v>
    <v>       0.40239978       0.35823331       0.54846975 </v>
    <v>       0.36882999       0.36651337       0.43063196 </v>
    <v>       0.41549668       0.66504941       0.49520819 </v>
    <v>       0.45655345       0.46320885       0.50543055 </v>
    <v>       0.63251021       0.55625987       0.37892379 </v>
    <v>       0.47221002       0.62543297       0.68773017 </v>
    <v>       0.33597418       0.47355151       0.47693454 </v>
    <v>       0.51403200       0.34600494       0.58075331 </v>
    <v>       0.72297867       0.65791133       0.56758255 </v>
    <v>       0.69264492       0.57941272       0.47657245 </v>
    <v>       0.38220389       0.57024676       0.42531531 </v>
    <v>       0.67317209       0.43018618       0.61783275 </v>
    <v>       0.57344746       0.60238319       0.74502929 </v>
    <v>       0.62953984       0.32403678       0.59574614 </v>
    <v>       0.35498743       0.56766818       0.54490499 </v>
    <v>       0.56398399       0.36595797       0.37534915 </v>
    <v>       0.65448109       0.62893282       0.66380152 </v>
    <v>       0.49512448       0.54289198       0.59890831 </v>
    <v>       0.60721355       0.69423593       0.57164373 </v>
    <v>       0.56258145       0.40689776       0.67212945 </v>
    <v>       0.55671627       0.47469964       0.32197173 </v>
    <v>       0.38128419       0.65539477       0.61770863 </v>
    <v>       0.68686828       0.46238992       0.50485820 </v>
    <v>       0.66069400       0.69277700       0.46652650 </v>
    <v>       0.35362417       0.46932600       0.35976897 </v>
   </varray>
  </structure>
  <varray name="forces" >
   <v>      -0.06875885      -0.08294721       0.36266111 </v>
   <v>       0.49329747      -0.30667342       0.34371979 </v>
   <v>      -0.12986345       0.09928029       0.41259109 </v>
   <v>       0.16608073       0.25001170      -0.31078857 </v>
   <v>       0.19638057      -0.02211749       0.04272436 </v>
   <v>      -0.09416880       0.38229571       0.27913923 </v>
   <v>       0.10130829      -0.20990486      -0.22659112 </v>
   <v>       0.21253921       0.14985049       0.05334210 </v>
   <v>       0.17275703       0.06572409       0.03074901 </v>
   <v>       0.11332563       0.16210322      -0.11306216 </v>
   <v>       0.35075922       0.27463877      -0.15794409 </v>
   <v>      -0.12335252       0.26323169      -0.09980606 </v>
   <v>      -0.28528439      -0.15168270       0.26823716 </v>
   <v>      -0.06383651      -0.08198846      -0.23763430 </v>
   <v>      -0.39471531      -0.08340573       0.03931975 </v>
   <v>       0.20385004      -0.57607143       0.05078764 </v>
   <v>      -0.31816772       0.08586925       0.19192472 </v>
   <v>       0.11722346      -0.13483140      -0.05299096 </v>
   <v>       0.13606357       0.02499897      -0.18948540 </v>
   <v>       0.01212288       0.31262753       0.02019902 </v>
   <v>      -0.10322237       0.41854063      -0.40549645 </v>
   <v>       0.14435580       0.06891262      -0.22860086 </v>
   <v>      -0.39495444      -0.00133036       0.06934629 </v>
   <v>      -0.10585703      -0.05404174      -0.10958250 </v>
   <v>      -0.36910504       0.21568679       0.02581912 </v>
   <v>      -0.39796704      -0.31194085       0.01273285 </v>
   <v>       0.11374689       0.04535380      -0.49434985 </v>
   <v>       0.02127409       0.12167858       0.20765228 </v>
   <v>      -0.42433034      -0.29761421      -0.19463910 </v>
   <v>       0.09007015      -0.32334892      -0.06545823 </v>
   <v>       0.06620842       0.22380724      -0.00579103 </v>
   <v>       0.40986531      -0.09950456       0.06889338 </v>
   <v>      -0.03929351      -0.14098227      -0.16202603 </v>
   <v>       0.31605668      -0.51307753       0.15320622 </v>
   <v>       0.02959084      -0.05655417       0.46139875 </v>
   <v>       0.05860011      -0.36039838       0.34750992 </v>
   <v>       0.15971662      -0.03707275       0.13676851 </v>
   <v>       0.06016795      -0.32203985      -0.25489395 </v>
   <v>       0.36328554       0.05577291       0.02221184 </v>
   <v>      -0.35676980       0.06778185       0.18724650 </v>
   <v>       0.27633753       0.33834984       0.10528312 </v>
   <v>       0.24122724      -0.28398247       0.15306682 </v>
   <v>       0.04482563       0.10619064      -0.37231119 </v>
   <v>      -0.41503628       0.38464445       0.10203557 </v>
   <v>      -0.23204715       0.03224480      -0.09669160 </v>
   <v>       0.25793065       0.38908761       0.02406825 </v>
   <v>      -0.61223700      -0.08717270      -0.39449096 </v>
  </varray>
  <varray name="stress" >
   <v>       0.33719919       0.37858278      -0.00045724 </v>
   <v>       0.37858278       0.24473284       0.31476520 </v>
   <v>      -0.00045725       0.31476519       0.58692724 </v>
  </varray>
  <energy>
   <i name="e_fr_energy">    -99.38168100 </i>
   <i name="e_wo_entrp">    -99.38168100 </i>
   <i name="e_0_energy">      0.00000000 </i>
  </energy>
  <time name="totalsc">  188.74  221.91</time>
 </calculation>
 <calculation>
  <scstep>
   <time name="dav">    5.36    5.37</time>
   <time name="total">    5.73    5.76</time>
   <energy>
    <i name="alphaZ">    159.33093588 </i>
    <i name="ewald"> 133451.27239976 </i>
    <i name="hartreedc">-180220.20916096 </i>
    <i name="XCdc">   -528.67688398 </i>
    <i name="pawpsdc">  51513.57220853 </i>
    <i name="pawaedc"> -49446.16361289 </i>
    <i name="eentropy">      0.00000000 </i>
    <i name="bandstr">  -3776.91691766 </i>
    <i name="atom">  48748.33561406 </i>
    <i name="e_fr_energy">    -99.45541726 </i>
    <i name="e_wo_entrp">    -99.45541726 </i>
    <i name="e_0_energy">    -99.45541726 </i>
   </energy>
  </scstep>
  <scstep>
   <time name="dav">    5.44    5.44</time>
   <time name="total">    5.81    5.85</time>
   <energy>
    <i name="e_fr_energy">    -99.45779735 </i>
    <i name="e_wo_entrp">    -99.45779735 </i>
    <i name="e_0_energy">    -99.45779735 </i>
   </energy>
  </scstep>
  <scstep>
   <time name="dav">    5.40    5.40</time>
   <time name="total">    5.62    5.79</time>
   <energy>
    <i name="alphaZ">    159.33093588 </i>
    <i name="ewald"> 133451.27239976 </i>
    <i name="hartreedc">-180221.38737098 </i>
    <i name="XCdc">   -528.65116668 </i>
    <i name="pawpsdc">  51498.07841971 </i>
    <i name="pawaedc"> -49430.41542314 </i>
    <i name="eentropy">      0.00000000 </i>
    <i name="bandstr">  -3776.02113695 </i>
    <i name="atom">  48748.33561406 </i>
    <i name="e_fr_energy">    -99.45772834 </i>
    <i name="e_wo_entrp">    -99.45772834 </i>
    <i name="e_0_energy">    -99.45772834 </i>
   </energy>
  </scstep>
  <structure>
   <crystal>
    <varray name="basis" >
     <v>      22.76162496       0.00000000       0.00000000 </v>
     <v>       0.00000000      22.76162496       0.00000000 </v>
     <v>       0.00000000       0.00000000      22.76162496 </v>
    </varray>
    <i name="volume">  11792.60602493 </i>
    <varray name="rec_basis" >
     <v>       0.04393359       0.00000000       0.00000000 </v>
     <v>       0.00000000       0.04393359       0.00000000 </v>
     <v>       0.00000000       0.00000000       0.04393359 </v>
    </varray>
   </crystal>
   <varray name="positions" >
    <v>       0.48986057       0.69421052       0.58526738 </v>
    <v>       0.56557746       0.45616182       0.55751411 </v>
    <v>       0.50537256       0.50587916       0.71134300 </v>
    <v>       0.47201928       0.64086095       0.38363661 </v>
    <v>       0.45913753       0.42217528       0.37363637 </v>
    <v>       0.56219446       0.70603066       0.68140858 </v>
    <v>       0.65831202       0.43957423       0.39266299 </v>
    <v>       0.70575760       0.54165031       0.59700476 </v>
    <v>       0.53572764       0.69235946       0.47384442 </v>
    <v>       0.60815520       0.36318394       0.48629902 </v>
    <v>       0.59683082       0.57288607       0.54769414 </v>
    <v>       0.49301585       0.57633482       0.48526493 </v>
    <v>       0.33753536       0.45499230       0.59381256 </v>
    <v>       0.44667959       0.53464988       0.32632434 </v>
    <v>       0.28662273       0.37168005       0.52095700 </v>
    <v>       0.55804176       0.48809082       0.44246757 </v>
    <v>       0.39237277       0.53675115       0.66089830 </v>
    <v>       0.48575757       0.34286113       0.46251506 </v>
    <v>       0.44329566       0.42458129       0.64555619 </v>
    <v>       0.62442755       0.51195865       0.68731084 </v>
    <v>       0.59481079       0.66708807       0.37381939 </v>
    <v>       0.54505482       0.59257754       0.29681763 </v>
    <v>       0.40223236       0.35823275       0.54849915 </v>
    <v>       0.36878512       0.36649046       0.43058551 </v>
    <v>       0.41534021       0.66514083       0.49521914 </v>
    <v>       0.45638476       0.46307662       0.50543594 </v>
    <v>       0.63255842       0.55627910       0.37871423 </v>
    <v>       0.47221903       0.62548455       0.68781819 </v>
    <v>       0.33579431       0.47342535       0.47685203 </v>
    <v>       0.51407018       0.34586787       0.58072556 </v>
    <v>       0.72300674       0.65800620       0.56758009 </v>
    <v>       0.69281866       0.57937054       0.47660165 </v>
    <v>       0.38218723       0.57018700       0.42524663 </v>
    <v>       0.67330606       0.42996869       0.61789769 </v>
    <v>       0.57346000       0.60235922       0.74522487 </v>
    <v>       0.62956468       0.32388401       0.59589345 </v>
    <v>       0.35505513       0.56765247       0.54496297 </v>
    <v>       0.56400949       0.36582145       0.37524111 </v>
    <v>       0.65463509       0.62895646       0.66381093 </v>
    <v>       0.49497325       0.54292072       0.59898769 </v>
    <v>       0.60733069       0.69437935       0.57168836 </v>
    <v>       0.56268370       0.40677738       0.67219434 </v>
    <v>       0.55673528       0.47474465       0.32181391 </v>
    <v>       0.38110826       0.65555782       0.61775188 </v>
    <v>       0.68676992       0.46240359       0.50481721 </v>
    <v>       0.66080334       0.69294193       0.46653670 </v>
    <v>       0.35336465       0.46928904       0.35960175 </v>
   </varray>
  </structure>
  <varray name="forces" >
   <v>      -0.05890834      -0.08803153       0.33858925 </v>
   <v>       0.45319020      -0.26744683       0.33505187 </v>
   <v>      -0.12341081       0.08748606       0.39187425 </v>
   <v>       0.15565856       0.23622327      -0.29567053 </v>
   <v>       0.16515509      -0.00521340       0.04182642 </v>
   <v>      -0.08102842       0.36083801       0.27095921 </v>
   <v>       0.09692086      -0.20145988      -0.22613841 </v>
   <v>       0.20534364       0.12121449       0.05166713 </v>
   <v>       0.16436381       0.05880554       0.03799947 </v>
   <v>       0.11201573       0.14964097      -0.09925501 </v>
   <v>       0.30371291       0.25370866      -0.14761811 </v>
   <v>      -0.10544983       0.22374283      -0.09300284 </v>
   <v>      -0.28065948      -0.14336331       0.25333960 </v>
   <v>      -0.06350420      -0.08213855      -0.23050776 </v>
   <v>      -0.38642226      -0.08227018       0.03621962 </v>
   <v>       0.18674908      -0.54570964       0.06006801 </v>
   <v>      -0.30752721       0.08466927       0.19221285 </v>
   <v>       0.10588104      -0.12953462      -0.04568189 </v>
   <v>       0.14119805       0.03298412      -0.18723169 </v>
   <v>       0.01064381       0.28475484       0.00153743 </v>
   <v>      -0.08742488       0.40821120      -0.38033274 </v>
   <v>       0.13358527       0.06466641      -0.22700034 </v>
   <v>      -0.36709408      -0.00751364       0.06263762 </v>
   <v>      -0.09902681      -0.05251137      -0.10479190 </v>
   <v>      -0.34845685       0.20551834       0.02306882 </v>
   <v>      -0.35768818      -0.28488282       0.01724982 </v>
   <v>       0.11018873       0.04712689      -0.45870858 </v>
   <v>       0.01277245       0.11906187       0.20132023 </v>
   <v>      -0.41310345      -0.27237851      -0.17769257 </v>
   <v>       0.07538264      -0.31198060      -0.06452516 </v>
   <v>       0.06795483       0.21890663      -0.00873131 </v>
   <v>       0.39555952      -0.08395643       0.04482549 </v>
   <v>      -0.03326047      -0.14210472      -0.15291135 </v>
   <v>       0.31706232      -0.46916666       0.15182406 </v>
   <v>       0.03622038      -0.04132080       0.43817347 </v>
   <v>       0.04987779      -0.35330288       0.32646597 </v>
   <v>       0.16088123      -0.05120543       0.12290846 </v>
   <v>       0.06129811      -0.31087644      -0.25316922 </v>
   <v>       0.33311118       0.06706699       0.03877732 </v>
   <v>      -0.31810763       0.05482947       0.15319656 </v>
   <v>       0.25461149       0.33901207       0.11249468 </v>
   <v>       0.22864167      -0.26778137       0.15417363 </v>
   <v>       0.04392658       0.09557077      -0.35422285 </v>
   <v>      -0.39739316       0.37018582       0.10434235 </v>
   <v>      -0.23041706       0.03462377      -0.08452081 </v>
   <v>       0.24494572       0.36490520       0.01053567 </v>
   <v>      -0.56796954      -0.08960388      -0.38162618 </v>
  </varray>
  <varray name="stress" >
   <v>       0.20883137       0.37712176       0.00112794 </v>
   <v>       0.37712176       0.12596268       0.31050985 </v>
   <v>       0.00112794       0.31050984       0.46293858 </v>
  </varray>
  <energy>
   <i name="e_fr_energy">    -99.45772834 </i>
   <i name="e_wo_entrp">    -99.45772834 </i>
   <i name="e_0_energy">      0.00000000 </i>
  </energy>
  <time name="totalsc">   27.31   28.20</time>
 </calculation>
 <calculation>
  <scstep>
   <time name="dav">    5.22    5.23</time>
   <time name="total">    5.59    5.61</time>
   <energy>
    <i name="alphaZ">    159.33093588 </i>
    <i name="ewald"> 132858.23187815 </i>
    <i name="hartreedc">-179631.62957016 </i>
    <i name="XCdc">   -529.18708739 </i>
    <i name="pawpsdc">  51487.62868112 </i>
    <i name="pawaedc"> -49419.79865762 </i>
    <i name="eentropy">      0.00000000 </i>
    <i name="bandstr">  -3772.55351838 </i>
    <i name="atom">  48748.33561406 </i>
    <i name="e_fr_energy">    -99.64172434 </i>
    <i name="e_wo_entrp">    -99.64172434 </i>
    <i name="e_0_energy">    -99.64172434 </i>
   </energy>
  </scstep>
  <scstep>
   <time name="dav">    5.46    5.46</time>
   <time name="total">    5.82    5.87</time>
   <energy>
    <i name="e_fr_energy">    -99.66298940 </i>
    <i name="e_wo_entrp">    -99.66298940 </i>
    <i name="e_0_energy">    -99.66298940 </i>
   </energy>
  </scstep>
  <scstep>
   <time name="dav">    5.41    5.41</time>
   <time name="total">    5.78    6.61</time>
   <energy>
    <i name="e_fr_energy">    -99.66234984 </i>
    <i name="e_wo_entrp">    -99.66234984 </i>
    <i name="e_0_energy">    -99.66234984 </i>
   </energy>
  </scstep>
  <scstep>
   <time name="dav">    5.46    5.46</time>
   <time name="total">    5.82    6.67</time>
   <energy>
    <i name="e_fr_energy">    -99.66180908 </i>
    <i name="e_wo_entrp">    -99.66180908 </i>
    <i name="e_0_energy">    -99.66180908 </i>
   </energy>
  </scstep>
  <scstep>
   <time name="dav">    3.94    3.94</time>
   <time name="total">    4.16    4.22</time>
   <energy>
    <i name="alphaZ">    159.33093588 </i>
    <i name="ewald"> 132858.23187815 </i>
    <i name="hartreedc">-179636.20425031 </i>
    <i name="XCdc">   -529.08836224 </i>
    <i name="pawpsdc">  51408.53585490 </i>
    <i name="pawaedc"> -49339.40248825 </i>
    <i name="eentropy">      0.00000000 </i>
    <i name="bandstr">  -3769.40097313 </i>
    <i name="atom">  48748.33561406 </i>
    <i name="e_fr_energy">    -99.66179093 </i>
    <i name="e_wo_entrp">    -99.66179093 </i>
    <i name="e_0_energy">    -99.66179093 </i>
   </energy>
  </scstep>
  <structure>
   <crystal>
    <varray name="basis" >
     <v>      22.76162496       0.00000000       0.00000000 </v>
     <v>       0.00000000      22.76162496       0.00000000 </v>
     <v>       0.00000000       0.00000000      22.76162496 </v>
    </varray>
    <i name="volume">  11792.60602493 </i>
    <varray name="rec_basis" >
     <v>       0.04393359       0.00000000       0.00000000 </v>
     <v>       0.00000000       0.04393359       0.00000000 </v>
     <v>       0.00000000       0.00000000       0.04393359 </v>
    </varray>
   </crystal>
   <varray name="positions" >
    <v>       0.48977313       0.69410504       0.58572857 </v>
    <v>       0.56620478       0.45577183       0.55795122 </v>
    <v>       0.50520742       0.50600541       0.71186769 </v>
    <v>       0.47223048       0.64117888       0.38324139 </v>
    <v>       0.45938727       0.42214716       0.37369070 </v>
    <v>       0.56207471       0.70651682       0.68176356 </v>
    <v>       0.65844085       0.43930730       0.39237484 </v>
    <v>       0.70602789       0.54184088       0.59707259 </v>
    <v>       0.53594733       0.69244304       0.47388353 </v>
    <v>       0.60829932       0.36339008       0.48615524 </v>
    <v>       0.59727687       0.57323532       0.54749328 </v>
    <v>       0.49285899       0.57666957       0.48513801 </v>
    <v>       0.33717257       0.45479941       0.59415367 </v>
    <v>       0.44659841       0.53454562       0.32602215 </v>
    <v>       0.28612077       0.37157398       0.52100700 </v>
    <v>       0.55830100       0.48735824       0.44253216 </v>
    <v>       0.39196816       0.53686035       0.66114236 </v>
    <v>       0.48590665       0.34268966       0.46244768 </v>
    <v>       0.44346869       0.42461308       0.64531523 </v>
    <v>       0.62444297       0.51235622       0.68733653 </v>
    <v>       0.59467952       0.66762032       0.37330373 </v>
    <v>       0.54523839       0.59266518       0.29652692 </v>
    <v>       0.40173010       0.35823106       0.54858734 </v>
    <v>       0.36865050       0.36642173       0.43044615 </v>
    <v>       0.41487083       0.66541512       0.49525197 </v>
    <v>       0.45587867       0.46267993       0.50545214 </v>
    <v>       0.63270307       0.55633677       0.37808558 </v>
    <v>       0.47224609       0.62563929       0.68808226 </v>
    <v>       0.33525470       0.47304688       0.47660451 </v>
    <v>       0.51418472       0.34545667       0.58064232 </v>
    <v>       0.72309094       0.65829082       0.56757273 </v>
    <v>       0.69333988       0.57924400       0.47668926 </v>
    <v>       0.38213726       0.57000772       0.42504058 </v>
    <v>       0.67370799       0.42931622       0.61809252 </v>
    <v>       0.57349763       0.60228730       0.74581163 </v>
    <v>       0.62963920       0.32342569       0.59633537 </v>
    <v>       0.35525824       0.56760532       0.54513689 </v>
    <v>       0.56408601       0.36541192       0.37491696 </v>
    <v>       0.65509707       0.62902739       0.66383918 </v>
    <v>       0.49451955       0.54300691       0.59922580 </v>
    <v>       0.60768210       0.69480963       0.57182224 </v>
    <v>       0.56299047       0.40641624       0.67238899 </v>
    <v>       0.55679228       0.47487969       0.32134045 </v>
    <v>       0.38058046       0.65604697       0.61788164 </v>
    <v>       0.68647483       0.46244460       0.50469425 </v>
    <v>       0.66113134       0.69343673       0.46656731 </v>
    <v>       0.35258608       0.46917819       0.35910008 </v>
   </varray>
  </structure>
  <varray name="forces" >
   <v>      -0.03287823      -0.10178015       0.27625282 </v>
   <v>       0.35421837      -0.16631213       0.31591413 </v>
   <v>      -0.10730882       0.05672753       0.33890235 </v>
   <v>       0.13302715       0.20156083      -0.25896932 </v>
   <v>       0.08329644       0.03979220       0.03975036 </v>
   <v>      -0.04705581       0.31176492       0.25189767 </v>
   <v>       0.08593825      -0.18202023      -0.22953824 </v>
   <v>       0.19677436       0.04468912       0.04760866 </v>
   <v>       0.14402059       0.04084205       0.05688419 </v>
   <v>       0.10836578       0.11754418      -0.06453601 </v>
   <v>       0.18016195       0.20071618      -0.12202869 </v>
   <v>      -0.05849705       0.12226105      -0.07404994 </v>
   <v>      -0.26957981      -0.12159728       0.21757142 </v>
   <v>      -0.06347764      -0.08423419      -0.21287133 </v>
   <v>      -0.36961771      -0.08018904       0.02901452 </v>
   <v>       0.14267654      -0.47056561       0.08632612 </v>
   <v>      -0.28190943       0.08202582       0.19871424 </v>
   <v>       0.07594798      -0.11621416      -0.02654517 </v>
   <v>       0.15681236       0.05503259      -0.18341117 </v>
   <v>       0.00742763       0.21027429      -0.04792761 </v>
   <v>      -0.04785692       0.38448986      -0.32195920 </v>
   <v>       0.10611193       0.05450075      -0.22669609 </v>
   <v>      -0.29518337      -0.02454340       0.04522182 </v>
   <v>      -0.08150639      -0.04946970      -0.09429180 </v>
   <v>      -0.29912673       0.18083897       0.01820005 </v>
   <v>      -0.25741150      -0.21605140       0.02817347 </v>
   <v>       0.10286856       0.05145572      -0.37099021 </v>
   <v>      -0.01046181       0.11313854       0.18715596 </v>
   <v>      -0.38511294      -0.20627646      -0.13360563 </v>
   <v>       0.03627251      -0.28391894      -0.06271427 </v>
   <v>       0.07485636       0.20969477      -0.01713324 </v>
   <v>       0.36938112      -0.04193976      -0.01947812 </v>
   <v>      -0.01791956      -0.14764457      -0.13013041 </v>
   <v>       0.32158713      -0.35610430       0.14928202 </v>
   <v>       0.05357702      -0.00071355       0.38199454 </v>
   <v>       0.02753898      -0.33998252       0.27689776 </v>
   <v>       0.16607644      -0.08941698       0.08742688 </v>
   <v>       0.06587938      -0.28474478      -0.25009391 </v>
   <v>       0.25319117       0.09858245       0.08507495 </v>
   <v>      -0.23011118       0.02062764       0.06428230 </v>
   <v>       0.19617510       0.34319281       0.13302014 </v>
   <v>       0.19688741      -0.23427773       0.16071423 </v>
   <v>       0.04141246       0.06724993      -0.31007600 </v>
   <v>      -0.35328864       0.33398363       0.10981008 </v>
   <v>      -0.22921301       0.04114251      -0.05186581 </v>
   <v>       0.21236980       0.31192316      -0.02593895 </v>
   <v>      -0.45533621      -0.09605463      -0.35123954 </v>
  </varray>
  <varray name="stress" >
   <v>      -0.10667818       0.37188019       0.00397625 </v>
   <v>       0.37188019      -0.16359342       0.30034052 </v>
   <v>       0.00397625       0.30034052       0.15226433 </v>
  </varray>
  <energy>
   <i name="e_fr_energy">    -99.66179093 </i>
   <i name="e_wo_entrp">    -99.66179093 </i>
   <i name="e_0_energy">      0.00000000 </i>
  </energy>
  <time name="totalsc">   37.35   40.49</time>
 </calculation>
 <calculation>
  <scstep>
   <time name="dav">    5.21    5.22</time>
   <time name="total">    5.58    5.59</time>
   <energy>
    <i name="alphaZ">    159.33093588 </i>
    <i name="ewald"> 131680.10833885 </i>
    <i name="hartreedc">-178463.33234009 </i>
    <i name="XCdc">   -530.13176167 </i>
    <i name="pawpsdc">  51409.18586863 </i>
    <i name="pawaedc"> -49340.06099127 </i>
    <i name="eentropy">      0.00000000 </i>
    <i name="bandstr">  -3763.32755680 </i>
    <i name="atom">  48748.33561406 </i>
    <i name="e_fr_energy">    -99.89189240 </i>
    <i name="e_wo_entrp">    -99.89189240 </i>
    <i name="e_0_energy">    -99.89189240 </i>
   </energy>
  </scstep>
  <scstep>
   <time name="dav">    5.32    5.33</time>
   <time name="total">    5.69    6.80</time>
   <energy>
    <i name="e_fr_energy">    -99.97653200 </i>
    <i name="e_wo_entrp">    -99.97653200 </i>
    <i name="e_0_energy">    -99.97653200 </i>
   </energy>
  </scstep>
  <scstep>
   <time name="dav">    5.30    5.31</time>
   <time name="total">    5.67    6.34</time>
   <energy>
    <i name="e_fr_energy">    -99.97451118 </i>
    <i name="e_wo_entrp">    -99.97451118 </i>
    <i name="e_0_energy">    -99.97451118 </i>
   </energy>
  </scstep>
  <scstep>
   <time name="dav">    5.39    5.40</time>
   <time name="total">    5.76    5.77</time>
   <energy>
    <i name="e_fr_energy">    -99.97198492 </i>
    <i name="e_wo_entrp">    -99.97198492 </i>
    <i name="e_0_energy">    -99.97198492 </i>
   </energy>
  </scstep>
  <scstep>
   <time name="dav">    4.03    4.03</time>
   <time name="total">    4.26    5.26</time>
   <energy>
    <i name="alphaZ">    159.33093588 </i>
    <i name="ewald"> 131680.10833885 </i>
    <i name="hartreedc">-178472.56523003 </i>
    <i name="XCdc">   -529.94111607 </i>
    <i name="pawpsdc">  51263.45588564 </i>
    <i name="pawaedc"> -49191.87634323 </i>
    <i name="eentropy">      0.00000000 </i>
    <i name="bandstr">  -3756.82009955 </i>
    <i name="atom">  48748.33561406 </i>
    <i name="e_fr_energy">    -99.97201445 </i>
    <i name="e_wo_entrp">    -99.97201445 </i>
    <i name="e_0_energy">    -99.97201445 </i>
   </energy>
  </scstep>
  <structure>
   <crystal>
    <varray name="basis" >
     <v>      22.76162496       0.00000000       0.00000000 </v>
     <v>       0.00000000      22.76162496       0.00000000 </v>
     <v>       0.00000000       0.00000000      22.76162496 </v>
    </varray>
    <i name="volume">  11792.60602493 </i>
    <varray name="rec_basis" >
     <v>       0.04393359       0.00000000       0.00000000 </v>
     <v>       0.00000000       0.04393359       0.00000000 </v>
     <v>       0.00000000       0.00000000       0.04393359 </v>
    </varray>
   </crystal>
   <varray name="positions" >
    <v>       0.48959825       0.69389408       0.58665095 </v>
    <v>       0.56745942       0.45499185       0.55882542 </v>
    <v>       0.50487713       0.50625792       0.71291706 </v>
    <v>       0.47265288       0.64181476       0.38245094 </v>
    <v>       0.45988673       0.42209090       0.37379936 </v>
    <v>       0.56183520       0.70748913       0.68247352 </v>
    <v>       0.65869851       0.43877343       0.39179853 </v>
    <v>       0.70656845       0.54222200       0.59720826 </v>
    <v>       0.53638671       0.69261020       0.47396173 </v>
    <v>       0.60858755       0.36380237       0.48586768 </v>
    <v>       0.59816898       0.57393383       0.54709157 </v>
    <v>       0.49254526       0.57733907       0.48488416 </v>
    <v>       0.33644699       0.45441363       0.59483590 </v>
    <v>       0.44643605       0.53433709       0.32541776 </v>
    <v>       0.28511687       0.37136185       0.52110701 </v>
    <v>       0.55881946       0.48589308       0.44266133 </v>
    <v>       0.39115894       0.53707875       0.66163050 </v>
    <v>       0.48620479       0.34234674       0.46231290 </v>
    <v>       0.44381475       0.42467667       0.64483330 </v>
    <v>       0.62447380       0.51315135       0.68738790 </v>
    <v>       0.59441699       0.66868482       0.37227240 </v>
    <v>       0.54560554       0.59284045       0.29594551 </v>
    <v>       0.40072559       0.35822767       0.54876371 </v>
    <v>       0.36838127       0.36628429       0.43016744 </v>
    <v>       0.41393206       0.66596369       0.49531764 </v>
    <v>       0.45486649       0.46188655       0.50548452 </v>
    <v>       0.63299237       0.55645212       0.37682826 </v>
    <v>       0.47230020       0.62594876       0.68861040 </v>
    <v>       0.33417547       0.47228993       0.47610947 </v>
    <v>       0.51441381       0.34463428       0.58047583 </v>
    <v>       0.72325933       0.65886004       0.56755800 </v>
    <v>       0.69438231       0.57899092       0.47686448 </v>
    <v>       0.38203732       0.56964915       0.42462849 </v>
    <v>       0.67451184       0.42801127       0.61848218 </v>
    <v>       0.57357289       0.60214346       0.74698513 </v>
    <v>       0.62978824       0.32250907       0.59721922 </v>
    <v>       0.35566446       0.56751103       0.54548475 </v>
    <v>       0.56423904       0.36459286       0.37426867 </v>
    <v>       0.65602104       0.62916924       0.66389567 </v>
    <v>       0.49361216       0.54317931       0.59970204 </v>
    <v>       0.60838493       0.69567018       0.57209002 </v>
    <v>       0.56360399       0.40569397       0.67277830 </v>
    <v>       0.55690629       0.47514977       0.32039353 </v>
    <v>       0.37952487       0.65702526       0.61814115 </v>
    <v>       0.68588465       0.46252661       0.50444833 </v>
    <v>       0.66178736       0.69442632       0.46662852 </v>
    <v>       0.35102893       0.46895647       0.35809675 </v>
   </varray>
  </structure>
  <varray name="forces" >
   <v>       0.01444877      -0.12465952       0.15347636 </v>
   <v>       0.17782463       0.01635419       0.28198149 </v>
   <v>      -0.07638051       0.00199489       0.22636811 </v>
   <v>       0.09432366       0.13395638      -0.18192550 </v>
   <v>      -0.05990995       0.12057862       0.03562022 </v>
   <v>       0.01417693       0.20322158       0.22018533 </v>
   <v>       0.06436179      -0.14318467      -0.23208510 </v>
   <v>       0.16472696      -0.09552084       0.03710164 </v>
   <v>       0.10788557       0.00659429       0.09018890 </v>
   <v>       0.09650011       0.04994034      -0.00385992 </v>
   <v>      -0.04077760       0.10963295      -0.07780711 </v>
   <v>       0.02262274      -0.05532539      -0.03301259 </v>
   <v>      -0.24174330      -0.07829616       0.15158514 </v>
   <v>      -0.06077792      -0.08557323      -0.17458773 </v>
   <v>      -0.33642083      -0.07532823       0.01789157 </v>
   <v>       0.06046696      -0.32629004       0.12865558 </v>
   <v>      -0.22705876       0.07822992       0.20240461 </v>
   <v>       0.01924476      -0.08677413       0.00893354 </v>
   <v>       0.18680537       0.09773742      -0.17420747 </v>
   <v>      -0.00131862       0.06800100      -0.13684386 </v>
   <v>       0.01558768       0.33275121      -0.21456079 </v>
   <v>       0.05157612       0.03633248      -0.22724291 </v>
   <v>      -0.16297811      -0.05833771       0.01278193 </v>
   <v>      -0.04478624      -0.04346118      -0.07475549 </v>
   <v>      -0.19779748       0.13124157       0.01176038 </v>
   <v>      -0.08068010      -0.08985673       0.04246085 </v>
   <v>       0.09029231       0.05533624      -0.20905841 </v>
   <v>      -0.05222319       0.09831320       0.16361913 </v>
   <v>      -0.32811526      -0.08079370      -0.05347722 </v>
   <v>      -0.03502643      -0.22559834      -0.05698060 </v>
   <v>       0.08915589       0.18854701      -0.03469211 </v>
   <v>       0.31951634       0.03899415      -0.13578094 </v>
   <v>       0.00985006      -0.15671361      -0.08324178 </v>
   <v>       0.32504966      -0.15461855       0.14110105 </v>
   <v>       0.08164371       0.07564923       0.27138217 </v>
   <v>      -0.01405153      -0.31430762       0.17860109 </v>
   <v>       0.17499139      -0.15624292       0.02013215 </v>
   <v>       0.07524902      -0.23247941      -0.24253381 </v>
   <v>       0.10711606       0.15874644       0.16991066 </v>
   <v>      -0.05956526      -0.03871592      -0.09152412 </v>
   <v>       0.08241918       0.34243081       0.17158784 </v>
   <v>       0.13252959      -0.16941667       0.16601964 </v>
   <v>       0.03404632       0.01327203      -0.21804857 </v>
   <v>      -0.26284088       0.25892832       0.11194328 </v>
   <v>      -0.21664418       0.05526427       0.01159991 </v>
   <v>       0.14929810       0.21818556      -0.09088360 </v>
   <v>      -0.26261352      -0.09873954      -0.28018291 </v>
  </varray>
  <varray name="stress" >
   <v>      -0.71706402       0.36019548       0.00504402 </v>
   <v>       0.36019549      -0.72326807       0.27994382 </v>
   <v>       0.00504402       0.27994382      -0.45182106 </v>
  </varray>
  <energy>
   <i name="e_fr_energy">    -99.97201445 </i>
   <i name="e_wo_entrp">    -99.97201445 </i>
   <i name="e_0_energy">      0.00000000 </i>
  </energy>
  <time name="totalsc">   37.12   41.75</time>
 </calculation>
 <calculation>
  <scstep>
   <time name="dav">    5.22    5.23</time>
   <time name="total">    5.60    5.61</time>
   <energy>
    <i name="alphaZ">    159.33093588 </i>
    <i name="ewald"> 129355.11535008 </i>
    <i name="hartreedc">-176157.09915606 </i>
    <i name="XCdc">   -531.87677633 </i>
    <i name="pawpsdc">  51264.31825471 </i>
    <i name="pawaedc"> -49192.74722718 </i>
    <i name="eentropy">      0.00000000 </i>
    <i name="bandstr">  -3745.30223741 </i>
    <i name="atom">  48748.33561406 </i>
    <i name="e_fr_energy">    -99.92524225 </i>
    <i name="e_wo_entrp">    -99.92524225 </i>
    <i name="e_0_energy">    -99.92524225 </i>
   </energy>
  </scstep>
  <scstep>
   <time name="dav">    5.34    5.35</time>
   <time name="total">    5.71    6.42</time>
   <energy>
    <i name="e_fr_energy">   -100.26995561 </i>
    <i name="e_wo_entrp">   -100.26995561 </i>
    <i name="e_0_energy">   -100.26995561 </i>
   </energy>
  </scstep>
  <scstep>
   <time name="dav">    5.42    5.42</time>
   <time name="total">    5.78    5.95</time>
   <energy>
    <i name="e_fr_energy">   -100.26560589 </i>
    <i name="e_wo_entrp">   -100.26560589 </i>
    <i name="e_0_energy">   -100.26560589 </i>
   </energy>
  </scstep>
  <scstep>
   <time name="dav">    5.39    5.40</time>
   <time name="total">    5.76    5.76</time>
   <energy>
    <i name="e_fr_energy">   -100.25420971 </i>
    <i name="e_wo_entrp">   -100.25420971 </i>
    <i name="e_0_energy">   -100.25420971 </i>
   </energy>
  </scstep>
  <scstep>
   <time name="dav">    5.43    5.43</time>
   <time name="total">    5.80    5.80</time>
   <energy>
    <i name="e_fr_energy">   -100.25436665 </i>
    <i name="e_wo_entrp">   -100.25436665 </i>
    <i name="e_0_energy">   -100.25436665 </i>
   </energy>
  </scstep>
  <scstep>
   <time name="dav">    5.37    5.38</time>
   <time name="total">    5.74    5.75</time>
   <energy>
    <i name="e_fr_energy">   -100.25421713 </i>
    <i name="e_wo_entrp">   -100.25421713 </i>
    <i name="e_0_energy">   -100.25421713 </i>
   </energy>
  </scstep>
  <scstep>
   <time name="dav">    3.98    3.99</time>
   <time name="total">    4.22    4.36</time>
   <energy>
    <i name="alphaZ">    159.33093588 </i>
    <i name="ewald"> 129355.11535008 </i>
    <i name="hartreedc">-176174.15727062 </i>
    <i name="XCdc">   -531.51051951 </i>
    <i name="pawpsdc">  51010.87554273 </i>
    <i name="pawaedc"> -48934.84246535 </i>
    <i name="eentropy">      0.00000000 </i>
    <i name="bandstr">  -3733.40148040 </i>
    <i name="atom">  48748.33561406 </i>
    <i name="e_fr_energy">   -100.25429313 </i>
    <i name="e_wo_entrp">   -100.25429313 </i>
    <i name="e_0_energy">   -100.25429313 </i>
   </energy>
  </scstep>
  <structure>
   <crystal>
    <varray name="basis" >
     <v>      22.76162496       0.00000000       0.00000000 </v>
     <v>       0.00000000      22.76162496       0.00000000 </v>
     <v>       0.00000000       0.00000000      22.76162496 </v>
    </varray>
    <i name="volume">  11792.60602493 </i>
    <varray name="rec_basis" >
     <v>       0.04393359       0.00000000       0.00000000 </v>
     <v>       0.00000000       0.04393359       0.00000000 </v>
     <v>       0.00000000       0.00000000       0.04393359 </v>
    </varray>
   </crystal>
   <varray name="positions" >
    <v>       0.48924849       0.69347215       0.58849571 </v>
    <v>       0.56996869       0.45343188       0.56057383 </v>
    <v>       0.50421655       0.50676293       0.71501580 </v>
    <v>       0.47349769       0.64308650       0.38087004 </v>
    <v>       0.46088567       0.42197840       0.37401669 </v>
    <v>       0.56135619       0.70943377       0.68389342 </v>
    <v>       0.65921384       0.43770570       0.39064592 </v>
    <v>       0.70764958       0.54298425       0.59747960 </v>
    <v>       0.53726548       0.69294452       0.47411814 </v>
    <v>       0.60916401       0.36462695       0.48529256 </v>
    <v>       0.59995320       0.57533084       0.54628815 </v>
    <v>       0.49191780       0.57867806       0.48437648 </v>
    <v>       0.33499582       0.45364206       0.59620035 </v>
    <v>       0.44611133       0.53392004       0.32420897 </v>
    <v>       0.28310905       0.37093759       0.52130702 </v>
    <v>       0.55985639       0.48296276       0.44291967 </v>
    <v>       0.38954051       0.53751554       0.66260677 </v>
    <v>       0.48680107       0.34166089       0.46204335 </v>
    <v>       0.44450687       0.42480383       0.64386944 </v>
    <v>       0.62453547       0.51474160       0.68749065 </v>
    <v>       0.59389192       0.67081383       0.37020975 </v>
    <v>       0.54633984       0.59319099       0.29478268 </v>
    <v>       0.39871656       0.35822090       0.54911645 </v>
    <v>       0.36784280       0.36600939       0.42961003 </v>
    <v>       0.41205452       0.66706083       0.49544897 </v>
    <v>       0.45284214       0.46029979       0.50554929 </v>
    <v>       0.63357098       0.55668283       0.37431364 </v>
    <v>       0.47240841       0.62656771       0.68966667 </v>
    <v>       0.33201701       0.47077605       0.47511939 </v>
    <v>       0.51487197       0.34298949       0.58014286 </v>
    <v>       0.72359611       0.65999849       0.56752854 </v>
    <v>       0.69646719       0.57848477       0.47721492 </v>
    <v>       0.38183745       0.56893201       0.42380430 </v>
    <v>       0.67611953       0.42540138       0.61926150 </v>
    <v>       0.57372342       0.60185579       0.74933215 </v>
    <v>       0.63008633       0.32067582       0.59898691 </v>
    <v>       0.35647690       0.56732245       0.54618045 </v>
    <v>       0.56454510       0.36295472       0.37297209 </v>
    <v>       0.65786898       0.62945294       0.66400866 </v>
    <v>       0.49179736       0.54352410       0.60065451 </v>
    <v>       0.60979059       0.69739127       0.57262556 </v>
    <v>       0.56483105       0.40424943       0.67355691 </v>
    <v>       0.55713430       0.47568994       0.31849968 </v>
    <v>       0.37741369       0.65898184       0.61866018 </v>
    <v>       0.68470429       0.46269063       0.50395648 </v>
    <v>       0.66309938       0.69640551       0.46675095 </v>
    <v>       0.34791464       0.46851305       0.35609008 </v>
   </varray>
  </structure>
  <varray name="forces" >
   <v>       0.09294441      -0.15258161      -0.07715373 </v>
   <v>      -0.11410697       0.30407257       0.23353577 </v>
   <v>      -0.02090086      -0.07940224       0.01202731 </v>
   <v>       0.00942552       0.00192519      -0.02196958 </v>
   <v>      -0.26508783       0.24465818       0.02642299 </v>
   <v>       0.10909421      -0.00361776       0.15838619 </v>
   <v>       0.03104858      -0.06367723      -0.23770840 </v>
   <v>       0.10360840      -0.32453881       0.00904757 </v>
   <v>       0.05742602      -0.05163718       0.13546270 </v>
   <v>       0.06141521      -0.09459080       0.07834167 </v>
   <v>      -0.38103585      -0.02739471      -0.01027513 </v>
   <v>       0.14230906      -0.31422056       0.04621089 </v>
   <v>      -0.17546305       0.01031408       0.02112183 </v>
   <v>      -0.04877391      -0.08215588      -0.09293195 </v>
   <v>      -0.29944122      -0.06459866      -0.00117984 </v>
   <v>      -0.08159922      -0.10556040       0.17802212 </v>
   <v>      -0.12723781       0.07111872       0.19825548 </v>
   <v>      -0.07649635      -0.02570269       0.06641377 </v>
   <v>       0.24007412       0.17190972      -0.15213436 </v>
   <v>      -0.02439585      -0.17762713      -0.27709724 </v>
   <v>       0.13442347       0.24066380      -0.01227837 </v>
   <v>      -0.05023757       0.00859150      -0.23549057 </v>
   <v>       0.05064521      -0.12285285      -0.03516158 </v>
   <v>       0.03135902      -0.03389910      -0.04615313 </v>
   <v>      -0.01510962       0.03757358       0.01029304 </v>
   <v>       0.20132918       0.10701176       0.04657410 </v>
   <v>       0.07265835       0.05134006       0.06972482 </v>
   <v>      -0.11482166       0.06452194       0.13523520 </v>
   <v>      -0.22292148       0.14279564       0.07152950 </v>
   <v>      -0.14149151      -0.11003166      -0.04490182 </v>
   <v>       0.12513502       0.14674786      -0.07017066 </v>
   <v>       0.24167934       0.17607313      -0.31982735 </v>
   <v>       0.05299356      -0.17224852       0.00436802 </v>
   <v>       0.31874863       0.17993147       0.10459259 </v>
   <v>       0.12215480       0.20126001       0.09338250 </v>
   <v>      -0.08992139      -0.27478766       0.01136464 </v>
   <v>       0.18325276      -0.25289592      -0.09617132 </v>
   <v>       0.09155664      -0.12765540      -0.22580088 </v>
   <v>      -0.13862376       0.26519982       0.30876901 </v>
   <v>       0.21626754      -0.12609005      -0.32322705 </v>
   <v>      -0.13363693       0.30917832       0.24491724 </v>
   <v>       0.01502012      -0.03653352       0.16274847 </v>
   <v>       0.02408906      -0.08186903      -0.04768634 </v>
   <v>      -0.10259798       0.11122328       0.09971882 </v>
   <v>      -0.16443278       0.08914497       0.12279279 </v>
   <v>       0.02052338       0.04931919      -0.19287009 </v>
   <v>       0.03915201      -0.07840540      -0.12906963 </v>
  </varray>
  <varray name="stress" >
   <v>      -1.71386035       0.32535600      -0.01466587 </v>
   <v>       0.32535600      -1.63625539       0.24045131 </v>
   <v>      -0.01466586       0.24045131      -1.47292065 </v>
  </varray>
  <energy>
   <i name="e_fr_energy">   -100.25429313 </i>
   <i name="e_wo_entrp">   -100.25429313 </i>
   <i name="e_0_energy">      0.00000000 </i>
  </energy>
  <time name="totalsc">   48.78   53.41</time>
 </calculation>
 <calculation>
  <scstep>
   <time name="dav">    5.27    5.27</time>
   <time name="total">    5.64    5.65</time>
   <energy>
    <i name="alphaZ">    159.33093588 </i>
    <i name="ewald"> 128930.40473430 </i>
    <i name="hartreedc">-175751.21567638 </i>
    <i name="XCdc">   -531.85330759 </i>
    <i name="pawpsdc">  51011.95315667 </i>
    <i name="pawaedc"> -48935.92440768 </i>
    <i name="eentropy">      0.00000000 </i>
    <i name="bandstr">  -3731.28365216 </i>
    <i name="atom">  48748.33561406 </i>
    <i name="e_fr_energy">   -100.25260291 </i>
    <i name="e_wo_entrp">   -100.25260291 </i>
    <i name="e_0_energy">   -100.25260291 </i>
   </energy>
  </scstep>
  <scstep>
   <time name="dav">    5.44    5.45</time>
   <time name="total">    5.82    5.82</time>
   <energy>
    <i name="e_fr_energy">   -100.26429045 </i>
    <i name="e_wo_entrp">   -100.26429045 </i>
    <i name="e_0_energy">   -100.26429045 </i>
   </energy>
  </scstep>
  <scstep>
   <time name="dav">    5.43    5.44</time>
   <time name="total">    5.80    5.92</time>
   <energy>
    <i name="e_fr_energy">   -100.26407498 </i>
    <i name="e_wo_entrp">   -100.26407498 </i>
    <i name="e_0_energy">   -100.26407498 </i>
   </energy>
  </scstep>
  <scstep>
   <time name="dav">    5.42    5.42</time>
   <time name="total">    5.78    5.79</time>
   <energy>
    <i name="e_fr_energy">   -100.26380451 </i>
    <i name="e_wo_entrp">   -100.26380451 </i>
    <i name="e_0_energy">   -100.26380451 </i>
   </energy>
  </scstep>
  <scstep>
   <time name="dav">    3.82    3.83</time>
   <time name="total">    4.05    4.51</time>
   <energy>
    <i name="alphaZ">    159.33093588 </i>
    <i name="ewald"> 128930.40473430 </i>
    <i name="hartreedc">-175755.22175277 </i>
    <i name="XCdc">   -531.77821499 </i>
    <i name="pawpsdc">  50968.32750714 </i>
    <i name="pawaedc"> -48891.51558754 </i>
    <i name="eentropy">      0.00000000 </i>
    <i name="bandstr">  -3728.14711048 </i>
    <i name="atom">  48748.33561406 </i>
    <i name="e_fr_energy">   -100.26387440 </i>
    <i name="e_wo_entrp">   -100.26387440 </i>
    <i name="e_0_energy">   -100.26387440 </i>
   </energy>
  </scstep>
  <structure>
   <crystal>
    <varray name="basis" >
     <v>      22.76162496       0.00000000       0.00000000 </v>
     <v>       0.00000000      22.76162496       0.00000000 </v>
     <v>       0.00000000       0.00000000      22.76162496 </v>
    </varray>
    <i name="volume">  11792.60602493 </i>
    <varray name="rec_basis" >
     <v>       0.04393359       0.00000000       0.00000000 </v>
     <v>       0.00000000       0.04393359       0.00000000 </v>
     <v>       0.00000000       0.00000000       0.04393359 </v>
    </varray>
   </crystal>
   <varray name="positions" >
    <v>       0.48918392       0.69339426       0.58883625 </v>
    <v>       0.57043190       0.45314392       0.56089659 </v>
    <v>       0.50409461       0.50685615       0.71540322 </v>
    <v>       0.47365364       0.64332126       0.38057821 </v>
    <v>       0.46107007       0.42195763       0.37405681 </v>
    <v>       0.56126777       0.70979275       0.68415553 </v>
    <v>       0.65930897       0.43750860       0.39043315 </v>
    <v>       0.70784916       0.54312496       0.59752968 </v>
    <v>       0.53742770       0.69300623       0.47414702 </v>
    <v>       0.60927042       0.36477916       0.48518640 </v>
    <v>       0.60028256       0.57558873       0.54613985 </v>
    <v>       0.49180197       0.57892523       0.48428276 </v>
    <v>       0.33472794       0.45349963       0.59645223 </v>
    <v>       0.44605138       0.53384305       0.32398583 </v>
    <v>       0.28273842       0.37085927       0.52134394 </v>
    <v>       0.56004781       0.48242183       0.44296736 </v>
    <v>       0.38924175       0.53759617       0.66278699 </v>
    <v>       0.48691115       0.34153428       0.46199359 </v>
    <v>       0.44463463       0.42482730       0.64369151 </v>
    <v>       0.62454685       0.51503516       0.68750962 </v>
    <v>       0.59379500       0.67120684       0.36982899 </v>
    <v>       0.54647539       0.59325570       0.29456802 </v>
    <v>       0.39834570       0.35821966       0.54918157 </v>
    <v>       0.36774340       0.36595865       0.42950713 </v>
    <v>       0.41170793       0.66726336       0.49547322 </v>
    <v>       0.45246845       0.46000688       0.50556125 </v>
    <v>       0.63367778       0.55672541       0.37384944 </v>
    <v>       0.47242839       0.62668197       0.68986166 </v>
    <v>       0.33161857       0.47049659       0.47493663 </v>
    <v>       0.51495654       0.34268586       0.58008140 </v>
    <v>       0.72365828       0.66020864       0.56752310 </v>
    <v>       0.69685205       0.57839134       0.47727962 </v>
    <v>       0.38180055       0.56879962       0.42365216 </v>
    <v>       0.67641631       0.42491960       0.61940536 </v>
    <v>       0.57375120       0.60180268       0.74976540 </v>
    <v>       0.63014135       0.32033740       0.59931322 </v>
    <v>       0.35662687       0.56728764       0.54630888 </v>
    <v>       0.56460159       0.36265233       0.37273275 </v>
    <v>       0.65821010       0.62950531       0.66402951 </v>
    <v>       0.49146236       0.54358774       0.60083034 </v>
    <v>       0.61005007       0.69770898       0.57272442 </v>
    <v>       0.56505757       0.40398277       0.67370064 </v>
    <v>       0.55717640       0.47578965       0.31815008 </v>
    <v>       0.37702397       0.65934302       0.61875599 </v>
    <v>       0.68448639       0.46272091       0.50386569 </v>
    <v>       0.66334158       0.69677086       0.46677355 </v>
    <v>       0.34733976       0.46843120       0.35571965 </v>
   </varray>
  </structure>
  <varray name="forces" >
   <v>       0.10384821      -0.15711568      -0.11135794 </v>
   <v>      -0.15443402       0.34447431       0.23121425 </v>
   <v>      -0.01390707      -0.09077541      -0.01454840 </v>
   <v>      -0.00358752      -0.01786180       0.00293257 </v>
   <v>      -0.29115436       0.26212523       0.02524655 </v>
   <v>       0.12133236      -0.03375377       0.14890977 </v>
   <v>       0.02700612      -0.05156550      -0.24198409 </v>
   <v>       0.09497959      -0.35991268       0.00346516 </v>
   <v>       0.05242720      -0.05999226       0.14142062 </v>
   <v>       0.05410031      -0.12210802       0.08769566 </v>
[...]
       <r>     0.9301     0.0000   308.0000 </r>
       <r>     0.9716     0.0000   309.0000 </r>
       <r>     1.0130     0.0000   311.0000 </r>
       <r>     1.0545     0.0000   313.0000 </r>
       <r>     1.0959     0.0000   315.0000 </r>
       <r>     1.1373    22.0100   316.9120 </r>
       <r>     1.1788     0.0000   318.0000 </r>
       <r>     1.2202     0.0000   321.0000 </r>
       <r>     1.2616     0.0000   322.0000 </r>
       <r>     1.3031     0.0000   323.0000 </r>
       <r>     1.3445     0.0000   325.0000 </r>
       <r>     1.3859    24.1333   327.0000 </r>
       <r>     1.4274     0.0000   328.0000 </r>
       <r>     1.4688     0.0000   330.0000 </r>
       <r>     1.5103     0.0000   332.0000 </r>
       <r>     1.5517     0.0000   334.0000 </r>
       <r>     1.5931    24.1333   336.0000 </r>
       <r>     1.6346     0.0000   336.0000 </r>
       <r>     1.6760     0.0000   336.0000 </r>
       <r>     1.7174     0.0000   336.0000 </r>
       <r>     1.7589     0.0000   336.0000 </r>
       <r>     1.8003     0.0000   336.0000 </r>
       <r>     1.8417     0.0000   336.0000 </r>
       <r>     1.8832     0.0000   336.0000 </r>
       <r>     1.9246     0.0000   336.0000 </r>
       <r>     1.9661     0.0000   336.0000 </r>
       <r>     2.0075     0.0000   336.0000 </r>
       <r>     2.0489     0.0000   336.0000 </r>
       <r>     2.0904     0.0000   336.0000 </r>
       <r>     2.1318     0.0000   336.0000 </r>
       <r>     2.1732     0.0000   336.0000 </r>
      </set>
      <set comment="spin 2">
       <r>   -10.2577     0.0000     0.0000 </r>
       <r>   -10.2163     0.0000     0.0000 </r>
       <r>   -10.1749     0.0000     0.0000 </r>
       <r>   -10.1334     0.0000     0.0000 </r>
       <r>   -10.0920     0.0000     0.0000 </r>
       <r>   -10.0506     0.0000     0.0000 </r>
       <r>   -10.0091     0.0000     0.0000 </r>
       <r>    -9.9677     0.0000     0.0000 </r>
       <r>    -9.9262     0.0000     0.0000 </r>
       <r>    -9.8848     0.0000     0.0000 </r>
       <r>    -9.8434     0.0000     0.0000 </r>
       <r>    -9.8019     0.0000     0.0000 </r>
       <r>    -9.7605     0.0000     0.0000 </r>
       <r>    -9.7191     0.0000     0.0000 </r>
       <r>    -9.6776     0.0000     1.0000 </r>
       <r>    -9.6362     0.0000     1.0000 </r>
       <r>    -9.5948     0.0000     1.0000 </r>
       <r>    -9.5533     0.0000     1.0000 </r>
       <r>    -9.5119     0.0000     1.0000 </r>
       <r>    -9.4704     0.0000     1.0000 </r>
       <r>    -9.4290     0.0000     1.0000 </r>
       <r>    -9.3876     0.0000     1.0000 </r>
       <r>    -9.3461     0.0000     1.0000 </r>
       <r>    -9.3047     0.0000     1.0000 </r>
       <r>    -9.2633     0.0000     1.0000 </r>
       <r>    -9.2218     0.0000     1.0000 </r>
       <r>    -9.1804     0.0000     1.0000 </r>
       <r>    -9.1389     0.0000     2.0000 </r>
       <r>    -9.0975     0.0000     2.0000 </r>
       <r>    -9.0561     0.0000     2.0000 </r>
       <r>    -9.0146     0.0000     3.0000 </r>
       <r>    -8.9732     0.0000     6.0000 </r>
       <r>    -8.9318     0.0000     8.0000 </r>
       <r>    -8.8903     0.0000     8.0000 </r>
       <r>    -8.8489     0.0000    10.0000 </r>
       <r>    -8.8075     0.0000    13.0000 </r>
       <r>    -8.7660     0.0000    14.0000 </r>
       <r>    -8.7246     0.0000    17.0000 </r>
       <r>    -8.6831     0.0000    18.0000 </r>
       <r>    -8.6417     0.0000    22.0000 </r>
       <r>    -8.6003     0.0000    24.0000 </r>
       <r>    -8.5588     0.0000    27.0000 </r>
       <r>    -8.5174     0.0000    30.0000 </r>
       <r>    -8.4760    24.1333    33.0000 </r>
       <r>    -8.4345     0.0000    36.0000 </r>
       <r>    -8.3931     0.0000    39.0000 </r>
       <r>    -8.3517     0.0000    42.0000 </r>
       <r>    -8.3102     0.0000    45.0000 </r>
       <r>    -8.2688     0.0000    47.0000 </r>
       <r>    -8.2273     0.0000    50.0000 </r>
       <r>    -8.1859     0.0000    53.0000 </r>
       <r>    -8.1445     0.0000    56.0000 </r>
       <r>    -8.1030     0.0000    58.0000 </r>
       <r>    -8.0616     0.0000    62.0000 </r>
       <r>    -8.0202     0.0000    64.0000 </r>
       <r>    -7.9787     0.0000    67.0000 </r>
       <r>    -7.9373     0.0000    71.0000 </r>
       <r>    -7.8959     0.0000    74.0000 </r>
       <r>    -7.8544     0.0000    77.0000 </r>
       <r>    -7.8130     0.0000    80.0000 </r>
       <r>    -7.7715     0.0000    85.0000 </r>
       <r>    -7.7301     0.0000    88.0000 </r>
       <r>    -7.6887     0.0000    90.0000 </r>
       <r>    -7.6472     0.0000    92.0000 </r>
       <r>    -7.6058     0.0000    95.0000 </r>
       <r>    -7.5644     0.0000    98.0000 </r>
       <r>    -7.5229     0.0000   101.0000 </r>
       <r>    -7.4815     0.0000   105.0000 </r>
       <r>    -7.4400     0.0000   107.0000 </r>
       <r>    -7.3986     0.0000   110.0000 </r>
       <r>    -7.3572     0.0000   113.0000 </r>
       <r>    -7.3157     0.0000   116.0000 </r>
       <r>    -7.2743     0.0000   119.0000 </r>
       <r>    -7.2329     0.0000   122.0000 </r>
       <r>    -7.1914     0.0000   125.0000 </r>
       <r>    -7.1500     0.0000   129.0000 </r>
       <r>    -7.1086     0.0000   132.0000 </r>
       <r>    -7.0671     0.0000   135.0000 </r>
       <r>    -7.0257     0.0000   139.0000 </r>
       <r>    -6.9842     0.0000   142.0000 </r>
       <r>    -6.9428     0.0000   146.0000 </r>
       <r>    -6.9014     0.0000   150.0000 </r>
       <r>    -6.8599    24.1333   155.0000 </r>
       <r>    -6.8185     0.0000   160.0000 </r>
       <r>    -6.7771     0.0000   163.0000 </r>
       <r>    -6.7356     0.0000   166.0000 </r>
       <r>    -6.6942     0.0000   173.0000 </r>
       <r>    -6.6528     0.0000   178.0000 </r>
       <r>    -6.6113     0.0000   182.0000 </r>
       <r>    -6.5699     0.0000   187.0000 </r>
       <r>    -6.5284     0.0000   192.0000 </r>
       <r>    -6.4870     0.0000   196.0000 </r>
       <r>    -6.4456     0.0000   201.0000 </r>
       <r>    -6.4041     0.0000   205.0000 </r>
       <r>    -6.3627     0.0000   211.0000 </r>
       <r>    -6.3213     0.0000   215.0000 </r>
       <r>    -6.2798     0.0000   220.0000 </r>
       <r>    -6.2384     0.0000   224.0000 </r>
       <r>    -6.1970     0.0000   228.0000 </r>
       <r>    -6.1555     0.0000   230.0000 </r>
       <r>    -6.1141     0.0000   234.0000 </r>
       <r>    -6.0726     0.0000   237.0000 </r>
       <r>    -6.0312     0.0000   238.0000 </r>
       <r>    -5.9898     0.0000   241.0000 </r>
       <r>    -5.9483     0.0000   241.0000 </r>
       <r>    -5.9069     0.0000   241.0000 </r>
       <r>    -5.8655     0.0000   242.0000 </r>
       <r>    -5.8240     0.0000   242.0000 </r>
       <r>    -5.7826     0.0000   242.0000 </r>
       <r>    -5.7411     0.0000   243.0000 </r>
       <r>    -5.6997     0.0000   244.0000 </r>
       <r>    -5.6583     0.0000   244.0000 </r>
       <r>    -5.6168     0.0000   244.0000 </r>
       <r>    -5.5754     0.0000   244.0000 </r>
       <r>    -5.5340     0.0000   244.0000 </r>
       <r>    -5.4925     0.0000   244.0000 </r>
       <r>    -5.4511     0.0000   244.0000 </r>
       <r>    -5.4097     0.0000   244.0000 </r>
       <r>    -5.3682     0.0000   245.0000 </r>
       <r>    -5.3268     0.0000   245.0000 </r>
       <r>    -5.2853     0.0000   246.0000 </r>
       <r>    -5.2439     0.0000   246.0000 </r>
       <r>    -5.2025     0.0000   246.0000 </r>
       <r>    -5.1610     0.0000   246.0000 </r>
       <r>    -5.1196     0.0000   246.0000 </r>
       <r>    -5.0782     0.0000   246.0000 </r>
       <r>    -5.0367     0.0000   247.0000 </r>
       <r>    -4.9953     0.0000   247.0000 </r>
       <r>    -4.9539     0.0000   247.0000 </r>
       <r>    -4.9124     0.0000   247.0000 </r>
       <r>    -4.8710     0.0000   247.0000 </r>
       <r>    -4.8295     0.0000   247.0000 </r>
       <r>    -4.7881     0.0000   249.0000 </r>
       <r>    -4.7467     0.0000   249.0000 </r>
       <r>    -4.7052     0.0000   249.0000 </r>
       <r>    -4.6638     0.0000   250.0000 </r>
       <r>    -4.6224     0.0000   250.0000 </r>
       <r>    -4.5809     0.0000   250.0000 </r>
       <r>    -4.5395     0.0000   250.0000 </r>
       <r>    -4.4981     0.0000   250.0000 </r>
       <r>    -4.4566     0.0000   250.0000 </r>
       <r>    -4.4152     0.0000   250.0000 </r>
       <r>    -4.3737     0.0000   250.0000 </r>
       <r>    -4.3323     0.0000   250.0000 </r>
       <r>    -4.2909     0.0000   250.0000 </r>
       <r>    -4.2494     0.0000   250.0000 </r>
       <r>    -4.2080     0.0000   251.0000 </r>
       <r>    -4.1666     0.0000   251.0000 </r>
       <r>    -4.1251     0.0000   252.0000 </r>
       <r>    -4.0837     0.0000   252.0000 </r>
       <r>    -4.0422     0.0000   252.0000 </r>
       <r>    -4.0008     0.0000   252.0000 </r>
       <r>    -3.9594     0.0000   253.0000 </r>
       <r>    -3.9179     0.0000   253.0000 </r>
       <r>    -3.8765     0.0000   254.0000 </r>
       <r>    -3.8351     0.0000   255.0000 </r>
       <r>    -3.7936     0.0000   255.0000 </r>
       <r>    -3.7522     0.0000   255.0000 </r>
       <r>    -3.7108     0.0000   255.0000 </r>
       <r>    -3.6693     0.0000   255.0000 </r>
       <r>    -3.6279     0.0000   256.0000 </r>
       <r>    -3.5864     0.0000   256.0000 </r>
       <r>    -3.5450     0.0000   256.0000 </r>
       <r>    -3.5036     0.0000   256.0000 </r>
       <r>    -3.4621     0.0000   257.0000 </r>
       <r>    -3.4207     0.0000   258.0000 </r>
       <r>    -3.3793     0.0000   258.0000 </r>
       <r>    -3.3378     0.0000   258.0000 </r>
       <r>    -3.2964     0.0000   258.0000 </r>
       <r>    -3.2550     0.0000   259.0000 </r>
       <r>    -3.2135     0.0000   259.0000 </r>
       <r>    -3.1721     0.0000   259.0000 </r>
       <r>    -3.1306     0.0000   259.0000 </r>
       <r>    -3.0892     0.0000   260.0000 </r>
       <r>    -3.0478     0.0000   260.0000 </r>
       <r>    -3.0063     0.0000   260.0000 </r>
       <r>    -2.9649     0.0000   261.0000 </r>
       <r>    -2.9235     0.0000   261.0000 </r>
       <r>    -2.8820     0.0000   261.0000 </r>
       <r>    -2.8406     0.0000   261.0000 </r>
       <r>    -2.7992     0.0000   262.0000 </r>
       <r>    -2.7577     0.0000   262.0000 </r>
       <r>    -2.7163     0.0000   262.0000 </r>
       <r>    -2.6748     0.0000   262.0000 </r>
       <r>    -2.6334     0.0000   262.0000 </r>
       <r>    -2.5920     0.0000   262.0000 </r>
       <r>    -2.5505     0.0000   262.0000 </r>
       <r>    -2.5091     0.0000   262.0000 </r>
       <r>    -2.4677     0.0000   263.0000 </r>
       <r>    -2.4262     0.0000   264.0000 </r>
       <r>    -2.3848     0.0000   265.0000 </r>
       <r>    -2.3433     0.0000   266.0000 </r>
       <r>    -2.3019     0.0000   266.0000 </r>
       <r>    -2.2605     0.0000   266.0000 </r>
       <r>    -2.2190     0.0000   267.0000 </r>
       <r>    -2.1776     0.0000   267.0000 </r>
       <r>    -2.1362     0.0000   267.0000 </r>
       <r>    -2.0947     0.0000   269.0000 </r>
       <r>    -2.0533     0.0000   269.0000 </r>
       <r>    -2.0119     0.0000   270.0000 </r>
       <r>    -1.9704     0.0000   270.0000 </r>
       <r>    -1.9290     0.0000   271.0000 </r>
       <r>    -1.8875     0.0000   271.0000 </r>
       <r>    -1.8461     0.0000   272.0000 </r>
       <r>    -1.8047     0.0000   272.0000 </r>
       <r>    -1.7632     0.0000   273.0000 </r>
       <r>    -1.7218     0.0000   274.0000 </r>
       <r>    -1.6804     0.0000   274.0000 </r>
       <r>    -1.6389     0.0000   275.0000 </r>
       <r>    -1.5975     0.0000   275.0000 </r>
       <r>    -1.5561     0.0000   275.0000 </r>
       <r>    -1.5146     0.0000   275.0000 </r>
       <r>    -1.4732     0.0000   276.0000 </r>
       <r>    -1.4317     0.0000   277.0000 </r>
       <r>    -1.3903     0.0000   277.0000 </r>
       <r>    -1.3489     0.0000   277.0000 </r>
       <r>    -1.3074     0.0000   277.0000 </r>
       <r>    -1.2660     0.0000   277.0000 </r>
       <r>    -1.2246     0.0000   278.0000 </r>
       <r>    -1.1831     0.0000   278.0000 </r>
       <r>    -1.1417     0.0000   278.0000 </r>
       <r>    -1.1003     0.0000   278.0000 </r>
       <r>    -1.0588     0.0000   279.0000 </r>
       <r>    -1.0174     0.0000   280.0000 </r>
       <r>    -0.9759     0.0000   280.0000 </r>
       <r>    -0.9345    23.8177   281.9869 </r>
       <r>    -0.8931     0.0000   282.0000 </r>
       <r>    -0.8516     0.0000   282.0000 </r>
       <r>    -0.8102     0.0000   283.0000 </r>
       <r>    -0.7688     0.0000   283.0000 </r>
       <r>    -0.7273     0.0000   283.0000 </r>
       <r>    -0.6859     0.0000   284.0000 </r>
       <r>    -0.6444     0.0000   285.0000 </r>
       <r>    -0.6030     0.0000   285.0000 </r>
       <r>    -0.5616     0.0000   285.0000 </r>
       <r>    -0.5201     0.0000   287.0000 </r>
       <r>    -0.4787     0.0000   288.0000 </r>
       <r>    -0.4373     0.0000   288.0000 </r>
       <r>    -0.3958     0.0000   288.0000 </r>
       <r>    -0.3544     0.0000   289.0000 </r>
       <r>    -0.3130     0.0000   289.0000 </r>
       <r>    -0.2715     0.0000   290.0000 </r>
       <r>    -0.2301     0.0000   290.0000 </r>
       <r>    -0.1886     0.0000   291.0000 </r>
       <r>    -0.1472     0.0000   292.0000 </r>
       <r>    -0.1058     0.0000   292.0000 </r>
       <r>    -0.0643     0.0000   293.0000 </r>
       <r>    -0.0229     0.0000   293.0000 </r>
       <r>     0.0185    24.1333   295.0000 </r>
       <r>     0.0600     0.0000   295.0000 </r>
       <r>     0.1014     0.0000   296.0000 </r>
       <r>     0.1428     0.0000   296.0000 </r>
       <r>     0.1843     0.0000   296.0000 </r>
       <r>     0.2257     0.0000   296.0000 </r>
       <r>     0.2672     0.0000   297.0000 </r>
       <r>     0.3086     0.0000   297.0000 </r>
       <r>     0.3500     0.0000   298.0000 </r>
       <r>     0.3915     0.0000   298.0000 </r>
       <r>     0.4329     0.0000   299.0000 </r>
       <r>     0.4743     0.0000   299.0000 </r>
       <r>     0.5158     0.0000   300.0000 </r>
       <r>     0.5572     0.0000   300.0000 </r>
       <r>     0.5986     0.0000   301.0000 </r>
       <r>     0.6401     0.0000   301.0000 </r>
       <r>     0.6815     0.0000   302.0000 </r>
       <r>     0.7230     0.0000   304.0000 </r>
       <r>     0.7644     0.0000   304.0000 </r>
       <r>     0.8058     0.0000   304.0000 </r>
       <r>     0.8473     0.0000   305.0000 </r>
       <r>     0.8887     0.0000   307.0000 </r>
       <r>     0.9301     0.0000   308.0000 </r>
       <r>     0.9716     0.0000   309.0000 </r>
       <r>     1.0130     0.0000   311.0000 </r>
       <r>     1.0545     0.0000   313.0000 </r>
       <r>     1.0959     0.0000   314.0000 </r>
       <r>     1.1373     0.0000   316.0000 </r>
       <r>     1.1788     0.0000   318.0000 </r>
       <r>     1.2202     0.0000   321.0000 </r>
       <r>     1.2616     0.0000   322.0000 </r>
       <r>     1.3031     0.0000   323.0000 </r>
       <r>     1.3445     0.0000   325.0000 </r>
       <r>     1.3859     0.0000   326.0000 </r>
       <r>     1.4274     0.0000   327.0000 </r>
       <r>     1.4688     0.0000   330.0000 </r>
       <r>     1.5103     0.0000   332.0000 </r>
       <r>     1.5517     0.0000   334.0000 </r>
       <r>     1.5931     0.0000   335.0000 </r>
       <r>     1.6346     0.0000   336.0000 </r>
       <r>     1.6760     0.0000   336.0000 </r>
       <r>     1.7174     0.0000   336.0000 </r>
       <r>     1.7589     0.0000   336.0000 </r>
       <r>     1.8003     0.0000   336.0000 </r>
       <r>     1.8417     0.0000   336.0000 </r>
       <r>     1.8832     0.0000   336.0000 </r>
       <r>     1.9246     0.0000   336.0000 </r>
       <r>     1.9661     0.0000   336.0000 </r>
       <r>     2.0075     0.0000   336.0000 </r>
       <r>     2.0489     0.0000   336.0000 </r>
       <r>     2.0904     0.0000   336.0000 </r>
       <r>     2.1318     0.0000   336.0000 </r>
       <r>     2.1732     0.0000   336.0000 </r>
      </set>
     </set>
    </array>
   </total>
  </dos>
 </calculation>
 <structure name="finalpos" >
  <crystal>
   <varray name="basis" >
    <v>      22.76162496       0.00000000       0.00000000 </v>
    <v>       0.00000000      22.76162496       0.00000000 </v>
    <v>       0.00000000       0.00000000      22.76162496 </v>
   </varray>
   <i name="volume">  11792.60602493 </i>
   <varray name="rec_basis" >
    <v>       0.04393359       0.00000000       0.00000000 </v>
    <v>       0.00000000       0.04393359       0.00000000 </v>
    <v>       0.00000000       0.00000000       0.04393359 </v>
   </varray>
  </crystal>
  <varray name="positions" >
   <v>       0.49638996       0.68918883       0.58792565 </v>
   <v>       0.55514401       0.47329035       0.57676534 </v>
   <v>       0.51576761       0.51188255       0.69527772 </v>
   <v>       0.49485065       0.61832314       0.38577405 </v>
   <v>       0.45418601       0.41013612       0.36080799 </v>
   <v>       0.56805480       0.70946600       0.68305293 </v>
   <v>       0.65462978       0.42672722       0.39038659 </v>
   <v>       0.70333852       0.55356274       0.57938652 </v>
   <v>       0.54893028       0.68848601       0.47467294 </v>
   <v>       0.60953589       0.36683976       0.49826766 </v>
   <v>       0.58044389       0.59706147       0.60593009 </v>
   <v>       0.53344980       0.56268851       0.49109981 </v>
   <v>       0.33546483       0.45474346       0.59084087 </v>
   <v>       0.45205563       0.52477182       0.31425713 </v>
   <v>       0.27579741       0.37419402       0.52202953 </v>
   <v>       0.54053823       0.45150335       0.44091437 </v>
   <v>       0.38094069       0.53611539       0.67302048 </v>
   <v>       0.48080086       0.34392009       0.46619643 </v>
   <v>       0.44705684       0.43013054       0.64121369 </v>
   <v>       0.64112039       0.51064316       0.67578369 </v>
   <v>       0.61053462       0.66531693       0.36978684 </v>
   <v>       0.55734012       0.58573070       0.28696549 </v>
   <v>       0.39389591       0.34893641       0.55723034 </v>
   <v>       0.36490686       0.37815704       0.43787328 </v>
   <v>       0.43332346       0.64087326       0.49398968 </v>
   <v>       0.44340706       0.45655186       0.51792886 </v>
   <v>       0.60954059       0.54487327       0.38865245 </v>
   <v>       0.47442340       0.62873188       0.69611569 </v>
   <v>       0.30699204       0.48000449       0.46905621 </v>
   <v>       0.51647974       0.34665157       0.58188346 </v>
   <v>       0.73241463       0.67338017       0.55483921 </v>
   <v>       0.65117366       0.61505111       0.48433650 </v>
   <v>       0.41148410       0.53755209       0.43108791 </v>
   <v>       0.67513544       0.42573124       0.59177282 </v>
   <v>       0.58947093       0.60174353       0.73589043 </v>
   <v>       0.63164857       0.31357564       0.60791263 </v>
   <v>       0.34668972       0.56561496       0.54265148 </v>
   <v>       0.56213318       0.34796281       0.37646368 </v>
   <v>       0.68028050       0.64296426       0.66394447 </v>
   <v>       0.46122755       0.55922157       0.58928789 </v>
   <v>       0.61997487       0.71447879       0.57293355 </v>
   <v>       0.57511113       0.40252493       0.67511792 </v>
   <v>       0.55798327       0.46067887       0.31410552 </v>
   <v>       0.38091912       0.65399374       0.61733018 </v>
   <v>       0.64685200       0.49201121       0.49306875 </v>
   <v>       0.66663327       0.73250533       0.46006258 </v>
   <v>       0.34728433       0.46726402       0.35186489 </v>
  </varray>
 </structure>
</modeling>
