54
Energy = -116.02923624 eV
Ag 14.431360390168317 9.614978853196106 18.24274277858111
Ag 15.62159179015492 19.26618108642349 14.545984778820952
Ag 16.677854049381395 10.083347892950677 13.022520631953576
Ag 17.851129581772962 17.497065215868414 14.842601223463829
Ag 14.375867962975391 12.006060345139481 16.814962317991586
Ag 16.249558722183135 14.672378722658951 11.307158014050628
Ag 20.87170673821271 16.142311094272294 11.22482463806631
Ag 15.105154247212857 11.987129781940167 11.458907804162985
Ag 15.563485773927404 9.681501851908777 15.609961232249749
Ag 10.835979707461366 17.54936877144769 15.100928972423759
Ag 11.05370741875322 10.25342312203572 13.673620704345236
Ag 18.89077485665479 14.410349659289796 10.37414277290698
Ag 15.64936591277058 12.346922774789592 14.2209904399901
Ag 18.515547030269843 16.01727780042585 12.536021545492513
Ag 12.889832888714913 14.34264234287279 19.098293655526973
Ag 12.680767948225485 9.806311025196345 15.911412834917158
Ag 12.411568938117508 11.57037055571901 18.76672636802158
Ag 11.70422460836999 16.142286122746768 9.409312216031362
Ag 20.1292648073771 14.738306895986096 18.189287473875584
Ag 13.681735024436916 16.883509463414466 14.076960069709726
Ag 11.279017056962713 14.578940274562795 11.608397186010007
Ag 17.808009577399293 16.002837380688344 17.280510919852055
Ag 11.744969228978702 8.931950294765368 18.33736623284317
Ag 8.977071474475077 18.564768682897594 13.249586206754143
Ag 11.698613342903775 13.547069766205302 16.796511110218947
Ag 11.278968139936595 17.339402365748015 12.246826308695372
Ag 13.97086248267341 14.28200029170261 12.842315272366061
Ag 13.676946649401382 21.2697284421627 14.204918134233314
Ag 16.527938490289465 15.077346599351197 14.21379327275538
Ag 17.636121793210414 13.672570441478342 19.144467497607213
Ag 12.231962687494505 11.947097676211778 11.679080163083214
Ag 11.649404830633797 15.006540920238493 14.434090991387324
Ag 12.69633127866373 16.409887285410484 17.016531650147815
Ag 16.872948963445907 10.973162703594744 17.92829597116971
Ag 15.06739102131966 12.498891913169153 19.490448321058757
Ag 15.340077750809494 15.128701723254675 18.261244241469523
Ag 13.792609540863781 16.577856905824518 11.166124103305817
Ag 10.043999177666175 12.88921893748356 13.45110718892588
Ag 13.83788717267794 19.16909738980654 12.35266906554099
Ag 9.230904948527678 15.71621662964193 13.292134428782456
Ag 16.944080447128727 13.447952139632212 16.454333000994573
Ag 14.230646392871257 14.491593083124858 15.67010161316744
Ag 12.243386588279265 18.773230904580387 10.1062057248702
Ag 20.101349515549288 16.08481508610011 15.780763862469193
Ag 16.07755152324982 17.350099029672172 12.539608181387557
Ag 19.33423743826967 12.218212081485817 17.420374944712233
Ag 13.119027000413743 19.011031202810184 15.812592924575572
Ag 18.001270544697782 11.004058939961018 15.306875158802248
Ag 12.627111996873907 12.324511196315997 14.52104346628177
Ag 15.424379939197676 17.22422933868692 16.399863947144567
Ag 13.600401802859592 13.945986883166142 10.093227465468686
Ag 13.86778851274045 10.107359428314258 13.286619263560114
Ag 20.503958393101584 17.61257825823289 13.569616814531557
Ag 11.369703256317843 19.89253644885571 13.604685652574563
