   48   48 1000    2
  0.2687848E+03  0.2345391E-08  0.2345391E-08  0.2345391E-08  0.1000000E-15
  1.000000000000000E-004
  CAR 
 unknown system                          
    528      1    340
 
  0.0000000E+00  0.0000000E+00  0.0000000E+00  0.1000000E+01
    1       -9.813630     -9.813630
    2       -9.334581     -9.334581
    3       -9.196039     -9.196039
    4       -9.160833     -9.160833
    5       -9.099970     -9.099970
    6       -9.096240     -9.096240
    7       -9.082698     -9.082698
    8       -9.064088     -9.064088
    9       -9.029809     -9.029809
   10       -8.994539     -8.994539
   11       -8.987839     -8.987839
   12       -8.956424     -8.956424
   13       -8.950930     -8.950930
   14       -8.886955     -8.886955
   15       -8.870642     -8.870642
   16       -8.844521     -8.844521
   17       -8.820263     -8.820263
   18       -8.792890     -8.792890
   19       -8.773611     -8.773611
   20       -8.760249     -8.760249
   21       -8.737111     -8.737111
   22       -8.718445     -8.718445
   23       -8.699829     -8.699829
   24       -8.685547     -8.685547
   25       -8.664108     -8.664108
   26       -8.652951     -8.652951
   27       -8.634244     -8.634244
   28       -8.617714     -8.617714
   29       -8.590035     -8.590035
   30       -8.587406     -8.587406
   31       -8.575977     -8.575977
   32       -8.557603     -8.557603
   33       -8.543327     -8.543327
   34       -8.528183     -8.528183
   35       -8.500928     -8.500928
   36       -8.488031     -8.488031
   37       -8.466684     -8.466684
   38       -8.455591     -8.455591
   39       -8.442736     -8.442736
   40       -8.427156     -8.427156
   41       -8.418746     -8.418746
   42       -8.400194     -8.400194
   43       -8.374235     -8.374235
   44       -8.370404     -8.370404
   45       -8.351066     -8.351066
   46       -8.344222     -8.344222
   47       -8.331438     -8.331438
   48       -8.318202     -8.318202
   49       -8.313360     -8.313360
   50       -8.302924     -8.302924
   51       -8.281350     -8.281350
   52       -8.269303     -8.269303
   53       -8.250724     -8.250724
   54       -8.232312     -8.232312
   55       -8.217271     -8.217271
   56       -8.208913     -8.208913
   57       -8.188559     -8.188559
   58       -8.178510     -8.178510
   59       -8.170202     -8.170202
   60       -8.146104     -8.146104
   61       -8.131558     -8.131558
   62       -8.122808     -8.122808
   63       -8.112315     -8.112315
   64       -8.100834     -8.100834
   65       -8.094678     -8.094678
   66       -8.078665     -8.078665
   67       -8.071913     -8.071913
   68       -8.040339     -8.040339
   69       -8.014331     -8.014331
   70       -8.004301     -8.004301
   71       -7.978226     -7.978226
   72       -7.968072     -7.968072
   73       -7.962998     -7.962998
   74       -7.945103     -7.945103
   75       -7.928718     -7.928718
   76       -7.921499     -7.921499
   77       -7.920090     -7.920090
   78       -7.899586     -7.899586
   79       -7.894679     -7.894679
   80       -7.872657     -7.872657
   81       -7.870585     -7.870585
   82       -7.849142     -7.849142
   83       -7.830397     -7.830397
   84       -7.808720     -7.808720
   85       -7.800652     -7.800652
   86       -7.788656     -7.788656
   87       -7.779120     -7.779120
   88       -7.757756     -7.757756
   89       -7.744046     -7.744046
   90       -7.740080     -7.740080
   91       -7.717308     -7.717308
   92       -7.712712     -7.712712
   93       -7.704437     -7.704437
   94       -7.686958     -7.686958
   95       -7.672373     -7.672373
   96       -7.658148     -7.658148
   97       -7.640637     -7.640637
   98       -7.626834     -7.626834
   99       -7.618307     -7.618307
  100       -7.602961     -7.602961
  101       -7.591937     -7.591937
  102       -7.582712     -7.582712
  103       -7.566650     -7.566650
  104       -7.555849     -7.555849
  105       -7.546074     -7.546074
  106       -7.524687     -7.524687
  107       -7.502599     -7.502599
  108       -7.474603     -7.474603
  109       -7.462299     -7.462299
  110       -7.459478     -7.459478
  111       -7.447918     -7.447918
  112       -7.433200     -7.433200
  113       -7.428838     -7.428838
  114       -7.420614     -7.420614
  115       -7.405358     -7.405358
  116       -7.399608     -7.399608
  117       -7.390181     -7.390181
  118       -7.376511     -7.376511
  119       -7.372717     -7.372717
  120       -7.352071     -7.352071
  121       -7.339136     -7.339136
  122       -7.326699     -7.326699
  123       -7.308065     -7.308065
  124       -7.303380     -7.303380
  125       -7.276635     -7.276635
  126       -7.268245     -7.268245
  127       -7.257547     -7.257547
  128       -7.252173     -7.252173
  129       -7.232280     -7.232280
  130       -7.225050     -7.225050
  131       -7.214525     -7.214525
  132       -7.187710     -7.187710
  133       -7.173596     -7.173596
  134       -7.162156     -7.162156
  135       -7.148182     -7.148182
  136       -7.140252     -7.140252
  137       -7.125312     -7.125312
  138       -7.113945     -7.113945
  139       -7.089538     -7.089538
  140       -7.074511     -7.074511
  141       -7.065457     -7.065457
  142       -7.056575     -7.056575
  143       -7.046969     -7.046969
  144       -7.039828     -7.039828
  145       -7.023536     -7.023536
  146       -7.014250     -7.014250
  147       -7.003773     -7.003773
  148       -6.998353     -6.998353
  149       -6.996135     -6.996135
  150       -6.978871     -6.978871
  151       -6.976018     -6.976018
  152       -6.961934     -6.961934
  153       -6.948457     -6.948457
  154       -6.943686     -6.943686
  155       -6.938067     -6.938067
  156       -6.923929     -6.923929
  157       -6.909016     -6.909016
  158       -6.904892     -6.904892
  159       -6.894962     -6.894962
  160       -6.883082     -6.883082
  161       -6.879317     -6.879317
  162       -6.864348     -6.864348
  163       -6.855197     -6.855197
  164       -6.845420     -6.845420
  165       -6.844310     -6.844310
  166       -6.827988     -6.827988
  167       -6.823025     -6.823025
  168       -6.810991     -6.810991
  169       -6.807634     -6.807634
  170       -6.790431     -6.790431
  171       -6.786380     -6.786380
  172       -6.768949     -6.768949
  173       -6.758338     -6.758338
  174       -6.756228     -6.756228
  175       -6.750555     -6.750555
  176       -6.734860     -6.734860
  177       -6.729325     -6.729325
  178       -6.717064     -6.717065
  179       -6.711140     -6.711140
  180       -6.700172     -6.700172
  181       -6.689920     -6.689920
  182       -6.684607     -6.684607
  183       -6.676710     -6.676710
  184       -6.666154     -6.666154
  185       -6.653925     -6.653925
  186       -6.647222     -6.647222
  187       -6.641852     -6.641852
  188       -6.627559     -6.627559
  189       -6.621146     -6.621146
  190       -6.607845     -6.607845
  191       -6.602990     -6.602990
  192       -6.597076     -6.597076
  193       -6.592119     -6.592119
  194       -6.586249     -6.586249
  195       -6.583062     -6.583062
  196       -6.570959     -6.570959
  197       -6.564905     -6.564905
  198       -6.556068     -6.556068
  199       -6.547588     -6.547588
  200       -6.542504     -6.542504
  201       -6.535745     -6.535745
  202       -6.527501     -6.527501
  203       -6.523120     -6.523120
  204       -6.513331     -6.513331
  205       -6.499635     -6.499635
  206       -6.492535     -6.492535
  207       -6.485918     -6.485918
  208       -6.476027     -6.476027
  209       -6.465496     -6.465496
  210       -6.458022     -6.458022
  211       -6.453133     -6.453133
  212       -6.426959     -6.426959
  213       -6.423634     -6.423634
  214       -6.410931     -6.410931
  215       -6.409522     -6.409522
  216       -6.388120     -6.388120
  217       -6.378261     -6.378261
  218       -6.368160     -6.368159
  219       -6.361818     -6.361818
  220       -6.351350     -6.351350
  221       -6.347273     -6.347273
  222       -6.345971     -6.345971
  223       -6.329484     -6.329484
  224       -6.321552     -6.321552
  225       -6.314694     -6.314694
  226       -6.297478     -6.297478
  227       -6.284958     -6.284958
  228       -6.271875     -6.271875
  229       -6.266466     -6.266466
  230       -6.260971     -6.260971
  231       -6.246633     -6.246633
  232       -6.240426     -6.240426
  233       -6.234350     -6.234350
  234       -6.229340     -6.229340
  235       -6.213511     -6.213511
  236       -6.196770     -6.196770
  237       -6.185502     -6.185502
  238       -6.184144     -6.184144
  239       -6.165485     -6.165485
  240       -6.153876     -6.153876
  241       -6.135927     -6.135927
  242       -6.120271     -6.120271
  243       -6.101095     -6.101095
  244       -6.092040     -6.092040
  245       -6.073418     -6.073418
  246       -6.059806     -6.059806
  247       -6.002188     -6.002188
  248       -5.839199     -5.839199
  249       -5.807862     -5.807862
  250       -5.493724     -5.493724
  251       -5.286163     -5.286163
  252       -5.111022     -5.111022
  253       -4.884912     -4.884912
  254       -4.804258     -4.804258
  255       -4.690332     -4.690332
  256       -4.526805     -4.526805
  257       -4.477923     -4.477923
  258       -4.036036     -4.036036
  259       -3.936475     -3.936475
  260       -3.822290     -3.822290
  261       -3.746307     -3.746307
  262       -3.658287     -3.658287
  263       -3.419949     -3.419949
  264       -3.361284     -3.361284
  265       -3.107801     -3.107801
  266       -3.044078     -3.044078
  267       -2.990915     -2.990915
  268       -2.845857     -2.845857
  269       -2.732937     -2.732937
  270       -2.588415     -2.588415
  271       -2.411922     -2.411922
  272       -2.320952     -2.320952
  273       -2.226063     -2.226063
  274       -2.117052     -2.117052
  275       -2.069598     -2.069598
  276       -2.045894     -2.045894
  277       -2.000255     -2.000255
  278       -1.777854     -1.777854
  279       -1.678787     -1.678787
  280       -1.632967     -1.632968
  281       -1.627329     -1.627329
  282       -1.496309     -1.496309
  283       -1.416925     -1.416925
  284       -1.364236     -1.364236
  285       -1.215498     -1.215498
  286       -1.172691     -1.172691
  287       -1.068425     -1.068425
  288       -0.966191     -0.966191
  289       -0.909169     -0.909169
  290       -0.790336     -0.790336
  291       -0.772406     -0.772406
  292       -0.717294     -0.717294
  293       -0.666981     -0.666981
  294       -0.523185     -0.523185
  295       -0.496883     -0.496884
  296       -0.420008     -0.420008
  297       -0.325097     -0.325098
  298       -0.283723     -0.283723
  299       -0.157468     -0.157468
  300       -0.105199     -0.105199
  301        0.021429      0.021429
  302        0.072473      0.072472
  303        0.107231      0.107231
  304        0.212675      0.212675
  305        0.314159      0.314159
  306        0.406228      0.406227
  307        0.475815      0.475815
  308        0.596776      0.596775
  309        0.615183      0.615182
  310        0.677756      0.677756
  311        0.693953      0.693951
  312        0.758537      0.758533
  313        0.771357      0.771354
  314        0.823099      0.823099
  315        0.848325      0.848324
  316        0.894502      0.894500
  317        0.935268      0.935270
  318        0.952786      0.952786
  319        0.958879      0.958876
  320        0.983656      0.983654
  321        1.031403      1.031403
  322        1.057410      1.057408
  323        1.064743      1.064744
  324        1.101317      1.101315
  325        1.112445      1.112441
  326        1.120803      1.120801
  327        1.129144      1.129140
  328        1.147189      1.147188
  329        1.189474      1.189475
  330        1.229721      1.229720
  331        1.252472      1.252472
  332        1.276438      1.276435
  333        1.310596      1.310595
  334        1.337293      1.337294
  335        1.355422      1.355423
  336        1.377449      1.377450
  337        1.381396      1.381397
  338        1.398775      1.398774
  339        1.417875      1.417875
  340        1.441661      1.441656
