18
Energy = -8.47471323 eV
Zn 11.196061205724066 13.951551173676965 9.308427482208648
Zn 12.062169496325396 8.17310391118425 11.569113276842813
Zn 12.280939227360827 8.905718573650425 9.109707373609067
Zn 12.193818926275549 11.56330285761756 9.687027521909954
Zn 8.633788394006094 11.556919727783066 11.828077373477653
Zn 11.925167051410485 13.757415309726596 11.811919886860542
Zn 9.464007977065332 13.821523378314325 7.108461441678391
Zn 14.19252757616244 9.956196330626291 10.420323601017481
Zn 9.945024658757546 13.094696112704748 13.484215055436517
Zn 11.197884203283879 11.078500701196198 12.271426862561633
Zn 12.440636804927884 10.930966167777965 15.595077551226781
Zn 9.313176975855681 14.065325290784594 11.134413588861808
Zn 13.82638774253992 12.029326727394634 11.855514264957293
Zn 9.470261160288322 12.036392493967792 9.310876153728037
Zn 10.138825333747777 9.673009411548254 10.333863635290095
Zn 12.530346604617156 13.10285844075786 14.26228053552472
Zn 13.837694653060673 9.732345817937485 13.058188837950276
Zn 11.477227003970139 9.206205863864684 13.956872369839061
