29
Energy = -17.21094554 eV
Zn 13.189087943727115 10.595101107423366 13.17443693624211
Zn 13.394968677682481 8.036847585747546 12.992766071940546
Zn 14.181521232619508 9.537096113722956 10.886468445779032
Zn 14.301621757700737 12.00238107334374 11.148516905143543
Zn 13.784077975976544 6.802351052859044 10.79620280484579
Zn 10.912321601487827 11.390654423916677 14.30600496123707
Zn 11.235840915492346 8.887370555771891 14.142136384735547
Zn 11.380348156760116 9.943618431558127 11.386518454906415
Zn 12.098281545880631 12.737609990107186 12.244172981275756
Zn 9.35762798274519 8.385769908743173 12.529626160788444
Zn 11.399235443104647 7.052615613052683 11.657669586185888
Zn 12.830903081412155 13.464506985429711 9.809289179180755
Zn 12.505621344348983 10.990028509490557 9.225240732297271
Zn 12.614012722252227 8.379786590183075 9.190681904231358
Zn 9.956239592676557 8.04457016373156 9.795088309517746
Zn 9.638775450744223 13.245008320219336 13.073008066670585
Zn 9.712297590769026 10.911641492286925 9.701629881205356
Zn 11.111891707427246 13.36298092386106 7.921814440349182
Zn 8.819680298160778 10.979006012696754 12.189162124292906
Zn 9.740534541686495 11.535256682590285 6.820825621889653
Zn 11.00011963127138 9.50021129938742 7.622595818196705
Zn 10.320067747274765 13.787664539762588 10.558233086789764
Zn 7.659284520295743 9.110903185300543 10.796729323088938
Zn 7.885589493679003 13.515629148247502 11.349089738909926
Zn 7.277813052106352 11.264963989259314 7.539075351149818
Zn 8.491303420152553 8.99013824213886 7.904862646531697
Zn 8.605438331721775 13.09372574783033 8.76556985222504
Zn 6.932555597589909 11.527689280258203 10.205822109467244
Zn 6.1127982292391 9.355775808733867 8.770049496483251
