22
Energy = -12.31320404 eV
Zn 11.0068770344336 9.338563071891867 7.135203574018038
Zn 9.103212440581105 11.053189464093808 7.020130109676696
Zn 8.794835973718 8.701234099145019 8.2496462618289
Zn 11.646666901462238 11.781214535018274 7.342153275399332
Zn 11.192227177748931 7.982790652973398 9.302163512843673
Zn 7.858236252264107 6.122669418498082 8.869493271542552
Zn 12.927416098230601 9.913663533735313 8.730553854548159
Zn 7.3850749899216455 10.938388255376369 8.932435285446712
Zn 9.736170998122828 12.762107592756024 8.879731648633609
Zn 12.09885118934606 12.076122606228838 9.932363779137708
Zn 10.084382757291538 5.475943047995796 9.87699931453694
Zn 10.042979743131623 10.37311354765573 10.010526293938582
Zn 8.038031055153272 12.703389708698795 10.72448592856172
Zn 6.658467788979482 8.496634098460587 9.661505872278891
Zn 10.416350785769536 13.621171984481235 11.304848575975603
Zn 12.572001379605743 9.437256395226482 11.207150136384552
Zn 7.70622528574531 10.202508273587714 11.393867827614791
Zn 11.383794523751765 7.124254735328119 11.709632167015442
Zn 11.757934394214173 11.645302807202684 12.373864747029724
Zn 8.951932752101662 7.985152488774848 10.956493045416437
Zn 9.219336522037548 11.757473201994118 12.803215247188739
Zn 10.362975741047162 9.451838265535617 12.527518055642075
