21
Energy = -10.68348582 eV
Zn 9.539302436036396 9.989335651016063 5.701178974702369
Zn 7.551098202013046 6.361597285311313 10.8534162022096
Zn 9.747008532684243 7.193539059698738 9.252783956557497
Zn 12.294869374634068 7.771455859417068 9.51583465212673
Zn 11.881798959191237 10.926309324466972 6.367621112892781
Zn 11.072116997937579 8.419652552059635 7.338601779419451
Zn 9.769052675456168 6.840499570262371 11.954481825184615
Zn 9.11826732095028 10.017904209778012 8.334271294760242
Zn 11.906611769736555 8.286335442474329 12.05636574504163
Zn 7.427548928894291 8.648821489112455 9.768396986658942
Zn 7.315618517262921 10.21142156931395 11.849521416363515
Zn 9.995507832286643 9.512239556050098 10.707358530686525
Zn 8.894325593353184 8.752089841513804 13.425491467805724
Zn 12.15278631048513 10.420712751548988 8.882731777818558
Zn 13.604509586766914 9.764760934102451 10.875650652785316
Zn 6.975980380080759 11.16585088333784 9.432819570020788
Zn 9.98094547265739 12.648908162300808 6.164355213223265
Zn 9.513175797550675 11.306475553618714 12.528634180475477
Zn 10.57262785237811 12.004322892682337 10.07524795699066
Zn 8.712771144826851 12.754971287050958 8.326546055709194
Zn 8.19187942202992 12.87141563924708 10.952179450333034
