37
Energy = -24.41340536 eV
Zn 10.131329435181883 8.78225069059951 6.649182916003676
Zn 12.419246720392165 12.660865965599863 6.457014169362834
Zn 12.423313126493069 9.638419398782421 7.41241422799687
Zn 10.355056665742175 11.395554492829387 6.788367520509094
Zn 13.826596743289391 13.635811972722815 8.205246478797848
Zn 10.935339009929821 7.777392296163835 8.802748533005726
Zn 8.501152611400485 10.105061413013441 8.10816884689798
Zn 13.71937288106767 11.009101929666992 9.107988552843311
Zn 11.367023406861051 13.138324722806356 9.172612117479224
Zn 12.896008820678134 8.848449052807759 10.33968530007031
Zn 10.836398034227864 10.50738575448036 9.491406086417749
Zn 8.9171206030664 12.646445944544523 8.75234837162623
Zn 9.83523443839185 6.487879613999703 10.602994410307716
Zn 15.187016317143048 12.904138757296588 10.20074875198986
Zn 13.145072686526307 14.380222337092725 10.702870030889684
Zn 11.86244393206418 7.03910480857711 12.003844307334836
Zn 8.79469398157268 8.844076929514051 10.326261304330544
Zn 7.2738692982440885 11.068871936825428 10.170778740149162
Zn 14.636286648553927 10.73388448169 11.596729063075166
Zn 6.651886858613478 12.366598797197984 12.351495094337011
Zn 12.26493996926945 11.785395023068833 11.306390045354057
Zn 7.315059518602148 13.780082096392647 10.34000003318856
Zn 13.307920805403581 9.032842510367532 12.965944332953361
Zn 9.249071780245313 7.733284463136542 12.78296307096678
Zn 10.474000855010262 14.464276760982184 11.287313299500726
Zn 10.83476828403305 9.724672295312061 11.981057942938499
Zn 9.613033540258284 11.967783627778394 11.378059489176586
Zn 11.250179917172652 7.554447245139366 14.457460213289405
Zn 14.78211536603388 13.158263170034173 12.638577923062705
Zn 8.355303972391601 14.318080610274256 12.628039098761908
Zn 7.90674270619758 10.003284535948769 12.534660240191885
Zn 13.63191428230014 11.510534108489523 14.104480129206983
Zn 8.51340037409085 12.102195684277481 14.040470928537681
Zn 12.331664938825242 13.877750973444344 13.069955303983777
Zn 12.114392441016696 9.808029557379655 15.16289804069968
Zn 11.020821732792655 11.769796561174262 13.737173918313452
Zn 9.609212618913826 9.619161167900844 14.551008254773944
