37
Energy = -24.22589159 eV
Zn 9.972390307791041 8.54854842116986 14.829890868753184
Zn 10.17771399100125 7.210520179650703 12.703448668174133
Zn 11.85514774869823 9.364150386474867 13.094872981874152
Zn 7.837713702778327 7.691449175667451 13.771411949708037
Zn 12.560640435808129 7.158386260545291 11.815471518799844
Zn 10.31383146748024 11.028556605574412 14.604511431753666
Zn 10.414463106833551 7.046908451912349 10.118712797828481
Zn 7.857689563968191 10.212475705019424 14.448158303042433
Zn 8.108859774291146 7.742789860916498 10.987074112645777
Zn 9.46705628144874 9.86971052459609 11.973460621913858
Zn 12.937712724345326 6.616225286137005 9.35167264158918
Zn 13.504514868158429 10.831346299589404 11.835337303644614
Zn 11.503509604281662 9.49226062491524 10.31579258213239
Zn 14.189443146220547 8.63962107458306 10.61522175864417
Zn 11.224834380896313 11.979837118072291 12.258344264428327
Zn 6.622650017773921 9.364100165084984 12.358811872612433
Zn 8.611756033891236 12.279043507570368 13.132949707408265
Zn 10.977079128145384 7.79478057956319 7.765211758859727
Zn 13.850655200372652 10.992850744034904 9.32376711402823
Zn 13.375597953474971 8.766592463507436 8.14126407045495
Zn 6.516071130281035 9.440896449643704 9.682832861697152
Zn 8.35176092631775 7.897520011936846 8.449502247162586
Zn 13.353137855380597 13.215231291131964 10.741999905076685
Zn 9.245353035179338 10.327008261989135 9.495353154430157
Zn 7.176990642126861 11.45611032379907 11.112961392396778
Zn 9.097478037292028 13.025352521399434 10.749579196419058
Zn 11.504918739812954 10.433159060545982 7.566849085318174
Zn 11.265963370260222 11.980642347309459 9.607495261175462
Zn 13.888829530047358 12.921689223481504 7.712137300656286
Zn 6.74851808740505 9.776210577749898 7.149138871991032
Zn 11.256592632199151 14.728355443035577 11.032403569695516
Zn 7.1985630204965645 11.903958670357701 8.565588672426129
Zn 9.248472974632344 9.521941541051152 6.723233322246094
Zn 12.464813665051356 14.76772792582372 8.794566011461026
Zn 9.359813992015585 12.036377977522946 7.260609398459209
Zn 9.903613212953694 14.159541663746166 8.656195866888913
Zn 11.5858297052783 13.329672634069311 6.815782937868904
