39
Energy = -25.84848248 eV
Zn 10.743202618582758 6.48223893840962 10.607163327954629
Zn 11.888901915194817 7.392877077104239 12.803676774224705
Zn 12.139161707275765 6.538078669849746 8.471396994120996
Zn 9.605405424947573 5.903357679059381 8.166927735742162
Zn 13.891830639415081 9.07040325951806 12.718229987157951
Zn 9.185565699232948 7.962558655356601 12.082773929068994
Zn 12.609480539584862 10.668357560496947 14.259768586335312
Zn 13.241285871010744 7.525193341430041 10.622603997525612
Zn 13.30184248807076 11.752205535440252 8.324495055924647
Zn 8.125068097671608 6.942668185769311 9.941778646239392
Zn 10.420530532608355 9.483945082387569 13.66935451541512
Zn 10.78912788920276 7.549152371608647 6.548252812121729
Zn 10.077063495998242 8.748226379799718 9.096322893571857
Zn 13.51824416258425 12.386309557542052 12.68979134309785
Zn 12.809280753931938 9.188979812943257 8.65854988501523
Zn 13.562525634431665 10.76665007236846 10.677420007345537
Zn 10.922358527227157 11.844462708794602 11.84350041492842
Zn 11.380455307344006 9.46019066413753 11.15410780477633
Zn 8.198147345557354 7.943983022682313 7.277566545319685
Zn 12.801550418245434 13.341122886077896 10.31180249109321
Zn 11.918266201564533 13.230247838496442 14.557308821025407
Zn 11.144176859642517 10.09973731729015 6.833380413577584
Zn 6.7424066416694215 8.600534697172684 11.633892965718568
Zn 10.871854051782702 11.347344467568785 9.275805739788296
Zn 12.26342607543988 14.758153961168745 12.448910636834565
Zn 9.690744507142101 11.879034833868042 14.264224832884414
Zn 6.819893466559518 9.306562228000157 9.212055699160755
Zn 8.949172068476077 10.394993142817503 10.737249747968884
Zn 12.203569067496636 12.473406549527786 6.213455299789355
Zn 8.545998906747698 10.631737586969022 7.908368657812967
Zn 10.225314129838548 14.25851174169328 10.74609484721728
Zn 7.957093362785387 10.239475594588427 13.291079871209893
Zn 9.907893844235687 14.2627223652404 13.316526598011508
Zn 11.351756882776398 13.929838667470694 8.249936175300501
Zn 9.759627776984956 12.495921766432101 6.65090960715587
Zn 5.931109495674061 11.042642773802742 11.893109195327252
Zn 8.813586114308634 13.08747728290887 9.000354540344166
Zn 6.697276100735206 11.865540715538133 9.679383538065066
Zn 8.254125370518617 12.692026499410705 11.737292286215718
