39
Energy = -25.17460631 eV
Zn 12.483613206826103 15.706663521642062 13.063506921319021
Zn 14.19483264207679 14.202125597217343 11.952813218512256
Zn 11.678030882034529 14.538119808606202 10.923891638101788
Zn 8.098433174512536 14.883839067744617 13.427838012657357
Zn 10.538614339154812 13.992881920922336 13.539663634271239
Zn 9.24696796625187 13.834869333096242 11.209646481449711
Zn 12.903514953629012 13.660526273993316 14.536140659113936
Zn 13.329107997400268 12.877555279741504 9.786300088684232
Zn 10.772396821891984 12.256922856613112 9.765450987703122
Zn 15.072050133461618 12.577001479410992 13.732792107484562
Zn 6.883129481797989 12.921540973127652 12.450867964014051
Zn 12.37188197924222 12.150107427684329 12.278844667579847
Zn 8.565425086999724 12.89622824937506 14.98938981758557
Zn 7.246360339865551 12.990486048919175 9.875143815728624
Zn 10.836754754167249 11.661002840422444 14.67629569038952
Zn 15.539902530013848 12.094452689746744 11.261908987458023
Zn 13.392239837088454 11.243289767882747 15.17205034421493
Zn 8.773134894600252 13.248724725363733 7.8144714046741255
Zn 15.364575724355717 11.55426263808971 8.802915819187447
Zn 9.60101383261946 9.34366740167808 14.473097276325314
Zn 11.027666907379965 12.661878960630204 6.922062116078434
Zn 7.6202972139779845 10.869019851707629 13.896103572832386
Zn 9.990727386895767 11.2511637538743 12.085909849371575
Zn 14.206913206945336 10.307272990584293 12.741438687482399
Zn 15.36939099899555 9.557950584500116 10.58884353329296
Zn 12.508416528218104 10.355294165456963 10.451692287956448
Zn 14.876415254326654 9.33584478198867 7.884997341229774
Zn 8.235183842352779 10.89808269539612 8.825515456872319
Zn 12.981438123946226 11.292360857138815 7.689790557096257
Zn 12.09131361757737 9.47344513181154 13.885141257953498
Zn 7.489918613854995 10.692216748389257 11.296463714505986
Zn 8.085030321572813 8.542287188688928 12.644705736065413
Zn 13.225947511878159 7.990041326305349 11.986202554438739
Zn 10.628143143965811 7.9534513604295505 12.38643288853834
Zn 14.07977646191254 7.608176191314744 9.65785422614608
Zn 10.507118192392635 10.027744765885803 8.148193538062996
Zn 12.505430990043601 8.663273073871785 7.841185989368178
Zn 9.26360010117695 9.06910720878451 10.360236892351107
Zn 11.429604412673639 7.831433870041415 9.988513671980135
