39
Energy = -26.25119389 eV
Zn 8.1647168056282 13.07949541363747 13.92517769335746
Zn 8.294964065528356 10.814152556726377 14.983271328105122
Zn 8.02322219327242 14.65502426733927 11.855457329178765
Zn 6.2558179754817544 12.922526568779526 12.138120549613753
Zn 12.060054259908004 14.910303454333002 11.125774563816554
Zn 10.58849795671528 11.854187555810434 14.274034215018572
Zn 6.465642693680785 10.469501471507233 13.168032468798383
Zn 9.773029222384684 14.607858027697782 9.959281004459964
Zn 9.055843857748169 11.420943376629456 11.966794745978671
Zn 12.581227067470666 12.715426291359353 12.69329098868746
Zn 7.691817149625464 13.05496460840777 9.76278219262405
Zn 7.989013865727549 8.560677269494843 13.851750779554651
Zn 10.301281063412397 13.855349545807336 12.61619930071118
Zn 6.457535111966939 10.968997879471388 10.63102110919036
Zn 11.937947621389409 14.047960117990087 8.737529085102869
Zn 14.030292830765417 13.462787678544528 10.500826780409097
Zn 12.763702561784195 10.394974249798207 13.964192823492676
Zn 11.141387392688143 9.934318488065006 11.781921298465491
Zn 10.378227889952663 9.288271717169009 14.472960410138745
Zn 12.112225869077946 7.719358774915168 13.572061350829923
Zn 10.725844076852795 10.261581546400608 8.06857802984519
Zn 7.98137303499824 9.015355211833242 11.299629240539678
Zn 8.608299700792134 10.625099132962914 9.249450536446034
Zn 9.8527330583465 7.519391624928365 12.340310409252453
Zn 10.897288856952994 12.052545317392788 10.29305760565285
Zn 14.701274518205972 11.38410284022467 12.147635775699174
Zn 12.008267726422675 7.338689889588762 10.952669827660404
Zn 11.748934416371231 12.387240898921046 6.775891066112485
Zn 13.982471547511905 12.46519286881606 8.071586832548691
Zn 13.85716353712813 8.888877046195276 12.189302162300944
Zn 9.565589573783024 12.890706103407918 7.9333436206345205
Zn 12.961741370656748 10.574728310235693 10.053072313320664
Zn 10.007273056909087 8.42187319328038 9.752236497451246
Zn 15.754656154031748 11.805911417454706 9.774955971272663
Zn 12.437853319567406 8.237213931059374 8.490376319484936
Zn 13.064870204228821 10.260000201677824 7.020289852162329
Zn 15.888151727734954 9.49493883463848 10.834584512210578
Zn 14.42501486004394 7.614709943751067 9.970363978912026
Zn 15.074915019932906 9.676939249518764 8.361816030421526
