35
Energy = -23.52556926 eV
Zn 13.453158214185562 9.688686692872992 10.319489237881367
Zn 13.541051587938872 10.80376459730113 7.698542374410916
Zn 13.366769593500246 13.35041284588338 7.722181229422386
Zn 12.609717544517508 8.307209781651116 8.367328058363826
Zn 14.252834964759705 11.1676785355703 12.186844613611623
Zn 11.078447636236666 10.351162332298356 7.438466953091904
Zn 14.569744303160121 12.029059165132608 9.765961657296597
Zn 11.182790742124176 14.284753040664791 8.67461223052449
Zn 13.2149030314995 14.084470061904879 10.313252722865526
Zn 11.282199551500016 6.19561928571646 9.313854058127957
Zn 10.137088461380468 7.8511026213463815 7.825191523618283
Zn 9.672769518223095 12.399343535138755 7.980472555846595
Zn 10.7373776180539 9.345601106042617 10.168169618581096
Zn 11.748539711248563 11.703691737348521 9.708916009543307
Zn 12.39724231073079 7.581337083835723 11.303242440338488
Zn 8.69606844066962 10.053861398504308 8.390006116830266
Zn 8.328559666494524 7.801453968621488 9.628927714762497
Zn 13.158321877337908 9.121633501714264 13.334524648809317
Zn 9.942818217781376 6.826726779381722 11.356316632164969
Zn 12.907179316857217 13.23933051793453 12.769653176946813
Zn 11.46973785099952 10.893839334131206 12.132543755712728
Zn 10.83870364831202 13.61489122519002 11.384027125510528
Zn 9.34708784955836 11.40902302679269 10.713384557460415
Zn 7.190092390464472 12.185831030053137 9.069596651845627
Zn 10.717416595344508 8.43630766662256 13.322919055985437
Zn 8.775611489686227 14.025013033986934 9.938076479761216
Zn 6.842858985459956 9.941934374578313 10.232799587093853
Zn 8.66152964881461 9.070143802263146 11.912418213967525
Zn 13.33057163362745 11.406256627097816 14.634863324530487
Zn 10.93503306882308 12.501703900106254 14.274597715129453
Zn 11.420408502213045 9.958482622463613 15.347416521285197
Zn 8.794364085453433 13.041481316276139 12.777224040461695
Zn 6.603831041263399 13.268444341822903 11.258811006459075
Zn 9.306284694872945 10.595751496283333 13.883977157054218
Zn 7.095215357826042 11.129153791529385 12.500866635936653
