32
Energy = -18.09234793 eV
Zn 13.368087825068999 10.290879049923033 7.588088204129633
Zn 14.244935868535322 9.4442201990307 9.88978431597645
Zn 11.004316432148718 10.538375121429544 6.851548022100965
Zn 11.55343973519098 9.70125281203177 9.591931659193978
Zn 15.01769693077328 11.696225073513531 8.848935019087124
Zn 8.886260495727377 12.136026727591652 6.719580500040089
Zn 14.612309832603454 10.166637142004252 12.456021668983633
Zn 9.14605820730842 10.279397575987236 8.68505508763717
Zn 12.75108246484169 8.421598528857665 11.629974260638406
Zn 11.782019880378913 12.317807067301798 8.673471812993201
Zn 10.128198193804787 9.202425501380372 11.78679186630787
Zn 13.115299595731484 11.904722661770004 11.129971449127021
Zn 11.437640998659582 7.956352761834254 13.830882398164022
Zn 13.770188141696291 13.782016606861795 9.361980692366807
Zn 8.020405010262701 10.810999742891601 10.843020230415167
Zn 8.973060097401714 8.44858108851845 14.118159808882648
Zn 10.419315797087304 11.857911145580461 11.548453024113543
Zn 9.180087031613462 12.83319002785058 9.320891923662241
Zn 10.55375284438968 9.83294927382651 15.501046318688925
Zn 12.140002018227218 10.535426180253866 13.344380946043692
Zn 14.123246192622293 12.382942617391908 13.616397958708708
Zn 8.212069302579055 10.697921871663354 13.339956930601785
Zn 11.105478385710416 14.271085579926408 10.163602268343356
Zn 10.08687457457273 12.145644997460394 14.256589239600972
Zn 11.934962008818296 10.261847468100235 17.708582950729227
Zn 12.314035589030167 11.845464841295742 15.606645538453543
Zn 13.632631094226483 15.254257766643029 11.35431908872617
Zn 11.666148204912739 13.680636840362112 12.771424704959626
Zn 14.844745495119092 14.944741236299889 13.626409407870074
Zn 12.756309317178737 14.252964283965635 15.082874960090654
Zn 12.65380742670752 16.46761762552367 13.703043631492333
Zn 11.181708487460451 16.254054063316687 11.666357592259764
