3
Energy = -0.18543573 eV
Zn 6.1030970941484775 9.076692811085694 9.20124116231526
Zn 9.067616029669331 9.06636588709639 9.06411916430695
Zn 12.031600876182315 9.059255243323712 8.936953614883327
