40
Energy = -27.56706383 eV
Zn 10.472243457379168 12.749815722873088 6.616121577940467
Zn 8.240276686927745 11.459472668106839 6.391323589504724
Zn 12.722961487765463 11.655234702961604 6.925463749686586
Zn 10.646530010946165 10.194107671828858 6.16531194492286
Zn 8.557810683425622 8.789016592503302 5.909230185285472
Zn 6.668137203995393 9.729855434148742 7.382447397234124
Zn 12.023183693299687 13.735579793372823 8.379389065725832
Zn 10.461335044944553 7.8557971588659985 7.479017066496516
Zn 9.325700240322023 13.004520936739246 8.845800109957358
Zn 12.415319494741123 9.364023185696912 8.134524561959594
Zn 7.091172151326865 11.783051950324866 8.938164219936962
Zn 9.348577197412808 10.17824749354253 8.603072285286142
Zn 11.375143415750209 11.33111000877033 9.563158883992516
Zn 13.993769196422079 11.519734027597774 9.184398557579982
Zn 12.211860355068854 7.046472563975034 9.519109041766066
Zn 7.9780349443511405 7.65227221335955 8.229528184217024
Zn 7.037891452417124 9.349857069929396 9.999484033076154
Zn 13.351838359978284 13.632672700284454 10.47780611285678
Zn 10.716130652838823 5.954130249892291 11.508991324330088
Zn 10.572655541803504 8.857968500784196 10.425455792534981
Zn 9.818424089821399 6.077290294076138 9.203291198309746
Zn 13.34485465703735 9.204906372099469 10.555577697437489
Zn 10.763713983857158 13.532497357453165 10.897498638885871
Zn 12.432725433819497 7.485408660545256 12.418190119720931
Zn 9.119162217554587 10.935246224001808 11.071298039477645
Zn 7.891475760009697 13.271101103748359 11.080472232711106
Zn 8.398539539599224 7.391688144400437 10.927563250350005
Zn 6.0541052897079455 11.38813299112603 11.315148653062742
Zn 12.398458956831481 13.170045746745357 12.899754589709307
Zn 11.48768074440122 10.707634461723966 12.028405610279158
Zn 14.210025793724443 11.538285862570955 11.784943105863242
Zn 9.912180204855828 8.121069217122093 12.904527350133105
Zn 9.605251424926315 12.939878476061676 13.112912527808703
Zn 7.494241604026774 9.374135463266535 12.511356565620778
Zn 14.007561816280317 9.318014038496537 13.121004071552568
Zn 9.321958457148211 10.428137198364222 13.947171008238296
Zn 7.253261973138401 11.980234881783906 13.389601593594348
Zn 13.670132403455016 11.438668927115357 14.354954008967583
Zn 11.769237155037938 9.382076400750655 14.385675836166913
Zn 11.272304067576362 11.908474376916045 14.848723061746377
