41
Energy = -28.4257773 eV
Zn 7.049529448619302 10.539090702011448 13.160856369038877
Zn 8.033012871821125 12.64356855623804 14.152248332273658
Zn 7.72845058441071 14.213697118873476 12.099228097788782
Zn 6.967640403627182 12.171099201493531 10.910974068261101
Zn 9.203120772321384 10.211280113150538 14.56107432558644
Zn 10.429819390513329 12.444038647650608 15.202346829406535
Zn 7.207224445928443 9.676239559150407 10.800004207422344
Zn 11.417280921382204 9.965389923340013 15.905524939823355
Zn 9.727857947821088 15.705033239080153 11.05332251833903
Zn 9.988145748759885 14.304529135550492 13.266177612959485
Zn 9.099431791333574 8.874077793081835 12.281952666879869
Zn 9.592804448135055 11.749862205655864 12.00552447399798
Zn 12.889478743484618 11.944048539255007 16.034294310529322
Zn 9.003487114108392 13.5394610467554 9.834601028253907
Zn 11.972093032371776 15.690735475419379 12.230570000489408
Zn 8.866615190003685 10.922076483210436 9.327081805864156
Zn 11.358900188097778 8.857901088611072 13.586731504904163
Zn 11.98632422891995 11.366006296542473 13.124057570178282
Zn 12.384376860709029 13.759155279934605 14.149908958180907
Zn 9.243547291179107 8.332589067927348 9.71918775414129
Zn 11.626026471303318 13.16643342792648 11.266025440044203
Zn 14.597813033030718 12.382029420851977 14.203642803826176
Zn 11.148374432736022 14.84238987477866 9.083911648804499
Zn 11.314693267808863 10.33365595785109 10.768933040229514
Zn 14.123934154981734 14.212914005723865 12.23671652988084
Zn 13.645354413191829 9.722837489368471 14.568519321546482
Zn 11.184710229471866 7.658498847383788 11.221572940337856
Zn 11.019930490709445 12.177519858218291 8.719958300540185
Zn 13.391478103424589 15.567190453174028 10.109037357608777
Zn 13.42896320318124 8.975073918297385 11.89650109351845
Zn 10.760033739225468 9.541721641721507 8.078499147328898
Zn 13.620205771434456 11.54781954008509 11.036881145016824
Zn 16.233498843444142 12.657031421785183 12.267037995830915
Zn 13.337756774848119 13.337089489487564 8.85070111587455
Zn 15.53579769574253 10.206547651190421 12.93403886745008
Zn 13.069701181795793 10.557531052229015 8.27700823562199
Zn 12.641803360085584 8.115674719213427 9.250784818869054
Zn 15.543406924442369 13.804358410454812 10.07650852080488
Zn 14.921367770612441 9.205344399314402 9.623311616635023
Zn 15.347858054589055 11.654862966405146 8.720419937793627
Zn 16.66347913682353 10.704518739648865 10.688505328071647
