48
Energy = -32.96238615 eV
Zn 15.687759713749205 9.26534251405809 7.688978865025805
Zn 16.33733489060481 10.445708848193759 9.793271857975025
Zn 14.977739384576124 11.857121556201998 7.751690632538686
Zn 15.453136385027053 12.717121419356038 10.55224187971834
Zn 15.04992254363953 8.292186025730622 10.338507054216082
Zn 13.40743636108145 9.816808917019925 6.840985327952206
Zn 14.667613539534889 8.416531032186109 12.86513367293913
Zn 15.50799106267663 10.741565783769465 12.217789116056013
Zn 12.842964364735192 8.107143940966283 8.819249801874387
Zn 13.611968878618127 10.598684634324226 9.554655119720985
Zn 14.266527267755524 14.84701362130104 11.161738326632273
Zn 14.57283860870278 13.017121311886099 13.13477987483345
Zn 13.719571069814306 13.966857958350937 8.675747072433865
Zn 12.375477094295276 12.14913630594628 7.2942479834882485
Zn 13.869589814428991 10.668620010957365 14.199107134189843
Zn 12.730487270252606 7.4497824046665855 11.332012422821954
Zn 10.485354908566945 8.193006246829334 9.87175333887888
Zn 12.27222211192109 8.448918995567444 13.870782394275444
Zn 10.912184223830424 9.383304888539097 7.539886332855473
Zn 12.745682751876673 10.142406371608713 11.811852272968501
Zn 12.667100904573221 12.687325789974674 10.762354885320981
Zn 12.57406634351017 14.82197251316493 13.015789366631333
Zn 11.787122055811937 15.286095386244277 10.490640581989771
Zn 11.066664091637138 10.824130783712164 9.83361088537557
Zn 10.379901066544098 7.459506991284633 12.319902846963558
Zn 10.945300095282539 13.734913946899553 8.589614299973324
Zn 9.855022228829093 11.680624418388899 7.424012881467037
Zn 11.540471788328443 10.440910430034792 15.309095500630532
Zn 12.88874448781016 13.092843392583637 15.277043908008968
Zn 11.847052605365267 12.19058714102859 13.109400790651238
Zn 9.969757333174442 15.301178549951537 12.385678176698567
Zn 8.659039596209187 10.095127674214003 9.01753471115091
Zn 10.697487812435797 14.57492799971977 14.713927589191119
Zn 10.23145315358576 10.242916815424902 12.260613772164302
Zn 9.28774644305497 15.200276455328883 9.882742125197929
Zn 8.302645963194204 8.788216163520161 11.170224373548145
Zn 10.084619350500779 12.761426293719273 11.165853106468502
Zn 8.288689701741232 12.868098847159354 9.047614827594996
Zn 8.808807734327823 10.679875662260532 15.745211359106055
Zn 9.728541576264933 8.676626609329189 14.462677296571325
Zn 10.486550179619625 12.56163588658722 16.229933950417095
Zn 8.02915786752745 14.582203424300095 13.966148234415813
Zn 7.571227076352284 14.038770990268203 11.30007511820964
Zn 9.391564724089916 12.276747046944447 13.62976131078222
Zn 7.574505321519899 11.308908282692034 11.076455830539357
Zn 7.687804796951008 9.969322328981042 13.439199339935145
Zn 7.449802200774332 12.871468222217231 15.81336999287858
Zn 6.739334282142827 12.492962193452065 13.28108548357069
