46
Energy = -31.38161829 eV
Zn 15.591768216676167 12.796447112912997 10.780524218166997
Zn 14.436005072242759 13.637170790275713 8.61363734741437
Zn 14.426583275909897 10.44940904735818 10.664813668167854
Zn 13.815376409097878 11.129865398720675 8.042881670694912
Zn 14.589153570956233 8.782253257430408 8.643190516534597
Zn 13.34304059245337 8.004228757527228 10.754324883173096
Zn 13.75514311549461 14.756561327758732 11.103921330641182
Zn 15.241305060345827 11.4676838969364 13.10474273783797
Zn 15.375200728100227 14.09000004989285 13.035356781416532
Zn 12.27858879118695 13.149095893081157 7.213286377809732
Zn 12.948070736563285 9.753782425272417 12.762593904093155
Zn 12.598211772854373 12.440590616825293 10.149813010921031
Zn 11.665415960423044 10.031405821720593 10.214535495506095
Zn 11.337609059383865 10.568920645927497 7.511978055757138
Zn 12.21842981674045 8.20887210792497 8.155068620544276
Zn 13.085457250752127 15.128156242951396 13.589322354189108
Zn 14.048405929472555 13.111829662369319 14.977064307699482
Zn 11.085892130842403 14.711496985753943 11.90355187888109
Zn 12.077524908915244 15.01607449653935 9.235225567585426
Zn 11.860893467970321 7.214141811046689 12.689441911019973
Zn 12.848289810982417 12.501549870764377 12.594759296864051
Zn 12.382394663106723 11.243262675607703 15.01815606782393
Zn 10.342051355145015 12.401998449333357 9.169175551347763
Zn 9.614044814968702 15.207055159860879 9.853126346932202
Zn 10.630018733678712 11.48767700286619 12.17931549133261
Zn 11.132293054154774 9.097101971579663 14.534889583956838
Zn 11.00736460218637 6.943562020061266 10.066586806294215
Zn 9.71643095306649 5.827188274532199 11.954822562045242
Zn 10.154798023595337 14.553866148667943 7.446347501354256
Zn 11.081378104953863 13.577336358520608 14.387333977925062
Zn 8.750999394671494 10.98394763026337 7.565035320184025
Zn 9.74329161609995 11.481042589689796 14.898252246758176
Zn 10.037628005517396 8.93372137632621 11.966120529234704
Zn 9.828028063982414 6.937434108269751 14.275409804055046
Zn 9.072937972161457 10.53081593444553 10.294280516977944
Zn 8.825377380561125 13.42089071313544 11.548775448560107
Zn 7.951502987481769 13.377879072777684 8.922556709817428
Zn 9.67491743600702 8.542514144314808 8.389753764575314
Zn 8.498243526765176 9.232540182675848 14.190712072525098
Zn 8.39978364941598 7.448425613146155 10.391471588533337
Zn 8.005243252675704 11.429994021370113 12.985072994621534
Zn 6.370143010881979 11.47561518379334 8.295741571666726
Zn 7.090878286993133 9.195153281322632 9.02712317978286
Zn 7.696128529412047 7.116478449131587 12.891164875344252
Zn 7.021987045639965 9.329016422510048 11.751803270120599
Zn 6.746154902179368 11.815606138736758 10.779620827073561
