41
Energy = -26.56159117 eV
Zn 12.119795830654079 6.966990206560618 11.34194359922339
Zn 14.276764074571343 5.834714762766988 12.537222936460383
Zn 12.314360101097444 8.420481996286105 9.241300523548592
Zn 14.400181211259472 7.79604338505785 10.706928476399998
Zn 9.963092607693639 8.062211902237792 10.54752890679692
Zn 10.600904214570784 8.157386972082081 13.061214789433144
Zn 13.223329089082279 8.02526745406995 13.559954228411812
Zn 11.243127998800677 10.446708451050037 12.072383633576274
Zn 15.040091375132615 9.579077724303405 12.369054166565801
Zn 7.990627523215865 9.438377338161592 9.746505860297285
Zn 11.637317839617298 9.35737901334985 15.154845999302843
Zn 12.5058595641259 10.994853077250921 8.664818784065558
Zn 14.178722240144461 10.11939070608834 14.676368719482138
Zn 8.382969620190016 9.368465687998281 12.261988149825049
Zn 10.179583017463123 9.575706554354841 8.423575119297377
Zn 14.649110549104705 10.23954489087662 9.882883981090876
Zn 14.750600028402708 12.048824596990478 11.815768513194524
Zn 12.65899894288376 12.219750516082081 13.502871914352665
Zn 14.18770908382408 12.870667200999277 9.356877848228981
Zn 8.164763849262224 11.37658172906118 8.10174555632324
Zn 14.651859316213764 12.589267751331283 15.517952249676105
Zn 14.887330318172355 14.618142198202081 11.118832506873762
Zn 9.829817949007744 11.711673896353556 10.327041939987422
Zn 10.555950212599306 11.725322121002439 7.160762971425248
Zn 12.863058216697475 15.27953697971392 9.838839315346126
Zn 9.124200167318598 9.60823506336136 14.665509458814594
Zn 7.068656572686037 13.331506712068801 9.371003633167073
Zn 12.029150541581334 12.73944156908096 10.922829042764809
Zn 10.35401101572903 13.616888722488834 13.300143388129351
Zn 14.919266645885832 14.058157704357175 13.567203274305584
Zn 12.601068761978487 11.464322313432907 16.369621068229517
Zn 7.081054570502778 11.425152055633653 11.10719864247669
Zn 11.911557910735405 13.541091784741749 8.19065944149457
Zn 8.564223449584356 11.736775290336261 13.295315613708475
Zn 10.670656980213977 15.783471233546184 8.791206222157998
Zn 9.223207660666567 13.80096245353094 7.967962029954483
Zn 8.274365122060509 13.701751883004368 11.664933568770525
Zn 12.630085829689511 14.795360797759264 12.492307533570386
Zn 10.431366616385144 11.756098318212903 15.108521850093585
Zn 10.430949033780854 15.279280810738873 11.311980743348133
Zn 8.376721322098556 15.485603150158946 9.830860774512953
