54
Energy = -38.63365236 eV
Zn 13.628015167337848 8.703023419005635 9.236941411634351
Zn 16.077028047727456 12.351093465683588 12.253168936709017
Zn 15.519742264164062 10.061815115824144 10.4872512080351
Zn 14.174341650219157 11.276214916984127 8.703816093718688
Zn 16.173696897953302 12.595421192842393 9.755192208511867
Zn 12.141386814745635 10.336674267742678 7.329191669150943
Zn 12.966182859658893 12.747723634692012 6.793386873053727
Zn 11.385300913873907 8.024964914845105 8.348535960949546
Zn 14.58983563235085 7.730276452500507 11.461092246861723
Zn 15.338529309113461 9.934540834184201 12.986749976503825
Zn 14.482668599604699 13.980070271431801 8.323488701332847
Zn 11.770223894179049 10.494101159298019 10.083110226327934
Zn 12.730357468331752 6.648941801083544 12.719497885259234
Zn 9.690150365596242 10.132625484802881 7.989196342360226
Zn 14.923926554285734 11.904990446516326 14.597596209398118
Zn 13.483842535772204 11.918854687837005 11.517249655155979
Zn 14.893459574415331 14.540417686247025 10.794450051019819
Zn 10.454433799081297 12.44440975598081 7.019651575597262
Zn 12.244064266297293 13.063446473084298 9.551584185434663
Zn 11.655743328183178 14.878125583357253 7.411889146308183
Zn 13.840351649317315 9.603378782018893 15.042700780606863
Zn 11.872836191668842 8.103895447614782 14.701002082246797
Zn 14.319482086346584 13.984303450404195 13.28523576405604
Zn 11.057276849841282 7.8688700277841015 10.892965003553671
Zn 12.770719270920788 9.499200966466328 12.400225608270521
Zn 9.327215181831964 10.253535614090579 10.703658843707245
Zn 13.095126733871327 15.94333580754952 9.20882309737914
Zn 7.265413435628467 9.888082781342675 8.872974322076193
Zn 8.936762185835569 7.874094055124012 9.115049423625539
Zn 7.846737184723066 12.142318215115473 7.613085009521301
Zn 13.36740097966031 11.530330937016696 16.70673017672697
Zn 8.127771472868288 7.475028984553131 11.455615395861852
Zn 9.981613901079973 7.273470738967614 13.229786780769158
Zn 11.324197906985503 10.070537744547973 16.261024788355385
Zn 12.284741023108815 11.682315512395 13.82706275946103
Zn 9.096462467168013 14.610522486877787 7.452381221605808
Zn 10.352321057271276 9.99412011655126 13.040613780446895
Zn 10.434221793425456 15.080833230998259 9.754712515033876
Zn 12.492859731926341 14.825696731595542 11.62950316585435
Zn 9.7162200214778 12.509993533844037 9.571836838709967
Zn 10.822933532623514 12.294923147501404 11.866648852431009
Zn 6.863611199040525 11.954201658788454 10.222397688319989
Zn 13.569327043589427 13.859902551081019 15.846184343040303
Zn 9.435201404292902 8.574072195418482 15.426999366802477
Zn 11.757755560006508 14.45997990158048 14.117708661580178
Zn 6.760185161605697 9.645274804890079 11.377848417226883
Zn 10.063255868299757 15.09991614656183 12.289341219109676
Zn 8.986852046697683 11.044507481233405 15.225499709572178
Zn 7.114627710628065 14.313920574532409 8.961044862928441
Zn 8.004383922576842 11.500072550518015 12.721612794850522
Zn 11.147536743942606 12.725980334546193 16.026669179543347
Zn 7.764211883696523 8.936993317328621 13.620037657218688
Zn 8.130422436091544 13.840526673595974 11.41012362347123
Zn 9.441066227486413 13.229743703068952 13.971489206610597
