54
Energy = -38.52645573 eV
Zn 12.84048680647876 11.806830461701221 6.7810178265779095
Zn 11.893791846095318 9.56171275962776 7.363090815992475
Zn 11.96142970681732 13.998326552950427 7.821056693467615
Zn 10.286730240246518 11.675710479417893 7.303598258417432
Zn 9.40655966142198 13.873610244354778 8.27185331490221
Zn 14.347963353529744 10.27570161541677 8.293896154175798
Zn 9.2255415861135 9.349614849377936 8.004244724884202
Zn 14.329367939088133 13.065546381780557 8.426619818229634
Zn 10.986591518260955 9.310604231701896 10.270702526642724
Zn 10.83433463271529 7.339507459886137 7.983589546146995
Zn 11.200680920392053 16.331714813084766 8.85462246050424
Zn 12.00952604292444 11.53885888150989 9.472454823784183
Zn 13.49100015057077 15.38848645344614 9.567445460156614
Zn 8.121203215872743 11.575062643941731 8.707647968914776
Zn 9.786435830431012 11.557759445000299 10.951717314982538
Zn 7.093112408175936 9.2795174884323 9.572288994783952
Zn 9.079731507534728 7.428347372149572 9.923776526911949
Zn 11.05063102941787 13.757158659120028 10.438232635404399
Zn 15.007970275931882 9.199734115588264 10.624159864777324
Zn 13.290303271631313 8.046491306271708 9.012527826164161
Zn 15.642606105530495 11.692077947767336 10.141375931187826
Zn 9.209408797466567 15.996844618604603 10.178397832244217
Zn 11.67133040442226 6.191284055956785 9.972098879885678
Zn 14.997226285573756 15.623145007170493 11.660905982053661
Zn 6.58855978629225 7.136266403981798 10.957116036517137
Zn 6.7760293288097575 11.451191745830625 10.94316615048272
Zn 8.651158684546287 9.387468755707033 11.80517414484766
Zn 10.644546840006202 7.227719862603438 12.076509338517017
Zn 16.086513332128572 14.417256383014283 9.733638329482224
Zn 12.977680639881378 10.551985410410623 11.642661636472202
Zn 5.521544524125914 9.202221943138424 11.805422681348302
Zn 8.015978919836996 12.719658843771109 12.818394604162316
Zn 13.54820620742173 13.04057574418495 11.091233844887634
Zn 8.059212870912251 13.656015707443311 10.410455623641795
Zn 16.191260211347448 13.407668618496137 12.138116065255218
Zn 12.344246431980253 15.390121757596278 12.091080215239586
Zn 11.54262469092643 12.477459086029436 12.727799282540303
Zn 13.273466849871257 7.475785761709133 11.5988164541819
Zn 8.241788892136885 6.67543352258997 12.729990234465523
Zn 10.918957000147987 9.951498545454648 12.967075090305476
Zn 15.656678125907144 10.960000733252157 12.607600301597671
Zn 6.3983756633319055 10.840940704296168 13.518637851081342
Zn 9.674385942819008 14.805056474188142 12.491756851682911
Zn 7.100151844680677 8.53595182478283 14.033604740062886
Zn 14.13216129473226 14.129965745992056 13.645711854965633
Zn 14.250143695742006 9.035383556498038 13.489679752171519
Zn 13.7477488219349 11.661765204293465 14.239264078259419
Zn 8.961774864244298 10.808806677059366 14.469838938900322
Zn 9.566645572442306 13.394437208654887 14.632634250518711
Zn 11.8155601880169 14.555601136232639 14.565603974551097
Zn 12.217357699396372 7.573665301938405 14.004040458767067
Zn 9.676145901112934 8.121429370476665 14.446154039867507
Zn 12.38382014471304 9.69966902229403 15.281223694972553
Zn 11.32530752905657 11.897347138964072 15.492273334206484
