50
Energy = -34.6617764 eV
Zn 8.429048266560331 11.217572364794272 14.346666479090235
Zn 7.9799820282199425 9.048289353774862 12.837007546962383
Zn 9.86083898255115 8.226942976726642 11.227872272771688
Zn 9.204210879462805 13.218210242126464 12.911293503027833
Zn 9.607396223344994 10.746453794148659 6.985887132476808
Zn 6.667004470664735 11.856993804004501 9.529014155717665
Zn 9.435719114240346 8.876912908091958 14.902975779655957
Zn 11.36535353662443 7.967703992368517 9.157321770042753
Zn 11.18914700468712 7.913058186573772 13.417465281456813
Zn 10.731872510094158 8.430220342782437 6.573751340596431
Zn 9.600874358503441 13.26949434360364 15.614081973421314
Zn 10.752189470599541 12.802058909282579 8.312513477801964
Zn 11.724448294509887 12.83297729512235 13.678619571573094
Zn 10.089665487903428 15.365454144009028 14.190565123454883
Zn 14.010179790540548 7.437252623269341 9.286297109048133
Zn 13.1527845637783 8.235164945129588 7.044838693200713
Zn 12.413532165467068 10.173541200264804 10.727265084014427
Zn 11.947697993185743 10.496325794656851 8.003422744162021
Zn 10.215269099980658 15.209660548558094 9.083986079104957
Zn 9.877564291836487 10.751729562130835 9.897239601173327
Zn 14.865617871708697 14.141870325538013 10.271450910339125
Zn 16.65718248141405 13.089844565817783 11.817076222835514
Zn 15.03264376698137 8.967479809868468 11.084041980042997
Zn 8.92939286321666 8.574458312017534 8.366096781693372
Zn 14.381323499886204 9.861862421993642 8.653480787627732
Zn 7.205731831911232 10.507727734964211 7.595586459678445
Zn 13.343634554270349 12.277066239225329 9.20679638558851
Zn 12.574313108177698 7.466514563995807 11.387757849630905
Zn 13.653765633035519 12.312398944267589 12.099618398031721
Zn 16.01382470618273 12.827435033428312 14.197370748555167
Zn 7.5750940024335085 9.46778283545681 10.349690807018835
Zn 11.35339635351281 12.812672258525321 11.027550294243744
Zn 12.677166895961061 14.7472858959952 8.973442720089615
Zn 13.547667173753371 9.27192204726384 13.133657340672704
Zn 15.591757552126227 11.457334504242686 10.277128800540956
Zn 15.861160398136144 10.685838836269387 12.788158690837074
Zn 11.230804051511862 17.300187269102075 12.676699467529126
Zn 12.727140563966067 15.439520005955192 11.362108905560138
Zn 10.553065352339267 10.643134687717955 12.558702426843796
Zn 8.715898903610935 13.331481724236923 10.141696888673154
Zn 9.983074091383656 15.265967023637494 11.583525350419276
Zn 14.921588213795982 14.772559994191223 12.832283245666524
Zn 13.992588902795505 11.340105977626825 14.630087593689767
Zn 11.850051650401541 9.924526320472124 15.010449252779253
Zn 11.701461652623774 14.638739953138902 15.998405640862867
Zn 7.582621165688478 11.523158157069139 11.86397007189261
Zn 12.17960980863507 12.208632256747698 16.427058801746096
Zn 14.03481340037987 13.800238317730336 15.403362134452653
Zn 12.798979468669192 15.630837012789923 13.945963486378526
Zn 9.968486612985668 10.948407054968074 16.44911181976253
