6
Energy = -0.97456132 eV
Zn 6.343838635863929 8.068589226494549 9.600022020450975
Zn 10.204393597852748 8.479206726348549 6.948140232383546
Zn 7.308609184794632 9.684895793729282 7.091537114746541
Zn 8.964374953207685 9.790753204687423 9.51429563086029
Zn 9.238907346691104 6.863379618227917 9.456703016259816
Zn 7.584230281589896 6.757529314107468 7.033656101703404
