8
Energy = -2.54963236 eV
Zn 9.673629617948864 6.383368984309781 6.3014169011982695
Zn 7.383219281931014 7.558444104790324 6.836548064576986
Zn 10.036333422003056 8.783076463228415 7.654347464027063
Zn 6.157579335304212 9.920287683943656 7.146126821786586
Zn 5.34553380809483 7.751799563834145 8.539779415614
Zn 9.281573646567859 6.711989587130671 9.024344492939587
Zn 7.491058349903865 9.126410627069909 9.329779890094338
Zn 9.886157572250678 9.019708019697873 10.42274198376769
