   20   20 1000    2
  0.3850928E+03  0.1974839E-08  0.1974839E-08  0.1974839E-08  0.1000000E-15
  1.000000000000000E-004
  CAR 
 unknown system                          
    220      1    144
 
  0.0000000E+00  0.0000000E+00  0.0000000E+00  0.1000000E+01
    1       -9.275858     -9.275858
    2       -9.048541     -9.048541
    3       -8.956023     -8.956023
    4       -8.879895     -8.879895
    5       -8.854356     -8.854356
    6       -8.819225     -8.819225
    7       -8.807526     -8.807526
    8       -8.757764     -8.757764
    9       -8.751797     -8.751797
   10       -8.704374     -8.704374
   11       -8.700761     -8.700761
   12       -8.639588     -8.639588
   13       -8.595263     -8.595263
   14       -8.517185     -8.517185
   15       -8.474079     -8.474079
   16       -8.416601     -8.416601
   17       -8.388371     -8.388371
   18       -8.343592     -8.343592
   19       -8.288558     -8.288558
   20       -8.255938     -8.255938
   21       -8.224795     -8.224795
   22       -8.167159     -8.167159
   23       -8.161220     -8.161220
   24       -8.112992     -8.112992
   25       -8.071481     -8.071481
   26       -8.052207     -8.052207
   27       -8.010450     -8.010450
   28       -7.985522     -7.985522
   29       -7.956312     -7.956313
   30       -7.945156     -7.945156
   31       -7.891282     -7.891282
   32       -7.870847     -7.870847
   33       -7.822606     -7.822606
   34       -7.789889     -7.789889
   35       -7.777647     -7.777648
   36       -7.749504     -7.749504
   37       -7.722472     -7.722472
   38       -7.667501     -7.667501
   39       -7.629870     -7.629870
   40       -7.602609     -7.602609
   41       -7.592800     -7.592800
   42       -7.578288     -7.578288
   43       -7.527491     -7.527491
   44       -7.502400     -7.502400
   45       -7.491281     -7.491281
   46       -7.452376     -7.452376
   47       -7.416838     -7.416838
   48       -7.410390     -7.410390
   49       -7.303308     -7.303308
   50       -7.291201     -7.291201
   51       -7.233790     -7.233790
   52       -7.210586     -7.210586
   53       -7.200437     -7.200437
   54       -7.168963     -7.168963
   55       -7.139292     -7.139292
   56       -7.130839     -7.130839
   57       -7.093821     -7.093821
   58       -7.087105     -7.087105
   59       -7.072367     -7.072367
   60       -7.058212     -7.058212
   61       -7.038238     -7.038238
   62       -7.011496     -7.011496
   63       -6.993264     -6.993265
   64       -6.970537     -6.970537
   65       -6.964036     -6.964036
   66       -6.950303     -6.950303
   67       -6.938895     -6.938895
   68       -6.921241     -6.921241
   69       -6.906497     -6.906497
   70       -6.897284     -6.897284
   71       -6.876324     -6.876324
   72       -6.866229     -6.866229
   73       -6.853946     -6.853946
   74       -6.830354     -6.830354
   75       -6.822486     -6.822486
   76       -6.811439     -6.811439
   77       -6.780999     -6.780999
   78       -6.765657     -6.765657
   79       -6.760376     -6.760376
   80       -6.721911     -6.721911
   81       -6.706286     -6.706286
   82       -6.683329     -6.683329
   83       -6.643854     -6.643854
   84       -6.635879     -6.635879
   85       -6.606751     -6.606751
   86       -6.588149     -6.588149
   87       -6.566107     -6.566107
   88       -6.513663     -6.513663
   89       -6.502264     -6.502264
   90       -6.457443     -6.457443
   91       -6.453101     -6.453101
   92       -6.440314     -6.440314
   93       -6.404337     -6.404337
   94       -6.363653     -6.363653
   95       -6.344936     -6.344936
   96       -6.342076     -6.342076
   97       -6.287431     -6.287431
   98       -6.272866     -6.272866
   99       -6.245079     -6.245079
  100       -6.228238     -6.228238
  101       -6.197740     -6.197740
  102       -6.181845     -6.181845
  103       -6.161341     -6.161341
  104       -6.120934     -6.120934
  105       -4.918549     -4.918549
  106       -4.583046     -4.583046
  107       -4.518607     -4.518607
  108       -4.364644     -4.364644
  109       -4.276971     -4.276971
  110       -3.914607     -3.914607
  111       -2.697094     -2.697093
  112       -2.639056     -2.639056
  113       -2.528633     -2.528633
  114       -2.457922     -2.457922
  115       -2.248928     -2.248928
  116       -2.136747     -2.136747
  117       -2.052995     -2.052995
  118       -2.001707     -2.001707
  119       -1.827356     -1.827356
  120       -1.631086     -1.631086
  121       -0.996660     -0.996660
  122       -0.902788     -0.902787
  123       -0.829569     -0.829569
  124       -0.728640     -0.728640
  125       -0.625872     -0.625871
  126       -0.567090     -0.567089
  127       -0.434992     -0.434991
  128       -0.226780     -0.226779
  129       -0.002375     -0.002375
  130        0.037404      0.037405
  131        0.088764      0.088765
  132        0.175974      0.175974
  133        0.279261      0.279263
  134        0.340907      0.340908
  135        0.502112      0.502110
  136        0.674612      0.674609
  137        0.700493      0.700494
  138        0.721187      0.721193
  139        0.760685      0.760688
  140        0.798045      0.798036
  141        0.868935      0.868938
  142        0.941214      0.941217
  143        0.983473      0.983477
  144        1.011892      1.011890
