<?xml version="1.0" encoding="ISO-8859-1"?>
<modeling>
 <generator>
  <i name="program" type="string">vasp </i>
  <i name="version" type="string">5.3.5  </i>
  <i name="subversion" type="string">31Mar14 (build Feb 01 2018 12:10:03) gamma-only                       parallel </i>
  <i name="platform" type="string">LinuxIFC </i>
  <i name="date" type="string">2019 03 22 </i>
  <i name="time" type="string">22:22:23 </i>
 </generator>
 <incar>
  <i type="string" name="PREC">normal</i>
  <i type="int" name="ISPIN">     2</i>
  <i type="int" name="IBRION">     2</i>
  <i type="int" name="NSW">  1000</i>
  <i type="int" name="ISIF">     2</i>
  <i name="POTIM">      0.10000000</i>
  <i type="logical" name="LPLANE"> T  </i>
  <i type="int" name="ISMEAR">     0</i>
  <i name="SIGMA">      0.00010000</i>
  <i type="logical" name="LWAVE"> F  </i>
  <i type="logical" name="LCHARG"> F  </i>
  <i type="logical" name="LVTOT"> F  </i>
  <i type="string" name="GGA"> PE</i>
 </incar>
 <kpoints>
  <varray name="kpointlist" >
   <v>       0.00000000       0.00000000       0.00000000 </v>
  </varray>
  <varray name="weights" >
   <v>       1.00000000 </v>
  </varray>
 </kpoints>
 <parameters>
  <separator name="general" >
   <i type="string" name="SYSTEM">unknown system</i>
   <i type="logical" name="LCOMPAT"> F  </i>
  </separator>
  <separator name="electronic" >
   <i type="string" name="PREC">normal</i>
   <i name="ENMAX">    249.84400000</i>
   <i name="ENAUG">    412.49600000</i>
   <i name="EDIFF">      0.00010000</i>
   <i type="int" name="IALGO">    38</i>
   <i type="int" name="IWAVPR">    11</i>
   <i type="int" name="NBANDS">   236</i>
   <i name="NELECT">    363.00000000</i>
   <i type="int" name="TURBO">     0</i>
   <i type="int" name="IRESTART">     0</i>
   <i type="int" name="NREBOOT">     0</i>
   <i type="int" name="NMIN">     0</i>
   <i name="EREF">      0.00000000</i>
   <separator name="electronic smearing" >
    <i type="int" name="ISMEAR">     0</i>
    <i name="SIGMA">      0.00010000</i>
    <i name="KSPACING">      0.50000000</i>
    <i type="logical" name="KGAMMA"> T  </i>
   </separator>
   <separator name="electronic projectors" >
    <i type="logical" name="LREAL"> F  </i>
    <v name="ROPT">      0.00000000</v>
    <i type="int" name="LMAXPAW">  -100</i>
    <i type="int" name="LMAXMIX">     2</i>
    <i type="logical" name="NLSPLINE"> F  </i>
   </separator>
   <separator name="electronic startup" >
    <i type="int" name="ISTART">     0</i>
    <i type="int" name="ICHARG">     2</i>
    <i type="int" name="INIWAV">     1</i>
   </separator>
   <separator name="electronic spin" >
    <i type="int" name="ISPIN">     2</i>
    <i type="logical" name="LNONCOLLINEAR"> F  </i>
    <v name="MAGMOM">      1.00000000      1.00000000      1.00000000      1.00000000      1.00000000      1.00000000      1.00000000      1.00000000      1.00000000      1.00000000      1.00000000      1.00000000      1.00000000      1.00000000      1.00000000      1.00000000      1.00000000      1.00000000      1.00000000      1.00000000
      1.00000000      1.00000000      1.00000000      1.00000000      1.00000000      1.00000000      1.00000000      1.00000000      1.00000000      1.00000000      1.00000000      1.00000000      1.00000000</v>
    <i name="NUPDOWN">     -1.00000000</i>
    <i type="logical" name="LSORBIT"> F  </i>
    <v name="SAXIS">      0.00000000      0.00000000      1.00000000</v>
    <i type="logical" name="LSPIRAL"> F  </i>
    <v name="QSPIRAL">      0.00000000      0.00000000      0.00000000</v>
    <i type="logical" name="LZEROZ"> F  </i>
   </separator>
   <separator name="electronic exchange-correlation" >
    <i type="logical" name="LASPH"> F  </i>
    <i type="logical" name="LMETAGGA"> F  </i>
   </separator>
   <separator name="electronic convergence" >
    <i type="int" name="NELM">    60</i>
    <i type="int" name="NELMDL">    -5</i>
    <i type="int" name="NELMIN">     2</i>
    <i name="ENINI">    249.84400000</i>
    <separator name="electronic convergence detail" >
     <i type="logical" name="LDIAG"> T  </i>
     <i type="logical" name="LSUBROT"> F  </i>
     <i name="WEIMIN">      0.00100000</i>
     <i name="EBREAK">      0.00000011</i>
     <i name="DEPER">      0.30000000</i>
     <i type="int" name="NRMM">     4</i>
     <i name="TIME">      0.40000000</i>
    </separator>
   </separator>
   <separator name="electronic mixer" >
    <i name="AMIX">      0.40000000</i>
    <i name="BMIX">      1.00000000</i>
    <i name="AMIN">      0.10000000</i>
    <i name="AMIX_MAG">      1.60000000</i>
    <i name="BMIX_MAG">      1.00000000</i>
    <separator name="electronic mixer details" >
     <i type="int" name="IMIX">     4</i>
     <i type="int" name="MAXMIX">   -45</i>
     <i name="WC">    100.00000000</i>
     <i type="int" name="INIMIX">     1</i>
     <i type="int" name="MIXPRE">     1</i>
     <i type="int" name="MREMOVE">     5</i>
    </separator>
   </separator>
   <separator name="electronic dipolcorrection" >
    <i type="logical" name="LDIPOL"> F  </i>
    <i type="logical" name="LMONO"> F  </i>
    <i type="int" name="IDIPOL">     0</i>
    <i name="EPSILON">      1.00000000</i>
    <v name="DIPOL">   -100.00000000   -100.00000000   -100.00000000</v>
    <i name="EFIELD">      0.00000000</i>
   </separator>
  </separator>
  <separator name="grids" >
   <i type="int" name="NGX">    90</i>
   <i type="int" name="NGY">    90</i>
   <i type="int" name="NGZ">    90</i>
   <i type="int" name="NGXF">   180</i>
   <i type="int" name="NGYF">   180</i>
   <i type="int" name="NGZF">   180</i>
   <i type="logical" name="ADDGRID"> F  </i>
  </separator>
  <separator name="ionic" >
   <i type="int" name="NSW">  1000</i>
   <i type="int" name="IBRION">     2</i>
   <i type="int" name="ISIF">     2</i>
   <i name="PSTRESS">      0.00000000</i>
   <i name="EDIFFG">      0.00100000</i>
   <i type="int" name="NFREE">     1</i>
   <i name="POTIM">      0.10000000</i>
   <i name="SMASS">     -3.00000000</i>
   <i name="SCALEE">      1.00000000</i>
  </separator>
  <separator name="ionic md" >
   <i name="TEBEG">      0.00010000</i>
   <i name="TEEND">      0.00010000</i>
   <i type="int" name="NBLOCK">     1</i>
   <i type="int" name="KBLOCK">  1000</i>
   <i type="int" name="NPACO">   256</i>
   <i name="APACO">     16.00000000</i>
  </separator>
  <separator name="symmetry" >
   <i type="int" name="ISYM">     2</i>
   <i name="SYMPREC">      0.00001000</i>
  </separator>
  <separator name="dos" >
   <i type="logical" name="LORBIT"> F  </i>
   <v name="RWIGS">     -1.00000000</v>
   <i type="int" name="NEDOS">   301</i>
   <i name="EMIN">     10.00000000</i>
   <i name="EMAX">    -10.00000000</i>
   <i name="EFERMI">      0.00000000</i>
  </separator>
  <separator name="writing" >
   <i type="int" name="NWRITE">     2</i>
   <i type="logical" name="LWAVE"> F  </i>
   <i type="logical" name="LCHARG"> F  </i>
   <i type="logical" name="LPARD"> F  </i>
   <i type="logical" name="LVTOT"> F  </i>
   <i type="logical" name="LVHAR"> F  </i>
   <i type="logical" name="LELF"> F  </i>
   <i type="logical" name="LOPTICS"> F  </i>
   <v name="STM">      0.00000000      0.00000000      0.00000000      0.00000000      0.00000000      0.00000000      0.00000000</v>
  </separator>
  <separator name="performance" >
   <i type="int" name="NPAR">     4</i>
   <i type="int" name="NSIM">     4</i>
   <i type="int" name="NBLK">    -1</i>
   <i type="logical" name="LPLANE"> T  </i>
   <i type="logical" name="LSCALAPACK"> T  </i>
   <i type="logical" name="LSCAAWARE"> F  </i>
   <i type="logical" name="LSCALU"> F  </i>
   <i type="logical" name="LASYNC"> F  </i>
   <i type="logical" name="LORBITALREAL"> F  </i>
  </separator>
  <separator name="miscellaneous" >
   <i type="int" name="IDIOT">     3</i>
   <i type="logical" name="LMUSIC"> F  </i>
   <v name="POMASS">    107.86800000</v>
   <v name="DARWINR">      0.00000000</v>
   <v name="DARWINV">      1.00000000</v>
   <i type="logical" name="LCORR"> T  </i>
  </separator>
  <i type="logical" name="GGA_COMPAT"> T  </i>
  <i type="logical" name="LBERRY"> F  </i>
  <i type="int" name="ICORELEVEL">     0</i>
  <i type="logical" name="LDAU"> F  </i>
  <i type="int" name="I_CONSTRAINED_M">     0</i>
  <separator name="electronic exchange-correlation" >
   <i type="string" name="GGA">PE</i>
   <i type="int" name="VOSKOWN">     0</i>
   <i type="logical" name="LHFCALC"> F  </i>
   <i type="string" name="PRECFOCK"></i>
   <i type="logical" name="LSYMGRAD"> F  </i>
   <i type="logical" name="LHFONE"> F  </i>
   <i type="logical" name="LRHFCALC"> F  </i>
   <i type="logical" name="LTHOMAS"> F  </i>
   <i type="logical" name="LMODELHF"> F  </i>
   <i name="ENCUT4O">     -1.00000000</i>
   <i type="int" name="EXXOEP">     0</i>
   <i type="int" name="FOURORBIT">     0</i>
   <i name="AEXX">      0.00000000</i>
   <i name="HFALPHA">      0.00000000</i>
   <i name="MCALPHA">      0.00000000</i>
   <i name="ALDAX">      1.00000000</i>
   <i name="AGGAX">      1.00000000</i>
   <i name="ALDAC">      1.00000000</i>
   <i name="AGGAC">      1.00000000</i>
   <i type="int" name="NKREDX">     1</i>
   <i type="int" name="NKREDY">     1</i>
   <i type="int" name="NKREDZ">     1</i>
   <i type="logical" name="SHIFTRED"> F  </i>
   <i type="logical" name="ODDONLY"> F  </i>
   <i type="logical" name="EVENONLY"> F  </i>
   <i type="int" name="LMAXFOCK">     0</i>
   <i type="int" name="NMAXFOCKAE">     0</i>
   <i type="logical" name="LFOCKAEDFT"> F  </i>
   <i name="HFSCREEN">      0.00000000</i>
   <i name="HFSCREENC">      0.00000000</i>
   <i type="int" name="NBANDSGWLOW">     0</i>
  </separator>
  <separator name="vdW DFT" >
   <i type="logical" name="LUSE_VDW"> F  </i>
   <i name="Zab_VDW">     -0.84910000</i>
   <i name="PARAM1">      0.12340000</i>
   <i name="PARAM2">      1.00000000</i>
   <i name="PARAM3">      0.00000000</i>
  </separator>
  <separator name="model GW" >
   <i type="int" name="MODEL_GW">     0</i>
   <i name="MODEL_EPS0">    210.72458958</i>
   <i name="MODEL_ALPHA">      1.00000000</i>
  </separator>
  <separator name="linear response parameters" >
   <i type="logical" name="LEPSILON"> F  </i>
   <i type="logical" name="LRPA"> F  </i>
   <i type="logical" name="LNABLA"> F  </i>
   <i type="logical" name="LVEL"> F  </i>
   <i type="int" name="KINTER">     0</i>
   <i name="CSHIFT">      0.10000000</i>
   <i name="OMEGAMAX">     -1.00000000</i>
   <i name="DEG_THRESHOLD">      0.00200000</i>
  </separator>
  <separator name="orbital magnetization" >
   <i type="logical" name="NUCIND"> F  </i>
   <v name="MAGPOS">      0.00000000      0.00000000      0.00000000</v>
   <i type="logical" name="LNICSALL"> T  </i>
   <i type="logical" name="ORBITALMAG"> F  </i>
   <i type="logical" name="LMAGBLOCH"> F  </i>
   <i type="logical" name="LCHIMAG"> F  </i>
   <i type="logical" name="LGAUGE"> T  </i>
   <i type="int" name="MAGATOM">     0</i>
   <v name="MAGDIPOL">      0.00000000      0.00000000      0.00000000</v>
   <v name="AVECCONST">      0.00000000      0.00000000      0.00000000</v>
  </separator>
  <separator name="response functions" >
   <i type="logical" name="LADDER"> F  </i>
   <i type="logical" name="LFXC"> F  </i>
   <i type="logical" name="LHARTREE"> T  </i>
   <i type="int" name="IBSE">     0</i>
   <i type="logical" name="LTCTE"> F  </i>
   <i type="logical" name="LTETE"> F  </i>
   <i type="logical" name="LTRIPLET"> F  </i>
   <i type="logical" name="LFXCEPS"> F  </i>
   <i type="logical" name="LFXHEG"> F  </i>
   <i type="logical" name="L2ORDER"> F  </i>
   <i type="logical" name="LUSEW"> F  </i>
   <i name="ENCUTGW">     -2.00000000</i>
   <i name="ENCUTGWSOFT">     -2.00000000</i>
   <i name="ENCUTLF">     -1.00000000</i>
   <i type="int" name="LMAXMP2">    -1</i>
   <i name="SCISSOR">      0.00000000</i>
   <i type="int" name="NOMEGA">     0</i>
   <i type="int" name="NOMEGAR">     0</i>
   <i type="int" name="NBANDSGW">    -1</i>
   <i type="int" name="NBANDSO">    -1</i>
   <i type="int" name="NBANDSV">    -1</i>
   <i type="int" name="NELM">     1</i>
   <i type="int" name="DIM">     3</i>
   <i type="int" name="ANTIRES">     0</i>
   <i name="OMEGAMAX">    -30.00000000</i>
   <i name="OMEGAMIN">    -30.00000000</i>
   <i name="OMEGATL">   -200.00000000</i>
   <i type="int" name="OMEGAGRID">     0</i>
   <i name="CSHIFT">     -0.10000000</i>
   <i type="logical" name="SELFENERGY"> F  </i>
   <i type="logical" name="LSPECTRAL"> F  </i>
   <i type="logical" name="ODDONLYGW"> F  </i>
   <i type="logical" name="EVENONLYGW"> F  </i>
   <i type="int" name="NKREDLFX">     1</i>
   <i type="int" name="NKREDLFY">     1</i>
   <i type="int" name="NKREDLFZ">     1</i>
   <i type="int" name="MAXMEM">  1800</i>
   <i type="int" name="TELESCOPE">     0</i>
   <i type="int" name="TAUPAR">     1</i>
  </separator>
  <separator name="External order field" >
   <i name="OFIELD_KAPPA">      0.00000000</i>
   <v name="OFIELD_K">      0.00000000      0.00000000      0.00000000</v>
   <i name="OFIELD_Q6_NEAR">      0.00000000</i>
   <i name="OFIELD_Q6_FAR">      0.00000000</i>
   <i name="OFIELD_A">      0.00000000</i>
  </separator>
 </parameters>
 <atominfo>
  <atoms>      33 </atoms>
  <types>       1 </types>
  <array name="atoms" >
   <dimension dim="1">ion</dimension>
   <field type="string">element</field>
   <field type="int">atomtype</field>
   <set>
    <rc><c>Ag</c><c>   1</c></rc>
    <rc><c>Ag</c><c>   1</c></rc>
    <rc><c>Ag</c><c>   1</c></rc>
    <rc><c>Ag</c><c>   1</c></rc>
    <rc><c>Ag</c><c>   1</c></rc>
    <rc><c>Ag</c><c>   1</c></rc>
    <rc><c>Ag</c><c>   1</c></rc>
    <rc><c>Ag</c><c>   1</c></rc>
    <rc><c>Ag</c><c>   1</c></rc>
    <rc><c>Ag</c><c>   1</c></rc>
    <rc><c>Ag</c><c>   1</c></rc>
    <rc><c>Ag</c><c>   1</c></rc>
    <rc><c>Ag</c><c>   1</c></rc>
    <rc><c>Ag</c><c>   1</c></rc>
    <rc><c>Ag</c><c>   1</c></rc>
    <rc><c>Ag</c><c>   1</c></rc>
    <rc><c>Ag</c><c>   1</c></rc>
    <rc><c>Ag</c><c>   1</c></rc>
    <rc><c>Ag</c><c>   1</c></rc>
    <rc><c>Ag</c><c>   1</c></rc>
    <rc><c>Ag</c><c>   1</c></rc>
    <rc><c>Ag</c><c>   1</c></rc>
    <rc><c>Ag</c><c>   1</c></rc>
    <rc><c>Ag</c><c>   1</c></rc>
    <rc><c>Ag</c><c>   1</c></rc>
    <rc><c>Ag</c><c>   1</c></rc>
    <rc><c>Ag</c><c>   1</c></rc>
    <rc><c>Ag</c><c>   1</c></rc>
    <rc><c>Ag</c><c>   1</c></rc>
    <rc><c>Ag</c><c>   1</c></rc>
    <rc><c>Ag</c><c>   1</c></rc>
    <rc><c>Ag</c><c>   1</c></rc>
    <rc><c>Ag</c><c>   1</c></rc>
   </set>
  </array>
  <array name="atomtypes" >
   <dimension dim="1">type</dimension>
   <field type="int">atomspertype</field>
   <field type="string">element</field>
   <field>mass</field>
   <field>valence</field>
   <field type="string">pseudopotential</field>
   <set>
    <rc><c>  33</c><c>Ag</c><c>    107.86800000</c><c>     11.00000000</c><c>  PAW_PBE Ag 02Apr2005                  </c></rc>
   </set>
  </array>
 </atominfo>
 <structure name="initialpos" >
  <crystal>
   <varray name="basis" >
    <v>      22.63042111       0.00000000       0.00000000 </v>
    <v>       0.00000000      22.63042111       0.00000000 </v>
    <v>       0.00000000       0.00000000      22.63042111 </v>
   </varray>
   <i name="volume">  11589.85242683 </i>
   <varray name="rec_basis" >
    <v>       0.04418831       0.00000000       0.00000000 </v>
    <v>       0.00000000       0.04418831       0.00000000 </v>
    <v>       0.00000000       0.00000000       0.04418831 </v>
   </varray>
  </crystal>
  <varray name="positions" >
   <v>       0.59858718       0.43409660       0.33606286 </v>
   <v>       0.53501563       0.38641946       0.42635396 </v>
   <v>       0.47240569       0.44975066       0.33429222 </v>
   <v>       0.63643860       0.47487991       0.44167652 </v>
   <v>       0.47062033       0.35115697       0.52074219 </v>
   <v>       0.50407827       0.28580236       0.61951000 </v>
   <v>       0.41068433       0.41646676       0.42911168 </v>
   <v>       0.55234433       0.50241010       0.25244665 </v>
   <v>       0.59800260       0.55909989       0.35404047 </v>
   <v>       0.56544611       0.43584708       0.53564398 </v>
   <v>       0.50229903       0.40798591       0.63911375 </v>
   <v>       0.51520770       0.51228531       0.43726676 </v>
   <v>       0.39512815       0.33620806       0.62235590 </v>
   <v>       0.34840309       0.39681095       0.52789006 </v>
   <v>       0.47959588       0.57380059       0.31116502 </v>
   <v>       0.66691540       0.51993868       0.54826527 </v>
   <v>       0.39811185       0.53879167       0.39294480 </v>
   <v>       0.44924063       0.47713221       0.53952568 </v>
   <v>       0.38307629       0.45690722       0.64268608 </v>
   <v>       0.33867854       0.51149116       0.49211994 </v>
   <v>       0.59771472       0.48595617       0.64524880 </v>
   <v>       0.50933305       0.63655231       0.40674334 </v>
   <v>       0.62435931       0.60384218       0.45920600 </v>
   <v>       0.54590898       0.56056105       0.55202804 </v>
   <v>       0.69402542       0.56997366       0.65775888 </v>
   <v>       0.47994867       0.52834908       0.66112331 </v>
   <v>       0.43630467       0.59504499       0.49853553 </v>
   <v>       0.37485679       0.56792000       0.60035346 </v>
   <v>       0.57409503       0.60584632       0.66788065 </v>
   <v>       0.53668752       0.68138861       0.51433305 </v>
   <v>       0.64686193       0.64449486       0.56896999 </v>
   <v>       0.46729842       0.64438675       0.61189314 </v>
   <v>       0.56631926       0.72259472       0.62600310 </v>
  </varray>
 </structure>
 <calculation>
  <scstep>
   <time name="dav">    2.98    2.99</time>
   <time name="total">    3.21    3.24</time>
   <energy>
    <i name="alphaZ">     79.92159719 </i>
    <i name="ewald">  79423.03578004 </i>
    <i name="hartreedc">-112249.84813149 </i>
    <i name="XCdc">   -361.34431036 </i>
    <i name="pawpsdc">  33111.28187630 </i>
    <i name="pawaedc"> -31589.73209300 </i>
    <i name="eentropy">     -0.00000000 </i>
    <i name="bandstr">    477.78199908 </i>
    <i name="atom">  34227.55479285 </i>
    <i name="e_fr_energy">   3118.65151061 </i>
    <i name="e_wo_entrp">   3118.65151061 </i>
    <i name="e_0_energy">   3118.65151061 </i>
   </energy>
  </scstep>
  <scstep>
   <time name="dav">    4.42    4.42</time>
   <time name="total">    4.43    4.43</time>
   <energy>
    <i name="e_fr_energy">    663.00429219 </i>
    <i name="e_wo_entrp">    663.00429219 </i>
    <i name="e_0_energy">    663.00429219 </i>
   </energy>
  </scstep>
  <scstep>
   <time name="dav">    3.52    3.52</time>
   <time name="total">    3.52    3.53</time>
   <energy>
    <i name="e_fr_energy">    -31.63966081 </i>
    <i name="e_wo_entrp">    -31.63966081 </i>
    <i name="e_0_energy">    -31.63966081 </i>
   </energy>
  </scstep>
  <scstep>
   <time name="dav">    3.11    3.12</time>
   <time name="total">    3.12    3.12</time>
   <energy>
    <i name="e_fr_energy">    -69.00108591 </i>
    <i name="e_wo_entrp">    -69.00108591 </i>
    <i name="e_0_energy">    -69.00108591 </i>
   </energy>
  </scstep>
  <scstep>
   <time name="dav">    3.16    3.17</time>
   <time name="total">    3.28    3.28</time>
   <energy>
    <i name="e_fr_energy">    -69.52780663 </i>
    <i name="e_wo_entrp">    -69.52780663 </i>
    <i name="e_0_energy">    -69.52780663 </i>
   </energy>
  </scstep>
  <scstep>
   <time name="dav">    2.94    2.94</time>
   <time name="total">    3.27    3.28</time>
   <energy>
    <i name="e_fr_energy">    -25.46036016 </i>
    <i name="e_wo_entrp">    -25.46036016 </i>
    <i name="e_0_energy">    -25.46036016 </i>
   </energy>
  </scstep>
  <scstep>
   <time name="dav">    3.04    3.04</time>
   <time name="total">    3.37    3.37</time>
   <energy>
    <i name="e_fr_energy">    -19.84902116 </i>
    <i name="e_wo_entrp">    -19.84902116 </i>
    <i name="e_0_energy">    -19.84902116 </i>
   </energy>
  </scstep>
  <scstep>
   <time name="dav">    3.02    3.03</time>
   <time name="total">    3.35    3.36</time>
   <energy>
    <i name="e_fr_energy">    -20.20113297 </i>
    <i name="e_wo_entrp">    -20.20113297 </i>
    <i name="e_0_energy">    -20.20113297 </i>
   </energy>
  </scstep>
  <scstep>
   <time name="dav">    3.12    3.12</time>
   <time name="total">    3.45    3.46</time>
   <energy>
    <i name="e_fr_energy">    -21.11307779 </i>
    <i name="e_wo_entrp">    -21.11307779 </i>
    <i name="e_0_energy">    -21.11307779 </i>
   </energy>
  </scstep>
  <scstep>
   <time name="dav">    3.02    3.03</time>
   <time name="total">    3.36    3.36</time>
   <energy>
    <i name="e_fr_energy">    -29.35959458 </i>
    <i name="e_wo_entrp">    -29.35959458 </i>
    <i name="e_0_energy">    -29.35959458 </i>
   </energy>
  </scstep>
  <scstep>
   <time name="dav">    3.04    3.04</time>
   <time name="total">    3.37    3.38</time>
   <energy>
    <i name="e_fr_energy">    -38.64989403 </i>
    <i name="e_wo_entrp">    -38.64989403 </i>
    <i name="e_0_energy">    -38.64989403 </i>
   </energy>
  </scstep>
  <scstep>
   <time name="dav">    2.96    2.96</time>
   <time name="total">    3.29    3.31</time>
   <energy>
    <i name="e_fr_energy">    -46.41346369 </i>
    <i name="e_wo_entrp">    -46.41346369 </i>
    <i name="e_0_energy">    -46.41346369 </i>
   </energy>
  </scstep>
  <scstep>
   <time name="dav">    3.11    3.11</time>
   <time name="total">    3.44    3.47</time>
   <energy>
    <i name="e_fr_energy">    -49.69023484 </i>
    <i name="e_wo_entrp">    -49.69023484 </i>
    <i name="e_0_energy">    -49.69023484 </i>
   </energy>
  </scstep>
  <scstep>
   <time name="dav">    2.92    2.92</time>
   <time name="total">    3.25    3.26</time>
   <energy>
    <i name="e_fr_energy">    -56.51122137 </i>
    <i name="e_wo_entrp">    -56.51122137 </i>
    <i name="e_0_energy">    -56.51122137 </i>
   </energy>
  </scstep>
  <scstep>
   <time name="dav">    2.94    2.94</time>
   <time name="total">    3.28    3.28</time>
   <energy>
    <i name="e_fr_energy">    -62.04014355 </i>
    <i name="e_wo_entrp">    -62.04014355 </i>
    <i name="e_0_energy">    -62.04014355 </i>
   </energy>
  </scstep>
  <scstep>
   <time name="dav">    2.97    2.97</time>
   <time name="total">    3.31    3.31</time>
   <energy>
    <i name="e_fr_energy">    -64.16124385 </i>
    <i name="e_wo_entrp">    -64.16124385 </i>
    <i name="e_0_energy">    -64.16124385 </i>
   </energy>
  </scstep>
  <scstep>
   <time name="dav">    2.96    2.96</time>
   <time name="total">    3.30    3.30</time>
   <energy>
    <i name="e_fr_energy">    -66.98651039 </i>
    <i name="e_wo_entrp">    -66.98651039 </i>
    <i name="e_0_energy">    -66.98651039 </i>
   </energy>
  </scstep>
  <scstep>
   <time name="dav">    3.08    3.09</time>
   <time name="total">    3.42    3.52</time>
   <energy>
    <i name="e_fr_energy">    -67.75609697 </i>
    <i name="e_wo_entrp">    -67.75609697 </i>
    <i name="e_0_energy">    -67.75609697 </i>
   </energy>
  </scstep>
  <scstep>
   <time name="dav">    3.06    3.06</time>
   <time name="total">    3.39    3.40</time>
   <energy>
    <i name="e_fr_energy">    -68.23891971 </i>
    <i name="e_wo_entrp">    -68.23891971 </i>
    <i name="e_0_energy">    -68.23891971 </i>
   </energy>
  </scstep>
  <scstep>
   <time name="dav">    3.05    3.05</time>
   <time name="total">    3.39    3.39</time>
   <energy>
    <i name="e_fr_energy">    -68.60556054 </i>
    <i name="e_wo_entrp">    -68.60556054 </i>
    <i name="e_0_energy">    -68.60556054 </i>
   </energy>
  </scstep>
  <scstep>
   <time name="dav">    2.86    2.86</time>
   <time name="total">    3.20    3.22</time>
   <energy>
    <i name="e_fr_energy">    -68.69373965 </i>
    <i name="e_wo_entrp">    -68.69373965 </i>
    <i name="e_0_energy">    -68.69373965 </i>
   </energy>
  </scstep>
  <scstep>
   <time name="dav">    2.50    2.50</time>
   <time name="total">    2.84    2.84</time>
   <energy>
    <i name="e_fr_energy">    -68.74610774 </i>
    <i name="e_wo_entrp">    -68.74610774 </i>
    <i name="e_0_energy">    -68.74610774 </i>
   </energy>
  </scstep>
  <scstep>
   <time name="dav">    2.38    2.38</time>
   <time name="total">    2.72    2.72</time>
   <energy>
    <i name="e_fr_energy">    -68.74968182 </i>
    <i name="e_wo_entrp">    -68.74968182 </i>
    <i name="e_0_energy">    -68.74968182 </i>
   </energy>
  </scstep>
  <scstep>
   <time name="dav">    2.30    2.30</time>
   <time name="total">    2.64    2.64</time>
   <energy>
    <i name="e_fr_energy">    -68.75261568 </i>
    <i name="e_wo_entrp">    -68.75261568 </i>
    <i name="e_0_energy">    -68.75261568 </i>
   </energy>
  </scstep>
  <scstep>
   <time name="dav">    2.29    2.29</time>
   <time name="total">    2.63    2.63</time>
   <energy>
    <i name="e_fr_energy">    -68.75624961 </i>
    <i name="e_wo_entrp">    -68.75624961 </i>
    <i name="e_0_energy">    -68.75624961 </i>
   </energy>
  </scstep>
  <scstep>
   <time name="dav">    2.28    2.28</time>
   <time name="total">    2.62    2.63</time>
   <energy>
    <i name="e_fr_energy">    -68.75954108 </i>
    <i name="e_wo_entrp">    -68.75954108 </i>
    <i name="e_0_energy">    -68.75954108 </i>
   </energy>
  </scstep>
  <scstep>
   <time name="dav">    2.27    2.27</time>
   <time name="total">    2.61    2.62</time>
   <energy>
    <i name="e_fr_energy">    -68.76106240 </i>
    <i name="e_wo_entrp">    -68.76106240 </i>
    <i name="e_0_energy">    -68.76106240 </i>
   </energy>
  </scstep>
  <scstep>
   <time name="dav">    2.22    2.22</time>
   <time name="total">    2.56    2.57</time>
   <energy>
    <i name="e_fr_energy">    -68.76189682 </i>
    <i name="e_wo_entrp">    -68.76189682 </i>
    <i name="e_0_energy">    -68.76189682 </i>
   </energy>
  </scstep>
  <scstep>
   <time name="dav">    2.20    2.20</time>
   <time name="total">    2.54    2.55</time>
   <energy>
    <i name="e_fr_energy">    -68.76202593 </i>
    <i name="e_wo_entrp">    -68.76202593 </i>
    <i name="e_0_energy">    -68.76202593 </i>
   </energy>
  </scstep>
  <scstep>
   <time name="dav">    2.18    2.18</time>
   <time name="total">    2.41    2.66</time>
   <energy>
    <i name="alphaZ">     79.92159719 </i>
    <i name="ewald">  79423.03578004 </i>
    <i name="hartreedc">-112201.18784989 </i>
    <i name="XCdc">   -373.93204387 </i>
    <i name="pawpsdc">  35753.14882303 </i>
    <i name="pawaedc"> -34292.71205075 </i>
    <i name="eentropy">      0.00000000 </i>
    <i name="bandstr">  -2684.59108629 </i>
    <i name="atom">  34227.55479285 </i>
    <i name="e_fr_energy">    -68.76203770 </i>
    <i name="e_wo_entrp">    -68.76203770 </i>
    <i name="e_0_energy">    -68.76203770 </i>
   </energy>
  </scstep>
  <structure>
   <crystal>
    <varray name="basis" >
     <v>      22.63042111       0.00000000       0.00000000 </v>
     <v>       0.00000000      22.63042111       0.00000000 </v>
     <v>       0.00000000       0.00000000      22.63042111 </v>
    </varray>
    <i name="volume">  11589.85242683 </i>
    <varray name="rec_basis" >
     <v>       0.04418831       0.00000000       0.00000000 </v>
     <v>       0.00000000       0.04418831       0.00000000 </v>
     <v>       0.00000000       0.00000000       0.04418831 </v>
    </varray>
   </crystal>
   <varray name="positions" >
    <v>       0.59858718       0.43409660       0.33606286 </v>
    <v>       0.53501563       0.38641946       0.42635396 </v>
    <v>       0.47240569       0.44975066       0.33429222 </v>
    <v>       0.63643860       0.47487991       0.44167652 </v>
    <v>       0.47062033       0.35115697       0.52074219 </v>
    <v>       0.50407827       0.28580236       0.61951000 </v>
    <v>       0.41068433       0.41646676       0.42911168 </v>
    <v>       0.55234433       0.50241010       0.25244665 </v>
    <v>       0.59800260       0.55909989       0.35404047 </v>
    <v>       0.56544611       0.43584708       0.53564398 </v>
    <v>       0.50229903       0.40798591       0.63911375 </v>
    <v>       0.51520770       0.51228531       0.43726676 </v>
    <v>       0.39512815       0.33620806       0.62235590 </v>
    <v>       0.34840309       0.39681095       0.52789006 </v>
    <v>       0.47959588       0.57380059       0.31116502 </v>
    <v>       0.66691540       0.51993868       0.54826527 </v>
    <v>       0.39811185       0.53879167       0.39294480 </v>
    <v>       0.44924063       0.47713221       0.53952568 </v>
    <v>       0.38307629       0.45690722       0.64268608 </v>
    <v>       0.33867854       0.51149116       0.49211994 </v>
    <v>       0.59771472       0.48595617       0.64524880 </v>
    <v>       0.50933305       0.63655231       0.40674334 </v>
    <v>       0.62435931       0.60384218       0.45920600 </v>
    <v>       0.54590898       0.56056105       0.55202804 </v>
    <v>       0.69402542       0.56997366       0.65775888 </v>
    <v>       0.47994867       0.52834908       0.66112331 </v>
    <v>       0.43630467       0.59504499       0.49853553 </v>
    <v>       0.37485679       0.56792000       0.60035346 </v>
    <v>       0.57409503       0.60584632       0.66788065 </v>
    <v>       0.53668752       0.68138861       0.51433305 </v>
    <v>       0.64686193       0.64449486       0.56896999 </v>
    <v>       0.46729842       0.64438675       0.61189314 </v>
    <v>       0.56631926       0.72259472       0.62600310 </v>
   </varray>
  </structure>
  <varray name="forces" >
   <v>       0.04054212      -0.16950060      -0.12732933 </v>
   <v>      -0.04244237       0.03707152      -0.11711322 </v>
   <v>       0.19623513       0.14230619      -0.40055167 </v>
   <v>      -0.03221101       0.10179868       0.03150043 </v>
   <v>      -0.21499940      -0.08328487       0.31579468 </v>
   <v>       0.05059917       0.12799766      -0.03207091 </v>
   <v>       0.01235934       0.15386723       0.13286779 </v>
   <v>       0.05775557      -0.03974581      -0.47416140 </v>
   <v>      -0.12448570      -0.06970417      -0.54646941 </v>
   <v>       0.29942055      -0.10369549      -0.01285187 </v>
   <v>      -0.18266827      -0.24273751       0.02530952 </v>
   <v>      -0.01372621       0.01959477       0.07069851 </v>
   <v>       0.07296714       0.05012346       0.04450547 </v>
   <v>      -0.04892883      -0.22451534       0.43298353 </v>
   <v>      -0.09194395       0.02610520      -0.16494514 </v>
   <v>       0.00283275       0.22195206      -0.01668758 </v>
   <v>       0.20957620      -0.15424426      -0.18442193 </v>
   <v>      -0.14708900       0.02868474       0.04694568 </v>
   <v>      -0.24903855      -0.51355833       0.10220064 </v>
   <v>      -0.11740853       0.06567382       0.05410198 </v>
   <v>       0.02114764       0.05619806       0.23119863 </v>
   <v>       0.22358980      -0.02425608       0.08756547 </v>
   <v>      -0.13071262      -0.01695857       0.07301849 </v>
   <v>       0.00027671      -0.07521039      -0.08727207 </v>
   <v>      -0.27998294      -0.01109383      -0.00792186 </v>
   <v>      -0.10453577       0.07082549      -0.08665907 </v>
   <v>       0.04942000       0.28054488      -0.10623154 </v>
   <v>      -0.08487543       0.10083113       0.07477475 </v>
   <v>       0.22346577       0.25128258       0.05670542 </v>
   <v>       0.19401843      -0.01150922       0.02447819 </v>
   <v>      -0.11003593       0.11620615       0.36380582 </v>
   <v>       0.25407961       0.05268852       0.19973074 </v>
   <v>       0.06679858      -0.16373770      -0.00349875 </v>
  </varray>
  <varray name="stress" >
   <v>      -1.64513990       0.27782802      -0.27779695 </v>
   <v>       0.27782802      -1.40563519      -0.02749803 </v>
   <v>      -0.27779695      -0.02749803      -0.23310907 </v>
  </varray>
  <energy>
   <i name="e_fr_energy">    -68.76203770 </i>
   <i name="e_wo_entrp">    -68.76203770 </i>
   <i name="e_0_energy">      0.00000000 </i>
  </energy>
  <time name="totalsc">   99.82  100.45</time>
 </calculation>
 <calculation>
  <scstep>
   <time name="dav">    3.07    3.07</time>
   <time name="total">    3.41    3.43</time>
   <energy>
    <i name="alphaZ">     79.92159719 </i>
    <i name="ewald">  79395.74342124 </i>
    <i name="hartreedc">-112174.04446714 </i>
    <i name="XCdc">   -373.95609838 </i>
    <i name="pawpsdc">  35753.22299927 </i>
    <i name="pawaedc"> -34292.78735635 </i>
    <i name="eentropy">      0.00000000 </i>
    <i name="bandstr">  -2684.44337836 </i>
    <i name="atom">  34227.55479285 </i>
    <i name="e_fr_energy">    -68.78848969 </i>
    <i name="e_wo_entrp">    -68.78848969 </i>
    <i name="e_0_energy">    -68.78848969 </i>
   </energy>
  </scstep>
  <scstep>
   <time name="dav">    3.02    3.02</time>
   <time name="total">    3.36    3.38</time>
   <energy>
    <i name="e_fr_energy">    -68.78935043 </i>
    <i name="e_wo_entrp">    -68.78935043 </i>
    <i name="e_0_energy">    -68.78935043 </i>
   </energy>
  </scstep>
  <scstep>
   <time name="dav">    2.17    2.17</time>
   <time name="total">    2.40    2.75</time>
   <energy>
    <i name="alphaZ">     79.92159719 </i>
    <i name="ewald">  79395.74342124 </i>
    <i name="hartreedc">-112174.17370062 </i>
    <i name="XCdc">   -373.95322981 </i>
    <i name="pawpsdc">  35751.17984905 </i>
    <i name="pawaedc"> -34290.71091447 </i>
    <i name="eentropy">      0.00000000 </i>
    <i name="bandstr">  -2684.35115771 </i>
    <i name="atom">  34227.55479285 </i>
    <i name="e_fr_energy">    -68.78934229 </i>
    <i name="e_wo_entrp">    -68.78934229 </i>
    <i name="e_0_energy">    -68.78934229 </i>
   </energy>
  </scstep>
  <structure>
   <crystal>
    <varray name="basis" >
     <v>      22.63042111       0.00000000       0.00000000 </v>
     <v>       0.00000000      22.63042111       0.00000000 </v>
     <v>       0.00000000       0.00000000      22.63042111 </v>
    </varray>
    <i name="volume">  11589.85242683 </i>
    <varray name="rec_basis" >
     <v>       0.04418831       0.00000000       0.00000000 </v>
     <v>       0.00000000       0.04418831       0.00000000 </v>
     <v>       0.00000000       0.00000000       0.04418831 </v>
    </varray>
   </crystal>
   <varray name="positions" >
    <v>       0.59860447       0.43402433       0.33600858 </v>
    <v>       0.53499754       0.38643527       0.42630403 </v>
    <v>       0.47248936       0.44981134       0.33412144 </v>
    <v>       0.63642487       0.47492331       0.44168995 </v>
    <v>       0.47052866       0.35112146       0.52087683 </v>
    <v>       0.50409985       0.28585693       0.61949633 </v>
    <v>       0.41068960       0.41653236       0.42916833 </v>
    <v>       0.55236895       0.50239316       0.25224449 </v>
    <v>       0.59794953       0.55907017       0.35380749 </v>
    <v>       0.56557376       0.43580287       0.53563850 </v>
    <v>       0.50222115       0.40788242       0.63912454 </v>
    <v>       0.51520184       0.51229366       0.43729690 </v>
    <v>       0.39515926       0.33622943       0.62237487 </v>
    <v>       0.34838223       0.39671523       0.52807466 </v>
    <v>       0.47955668       0.57381172       0.31109470 </v>
    <v>       0.66691661       0.52003331       0.54825816 </v>
    <v>       0.39820120       0.53872591       0.39286617 </v>
    <v>       0.44917791       0.47714444       0.53954569 </v>
    <v>       0.38297011       0.45668827       0.64272966 </v>
    <v>       0.33862848       0.51151916       0.49214300 </v>
    <v>       0.59772374       0.48598013       0.64534738 </v>
    <v>       0.50942838       0.63654197       0.40678068 </v>
    <v>       0.62430358       0.60383495       0.45923713 </v>
    <v>       0.54590909       0.56052898       0.55199083 </v>
    <v>       0.69390605       0.56996893       0.65775550 </v>
    <v>       0.47990410       0.52837927       0.66108636 </v>
    <v>       0.43632574       0.59516460       0.49849024 </v>
    <v>       0.37482061       0.56796299       0.60038534 </v>
    <v>       0.57419031       0.60595346       0.66790482 </v>
    <v>       0.53677024       0.68138370       0.51434349 </v>
    <v>       0.64681502       0.64454440       0.56912510 </v>
    <v>       0.46740675       0.64440921       0.61197829 </v>
    <v>       0.56634774       0.72252491       0.62600161 </v>
   </varray>
  </structure>
  <varray name="forces" >
   <v>       0.03824958      -0.15516269      -0.12727429 </v>
   <v>      -0.05151307       0.03535618      -0.10063940 </v>
   <v>       0.18428505       0.13234921      -0.37078785 </v>
   <v>      -0.03405612       0.10121504       0.01896079 </v>
   <v>      -0.19770629      -0.06808858       0.28420361 </v>
   <v>       0.05683992       0.11332487      -0.02703820 </v>
   <v>       0.01758513       0.15295754       0.12730146 </v>
   <v>       0.05558306      -0.03969042      -0.45279951 </v>
   <v>      -0.11619888      -0.06324176      -0.50600198 </v>
   <v>       0.27376040      -0.10187616      -0.00409785 </v>
   <v>      -0.16697972      -0.21533248       0.02246471 </v>
   <v>      -0.01115041       0.01608165       0.06352231 </v>
   <v>       0.06586222       0.03044943       0.05416230 </v>
   <v>      -0.04750221      -0.20225713       0.40451382 </v>
   <v>      -0.07930071       0.02795404      -0.16376343 </v>
   <v>       0.00077932       0.21316307      -0.01561019 </v>
   <v>       0.19515994      -0.15297802      -0.16606837 </v>
   <v>      -0.13762713       0.02900532       0.04901487 </v>
   <v>      -0.23630308      -0.46672049       0.09401208 </v>
   <v>      -0.10474181       0.05884935       0.04755858 </v>
   <v>       0.00868478       0.05187069       0.21726877 </v>
   <v>       0.21706301      -0.02992569       0.07274017 </v>
   <v>      -0.12610909      -0.02228215       0.05620307 </v>
   <v>      -0.00149380      -0.07516002      -0.07686905 </v>
   <v>      -0.26219784      -0.01141349      -0.00090681 </v>
   <v>      -0.10068381       0.06132681      -0.08858182 </v>
   <v>       0.04127843       0.26532069      -0.09407012 </v>
   <v>      -0.07213907       0.08549282       0.07353186 </v>
   <v>       0.20362410       0.22968375       0.05901081 </v>
   <v>       0.18600837      -0.01088086       0.02463689 </v>
   <v>      -0.10167482       0.10995725       0.33564123 </v>
   <v>       0.23776105       0.04475184       0.18842553 </v>
   <v>       0.06485352      -0.14409961       0.00133602 </v>
  </varray>
  <varray name="stress" >
   <v>      -1.65855748       0.26613588      -0.27184548 </v>
   <v>       0.26613588      -1.42313010      -0.02864291 </v>
   <v>      -0.27184550      -0.02864290      -0.27130116 </v>
  </varray>
  <energy>
   <i name="e_fr_energy">    -68.78934229 </i>
   <i name="e_wo_entrp">    -68.78934229 </i>
   <i name="e_0_energy">      0.00000000 </i>
  </energy>
  <time name="totalsc">   14.44   14.84</time>
 </calculation>
 <calculation>
  <scstep>
   <time name="dav">    3.01    3.01</time>
   <time name="total">    3.34    3.36</time>
   <energy>
    <i name="alphaZ">     79.92159719 </i>
    <i name="ewald">  79314.20194967 </i>
    <i name="hartreedc">-112093.15605428 </i>
    <i name="XCdc">   -374.02128496 </i>
    <i name="pawpsdc">  35749.58636129 </i>
    <i name="pawaedc"> -34289.09662956 </i>
    <i name="eentropy">      0.00000000 </i>
    <i name="bandstr">  -2683.84594763 </i>
    <i name="atom">  34227.55479285 </i>
    <i name="e_fr_energy">    -68.85521542 </i>
    <i name="e_wo_entrp">    -68.85521542 </i>
    <i name="e_0_energy">    -68.85521542 </i>
   </energy>
  </scstep>
  <scstep>
   <time name="dav">    3.05    3.06</time>
   <time name="total">    3.39    3.51</time>
   <energy>
    <i name="e_fr_energy">    -68.86260987 </i>
    <i name="e_wo_entrp">    -68.86260987 </i>
    <i name="e_0_energy">    -68.86260987 </i>
   </energy>
  </scstep>
  <scstep>
   <time name="dav">    3.15    3.15</time>
   <time name="total">    3.48    4.31</time>
   <energy>
    <i name="e_fr_energy">    -68.86238817 </i>
    <i name="e_wo_entrp">    -68.86238817 </i>
    <i name="e_0_energy">    -68.86238817 </i>
   </energy>
  </scstep>
  <scstep>
   <time name="dav">    3.06    3.06</time>
   <time name="total">    3.40    3.40</time>
   <energy>
    <i name="e_fr_energy">    -68.86216282 </i>
    <i name="e_wo_entrp">    -68.86216282 </i>
    <i name="e_0_energy">    -68.86216282 </i>
   </energy>
  </scstep>
  <scstep>
   <time name="dav">    2.26    2.26</time>
   <time name="total">    2.49    2.49</time>
   <energy>
    <i name="alphaZ">     79.92159719 </i>
    <i name="ewald">  79314.20194967 </i>
    <i name="hartreedc">-112093.78759918 </i>
    <i name="XCdc">   -374.00895954 </i>
    <i name="pawpsdc">  35737.66031291 </i>
    <i name="pawaedc"> -34276.99329758 </i>
    <i name="eentropy">      0.00000000 </i>
    <i name="bandstr">  -2683.41099840 </i>
    <i name="atom">  34227.55479285 </i>
    <i name="e_fr_energy">    -68.86220208 </i>
    <i name="e_wo_entrp">    -68.86220208 </i>
    <i name="e_0_energy">    -68.86220208 </i>
   </energy>
  </scstep>
  <structure>
   <crystal>
    <varray name="basis" >
     <v>      22.63042111       0.00000000       0.00000000 </v>
     <v>       0.00000000      22.63042111       0.00000000 </v>
     <v>       0.00000000       0.00000000      22.63042111 </v>
    </varray>
    <i name="volume">  11589.85242683 </i>
    <varray name="rec_basis" >
     <v>       0.04418831       0.00000000       0.00000000 </v>
     <v>       0.00000000       0.04418831       0.00000000 </v>
     <v>       0.00000000       0.00000000       0.04418831 </v>
    </varray>
   </crystal>
   <varray name="positions" >
    <v>       0.59865632       0.43380753       0.33584571 </v>
    <v>       0.53494325       0.38648269       0.42615423 </v>
    <v>       0.47274036       0.44999335       0.33360912 </v>
    <v>       0.63638367       0.47505352       0.44173024 </v>
    <v>       0.47025366       0.35101493       0.52128075 </v>
    <v>       0.50416457       0.28602065       0.61945531 </v>
    <v>       0.41070541       0.41672917       0.42933827 </v>
    <v>       0.55244282       0.50234232       0.25163801 </v>
    <v>       0.59779031       0.55898102       0.35310852 </v>
    <v>       0.56595674       0.43567023       0.53562206 </v>
    <v>       0.50198751       0.40757195       0.63915691 </v>
    <v>       0.51518429       0.51231873       0.43738733 </v>
    <v>       0.39525259       0.33629355       0.62243180 </v>
    <v>       0.34831964       0.39642806       0.52862847 </v>
    <v>       0.47943908       0.57384511       0.31088372 </v>
    <v>       0.66692023       0.52031720       0.54823681 </v>
    <v>       0.39846926       0.53852862       0.39263029 </v>
    <v>       0.44898978       0.47718113       0.53960574 </v>
    <v>       0.38265158       0.45603140       0.64286038 </v>
    <v>       0.33847831       0.51160316       0.49221220 </v>
    <v>       0.59775079       0.48605201       0.64564309 </v>
    <v>       0.50971436       0.63651095       0.40689268 </v>
    <v>       0.62413639       0.60381326       0.45933053 </v>
    <v>       0.54590945       0.56043278       0.55187920 </v>
    <v>       0.69354793       0.56995474       0.65774537 </v>
    <v>       0.47977039       0.52846986       0.66097552 </v>
    <v>       0.43638895       0.59552344       0.49835437 </v>
    <v>       0.37471205       0.56809196       0.60048098 </v>
    <v>       0.57447613       0.60627486       0.66797735 </v>
    <v>       0.53701840       0.68136898       0.51437480 </v>
    <v>       0.64667427       0.64469303       0.56959043 </v>
    <v>       0.46773173       0.64447660       0.61223376 </v>
    <v>       0.56643318       0.72231548       0.62599714 </v>
   </varray>
  </structure>
  <varray name="forces" >
   <v>       0.03408479      -0.12690659      -0.13611667 </v>
   <v>      -0.07822957       0.03345620      -0.06365556 </v>
   <v>       0.16685920       0.11625952      -0.31692331 </v>
   <v>      -0.04114366       0.10595284      -0.01325501 </v>
   <v>      -0.16411938      -0.03188901       0.21650191 </v>
   <v>       0.07845488       0.08043100      -0.01476674 </v>
   <v>       0.03223607       0.16699788       0.12205376 </v>
   <v>       0.05374019      -0.04240661      -0.42345814 </v>
   <v>      -0.10274383      -0.05115198      -0.43236021 </v>
   <v>       0.22149168      -0.10242407       0.01877815 </v>
   <v>      -0.13546182      -0.15639818       0.01660070 </v>
   <v>      -0.00491179       0.00751141       0.04852188 </v>
   <v>       0.05027292      -0.02215077       0.08473124 </v>
   <v>      -0.04717276      -0.15630596       0.35343570 </v>
   <v>      -0.04972139       0.03392609      -0.17207474 </v>
   <v>      -0.00473989       0.20414036      -0.01458835 </v>
   <v>       0.16890620      -0.16076857      -0.12824709 </v>
   <v>      -0.12304326       0.03100109       0.05866901 </v>
   <v>      -0.21885442      -0.37066079       0.07798542 </v>
   <v>      -0.07739246       0.04450734       0.03401603 </v>
   <v>      -0.02364797       0.04389365       0.19420464 </v>
   <v>       0.21385130      -0.04773817       0.03739970 </v>
   <v>      -0.12118481      -0.03767294       0.01488617 </v>
   <v>      -0.00626445      -0.08101429      -0.05459266 </v>
   <v>      -0.23331536      -0.01331910       0.01885033 </v>
   <v>      -0.09689600       0.03973269      -0.09954423 </v>
   <v>       0.02289499       0.24052781      -0.06674050 </v>
   <v>      -0.04272683       0.04971852       0.07390091 </v>
   <v>       0.16374664       0.18636573       0.07057968 </v>
   <v>       0.17757691      -0.01033826       0.02670860 </v>
   <v>      -0.08478609       0.10043011       0.28183405 </v>
   <v>       0.20815176       0.02557363       0.17122283 </v>
   <v>       0.06408818      -0.09928057       0.01544250 </v>
  </varray>
  <varray name="stress" >
   <v>      -1.68192824       0.24465045      -0.25926879 </v>
   <v>       0.24465045      -1.46258580      -0.03230212 </v>
   <v>      -0.25926879      -0.03230212      -0.36417778 </v>
  </varray>
  <energy>
   <i name="e_fr_energy">    -68.86220208 </i>
   <i name="e_wo_entrp">    -68.86220208 </i>
   <i name="e_0_energy">      0.00000000 </i>
  </energy>
  <time name="totalsc">   21.37   22.40</time>
 </calculation>
 <calculation>
  <scstep>
   <time name="dav">    2.94    2.95</time>
   <time name="total">    3.30    3.30</time>
   <energy>
    <i name="alphaZ">     79.92159719 </i>
    <i name="ewald">  79152.62794442 </i>
    <i name="hartreedc">-111932.99104430 </i>
    <i name="XCdc">   -374.13005795 </i>
    <i name="pawpsdc">  35737.62958300 </i>
    <i name="pawaedc"> -34276.96283262 </i>
    <i name="eentropy">      0.00000000 </i>
    <i name="bandstr">  -2682.59163284 </i>
    <i name="atom">  34227.55479285 </i>
    <i name="e_fr_energy">    -68.94165025 </i>
    <i name="e_wo_entrp">    -68.94165025 </i>
    <i name="e_0_energy">    -68.94165025 </i>
   </energy>
  </scstep>
  <scstep>
   <time name="dav">    2.95    2.96</time>
   <time name="total">    3.29    3.30</time>
   <energy>
    <i name="e_fr_energy">    -68.97161779 </i>
    <i name="e_wo_entrp">    -68.97161779 </i>
    <i name="e_0_energy">    -68.97161779 </i>
   </energy>
  </scstep>
  <scstep>
   <time name="dav">    3.16    3.16</time>
   <time name="total">    3.49    3.50</time>
   <energy>
    <i name="e_fr_energy">    -68.97094460 </i>
    <i name="e_wo_entrp">    -68.97094460 </i>
    <i name="e_0_energy">    -68.97094460 </i>
   </energy>
  </scstep>
  <scstep>
   <time name="dav">    3.00    3.01</time>
   <time name="total">    3.34    3.35</time>
   <energy>
    <i name="e_fr_energy">    -68.97020015 </i>
    <i name="e_wo_entrp">    -68.97020015 </i>
    <i name="e_0_energy">    -68.97020015 </i>
   </energy>
  </scstep>
  <scstep>
   <time name="dav">    2.26    2.26</time>
   <time name="total">    2.60    2.60</time>
   <energy>
    <i name="e_fr_energy">    -68.97034746 </i>
    <i name="e_wo_entrp">    -68.97034746 </i>
    <i name="e_0_energy">    -68.97034746 </i>
   </energy>
  </scstep>
  <scstep>
   <time name="dav">    2.25    2.25</time>
   <time name="total">    2.59    2.59</time>
   <energy>
    <i name="e_fr_energy">    -68.97048883 </i>
    <i name="e_wo_entrp">    -68.97048883 </i>
    <i name="e_0_energy">    -68.97048883 </i>
   </energy>
  </scstep>
  <scstep>
   <time name="dav">    2.19    2.19</time>
   <time name="total">    2.53    2.54</time>
   <energy>
    <i name="e_fr_energy">    -68.97070834 </i>
    <i name="e_wo_entrp">    -68.97070834 </i>
    <i name="e_0_energy">    -68.97070834 </i>
   </energy>
  </scstep>
  <scstep>
   <time name="dav">    2.24    2.24</time>
   <time name="total">    2.58    2.98</time>
   <energy>
    <i name="e_fr_energy">    -68.97081078 </i>
    <i name="e_wo_entrp">    -68.97081078 </i>
    <i name="e_0_energy">    -68.97081078 </i>
   </energy>
  </scstep>
  <scstep>
   <time name="dav">    2.17    2.18</time>
   <time name="total">    2.40    2.42</time>
   <energy>
    <i name="alphaZ">     79.92159719 </i>
    <i name="ewald">  79152.62794442 </i>
    <i name="hartreedc">-111934.27002429 </i>
    <i name="XCdc">   -374.10705320 </i>
    <i name="pawpsdc">  35718.38959564 </i>
    <i name="pawaedc"> -34257.42915656 </i>
    <i name="eentropy">      0.00000000 </i>
    <i name="bandstr">  -2681.65859798 </i>
    <i name="atom">  34227.55479285 </i>
    <i name="e_fr_energy">    -68.97090193 </i>
    <i name="e_wo_entrp">    -68.97090193 </i>
    <i name="e_0_energy">    -68.97090193 </i>
   </energy>
  </scstep>
  <structure>
   <crystal>
    <varray name="basis" >
     <v>      22.63042111       0.00000000       0.00000000 </v>
     <v>       0.00000000      22.63042111       0.00000000 </v>
     <v>       0.00000000       0.00000000      22.63042111 </v>
    </varray>
    <i name="volume">  11589.85242683 </i>
    <varray name="rec_basis" >
     <v>       0.04418831       0.00000000       0.00000000 </v>
     <v>       0.00000000       0.04418831       0.00000000 </v>
     <v>       0.00000000       0.00000000       0.04418831 </v>
    </varray>
   </crystal>
   <varray name="positions" >
    <v>       0.59876003       0.43337393       0.33551999 </v>
    <v>       0.53483468       0.38657752       0.42585464 </v>
    <v>       0.47324235       0.45035739       0.33258446 </v>
    <v>       0.63630127       0.47531393       0.44181082 </v>
    <v>       0.46970367       0.35080188       0.52208859 </v>
    <v>       0.50429400       0.28634808       0.61937326 </v>
    <v>       0.41073703       0.41712278       0.42967816 </v>
    <v>       0.55259057       0.50224065       0.25042505 </v>
    <v>       0.59747186       0.55880271       0.35171059 </v>
    <v>       0.56672269       0.43540497       0.53558918 </v>
    <v>       0.50152022       0.40695100       0.63922166 </v>
    <v>       0.51514917       0.51236885       0.43756818 </v>
    <v>       0.39543925       0.33642177       0.62254565 </v>
    <v>       0.34819448       0.39585373       0.52973609 </v>
    <v>       0.47920388       0.57391189       0.31046178 </v>
    <v>       0.66692748       0.52088497       0.54819412 </v>
    <v>       0.39900538       0.53813405       0.39215852 </v>
    <v>       0.44861351       0.47725451       0.53972583 </v>
    <v>       0.38201451       0.45471766       0.64312182 </v>
    <v>       0.33817797       0.51177116       0.49235060 </v>
    <v>       0.59780489       0.48619578       0.64623452 </v>
    <v>       0.51028633       0.63644890       0.40711668 </v>
    <v>       0.62380202       0.60376988       0.45951732 </v>
    <v>       0.54591016       0.56024038       0.55165595 </v>
    <v>       0.69283170       0.56992636       0.65772510 </v>
    <v>       0.47950298       0.52865104       0.66075383 </v>
    <v>       0.43651537       0.59624110       0.49808261 </v>
    <v>       0.37449493       0.56834989       0.60067226 </v>
    <v>       0.57504778       0.60691767       0.66812241 </v>
    <v>       0.53751472       0.68133954       0.51443742 </v>
    <v>       0.64639279       0.64499030       0.57052108 </v>
    <v>       0.46838169       0.64461138       0.61274469 </v>
    <v>       0.56660406       0.72189662       0.62598819 </v>
   </varray>
  </structure>
  <varray name="forces" >
   <v>       0.02582616      -0.06601967      -0.14550094 </v>
   <v>      -0.12607031       0.03117972       0.01041880 </v>
   <v>       0.12729426       0.08478152      -0.20168134 </v>
   <v>      -0.05289130       0.11082399      -0.07807238 </v>
   <v>      -0.08925237       0.04236184       0.06785962 </v>
   <v>       0.12044730       0.00210121       0.01395248 </v>
   <v>       0.05691591       0.17167974       0.10838733 </v>
   <v>       0.04750854      -0.04413351      -0.36400236 </v>
   <v>      -0.07482865      -0.02982235      -0.27638927 </v>
   <v>       0.11230150      -0.09925798       0.06452896 </v>
   <v>      -0.06512079      -0.02552588       0.00786652 </v>
   <v>       0.00733363      -0.01055847       0.01554500 </v>
   <v>       0.01718119      -0.14587904       0.15129006 </v>
   <v>      -0.05262713      -0.06176209       0.22542777 </v>
   <v>       0.01053281       0.04743487      -0.18192908 </v>
   <v>      -0.01528951       0.17544568      -0.01160679 </v>
   <v>       0.10759925      -0.16156375      -0.04462843 </v>
   <v>      -0.09149441       0.03469377       0.07705374 </v>
   <v>      -0.17387408      -0.15992391       0.05284169 </v>
   <v>      -0.01834719       0.01621596       0.00647822 </v>
   <v>      -0.08960648       0.02706344       0.13980364 </v>
   <v>       0.19519324      -0.07995257      -0.03634911 </v>
   <v>      -0.09970469      -0.06365587      -0.06262265 </v>
   <v>      -0.01641636      -0.08782617      -0.00467356 </v>
   <v>      -0.15704402      -0.01812791       0.06049634 </v>
   <v>      -0.08484566      -0.00561321      -0.11457754 </v>
   <v>      -0.01467942       0.18006713      -0.00885976 </v>
   <v>       0.01743275      -0.01692267       0.06867286 </v>
   <v>       0.07102379       0.08572626       0.09817565 </v>
   <v>       0.15117044      -0.00736087       0.03052079 </v>
   <v>      -0.03760351       0.07878368       0.15787491 </v>
   <v>       0.13589056      -0.01316398       0.12772950 </v>
   <v>       0.05604453       0.00871111       0.04596934 </v>
  </varray>
  <varray name="stress" >
   <v>      -1.71760698       0.18997928      -0.23118288 </v>
   <v>       0.18997929      -1.51930914      -0.04087070 </v>
   <v>      -0.23118288      -0.04087070      -0.53720348 </v>
  </varray>
  <energy>
   <i name="e_fr_energy">    -68.97090193 </i>
   <i name="e_wo_entrp">    -68.97090193 </i>
   <i name="e_0_energy">      0.00000000 </i>
  </energy>
  <time name="totalsc">   31.39   33.45</time>
 </calculation>
 <calculation>
  <scstep>
   <time name="dav">    2.94    2.94</time>
   <time name="total">    3.28    3.29</time>
   <energy>
    <i name="alphaZ">     79.92159719 </i>
    <i name="ewald">  78835.50500674 </i>
    <i name="hartreedc">-111618.29601757 </i>
    <i name="XCdc">   -374.28153096 </i>
    <i name="pawpsdc">  35718.29220935 </i>
    <i name="pawaedc"> -34257.33132988 </i>
    <i name="eentropy">      0.00000000 </i>
    <i name="bandstr">  -2680.28875629 </i>
    <i name="atom">  34227.55479285 </i>
    <i name="e_fr_energy">    -68.92402857 </i>
    <i name="e_wo_entrp">    -68.92402857 </i>
    <i name="e_0_energy">    -68.92402857 </i>
   </energy>
  </scstep>
  <scstep>
   <time name="dav">    3.00    3.00</time>
   <time name="total">    3.34    3.35</time>
   <energy>
    <i name="e_fr_energy">    -69.04628298 </i>
    <i name="e_wo_entrp">    -69.04628298 </i>
    <i name="e_0_energy">    -69.04628298 </i>
   </energy>
  </scstep>
  <scstep>
   <time name="dav">    3.12    3.12</time>
   <time name="total">    3.45    3.46</time>
   <energy>
    <i name="e_fr_energy">    -69.04381723 </i>
    <i name="e_wo_entrp">    -69.04381723 </i>
    <i name="e_0_energy">    -69.04381723 </i>
   </energy>
  </scstep>
  <scstep>
   <time name="dav">    3.00    3.00</time>
   <time name="total">    3.33    3.34</time>
   <energy>
    <i name="e_fr_energy">    -69.04101925 </i>
    <i name="e_wo_entrp">    -69.04101925 </i>
    <i name="e_0_energy">    -69.04101925 </i>
   </energy>
  </scstep>
  <scstep>
   <time name="dav">    3.09    3.10</time>
   <time name="total">    3.43    3.43</time>
   <energy>
    <i name="e_fr_energy">    -69.04140443 </i>
    <i name="e_wo_entrp">    -69.04140443 </i>
    <i name="e_0_energy">    -69.04140443 </i>
   </energy>
  </scstep>
  <scstep>
   <time name="dav">    2.21    2.21</time>
   <time name="total">    2.54    2.55</time>
   <energy>
    <i name="e_fr_energy">    -69.04170253 </i>
    <i name="e_wo_entrp">    -69.04170253 </i>
    <i name="e_0_energy">    -69.04170253 </i>
   </energy>
  </scstep>
  <scstep>
   <time name="dav">    2.23    2.23</time>
   <time name="total">    2.57    2.58</time>
   <energy>
    <i name="e_fr_energy">    -69.04215849 </i>
    <i name="e_wo_entrp">    -69.04215849 </i>
    <i name="e_0_energy">    -69.04215849 </i>
   </energy>
  </scstep>
  <scstep>
   <time name="dav">    2.28    2.28</time>
   <time name="total">    2.62    2.65</time>
   <energy>
    <i name="e_fr_energy">    -69.04238352 </i>
    <i name="e_wo_entrp">    -69.04238352 </i>
    <i name="e_0_energy">    -69.04238352 </i>
   </energy>
  </scstep>
  <scstep>
   <time name="dav">    2.19    2.19</time>
   <time name="total">    2.52    2.53</time>
   <energy>
    <i name="e_fr_energy">    -69.04252795 </i>
    <i name="e_wo_entrp">    -69.04252795 </i>
    <i name="e_0_energy">    -69.04252795 </i>
   </energy>
  </scstep>
  <scstep>
   <time name="dav">    2.24    2.25</time>
   <time name="total">    2.58    2.59</time>
   <energy>
    <i name="e_fr_energy">    -69.04271937 </i>
    <i name="e_wo_entrp">    -69.04271937 </i>
    <i name="e_0_energy">    -69.04271937 </i>
   </energy>
  </scstep>
  <scstep>
   <time name="dav">    2.22    2.23</time>
   <time name="total">    2.56    2.57</time>
   <energy>
    <i name="e_fr_energy">    -69.04288220 </i>
    <i name="e_wo_entrp">    -69.04288220 </i>
    <i name="e_0_energy">    -69.04288220 </i>
   </energy>
  </scstep>
  <scstep>
   <time name="dav">    2.22    2.23</time>
   <time name="total">    2.56    2.88</time>
   <energy>
    <i name="e_fr_energy">    -69.04303347 </i>
    <i name="e_wo_entrp">    -69.04303347 </i>
    <i name="e_0_energy">    -69.04303347 </i>
   </energy>
  </scstep>
  <scstep>
   <time name="dav">    2.22    2.23</time>
   <time name="total">    2.46    2.46</time>
   <energy>
    <i name="alphaZ">     79.92159719 </i>
    <i name="ewald">  78835.50500674 </i>
    <i name="hartreedc">-111620.38781872 </i>
    <i name="XCdc">   -374.24495764 </i>
    <i name="pawpsdc">  35695.66171483 </i>
    <i name="pawaedc"> -34234.30414699 </i>
    <i name="eentropy">      0.00000000 </i>
    <i name="bandstr">  -2678.74929176 </i>
    <i name="atom">  34227.55479285 </i>
    <i name="e_fr_energy">    -69.04310349 </i>
    <i name="e_wo_entrp">    -69.04310349 </i>
    <i name="e_0_energy">    -69.04310349 </i>
   </energy>
  </scstep>
  <structure>
   <crystal>
    <varray name="basis" >
     <v>      22.63042111       0.00000000       0.00000000 </v>
     <v>       0.00000000      22.63042111       0.00000000 </v>
     <v>       0.00000000       0.00000000      22.63042111 </v>
    </varray>
    <i name="volume">  11589.85242683 </i>
    <varray name="rec_basis" >
     <v>       0.04418831       0.00000000       0.00000000 </v>
     <v>       0.00000000       0.04418831       0.00000000 </v>
     <v>       0.00000000       0.00000000       0.04418831 </v>
    </varray>
   </crystal>
   <varray name="positions" >
    <v>       0.59896746       0.43250672       0.33486855 </v>
    <v>       0.53461754       0.38676719       0.42525547 </v>
    <v>       0.47424633       0.45108546       0.33053515 </v>
    <v>       0.63613647       0.47583475       0.44197199 </v>
    <v>       0.46860369       0.35037577       0.52370427 </v>
    <v>       0.50455288       0.28700294       0.61920918 </v>
    <v>       0.41080026       0.41791000       0.43035794 </v>
    <v>       0.55288606       0.50203730       0.24799914 </v>
    <v>       0.59683496       0.55844609       0.34891473 </v>
    <v>       0.56825460       0.43487444       0.53552343 </v>
    <v>       0.50058565       0.40570910       0.63935115 </v>
    <v>       0.51507895       0.51246910       0.43792989 </v>
    <v>       0.39581257       0.33667821       0.62277335 </v>
    <v>       0.34794415       0.39470505       0.53195134 </v>
    <v>       0.47873347       0.57404545       0.30961788 </v>
    <v>       0.66694197       0.52202053       0.54810875 </v>
    <v>       0.40007762       0.53734490       0.39121497 </v>
    <v>       0.44786097       0.47740127       0.53996602 </v>
    <v>       0.38074037       0.45209017       0.64364470 </v>
    <v>       0.33757728       0.51210717       0.49262740 </v>
    <v>       0.59791308       0.48648330       0.64741739 </v>
    <v>       0.51143027       0.63632480       0.40756469 </v>
    <v>       0.62313326       0.60368311       0.45989090 </v>
    <v>       0.54591157       0.55985559       0.55120945 </v>
    <v>       0.69139925       0.56986960       0.65768457 </v>
    <v>       0.47896815       0.52901340       0.66031047 </v>
    <v>       0.43676821       0.59767643       0.49753911 </v>
    <v>       0.37406068       0.56886577       0.60105483 </v>
    <v>       0.57619108       0.60820329       0.66841253 </v>
    <v>       0.53850737       0.68128066       0.51456265 </v>
    <v>       0.64582982       0.64558484       0.57238240 </v>
    <v>       0.46968162       0.64488095       0.61376656 </v>
    <v>       0.56694582       0.72105890       0.62597029 </v>
   </varray>
  </structure>
  <varray name="forces" >
   <v>       0.01327272       0.03999434      -0.16034046 </v>
   <v>      -0.20271035       0.03629706       0.13402932 </v>
   <v>       0.06516680       0.02352098      -0.00080564 </v>
   <v>      -0.07253950       0.11705797      -0.19966627 </v>
   <v>       0.04700430       0.18239351      -0.23534119 </v>
   <v>       0.20748091      -0.17850052       0.07804420 </v>
   <v>       0.09360503       0.16486313       0.09636201 </v>
   <v>       0.03282925      -0.05119255      -0.24928449 </v>
   <v>      -0.02961118      -0.00133198      -0.02301332 </v>
   <v>      -0.07616092      -0.09521548       0.14578211 </v>
   <v>       0.07153809       0.23793896       0.00529314 </v>
   <v>       0.02743901      -0.04666619      -0.04882805 </v>
   <v>      -0.04049454      -0.45115269       0.30523511 </v>
   <v>      -0.09842772       0.11344471      -0.06061182 </v>
   <v>       0.11689711       0.08144500      -0.20682910 </v>
   <v>      -0.03498676       0.11733240      -0.00920322 </v>
   <v>      -0.01279926      -0.15842382       0.10930560 </v>
   <v>      -0.04378828       0.04217721       0.11519513 </v>
   <v>      -0.09682959       0.26842572       0.03587775 </v>
   <v>       0.09158580      -0.02911458      -0.04075792 </v>
   <v>      -0.21444564      -0.00420422       0.03813233 </v>
   <v>       0.15128239      -0.13496645      -0.18455947 </v>
   <v>      -0.04151659      -0.10246926      -0.18703877 </v>
   <v>      -0.03825207      -0.09927762       0.09164473 </v>
   <v>       0.03095851      -0.03550176       0.14730063 </v>
   <v>      -0.06030309      -0.09067989      -0.13968912 </v>
   <v>      -0.08354694       0.06925531       0.09310086 </v>
   <v>       0.12176580      -0.11641772       0.04681768 </v>
   <v>      -0.12026923      -0.11530155       0.18466611 </v>
   <v>       0.09552862       0.00414743       0.03671992 </v>
   <v>       0.08488930       0.03710681      -0.07212766 </v>
   <v>      -0.01235479      -0.08568333       0.04361912 </v>
   <v>       0.02779282       0.26069908       0.11097075 </v>
  </varray>
  <varray name="stress" >
   <v>      -1.72373009       0.08468821      -0.18353204 </v>
   <v>       0.08468822      -1.54683586      -0.06038142 </v>
   <v>      -0.18353204      -0.06038142      -0.78930731 </v>
  </varray>
  <energy>
   <i name="e_fr_energy">    -69.04310349 </i>
   <i name="e_wo_entrp">    -69.04310349 </i>
   <i name="e_0_energy">      0.00000000 </i>
  </energy>
  <time name="totalsc">   42.54   43.02</time>
 </calculation>
 <calculation>
  <scstep>
   <time name="dav">    2.94    2.95</time>
   <time name="total">    3.28    3.30</time>
   <energy>
    <i name="alphaZ">     79.92159719 </i>
    <i name="ewald">  78700.20158656 </i>
    <i name="hartreedc">-111485.81456442 </i>
    <i name="XCdc">   -374.39155637 </i>
    <i name="pawpsdc">  35695.66866874 </i>
    <i name="pawaedc"> -34234.31105382 </i>
    <i name="eentropy">      0.00000000 </i>
    <i name="bandstr">  -2677.91807789 </i>
    <i name="atom">  34227.55479285 </i>
    <i name="e_fr_energy">    -69.08860717 </i>
    <i name="e_wo_entrp">    -69.08860717 </i>
    <i name="e_0_energy">    -69.08860717 </i>
   </energy>
  </scstep>
  <scstep>
   <time name="dav">    3.05    3.05</time>
   <time name="total">    3.38    3.39</time>
   <energy>
    <i name="e_fr_energy">    -69.10761538 </i>
    <i name="e_wo_entrp">    -69.10761538 </i>
    <i name="e_0_energy">    -69.10761538 </i>
   </energy>
  </scstep>
  <scstep>
   <time name="dav">    3.07    3.07</time>
   <time name="total">    3.41    3.41</time>
   <energy>
    <i name="e_fr_energy">    -69.10743064 </i>
    <i name="e_wo_entrp">    -69.10743064 </i>
    <i name="e_0_energy">    -69.10743064 </i>
   </energy>
  </scstep>
  <scstep>
   <time name="dav">    3.04    3.04</time>
   <time name="total">    3.38    3.38</time>
   <energy>
    <i name="e_fr_energy">    -69.10683776 </i>
    <i name="e_wo_entrp">    -69.10683776 </i>
    <i name="e_0_energy">    -69.10683776 </i>
   </energy>
  </scstep>
  <scstep>
   <time name="dav">    3.10    3.10</time>
   <time name="total">    3.33    3.34</time>
   <energy>
    <i name="alphaZ">     79.92159719 </i>
    <i name="ewald">  78700.20158656 </i>
    <i name="hartreedc">-111487.24338537 </i>
    <i name="XCdc">   -374.36047934 </i>
    <i name="pawpsdc">  35675.37256204 </i>
    <i name="pawaedc"> -34213.67136827 </i>
    <i name="eentropy">      0.00000000 </i>
    <i name="bandstr">  -2676.88212168 </i>
    <i name="atom">  34227.55479285 </i>
    <i name="e_fr_energy">    -69.10681602 </i>
    <i name="e_wo_entrp">    -69.10681602 </i>
    <i name="e_0_energy">    -69.10681602 </i>
   </energy>
  </scstep>
  <structure>
   <crystal>
    <varray name="basis" >
     <v>      22.63042111       0.00000000       0.00000000 </v>
     <v>       0.00000000      22.63042111       0.00000000 </v>
     <v>       0.00000000       0.00000000      22.63042111 </v>
    </varray>
    <i name="volume">  11589.85242683 </i>
    <varray name="rec_basis" >
     <v>       0.04418831       0.00000000       0.00000000 </v>
     <v>       0.00000000       0.04418831       0.00000000 </v>
     <v>       0.00000000       0.00000000       0.04418831 </v>
    </varray>
   </crystal>
   <varray name="positions" >
    <v>       0.59905161       0.43236659       0.33434119 </v>
    <v>       0.53411083       0.38689770       0.42539453 </v>
    <v>       0.47465570       0.45132970       0.32999266 </v>
    <v>       0.63593217       0.47623169       0.44157184 </v>
    <v>       0.46841767       0.35066772       0.52360879 </v>
    <v>       0.50508118       0.28677998       0.61933892 </v>
    <v>       0.41102447       0.41848320       0.43075094 </v>
    <v>       0.55303681       0.50187015       0.24680640 </v>
    <v>       0.59660127       0.55834904       0.34812604 </v>
    <v>       0.56848993       0.43452337       0.53582928 </v>
    <v>       0.50049767       0.40590895       0.63939705 </v>
    <v>       0.51512125       0.51239209       0.43791707 </v>
    <v>       0.39582129       0.33574565       0.62351014 </v>
    <v>       0.34765988       0.39465350       0.53240143 </v>
    <v>       0.47886852       0.57426126       0.30893668 </v>
    <v>       0.66686823       0.52258027       0.54806582 </v>
    <v>       0.40033215       0.53678546       0.39120836 </v>
    <v>       0.44756533       0.47753350       0.54028478 </v>
    <v>       0.38018952       0.45199204       0.64386220 </v>
    <v>       0.33762184       0.51213127       0.49261007 </v>
    <v>       0.59746620       0.48654984       0.64781402 </v>
    <v>       0.51206748       0.63599283       0.40727372 </v>
    <v>       0.62286477       0.60343304       0.45957479 </v>
    <v>       0.54582714       0.55953396       0.55129482 </v>
    <v>       0.69108994       0.56977591       0.65800045 </v>
    <v>       0.47869335       0.52890797       0.65988379 </v>
    <v>       0.43664970       0.59820868       0.49760212 </v>
    <v>       0.37421607       0.56874378       0.60125956 </v>
    <v>       0.57622610       0.60828687       0.66889849 </v>
    <v>       0.53898106       0.68127431       0.51467710 </v>
    <v>       0.64586949       0.64582397       0.57271358 </v>
    <v>       0.46999721       0.64476211       0.61413288 </v>
    <v>       0.56709760       0.72141585       0.62621159 </v>
   </varray>
  </structure>
  <varray name="forces" >
   <v>      -0.01459427       0.04141650      -0.12989276 </v>
   <v>      -0.14373963       0.05455782       0.08208511 </v>
   <v>       0.05523311       0.02372088       0.03006668 </v>
   <v>      -0.07830065       0.09593856      -0.16470569 </v>
   <v>       0.03207036       0.14679514      -0.14527069 </v>
   <v>       0.18402490      -0.11518242       0.04542480 </v>
   <v>       0.07850861       0.14454442       0.08015166 </v>
   <v>       0.02218634      -0.04686202      -0.18947744 </v>
   <v>      -0.02174607      -0.01685199      -0.01176611 </v>
   <v>      -0.07659683      -0.06492631       0.11403167 </v>
   <v>       0.03911952       0.18002980      -0.00138843 </v>
   <v>       0.01616912      -0.03996474      -0.03461280 </v>
   <v>      -0.02712481      -0.34221349       0.23311274 </v>
   <v>      -0.05300993       0.08941998      -0.02925740 </v>
   <v>       0.09353097       0.05359995      -0.18665393 </v>
   <v>      -0.05124386       0.08395439      -0.01256251 </v>
   <v>       0.00760037      -0.10465487       0.07225013 </v>
   <v>      -0.02277781       0.04299899       0.10680705 </v>
   <v>      -0.07059624       0.19651632       0.01709492 </v>
   <v>       0.08699993      -0.02694409      -0.03320875 </v>
   <v>      -0.18013024       0.00149653       0.01796569 </v>
   <v>       0.10975370      -0.11722932      -0.15313192 </v>
   <v>      -0.02147947      -0.08924905      -0.14921378 </v>
   <v>      -0.03614403      -0.07628710       0.08480011 </v>
   <v>       0.04314073      -0.03820929       0.14220581 </v>
   <v>      -0.04731605      -0.08665504      -0.11174315 </v>
   <v>      -0.05326358       0.04232131       0.07779581 </v>
   <v>       0.10345813      -0.09967698       0.03080156 </v>
   <v>      -0.13538082      -0.10249437       0.15933792 </v>
   <v>       0.08434786      -0.01353263       0.02494472 </v>
   <v>       0.07163238       0.01445555      -0.09499844 </v>
   <v>      -0.01369671      -0.06343705       0.02102486 </v>
   <v>       0.01936497       0.23260463       0.10798258 </v>
  </varray>
  <varray name="stress" >
   <v>      -1.76510710       0.05507874      -0.15098364 </v>
   <v>       0.05507873      -1.61131471      -0.05184383 </v>
   <v>      -0.15098363      -0.05184382      -0.95957672 </v>
  </varray>
  <energy>
   <i name="e_fr_energy">    -69.10681602 </i>
   <i name="e_wo_entrp">    -69.10681602 </i>
   <i name="e_0_energy">      0.00000000 </i>
  </energy>
  <time name="totalsc">   22.08   24.21</time>
 </calculation>
 <calculation>
  <scstep>
   <time name="dav">    2.95    2.95</time>
   <time name="total">    3.30    3.30</time>
   <energy>
    <i name="alphaZ">     79.92159719 </i>
    <i name="ewald">  78295.65123990 </i>
    <i name="hartreedc">-111084.76173524 </i>
    <i name="XCdc">   -374.75326891 </i>
    <i name="pawpsdc">  35675.07207053 </i>
    <i name="pawaedc"> -34213.36351737 </i>
    <i name="eentropy">      0.00000000 </i>
    <i name="bandstr">  -2674.35189882 </i>
    <i name="atom">  34227.55479285 </i>
    <i name="e_fr_energy">    -69.03071986 </i>
    <i name="e_wo_entrp">    -69.03071986 </i>
    <i name="e_0_energy">    -69.03071986 </i>
   </energy>
  </scstep>
  <scstep>
   <time name="dav">    3.08    3.08</time>
   <time name="total">    3.42    3.43</time>
   <energy>
    <i name="e_fr_energy">    -69.20425295 </i>
    <i name="e_wo_entrp">    -69.20425295 </i>
    <i name="e_0_energy">    -69.20425295 </i>
   </energy>
  </scstep>
  <scstep>
   <time name="dav">    3.06    3.06</time>
   <time name="total">    3.40    3.41</time>
   <energy>
    <i name="e_fr_energy">    -69.20283815 </i>
    <i name="e_wo_entrp">    -69.20283815 </i>
    <i name="e_0_energy">    -69.20283815 </i>
   </energy>
  </scstep>
  <scstep>
   <time name="dav">    3.08    3.08</time>
   <time name="total">    3.42    3.45</time>
   <energy>
    <i name="e_fr_energy">    -69.19788375 </i>
    <i name="e_wo_entrp">    -69.19788375 </i>
    <i name="e_0_energy">    -69.19788375 </i>
   </energy>
  </scstep>
  <scstep>
   <time name="dav">    3.09    3.09</time>
   <time name="total">    3.42    3.43</time>
   <energy>
    <i name="e_fr_energy">    -69.19742237 </i>
    <i name="e_wo_entrp">    -69.19742237 </i>
    <i name="e_0_energy">    -69.19742237 </i>
   </energy>
  </scstep>
  <scstep>
   <time name="dav">    2.26    2.26</time>
   <time name="total">    2.50    2.50</time>
   <energy>
    <i name="alphaZ">     79.92159719 </i>
    <i name="ewald">  78295.65123990 </i>
    <i name="hartreedc">-111088.52915476 </i>
    <i name="XCdc">   -374.67397145 </i>
    <i name="pawpsdc">  35623.49434156 </i>
    <i name="pawaedc"> -34160.86244638 </i>
    <i name="eentropy">      0.00000000 </i>
    <i name="bandstr">  -2671.75378409 </i>
    <i name="atom">  34227.55479285 </i>
    <i name="e_fr_energy">    -69.19738519 </i>
    <i name="e_wo_entrp">    -69.19738519 </i>
    <i name="e_0_energy">    -69.19738519 </i>
   </energy>
  </scstep>
  <structure>
   <crystal>
    <varray name="basis" >
     <v>      22.63042111       0.00000000       0.00000000 </v>
     <v>       0.00000000      22.63042111       0.00000000 </v>
     <v>       0.00000000       0.00000000      22.63042111 </v>
    </varray>
    <i name="volume">  11589.85242683 </i>
    <varray name="rec_basis" >
     <v>       0.04418831       0.00000000       0.00000000 </v>
     <v>       0.00000000       0.04418831       0.00000000 </v>
     <v>       0.00000000       0.00000000       0.04418831 </v>
    </varray>
   </crystal>
   <varray name="positions" >
    <v>       0.59930407       0.43194617       0.33275911 </v>
    <v>       0.53259071       0.38728924       0.42581170 </v>
    <v>       0.47588382       0.45206243       0.32836521 </v>
    <v>       0.63531926       0.47742250       0.44037141 </v>
    <v>       0.46785963       0.35154356       0.52332237 </v>
    <v>       0.50666606       0.28611111       0.61972812 </v>
    <v>       0.41169710       0.42020283       0.43192992 </v>
    <v>       0.55348905       0.50136871       0.24322820 </v>
    <v>       0.59590020       0.55805790       0.34575997 </v>
    <v>       0.56919592       0.43347015       0.53674685 </v>
    <v>       0.50023373       0.40650850       0.63953475 </v>
    <v>       0.51524816       0.51216106       0.43787862 </v>
    <v>       0.39584744       0.33294797       0.62572052 </v>
    <v>       0.34680708       0.39449882       0.53375173 </v>
    <v>       0.47927368       0.57490867       0.30689307 </v>
    <v>       0.66664700       0.52425949       0.54793703 </v>
    <v>       0.40109573       0.53510713       0.39118852 </v>
    <v>       0.44667844       0.47793018       0.54124107 </v>
    <v>       0.37853698       0.45169764       0.64451470 </v>
    <v>       0.33775552       0.51220358       0.49255808 </v>
    <v>       0.59612554       0.48674946       0.64900392 </v>
    <v>       0.51397914       0.63499693       0.40640080 </v>
    <v>       0.62205930       0.60268283       0.45862648 </v>
    <v>       0.54557384       0.55856908       0.55155094 </v>
    <v>       0.69016202       0.56949486       0.65894808 </v>
    <v>       0.47786893       0.52859166       0.65860377 </v>
    <v>       0.43629415       0.59980541       0.49779114 </v>
    <v>       0.37468223       0.56837780       0.60187376 </v>
    <v>       0.57633113       0.60853759       0.67035636 </v>
    <v>       0.54040213       0.68125529       0.51502046 </v>
    <v>       0.64598849       0.64654137       0.57370714 </v>
    <v>       0.47094397       0.64440559       0.61523183 </v>
    <v>       0.56755297       0.72248671       0.62693550 </v>
   </varray>
  </structure>
  <varray name="forces" >
   <v>      -0.08032983       0.05369506      -0.05527508 </v>
   <v>       0.03477303       0.09709810      -0.06577473 </v>
   <v>       0.02558897       0.02940120       0.10529541 </v>
   <v>      -0.07800312       0.01531321      -0.06948987 </v>
   <v>      -0.00685292       0.04074907       0.10589020 </v>
   <v>       0.11213282       0.06593226      -0.03855301 </v>
   <v>       0.01743658       0.02500616       0.04156261 </v>
   <v>      -0.00961881      -0.02869815      -0.01250989 </v>
   <v>       0.01072850      -0.06708911       0.03381823 </v>
   <v>      -0.08066390       0.02454980       0.02092899 </v>
   <v>      -0.05087545       0.00763446      -0.02003508 </v>
   <v>      -0.01556026      -0.01697375       0.00387796 </v>
   <v>       0.02473126      -0.05441143       0.03464486 </v>
   <v>       0.07416809       0.02937007       0.03644655 </v>
   <v>       0.03171847      -0.01948507      -0.13775890 </v>
   <v>      -0.08823912      -0.01879999      -0.02215820 </v>
   <v>       0.04608787       0.08976514      -0.04342137 </v>
   <v>       0.03760560       0.03764755       0.07186629 </v>
   <v>       0.00990302       0.01966280      -0.02845727 </v>
   <v>       0.06923823      -0.01815251      -0.01144975 </v>
   <v>      -0.07628161       0.01564038      -0.02890231 </v>
   <v>      -0.03542228      -0.04841783      -0.07861367 </v>
   <v>       0.05333530      -0.04623445      -0.03761384 </v>
   <v>      -0.03027287      -0.00747403       0.05817267 </v>
   <v>       0.08076279      -0.04703452       0.12705598 </v>
   <v>      -0.00229870      -0.07736991       0.00233183 </v>
   <v>       0.03599796      -0.04574449       0.03655348 </v>
   <v>       0.03658299      -0.04430619      -0.01862795 </v>
   <v>      -0.18050839      -0.06568607       0.08772507 </v>
   <v>       0.02084150      -0.05776495      -0.00591367 </v>
   <v>       0.03962146      -0.04809568      -0.15334229 </v>
   <v>      -0.01982729       0.00516584      -0.04503501 </v>
   <v>      -0.00649989       0.15510702       0.10676175 </v>
  </varray>
  <varray name="stress" >
   <v>      -1.82523969      -0.04172244      -0.05529113 </v>
   <v>      -0.04172243      -1.74804086      -0.03499550 </v>
[...]
       <r>    -0.2299     0.0000   207.0000 </r>
       <r>    -0.1900     0.0000   208.0000 </r>
       <r>    -0.1500     0.0000   208.0000 </r>
       <r>    -0.1101     0.0000   209.0000 </r>
       <r>    -0.0702     0.0000   209.0000 </r>
       <r>    -0.0302     0.0000   211.0000 </r>
       <r>     0.0097     0.0000   211.0000 </r>
       <r>     0.0496     0.0000   212.0000 </r>
       <r>     0.0896     0.0000   212.0000 </r>
       <r>     0.1295     0.0000   213.0000 </r>
       <r>     0.1695     0.0000   213.0000 </r>
       <r>     0.2094     0.0000   213.0000 </r>
       <r>     0.2493     0.0000   214.0000 </r>
       <r>     0.2893     0.0000   214.0000 </r>
       <r>     0.3292     0.0000   214.0000 </r>
       <r>     0.3691     0.0000   214.0000 </r>
       <r>     0.4091     0.0000   216.0000 </r>
       <r>     0.4490     0.0000   216.0000 </r>
       <r>     0.4889     0.0000   217.0000 </r>
       <r>     0.5289     0.0000   218.0000 </r>
       <r>     0.5688     0.0000   218.0000 </r>
       <r>     0.6087     0.0000   218.0000 </r>
       <r>     0.6487     0.0000   219.0000 </r>
       <r>     0.6886     0.0000   220.0000 </r>
       <r>     0.7285     0.0000   220.0000 </r>
       <r>     0.7685     0.0000   222.0000 </r>
       <r>     0.8084     0.0000   223.0000 </r>
       <r>     0.8484     0.0000   225.0000 </r>
       <r>     0.8883     0.0000   226.0000 </r>
       <r>     0.9282     0.0000   227.0000 </r>
       <r>     0.9682     0.0000   229.0000 </r>
       <r>     1.0081     0.0000   230.0000 </r>
       <r>     1.0480     0.0000   233.0000 </r>
       <r>     1.0880     0.0000   234.0000 </r>
       <r>     1.1279     0.0000   236.0000 </r>
       <r>     1.1678     0.0000   236.0000 </r>
       <r>     1.2078     0.0000   236.0000 </r>
       <r>     1.2477     0.0000   236.0000 </r>
       <r>     1.2876     0.0000   236.0000 </r>
       <r>     1.3276     0.0000   236.0000 </r>
       <r>     1.3675     0.0000   236.0000 </r>
       <r>     1.4074     0.0000   236.0000 </r>
       <r>     1.4474     0.0000   236.0000 </r>
       <r>     1.4873     0.0000   236.0000 </r>
       <r>     1.5272     0.0000   236.0000 </r>
       <r>     1.5672     0.0000   236.0000 </r>
       <r>     1.6071     0.0000   236.0000 </r>
       <r>     1.6471     0.0000   236.0000 </r>
       <r>     1.6870     0.0000   236.0000 </r>
      </set>
      <set comment="spin 2">
       <r>   -10.2936     0.0000     0.0000 </r>
       <r>   -10.2536     0.0000     0.0000 </r>
       <r>   -10.2137     0.0000     0.0000 </r>
       <r>   -10.1738     0.0000     0.0000 </r>
       <r>   -10.1338     0.0000     0.0000 </r>
       <r>   -10.0939     0.0000     0.0000 </r>
       <r>   -10.0540     0.0000     0.0000 </r>
       <r>   -10.0140     0.0000     0.0000 </r>
       <r>    -9.9741     0.0000     0.0000 </r>
       <r>    -9.9341     0.0000     0.0000 </r>
       <r>    -9.8942     0.0000     0.0000 </r>
       <r>    -9.8543     0.0000     0.0000 </r>
       <r>    -9.8143     0.0000     0.0000 </r>
       <r>    -9.7744     0.0000     0.0000 </r>
       <r>    -9.7345     0.0000     0.0000 </r>
       <r>    -9.6945     0.0000     1.0000 </r>
       <r>    -9.6546     0.0000     1.0000 </r>
       <r>    -9.6147     0.0000     1.0000 </r>
       <r>    -9.5747     0.0000     1.0000 </r>
       <r>    -9.5348     0.0000     1.0000 </r>
       <r>    -9.4949     0.0000     1.0000 </r>
       <r>    -9.4549     0.0000     1.0000 </r>
       <r>    -9.4150     0.0000     1.0000 </r>
       <r>    -9.3751     0.0000     1.0000 </r>
       <r>    -9.3351     0.0000     1.0000 </r>
       <r>    -9.2952     0.0000     1.0000 </r>
       <r>    -9.2552     0.0000     1.0000 </r>
       <r>    -9.2153     0.0000     1.0000 </r>
       <r>    -9.1754     0.0000     1.0000 </r>
       <r>    -9.1354     0.0000     4.0000 </r>
       <r>    -9.0955     0.0000     4.0000 </r>
       <r>    -9.0556     0.0000     6.0000 </r>
       <r>    -9.0156     0.0000     8.0000 </r>
       <r>    -8.9757     0.0000     9.0000 </r>
       <r>    -8.9358     0.0000    10.0000 </r>
       <r>    -8.8958     0.0000    12.0000 </r>
       <r>    -8.8559     0.0000    13.0000 </r>
       <r>    -8.8160     0.0000    14.0000 </r>
       <r>    -8.7760     0.0000    17.0000 </r>
       <r>    -8.7361     0.0000    18.0000 </r>
       <r>    -8.6962     0.0000    18.0000 </r>
       <r>    -8.6562     0.0000    21.0000 </r>
       <r>    -8.6163     0.0000    23.0000 </r>
       <r>    -8.5764     0.0000    26.0000 </r>
       <r>    -8.5364     0.0000    29.0000 </r>
       <r>    -8.4965     0.0000    30.0000 </r>
       <r>    -8.4565     0.0000    32.0000 </r>
       <r>    -8.4166     0.0000    32.0000 </r>
       <r>    -8.3767     0.0000    34.0000 </r>
       <r>    -8.3367     0.0000    37.0000 </r>
       <r>    -8.2968     0.0000    39.0000 </r>
       <r>    -8.2569     0.0000    42.0000 </r>
       <r>    -8.2169     0.0000    45.0000 </r>
       <r>    -8.1770     0.0000    46.0000 </r>
       <r>    -8.1371     0.0000    48.0000 </r>
       <r>    -8.0971    25.0406    50.0000 </r>
       <r>    -8.0572     0.0000    52.0000 </r>
       <r>    -8.0173     0.0000    55.0000 </r>
       <r>    -7.9773     0.0000    56.0000 </r>
       <r>    -7.9374     0.0000    58.0000 </r>
       <r>    -7.8975     0.0000    60.0000 </r>
       <r>    -7.8575     0.0000    63.0000 </r>
       <r>    -7.8176     4.4978    65.1796 </r>
       <r>    -7.7776     0.0000    67.0000 </r>
       <r>    -7.7377     0.0000    70.0000 </r>
       <r>    -7.6978     0.0000    71.0000 </r>
       <r>    -7.6578     0.0000    73.0000 </r>
       <r>    -7.6179     0.0000    74.0000 </r>
       <r>    -7.5780     0.0000    78.0000 </r>
       <r>    -7.5380    25.0308    80.9996 </r>
       <r>    -7.4981     0.0000    83.0000 </r>
       <r>    -7.4582     0.0000    84.0000 </r>
       <r>    -7.4182     0.0000    86.0000 </r>
       <r>    -7.3783     0.0000    88.0000 </r>
       <r>    -7.3384     0.0000    90.0000 </r>
       <r>    -7.2984     0.0000    92.0000 </r>
       <r>    -7.2585     0.0000    94.0000 </r>
       <r>    -7.2186     0.0000    95.0000 </r>
       <r>    -7.1786     0.0000    98.0000 </r>
       <r>    -7.1387     0.0000   101.0000 </r>
       <r>    -7.0987     0.0000   104.0000 </r>
       <r>    -7.0588     0.0000   107.0000 </r>
       <r>    -7.0189     0.0000   109.0000 </r>
       <r>    -6.9789     0.0000   113.0000 </r>
       <r>    -6.9390     0.0000   117.0000 </r>
       <r>    -6.8991     0.0000   120.0000 </r>
       <r>    -6.8591     0.0000   123.0000 </r>
       <r>    -6.8192     0.0000   126.0000 </r>
       <r>    -6.7793     0.0000   128.0000 </r>
       <r>    -6.7393     0.0000   132.0000 </r>
       <r>    -6.6994     0.0000   137.0000 </r>
       <r>    -6.6595    25.0406   141.0000 </r>
       <r>    -6.6195     0.0000   144.0000 </r>
       <r>    -6.5796     0.0000   147.0000 </r>
       <r>    -6.5397     0.0000   151.0000 </r>
       <r>    -6.4997     0.0000   153.0000 </r>
       <r>    -6.4598     0.0000   155.0000 </r>
       <r>    -6.4199     0.0000   158.0000 </r>
       <r>    -6.3799     0.0000   159.0000 </r>
       <r>    -6.3400     0.0000   162.0000 </r>
       <r>    -6.3000    25.0406   165.0000 </r>
       <r>    -6.2601     0.0000   168.0000 </r>
       <r>    -6.2202     0.0000   169.0000 </r>
       <r>    -6.1802     0.0000   169.0000 </r>
       <r>    -6.1403     0.0000   169.0000 </r>
       <r>    -6.1004     0.0000   169.0000 </r>
       <r>    -6.0604     0.0000   169.0000 </r>
       <r>    -6.0205     0.0000   169.0000 </r>
       <r>    -5.9806     0.0000   169.0000 </r>
       <r>    -5.9406     0.0000   170.0000 </r>
       <r>    -5.9007     0.0000   170.0000 </r>
       <r>    -5.8608     0.0000   170.0000 </r>
       <r>    -5.8208     0.0000   170.0000 </r>
       <r>    -5.7809     0.0000   170.0000 </r>
       <r>    -5.7410     0.0000   171.0000 </r>
       <r>    -5.7010     0.0000   172.0000 </r>
       <r>    -5.6611     0.0000   172.0000 </r>
       <r>    -5.6211     0.0000   172.0000 </r>
       <r>    -5.5812     0.0000   172.0000 </r>
       <r>    -5.5413     0.0000   173.0000 </r>
       <r>    -5.5013     0.0000   173.0000 </r>
       <r>    -5.4614     0.0000   173.0000 </r>
       <r>    -5.4215     0.0000   173.0000 </r>
       <r>    -5.3815     0.0000   174.0000 </r>
       <r>    -5.3416     0.0000   174.0000 </r>
       <r>    -5.3017     0.0000   174.0000 </r>
       <r>    -5.2617     0.0000   174.0000 </r>
       <r>    -5.2218     0.0000   174.0000 </r>
       <r>    -5.1819     0.0000   174.0000 </r>
       <r>    -5.1419     0.0000   174.0000 </r>
       <r>    -5.1020     0.0000   174.0000 </r>
       <r>    -5.0621     0.0000   174.0000 </r>
       <r>    -5.0221     0.0000   174.0000 </r>
       <r>    -4.9822     0.0000   174.0000 </r>
       <r>    -4.9422     0.0000   174.0000 </r>
       <r>    -4.9023     0.0000   174.0000 </r>
       <r>    -4.8624     0.0000   174.0000 </r>
       <r>    -4.8224     0.0000   174.0000 </r>
       <r>    -4.7825     0.0000   174.0000 </r>
       <r>    -4.7426     0.0000   174.0000 </r>
       <r>    -4.7026     0.0000   174.0000 </r>
       <r>    -4.6627     0.0000   174.0000 </r>
       <r>    -4.6228     0.0000   174.0000 </r>
       <r>    -4.5828     0.0000   175.0000 </r>
       <r>    -4.5429     0.0000   175.0000 </r>
       <r>    -4.5030     0.0000   175.0000 </r>
       <r>    -4.4630     0.0000   175.0000 </r>
       <r>    -4.4231     0.0000   175.0000 </r>
       <r>    -4.3832     0.0000   176.0000 </r>
       <r>    -4.3432     0.0000   176.0000 </r>
       <r>    -4.3033     0.0000   176.0000 </r>
       <r>    -4.2634     0.0000   176.0000 </r>
       <r>    -4.2234     0.0000   176.0000 </r>
       <r>    -4.1835     0.0000   177.0000 </r>
       <r>    -4.1435     0.0000   177.0000 </r>
       <r>    -4.1036     0.0000   177.0000 </r>
       <r>    -4.0637     0.0000   178.0000 </r>
       <r>    -4.0237     0.0000   179.0000 </r>
       <r>    -3.9838     0.0000   179.0000 </r>
       <r>    -3.9439     0.0000   179.0000 </r>
       <r>    -3.9039     0.0000   179.0000 </r>
       <r>    -3.8640     0.0000   180.0000 </r>
       <r>    -3.8241     0.0000   180.0000 </r>
       <r>    -3.7841     0.0000   181.0000 </r>
       <r>    -3.7442     0.0000   181.0000 </r>
       <r>    -3.7043     0.0000   181.0000 </r>
       <r>    -3.6643     0.0000   182.0000 </r>
       <r>    -3.6244     0.0000   182.0000 </r>
       <r>    -3.5845     0.0000   182.0000 </r>
       <r>    -3.5445     0.0000   182.0000 </r>
       <r>    -3.5046     0.0000   182.0000 </r>
       <r>    -3.4646     0.0000   182.0000 </r>
       <r>    -3.4247     0.0000   182.0000 </r>
       <r>    -3.3848     0.0000   182.0000 </r>
       <r>    -3.3448     0.0000   182.0000 </r>
       <r>    -3.3049     0.0000   182.0000 </r>
       <r>    -3.2650     0.0000   182.0000 </r>
       <r>    -3.2250     0.0000   182.0000 </r>
       <r>    -3.1851     0.0000   182.0000 </r>
       <r>    -3.1452     0.0000   183.0000 </r>
       <r>    -3.1052     0.0000   183.0000 </r>
       <r>    -3.0653     0.0000   184.0000 </r>
       <r>    -3.0254     0.0000   184.0000 </r>
       <r>    -2.9854     0.0000   184.0000 </r>
       <r>    -2.9455     0.0000   184.0000 </r>
       <r>    -2.9056     0.0000   184.0000 </r>
       <r>    -2.8656     0.0000   184.0000 </r>
       <r>    -2.8257     0.0000   184.0000 </r>
       <r>    -2.7858     0.0000   184.0000 </r>
       <r>    -2.7458     0.0000   185.0000 </r>
       <r>    -2.7059     0.0000   185.0000 </r>
       <r>    -2.6659     0.0000   185.0000 </r>
       <r>    -2.6260     0.0000   185.0000 </r>
       <r>    -2.5861     0.0000   185.0000 </r>
       <r>    -2.5461     0.0000   186.0000 </r>
       <r>    -2.5062     0.0000   187.0000 </r>
       <r>    -2.4663     0.0000   187.0000 </r>
       <r>    -2.4263     0.0000   187.0000 </r>
       <r>    -2.3864     0.0000   187.0000 </r>
       <r>    -2.3465     0.0000   187.0000 </r>
       <r>    -2.3065     0.0000   188.0000 </r>
       <r>    -2.2666     0.0000   188.0000 </r>
       <r>    -2.2267     0.0000   189.0000 </r>
       <r>    -2.1867     0.0000   189.0000 </r>
       <r>    -2.1468     0.0000   190.0000 </r>
       <r>    -2.1069     0.0000   191.0000 </r>
       <r>    -2.0669     0.0000   191.0000 </r>
       <r>    -2.0270     0.0000   191.0000 </r>
       <r>    -1.9870     0.0000   192.0000 </r>
       <r>    -1.9471     0.0000   193.0000 </r>
       <r>    -1.9072     0.0000   193.0000 </r>
       <r>    -1.8672     0.0000   194.0000 </r>
       <r>    -1.8273     0.0000   194.0000 </r>
       <r>    -1.7874     0.0000   194.0000 </r>
       <r>    -1.7474     0.0000   195.0000 </r>
       <r>    -1.7075     0.0000   196.0000 </r>
       <r>    -1.6676     0.0000   196.0000 </r>
       <r>    -1.6276     0.0000   196.0000 </r>
       <r>    -1.5877     0.0000   197.0000 </r>
       <r>    -1.5478     0.0000   197.0000 </r>
       <r>    -1.5078     0.0000   197.0000 </r>
       <r>    -1.4679     0.0000   197.0000 </r>
       <r>    -1.4280     0.0000   197.0000 </r>
       <r>    -1.3880     0.0000   197.0000 </r>
       <r>    -1.3481     0.0000   197.0000 </r>
       <r>    -1.3081     0.0000   197.0000 </r>
       <r>    -1.2682     0.0000   197.0000 </r>
       <r>    -1.2283     0.0000   197.0000 </r>
       <r>    -1.1883     0.0000   197.0000 </r>
       <r>    -1.1484     0.0000   197.0000 </r>
       <r>    -1.1085     0.0000   198.0000 </r>
       <r>    -1.0685     0.0000   199.0000 </r>
       <r>    -1.0286     0.0000   199.0000 </r>
       <r>    -0.9887     0.0000   200.0000 </r>
       <r>    -0.9487     0.0000   200.0000 </r>
       <r>    -0.9088     0.0000   200.0000 </r>
       <r>    -0.8689     0.0000   200.0000 </r>
       <r>    -0.8289     0.0000   201.0000 </r>
       <r>    -0.7890     0.0000   201.0000 </r>
       <r>    -0.7491     0.0000   201.0000 </r>
       <r>    -0.7091     0.0000   202.0000 </r>
       <r>    -0.6692     0.0000   202.0000 </r>
       <r>    -0.6293     0.0000   203.0000 </r>
       <r>    -0.5893     0.0000   203.0000 </r>
       <r>    -0.5494     0.0000   204.0000 </r>
       <r>    -0.5094     0.0000   204.0000 </r>
       <r>    -0.4695     0.0000   204.0000 </r>
       <r>    -0.4296     0.0000   204.0000 </r>
       <r>    -0.3896     0.0000   205.0000 </r>
       <r>    -0.3497     0.0000   206.0000 </r>
       <r>    -0.3098     0.0000   206.0000 </r>
       <r>    -0.2698     0.0000   206.0000 </r>
       <r>    -0.2299     0.0000   206.0000 </r>
       <r>    -0.1900     0.0000   207.0000 </r>
       <r>    -0.1500     0.0000   208.0000 </r>
       <r>    -0.1101     0.0000   208.0000 </r>
       <r>    -0.0702     0.0000   209.0000 </r>
       <r>    -0.0302     0.0000   210.0000 </r>
       <r>     0.0097     0.0000   211.0000 </r>
       <r>     0.0496     0.0000   211.0000 </r>
       <r>     0.0896     0.0000   212.0000 </r>
       <r>     0.1295     0.0000   213.0000 </r>
       <r>     0.1695     0.0000   213.0000 </r>
       <r>     0.2094     0.0000   213.0000 </r>
       <r>     0.2493     0.0000   213.0000 </r>
       <r>     0.2893     0.0000   214.0000 </r>
       <r>     0.3292     0.0000   214.0000 </r>
       <r>     0.3691     0.0000   214.0000 </r>
       <r>     0.4091     0.0000   215.0000 </r>
       <r>     0.4490     0.0000   216.0000 </r>
       <r>     0.4889     0.0000   216.0000 </r>
       <r>     0.5289     0.0000   217.0000 </r>
       <r>     0.5688     0.0000   218.0000 </r>
       <r>     0.6087     0.0000   218.0000 </r>
       <r>     0.6487     0.0000   218.0000 </r>
       <r>     0.6886     0.0000   219.0000 </r>
       <r>     0.7285     0.0000   220.0000 </r>
       <r>     0.7685     0.0000   221.0000 </r>
       <r>     0.8084     0.0000   221.0000 </r>
       <r>     0.8484     0.0000   224.0000 </r>
       <r>     0.8883     0.0000   225.0000 </r>
       <r>     0.9282     0.0000   226.0000 </r>
       <r>     0.9682     0.0000   227.0000 </r>
       <r>     1.0081     0.0000   230.0000 </r>
       <r>     1.0480     0.0000   231.0000 </r>
       <r>     1.0880     0.0000   233.0000 </r>
       <r>     1.1279     0.0000   235.0000 </r>
       <r>     1.1678     0.0000   236.0000 </r>
       <r>     1.2078     0.0000   236.0000 </r>
       <r>     1.2477     0.0000   236.0000 </r>
       <r>     1.2876     0.0000   236.0000 </r>
       <r>     1.3276     0.0000   236.0000 </r>
       <r>     1.3675     0.0000   236.0000 </r>
       <r>     1.4074     0.0000   236.0000 </r>
       <r>     1.4474     0.0000   236.0000 </r>
       <r>     1.4873     0.0000   236.0000 </r>
       <r>     1.5272     0.0000   236.0000 </r>
       <r>     1.5672     0.0000   236.0000 </r>
       <r>     1.6071     0.0000   236.0000 </r>
       <r>     1.6471     0.0000   236.0000 </r>
       <r>     1.6870     0.0000   236.0000 </r>
      </set>
     </set>
    </array>
   </total>
  </dos>
 </calculation>
 <structure name="finalpos" >
  <crystal>
   <varray name="basis" >
    <v>      22.63042111       0.00000000       0.00000000 </v>
    <v>       0.00000000      22.63042111       0.00000000 </v>
    <v>       0.00000000       0.00000000      22.63042111 </v>
   </varray>
   <i name="volume">  11589.85242683 </i>
   <varray name="rec_basis" >
    <v>       0.04418831       0.00000000       0.00000000 </v>
    <v>       0.00000000       0.04418831       0.00000000 </v>
    <v>       0.00000000       0.00000000       0.04418831 </v>
   </varray>
  </crystal>
  <varray name="positions" >
   <v>       0.60081810       0.42638602       0.32589792 </v>
   <v>       0.53520606       0.38863902       0.42372534 </v>
   <v>       0.48205902       0.46135799       0.33251075 </v>
   <v>       0.63377705       0.47105943       0.43739230 </v>
   <v>       0.46887030       0.35478941       0.52157450 </v>
   <v>       0.52072166       0.29310724       0.61153878 </v>
   <v>       0.41597324       0.42906162       0.43358181 </v>
   <v>       0.55406502       0.49892216       0.23831212 </v>
   <v>       0.58824873       0.54925661       0.34614832 </v>
   <v>       0.56899134       0.43118468       0.53951172 </v>
   <v>       0.49813058       0.40753505       0.64305645 </v>
   <v>       0.51673156       0.51189807       0.44855988 </v>
   <v>       0.40244831       0.32883640       0.62429705 </v>
   <v>       0.35123960       0.39780116       0.53614061 </v>
   <v>       0.47976807       0.58026050       0.29255880 </v>
   <v>       0.66192192       0.51945093       0.54752814 </v>
   <v>       0.41010214       0.54642131       0.38894807 </v>
   <v>       0.44676831       0.48047738       0.54889366 </v>
   <v>       0.37753046       0.44771067       0.64878250 </v>
   <v>       0.34297076       0.51461999       0.48853492 </v>
   <v>       0.59156486       0.48685081       0.65294115 </v>
   <v>       0.51002598       0.63145900       0.40112239 </v>
   <v>       0.61857070       0.59676820       0.45674158 </v>
   <v>       0.54438206       0.55936879       0.56005215 </v>
   <v>       0.68514846       0.56694942       0.66043063 </v>
   <v>       0.47311671       0.52934193       0.66510532 </v>
   <v>       0.43680672       0.60123274       0.50012514 </v>
   <v>       0.37168941       0.56592329       0.60310508 </v>
   <v>       0.57081836       0.60997747       0.67562586 </v>
   <v>       0.53875208       0.67808252       0.51116074 </v>
   <v>       0.64320776       0.64229070       0.57091578 </v>
   <v>       0.46795622       0.64489472       0.61524335 </v>
   <v>       0.56561186       0.72227704       0.62322830 </v>
  </varray>
 </structure>
</modeling>
