   26   26 1000    2
  0.4132073E+03  0.2206550E-08  0.2206550E-08  0.2206550E-08  0.1000000E-15
  1.000000000000000E-004
  CAR 
 unknown system                          
    286      1    184
 
  0.0000000E+00  0.0000000E+00  0.0000000E+00  0.1000000E+01
    1       -9.763204     -9.691426
    2       -9.350290     -9.315350
    3       -9.267529     -9.231570
    4       -9.222028     -9.180636
    5       -9.160210     -9.122186
    6       -9.145915     -9.107192
    7       -9.101557     -9.069907
    8       -9.067704     -9.042377
    9       -9.044237     -9.007039
   10       -9.011139     -8.979564
   11       -8.984841     -8.953483
   12       -8.922224     -8.900250
   13       -8.869114     -8.833281
   14       -8.840914     -8.811424
   15       -8.798533     -8.775458
   16       -8.733564     -8.713651
   17       -8.717594     -8.693944
   18       -8.697523     -8.666012
   19       -8.663865     -8.631554
   20       -8.638867     -8.620007
   21       -8.612157     -8.583600
   22       -8.584650     -8.566059
   23       -8.551681     -8.517264
   24       -8.478668     -8.452302
   25       -8.440643     -8.419136
   26       -8.422393     -8.398162
   27       -8.404997     -8.388572
   28       -8.395861     -8.377301
   29       -8.338904     -8.319099
   30       -8.294337     -8.275040
   31       -8.283202     -8.264502
   32       -8.254698     -8.234788
   33       -8.242195     -8.220755
   34       -8.215565     -8.188615
   35       -8.189768     -8.166936
   36       -8.147068     -8.125308
   37       -8.117991     -8.097051
   38       -8.103634     -8.080452
   39       -8.097362     -8.078945
   40       -8.076441     -8.054524
   41       -8.074080     -8.046871
   42       -8.056706     -8.036118
   43       -8.010363     -7.990352
   44       -7.997598     -7.976793
   45       -7.975300     -7.954744
   46       -7.967562     -7.947819
   47       -7.958500     -7.939164
   48       -7.930118     -7.910740
   49       -7.916274     -7.893334
   50       -7.879390     -7.858213
   51       -7.840163     -7.823851
   52       -7.802946     -7.784526
   53       -7.775093     -7.754343
   54       -7.745311     -7.728493
   55       -7.743085     -7.726022
   56       -7.712036     -7.688739
   57       -7.701142     -7.682299
   58       -7.647681     -7.629850
   59       -7.643775     -7.621461
   60       -7.606620     -7.584853
   61       -7.592040     -7.573835
   62       -7.580717     -7.562501
   63       -7.556094     -7.526320
   64       -7.531623     -7.511067
   65       -7.507194     -7.487698
   66       -7.444665     -7.425007
   67       -7.412744     -7.390204
   68       -7.389861     -7.365277
   69       -7.360373     -7.342532
   70       -7.327128     -7.306904
   71       -7.299668     -7.280325
   72       -7.273735     -7.252205
   73       -7.256827     -7.237380
   74       -7.244369     -7.218606
   75       -7.233400     -7.206337
   76       -7.225458     -7.200310
   77       -7.209047     -7.184537
   78       -7.198731     -7.175966
   79       -7.190618     -7.168393
   80       -7.171424     -7.149154
   81       -7.148060     -7.127453
   82       -7.140773     -7.120127
   83       -7.113335     -7.093660
   84       -7.109720     -7.090755
   85       -7.106750     -7.084928
   86       -7.093776     -7.071864
   87       -7.082417     -7.060592
   88       -7.069523     -7.047004
   89       -7.040473     -7.019753
   90       -7.021670     -6.999768
   91       -7.012571     -6.989871
   92       -7.000497     -6.981000
   93       -6.979734     -6.958527
   94       -6.955090     -6.928408
   95       -6.943892     -6.924265
   96       -6.939824     -6.920818
   97       -6.925039     -6.906492
   98       -6.912062     -6.894597
   99       -6.902729     -6.882301
  100       -6.892778     -6.867279
  101       -6.875339     -6.853452
  102       -6.860881     -6.837040
  103       -6.848540     -6.828143
  104       -6.835047     -6.813265
  105       -6.821057     -6.799807
  106       -6.805283     -6.782760
  107       -6.793497     -6.775399
  108       -6.779288     -6.759379
  109       -6.751719     -6.732980
  110       -6.733575     -6.716200
  111       -6.718703     -6.702122
  112       -6.698435     -6.680004
  113       -6.671100     -6.653762
  114       -6.661430     -6.642708
  115       -6.650149     -6.633559
  116       -6.627448     -6.604824
  117       -6.615991     -6.591775
  118       -6.591385     -6.570540
  119       -6.569051     -6.551550
  120       -6.541168     -6.519012
  121       -6.536320     -6.513833
  122       -6.514262     -6.494048
  123       -6.511217     -6.486343
  124       -6.486328     -6.469211
  125       -6.462797     -6.443900
  126       -6.456568     -6.434563
  127       -6.441367     -6.419751
  128       -6.422684     -6.402613
  129       -6.381342     -6.363736
  130       -6.367301     -6.346078
  131       -6.358797     -6.341500
  132       -6.343288     -6.329123
  133       -6.291495     -6.274210
  134       -6.265785     -6.212897
  135       -5.780585     -5.742965
  136       -5.595130     -5.548105
  137       -5.530742     -5.463221
  138       -4.970258     -4.906365
  139       -4.538057     -4.484335
  140       -4.196743     -4.137650
  141       -3.986699     -3.928804
  142       -3.910100     -3.848669
  143       -3.794867     -3.652615
  144       -3.682366     -3.530485
  145       -3.208157     -3.153566
  146       -2.800788     -2.747646
  147       -2.724310     -2.653377
  148       -2.449678     -2.393204
  149       -2.342657     -2.275886
  150       -2.179879     -2.115895
  151       -2.077123     -1.992413
  152       -1.977173     -1.907567
  153       -1.813580     -1.720446
  154       -1.793072     -1.675636
  155       -1.739254     -1.635886
  156       -1.566330     -1.469831
  157       -1.162191     -1.081293
  158       -1.092586     -1.011681
  159       -0.965503     -0.916268
  160       -0.848692     -0.762471
  161       -0.716416     -0.623951
  162       -0.674227     -0.594419
  163       -0.606818     -0.527310
  164       -0.527137     -0.452546
  165       -0.505889     -0.413643
  166       -0.384139     -0.278887
  167       -0.337085     -0.244710
  168       -0.291714     -0.218212
  169       -0.130367     -0.046436
  170        0.065308      0.135110
  171        0.364062      0.405965
  172        0.507081      0.565693
  173        0.560842      0.611739
  174        0.605302      0.657315
  175        0.649851      0.687634
  176        0.663654      0.713054
  177        0.684665      0.738004
  178        0.731406      0.788584
  179        0.774278      0.823816
  180        0.813152      0.857856
  181        0.837362      0.896278
  182        0.899662      0.940155
  183        0.922547      0.974128
  184        0.933036      0.977869
