       N       E                     dE             d eps       ncg     rms          rms(c)
DAV:   1     0.254152422894E+04    0.25415E+04   -0.50039E+04   736   0.585E+02
DAV:   2     0.651735463676E+03   -0.18898E+04   -0.16915E+04  1304   0.135E+02
DAV:   3    -0.105926027889E+02   -0.66233E+03   -0.60938E+03   992   0.905E+01
DAV:   4    -0.530133728340E+02   -0.42421E+02   -0.41708E+02   808   0.251E+01
DAV:   5    -0.536588335886E+02   -0.64546E+00   -0.64427E+00   816   0.377E+00    0.284E+01
DAV:   6    -0.194219601057E+02    0.34237E+02   -0.10480E+02   736   0.163E+01    0.143E+01
DAV:   7    -0.169586644073E+02    0.24633E+01   -0.53997E+00   784   0.569E+00    0.835E+00
DAV:   8    -0.181215463436E+02   -0.11629E+01   -0.16366E+00   776   0.280E+00    0.529E+00
DAV:   9    -0.181517488390E+02   -0.30202E-01   -0.58397E-01   800   0.249E+00    0.321E+00
DAV:  10    -0.237292490162E+02   -0.55775E+01   -0.13727E+00   776   0.187E+00    0.338E+00
DAV:  11    -0.251546808873E+02   -0.14254E+01   -0.25059E-01   808   0.114E+00    0.294E+00
DAV:  12    -0.335382488495E+02   -0.83836E+01   -0.39823E+00   768   0.347E+00    0.274E+00
DAV:  13    -0.358536663696E+02   -0.23154E+01   -0.61496E-01   792   0.172E+00    0.213E+00
DAV:  14    -0.411035048886E+02   -0.52498E+01   -0.19629E+00   736   0.214E+00    0.146E+00
DAV:  15    -0.461171489606E+02   -0.50136E+01   -0.18238E+00   768   0.159E+00    0.998E-01
DAV:  16    -0.485222089992E+02   -0.24051E+01   -0.48838E-01   784   0.893E-01    0.716E-01
DAV:  17    -0.509942148617E+02   -0.24720E+01   -0.64188E-01   744   0.102E+00    0.467E-01
DAV:  18    -0.515425887740E+02   -0.54837E+00   -0.38244E-02   776   0.405E-01    0.309E-01
DAV:  19    -0.521574863283E+02   -0.61490E+00   -0.29353E-02   768   0.297E-01    0.180E-01
DAV:  20    -0.525270450000E+02   -0.36956E+00   -0.13476E-02   768   0.232E-01    0.118E-01
DAV:  21    -0.526384011322E+02   -0.11136E+00   -0.25654E-03   800   0.912E-02    0.846E-02
DAV:  22    -0.527194773951E+02   -0.81076E-01   -0.24890E-03   760   0.101E-01    0.594E-02
DAV:  23    -0.527342856282E+02   -0.14808E-01   -0.70416E-04   552   0.677E-02    0.336E-02
DAV:  24    -0.527372551586E+02   -0.29695E-02   -0.21275E-04   528   0.378E-02    0.175E-02
DAV:  25    -0.527390689857E+02   -0.18138E-02   -0.25004E-04   528   0.233E-02    0.127E-02
DAV:  26    -0.527406136742E+02   -0.15447E-02   -0.14425E-04   520   0.180E-02    0.104E-02
DAV:  27    -0.527423048650E+02   -0.16912E-02   -0.49914E-05   528   0.135E-02    0.678E-03
DAV:  28    -0.527438088899E+02   -0.15040E-02   -0.30666E-05   504   0.155E-02    0.544E-03
DAV:  29    -0.527443479500E+02   -0.53906E-03   -0.83231E-06   496   0.824E-03    0.336E-03
DAV:  30    -0.527445054438E+02   -0.15749E-03   -0.32108E-06   480   0.424E-03    0.162E-03
DAV:  31    -0.527445438984E+02   -0.38455E-04   -0.13643E-06   488   0.219E-03
   1 F= -.52744544E+02 E0= -.52744544E+02  d E =-.527445E+02  mag=     2.0006
       N       E                     dE             d eps       ncg     rms          rms(c)
DAV:   1    -0.527664644650E+02   -0.21959E-01   -0.15752E+00   776   0.252E+00    0.746E-02
DAV:   2    -0.527671672493E+02   -0.70278E-03   -0.72642E-03   776   0.242E-01    0.563E-02
DAV:   3    -0.527671705459E+02   -0.32966E-05   -0.12555E-04   464   0.345E-02
   2 F= -.52767171E+02 E0= -.52767171E+02  d E =-.226266E-01  mag=     2.0004
       N       E                     dE             d eps       ncg     rms          rms(c)
DAV:   1    -0.528195703360E+02   -0.52403E-01   -0.14208E+01   744   0.758E+00    0.233E-01
DAV:   2    -0.528256753175E+02   -0.61050E-02   -0.65484E-02   784   0.724E-01    0.171E-01
DAV:   3    -0.528255892008E+02    0.86117E-04   -0.12448E-03   816   0.103E-01    0.106E-01
DAV:   4    -0.528254814631E+02    0.10774E-03   -0.41064E-04   760   0.524E-02    0.342E-02
DAV:   5    -0.528254894864E+02   -0.80233E-05   -0.33171E-05   504   0.179E-02
   3 F= -.52825489E+02 E0= -.52825489E+02  d E =-.809456E-01  mag=     2.0002
       N       E                     dE             d eps       ncg     rms          rms(c)
DAV:   1    -0.528749713378E+02   -0.49490E-01   -0.56782E+01   736   0.152E+01    0.463E-01
DAV:   2    -0.528997610632E+02   -0.24790E-01   -0.26409E-01   768   0.145E+00    0.329E-01
DAV:   3    -0.528994389915E+02    0.32207E-03   -0.50143E-03   816   0.206E-01    0.205E-01
DAV:   4    -0.528990203964E+02    0.41860E-03   -0.15686E-03   792   0.102E-01    0.680E-02
DAV:   5    -0.528990549187E+02   -0.34522E-04   -0.11969E-04   488   0.339E-02
   4 F= -.52899055E+02 E0= -.52899055E+02  d E =-.154511E+00  mag=     2.0001
       N       E                     dE             d eps       ncg     rms          rms(c)
DAV:   1    -0.527667670391E+02    0.13225E+00   -0.22822E+02   736   0.305E+01    0.104E+00
DAV:   2    -0.528688646233E+02   -0.10210E+00   -0.10822E+00   768   0.294E+00    0.664E-01
DAV:   3    -0.528673263508E+02    0.15383E-02   -0.20617E-02   816   0.416E-01    0.405E-01
DAV:   4    -0.528659531885E+02    0.13732E-02   -0.60756E-03   776   0.203E-01    0.121E-01
DAV:   5    -0.528660959006E+02   -0.14271E-03   -0.35266E-04   632   0.622E-02    0.398E-02
DAV:   6    -0.528661738320E+02   -0.77931E-04   -0.10393E-04   520   0.238E-02
   5 F= -.52866174E+02 E0= -.52866174E+02  d E =-.121630E+00  mag=     2.0000
       N       E                     dE             d eps       ncg     rms          rms(c)
DAV:   1    -0.528769733488E+02   -0.10877E-01   -0.91377E+01   744   0.193E+01    0.581E-01
DAV:   2    -0.529168161836E+02   -0.39843E-01   -0.41963E-01   784   0.184E+00    0.465E-01
DAV:   3    -0.529164863547E+02    0.32983E-03   -0.78139E-03   816   0.255E-01    0.299E-01
DAV:   4    -0.529159429730E+02    0.54338E-03   -0.28505E-03   800   0.136E-01    0.105E-01
DAV:   5    -0.529160508755E+02   -0.10790E-03   -0.23635E-04   520   0.485E-02    0.303E-02
DAV:   6    -0.529160624519E+02   -0.11576E-04   -0.52781E-05   488   0.172E-02
   6 F= -.52916062E+02 E0= -.52916062E+02  d E =-.171519E+00  mag=     2.0000
       N       E                     dE             d eps       ncg     rms          rms(c)
DAV:   1    -0.529344299611E+02   -0.18379E-01   -0.72723E+00   768   0.540E+00    0.113E-01
DAV:   2    -0.529377482594E+02   -0.33183E-02   -0.33930E-02   792   0.523E-01    0.108E-01
DAV:   3    -0.529377355124E+02    0.12747E-04   -0.57968E-04   816   0.689E-02
   7 F= -.52937736E+02 E0= -.52937736E+02  d E =-.216731E-01  mag=     2.0000
       N       E                     dE             d eps       ncg     rms          rms(c)
DAV:   1    -0.529524203481E+02   -0.14672E-01   -0.65598E+01   752   0.162E+01    0.373E-01
DAV:   2    -0.529824338845E+02   -0.30014E-01   -0.30874E-01   792   0.158E+00    0.349E-01
DAV:   3    -0.529821526146E+02    0.28127E-03   -0.52967E-03   816   0.209E-01    0.241E-01
DAV:   4    -0.529812460384E+02    0.90658E-03   -0.19322E-03   792   0.984E-02    0.126E-01
DAV:   5    -0.529812509296E+02   -0.48912E-05   -0.80072E-04   800   0.644E-02
   8 F= -.52981251E+02 E0= -.52981251E+02  d E =-.651885E-01  mag=     2.0000
       N       E                     dE             d eps       ncg     rms          rms(c)
DAV:   1    -0.528527573532E+02    0.12849E+00   -0.26410E+02   736   0.327E+01    0.821E-01
DAV:   2    -0.529772948523E+02   -0.12454E+00   -0.12842E+00   784   0.324E+00    0.684E-01
DAV:   3    -0.529763019529E+02    0.99290E-03   -0.22586E-02   792   0.444E-01    0.444E-01
DAV:   4    -0.529734049282E+02    0.28970E-02   -0.63154E-03   784   0.179E-01    0.234E-01
DAV:   5    -0.529734729910E+02   -0.68063E-04   -0.25333E-03   792   0.115E-01    0.737E-02
DAV:   6    -0.529735755473E+02   -0.10256E-03   -0.13891E-04   536   0.254E-02    0.469E-02
DAV:   7    -0.529737948723E+02   -0.21933E-03   -0.10066E-04   528   0.219E-02    0.165E-02
DAV:   8    -0.529740128164E+02   -0.21794E-03   -0.20189E-05   512   0.107E-02    0.500E-03
DAV:   9    -0.529741861316E+02   -0.17332E-03   -0.72933E-06   512   0.594E-03    0.254E-03
DAV:  10    -0.529743161822E+02   -0.13005E-03   -0.30305E-06   512   0.275E-03    0.168E-03
DAV:  11    -0.529745847806E+02   -0.26860E-03   -0.12312E-05   528   0.354E-03    0.163E-03
DAV:  12    -0.529746471852E+02   -0.62405E-04   -0.12853E-06   520   0.163E-03
   9 F= -.52974647E+02 E0= -.52974647E+02  d E =-.585847E-01  mag=     2.0000
       N       E                     dE             d eps       ncg     rms          rms(c)
DAV:   1    -0.529973102461E+02   -0.22725E-01   -0.54543E+01   736   0.148E+01    0.477E-01
DAV:   2    -0.530210099932E+02   -0.23700E-01   -0.25222E-01   800   0.139E+00    0.352E-01
DAV:   3    -0.530206900170E+02    0.31998E-03   -0.46660E-03   808   0.186E-01    0.219E-01
DAV:   4    -0.530203094855E+02    0.38053E-03   -0.16067E-03   792   0.997E-02    0.626E-02
DAV:   5    -0.530203460726E+02   -0.36587E-04   -0.72181E-05   512   0.327E-02
  10 F= -.53020346E+02 E0= -.53020346E+02  d E =-.456989E-01  mag=     2.0000
       N       E                     dE             d eps       ncg     rms          rms(c)
DAV:   1    -0.530204351024E+02   -0.12562E-03   -0.13891E+00   784   0.236E+00    0.773E-02
DAV:   2    -0.530210572054E+02   -0.62210E-03   -0.66095E-03   800   0.224E-01    0.535E-02
DAV:   3    -0.530210683530E+02   -0.11148E-04   -0.10760E-04   472   0.302E-02
  11 F= -.53021068E+02 E0= -.53021068E+02  d E =-.464212E-01  mag=     2.0000
       N       E                     dE             d eps       ncg     rms          rms(c)
DAV:   1    -0.530280191693E+02   -0.69620E-02   -0.14347E+01   768   0.762E+00    0.183E-01
DAV:   2    -0.530343396031E+02   -0.63204E-02   -0.66382E-02   760   0.742E-01    0.169E-01
DAV:   3    -0.530342529093E+02    0.86694E-04   -0.12322E-03   816   0.105E-01    0.115E-01
DAV:   4    -0.530340328137E+02    0.22010E-03   -0.40851E-04   736   0.474E-02    0.577E-02
DAV:   5    -0.530340332831E+02   -0.46937E-06   -0.16668E-04   512   0.309E-02
  12 F= -.53034033E+02 E0= -.53034033E+02  d E =-.129649E-01  mag=     2.0000
       N       E                     dE             d eps       ncg     rms          rms(c)
DAV:   1    -0.530277212668E+02    0.63115E-02   -0.26165E+01   736   0.103E+01    0.245E-01
DAV:   2    -0.530392476493E+02   -0.11526E-01   -0.12182E-01   776   0.100E+00    0.224E-01
DAV:   3    -0.530390994047E+02    0.14824E-03   -0.22603E-03   816   0.143E-01    0.150E-01
DAV:   4    -0.530387373370E+02    0.36207E-03   -0.66388E-04   768   0.611E-02    0.787E-02
DAV:   5    -0.530387483859E+02   -0.11049E-04   -0.29513E-04   600   0.394E-02
  13 F= -.53038748E+02 E0= -.53038748E+02  d E =-.176800E-01  mag=     2.0000
       N       E                     dE             d eps       ncg     rms          rms(c)
DAV:   1    -0.530399406629E+02   -0.12033E-02   -0.12984E+01   752   0.724E+00    0.150E-01
DAV:   2    -0.530458105928E+02   -0.58699E-02   -0.60421E-02   776   0.699E-01    0.137E-01
DAV:   3    -0.530457588146E+02    0.51778E-04   -0.10322E-03   824   0.923E-02    0.938E-02
DAV:   4    -0.530456144032E+02    0.14441E-03   -0.24538E-04   504   0.369E-02    0.532E-02
DAV:   5    -0.530456492675E+02   -0.34864E-04   -0.24647E-04   520   0.373E-02
  14 F= -.53045649E+02 E0= -.53045649E+02  d E =-.690088E-02  mag=     2.0000
       N       E                     dE             d eps       ncg     rms          rms(c)
DAV:   1    -0.530399107455E+02    0.57037E-02   -0.17742E+01   744   0.846E+00    0.179E-01
DAV:   2    -0.530479300810E+02   -0.80193E-02   -0.82806E-02   776   0.818E-01    0.160E-01
DAV:   3    -0.530478385056E+02    0.91575E-04   -0.14149E-03   816   0.108E-01    0.109E-01
DAV:   4    -0.530476086246E+02    0.22988E-03   -0.36685E-04   712   0.439E-02    0.590E-02
DAV:   5    -0.530476175850E+02   -0.89603E-05   -0.23858E-04   528   0.356E-02
  15 F= -.53047618E+02 E0= -.53047618E+02  d E =-.886920E-02  mag=     2.0000
       N       E                     dE             d eps       ncg     rms          rms(c)
DAV:   1    -0.530456245716E+02    0.19841E-02   -0.19355E+01   736   0.883E+00    0.175E-01
DAV:   2    -0.530543448260E+02   -0.87203E-02   -0.88148E-02   784   0.839E-01    0.148E-01
DAV:   3    -0.530542237028E+02    0.12112E-03   -0.14080E-03   800   0.107E-01    0.105E-01
DAV:   4    -0.530539739209E+02    0.24978E-03   -0.41102E-04   752   0.436E-02    0.518E-02
DAV:   5    -0.530539869629E+02   -0.13042E-04   -0.23266E-04   504   0.343E-02
  16 F= -.53053987E+02 E0= -.53053987E+02  d E =-.636938E-02  mag=     2.0000
       N       E                     dE             d eps       ncg     rms          rms(c)
DAV:   1    -0.530490333221E+02    0.49406E-02   -0.13831E+01   736   0.746E+00    0.151E-01
DAV:   2    -0.530552791796E+02   -0.62459E-02   -0.63052E-02   776   0.709E-01    0.126E-01
DAV:   3    -0.530551975027E+02    0.81677E-04   -0.10049E-03   808   0.901E-02    0.885E-02
DAV:   4    -0.530550354819E+02    0.16202E-03   -0.28523E-04   544   0.373E-02    0.434E-02
DAV:   5    -0.530550750604E+02   -0.39578E-04   -0.19865E-04   504   0.337E-02
  17 F= -.53055075E+02 E0= -.53055075E+02  d E =-.745748E-02  mag=     2.0000
       N       E                     dE             d eps       ncg     rms          rms(c)
DAV:   1    -0.530529584526E+02    0.20770E-02   -0.97339E+00   736   0.627E+00    0.142E-01
DAV:   2    -0.530574377377E+02   -0.44793E-02   -0.45221E-02   792   0.598E-01    0.122E-01
DAV:   3    -0.530574095182E+02    0.28220E-04   -0.73040E-04   816   0.744E-02
  18 F= -.53057410E+02 E0= -.53057410E+02  d E =-.233446E-02  mag=     2.0000
       N       E                     dE             d eps       ncg     rms          rms(c)
DAV:   1    -0.530573465352E+02    0.91203E-04   -0.19970E-02   784   0.281E-01    0.348E-02
DAV:   2    -0.530573907637E+02   -0.44229E-04   -0.11510E-04   496   0.353E-02
  19 F= -.53057391E+02 E0= -.53057391E+02  d E =-.231570E-02  mag=     2.0000
       N       E                     dE             d eps       ncg     rms          rms(c)
DAV:   1    -0.530573504703E+02   -0.39351E-05   -0.22513E+00   768   0.301E+00    0.705E-02
DAV:   2    -0.530583877271E+02   -0.10373E-02   -0.10210E-02   800   0.281E-01    0.579E-02
DAV:   3    -0.530583899375E+02   -0.22103E-05   -0.14655E-04   512   0.339E-02
  20 F= -.53058390E+02 E0= -.53058390E+02  d E =-.999174E-03  mag=     2.0000
       N       E                     dE             d eps       ncg     rms          rms(c)
DAV:   1    -0.530583143243E+02    0.73403E-04   -0.73825E-02   792   0.543E-01    0.106E-02
DAV:   2    -0.530583652823E+02   -0.50958E-04   -0.33656E-04   640   0.532E-02
  21 F= -.53058365E+02 E0= -.53058365E+02  d E =-.974519E-03  mag=     2.0000
