<?xml version="1.0" encoding="ISO-8859-1"?>
<modeling>
 <generator>
  <i name="program" type="string">vasp </i>
  <i name="version" type="string">5.3.5  </i>
  <i name="subversion" type="string">31Mar14 (build Feb 01 2018 12:10:03) gamma-only                       parallel </i>
  <i name="platform" type="string">LinuxIFC </i>
  <i name="date" type="string">2019 03 24 </i>
  <i name="time" type="string">21:00:09 </i>
 </generator>
 <incar>
  <i type="string" name="PREC">normal</i>
  <i type="int" name="ISPIN">     2</i>
  <i type="int" name="IBRION">     2</i>
  <i type="int" name="NSW">  1000</i>
  <i type="int" name="ISIF">     2</i>
  <i name="POTIM">      0.10000000</i>
  <i type="logical" name="LPLANE"> T  </i>
  <i type="int" name="ISMEAR">     0</i>
  <i name="SIGMA">      0.00010000</i>
  <i type="logical" name="LWAVE"> F  </i>
  <i type="logical" name="LCHARG"> F  </i>
  <i type="logical" name="LVTOT"> F  </i>
  <i type="string" name="GGA"> PE</i>
 </incar>
 <kpoints>
  <varray name="kpointlist" >
   <v>       0.00000000       0.00000000       0.00000000 </v>
  </varray>
  <varray name="weights" >
   <v>       1.00000000 </v>
  </varray>
 </kpoints>
 <parameters>
  <separator name="general" >
   <i type="string" name="SYSTEM">unknown system</i>
   <i type="logical" name="LCOMPAT"> F  </i>
  </separator>
  <separator name="electronic" >
   <i type="string" name="PREC">normal</i>
   <i name="ENMAX">    249.84400000</i>
   <i name="ENAUG">    412.49600000</i>
   <i name="EDIFF">      0.00010000</i>
   <i type="int" name="IALGO">    38</i>
   <i type="int" name="IWAVPR">    11</i>
   <i type="int" name="NBANDS">   348</i>
   <i name="NELECT">    539.00000000</i>
   <i type="int" name="TURBO">     0</i>
   <i type="int" name="IRESTART">     0</i>
   <i type="int" name="NREBOOT">     0</i>
   <i type="int" name="NMIN">     0</i>
   <i name="EREF">      0.00000000</i>
   <separator name="electronic smearing" >
    <i type="int" name="ISMEAR">     0</i>
    <i name="SIGMA">      0.00010000</i>
    <i name="KSPACING">      0.50000000</i>
    <i type="logical" name="KGAMMA"> T  </i>
   </separator>
   <separator name="electronic projectors" >
    <i type="logical" name="LREAL"> F  </i>
    <v name="ROPT">      0.00000000</v>
    <i type="int" name="LMAXPAW">  -100</i>
    <i type="int" name="LMAXMIX">     2</i>
    <i type="logical" name="NLSPLINE"> F  </i>
   </separator>
   <separator name="electronic startup" >
    <i type="int" name="ISTART">     0</i>
    <i type="int" name="ICHARG">     2</i>
    <i type="int" name="INIWAV">     1</i>
   </separator>
   <separator name="electronic spin" >
    <i type="int" name="ISPIN">     2</i>
    <i type="logical" name="LNONCOLLINEAR"> F  </i>
    <v name="MAGMOM">      1.00000000      1.00000000      1.00000000      1.00000000      1.00000000      1.00000000      1.00000000      1.00000000      1.00000000      1.00000000      1.00000000      1.00000000      1.00000000      1.00000000      1.00000000      1.00000000      1.00000000      1.00000000      1.00000000      1.00000000
      1.00000000      1.00000000      1.00000000      1.00000000      1.00000000      1.00000000      1.00000000      1.00000000      1.00000000      1.00000000      1.00000000      1.00000000      1.00000000      1.00000000      1.00000000      1.00000000      1.00000000      1.00000000      1.00000000      1.00000000
      1.00000000      1.00000000      1.00000000      1.00000000      1.00000000      1.00000000      1.00000000      1.00000000      1.00000000</v>
    <i name="NUPDOWN">     -1.00000000</i>
    <i type="logical" name="LSORBIT"> F  </i>
    <v name="SAXIS">      0.00000000      0.00000000      1.00000000</v>
    <i type="logical" name="LSPIRAL"> F  </i>
    <v name="QSPIRAL">      0.00000000      0.00000000      0.00000000</v>
    <i type="logical" name="LZEROZ"> F  </i>
   </separator>
   <separator name="electronic exchange-correlation" >
    <i type="logical" name="LASPH"> F  </i>
    <i type="logical" name="LMETAGGA"> F  </i>
   </separator>
   <separator name="electronic convergence" >
    <i type="int" name="NELM">    60</i>
    <i type="int" name="NELMDL">    -5</i>
    <i type="int" name="NELMIN">     2</i>
    <i name="ENINI">    249.84400000</i>
    <separator name="electronic convergence detail" >
     <i type="logical" name="LDIAG"> T  </i>
     <i type="logical" name="LSUBROT"> F  </i>
     <i name="WEIMIN">      0.00100000</i>
     <i name="EBREAK">      0.00000007</i>
     <i name="DEPER">      0.30000000</i>
     <i type="int" name="NRMM">     4</i>
     <i name="TIME">      0.40000000</i>
    </separator>
   </separator>
   <separator name="electronic mixer" >
    <i name="AMIX">      0.40000000</i>
    <i name="BMIX">      1.00000000</i>
    <i name="AMIN">      0.10000000</i>
    <i name="AMIX_MAG">      1.60000000</i>
    <i name="BMIX_MAG">      1.00000000</i>
    <separator name="electronic mixer details" >
     <i type="int" name="IMIX">     4</i>
     <i type="int" name="MAXMIX">   -45</i>
     <i name="WC">    100.00000000</i>
     <i type="int" name="INIMIX">     1</i>
     <i type="int" name="MIXPRE">     1</i>
     <i type="int" name="MREMOVE">     5</i>
    </separator>
   </separator>
   <separator name="electronic dipolcorrection" >
    <i type="logical" name="LDIPOL"> F  </i>
    <i type="logical" name="LMONO"> F  </i>
    <i type="int" name="IDIPOL">     0</i>
    <i name="EPSILON">      1.00000000</i>
    <v name="DIPOL">   -100.00000000   -100.00000000   -100.00000000</v>
    <i name="EFIELD">      0.00000000</i>
   </separator>
  </separator>
  <separator name="grids" >
   <i type="int" name="NGX">    90</i>
   <i type="int" name="NGY">    90</i>
   <i type="int" name="NGZ">    90</i>
   <i type="int" name="NGXF">   180</i>
   <i type="int" name="NGYF">   180</i>
   <i type="int" name="NGZF">   180</i>
   <i type="logical" name="ADDGRID"> F  </i>
  </separator>
  <separator name="ionic" >
   <i type="int" name="NSW">  1000</i>
   <i type="int" name="IBRION">     2</i>
   <i type="int" name="ISIF">     2</i>
   <i name="PSTRESS">      0.00000000</i>
   <i name="EDIFFG">      0.00100000</i>
   <i type="int" name="NFREE">     1</i>
   <i name="POTIM">      0.10000000</i>
   <i name="SMASS">     -3.00000000</i>
   <i name="SCALEE">      1.00000000</i>
  </separator>
  <separator name="ionic md" >
   <i name="TEBEG">      0.00010000</i>
   <i name="TEEND">      0.00010000</i>
   <i type="int" name="NBLOCK">     1</i>
   <i type="int" name="KBLOCK">  1000</i>
   <i type="int" name="NPACO">   256</i>
   <i name="APACO">     16.00000000</i>
  </separator>
  <separator name="symmetry" >
   <i type="int" name="ISYM">     2</i>
   <i name="SYMPREC">      0.00001000</i>
  </separator>
  <separator name="dos" >
   <i type="logical" name="LORBIT"> F  </i>
   <v name="RWIGS">     -1.00000000</v>
   <i type="int" name="NEDOS">   301</i>
   <i name="EMIN">     10.00000000</i>
   <i name="EMAX">    -10.00000000</i>
   <i name="EFERMI">      0.00000000</i>
  </separator>
  <separator name="writing" >
   <i type="int" name="NWRITE">     2</i>
   <i type="logical" name="LWAVE"> F  </i>
   <i type="logical" name="LCHARG"> F  </i>
   <i type="logical" name="LPARD"> F  </i>
   <i type="logical" name="LVTOT"> F  </i>
   <i type="logical" name="LVHAR"> F  </i>
   <i type="logical" name="LELF"> F  </i>
   <i type="logical" name="LOPTICS"> F  </i>
   <v name="STM">      0.00000000      0.00000000      0.00000000      0.00000000      0.00000000      0.00000000      0.00000000</v>
  </separator>
  <separator name="performance" >
   <i type="int" name="NPAR">     4</i>
   <i type="int" name="NSIM">     4</i>
   <i type="int" name="NBLK">    -1</i>
   <i type="logical" name="LPLANE"> T  </i>
   <i type="logical" name="LSCALAPACK"> T  </i>
   <i type="logical" name="LSCAAWARE"> F  </i>
   <i type="logical" name="LSCALU"> F  </i>
   <i type="logical" name="LASYNC"> F  </i>
   <i type="logical" name="LORBITALREAL"> F  </i>
  </separator>
  <separator name="miscellaneous" >
   <i type="int" name="IDIOT">     3</i>
   <i type="logical" name="LMUSIC"> F  </i>
   <v name="POMASS">    107.86800000</v>
   <v name="DARWINR">      0.00000000</v>
   <v name="DARWINV">      1.00000000</v>
   <i type="logical" name="LCORR"> T  </i>
  </separator>
  <i type="logical" name="GGA_COMPAT"> T  </i>
  <i type="logical" name="LBERRY"> F  </i>
  <i type="int" name="ICORELEVEL">     0</i>
  <i type="logical" name="LDAU"> F  </i>
  <i type="int" name="I_CONSTRAINED_M">     0</i>
  <separator name="electronic exchange-correlation" >
   <i type="string" name="GGA">PE</i>
   <i type="int" name="VOSKOWN">     0</i>
   <i type="logical" name="LHFCALC"> F  </i>
   <i type="string" name="PRECFOCK"></i>
   <i type="logical" name="LSYMGRAD"> F  </i>
   <i type="logical" name="LHFONE"> F  </i>
   <i type="logical" name="LRHFCALC"> F  </i>
   <i type="logical" name="LTHOMAS"> F  </i>
   <i type="logical" name="LMODELHF"> F  </i>
   <i name="ENCUT4O">     -1.00000000</i>
   <i type="int" name="EXXOEP">     0</i>
   <i type="int" name="FOURORBIT">     0</i>
   <i name="AEXX">      0.00000000</i>
   <i name="HFALPHA">      0.00000000</i>
   <i name="MCALPHA">      0.00000000</i>
   <i name="ALDAX">      1.00000000</i>
   <i name="AGGAX">      1.00000000</i>
   <i name="ALDAC">      1.00000000</i>
   <i name="AGGAC">      1.00000000</i>
   <i type="int" name="NKREDX">     1</i>
   <i type="int" name="NKREDY">     1</i>
   <i type="int" name="NKREDZ">     1</i>
   <i type="logical" name="SHIFTRED"> F  </i>
   <i type="logical" name="ODDONLY"> F  </i>
   <i type="logical" name="EVENONLY"> F  </i>
   <i type="int" name="LMAXFOCK">     0</i>
   <i type="int" name="NMAXFOCKAE">     0</i>
   <i type="logical" name="LFOCKAEDFT"> F  </i>
   <i name="HFSCREEN">      0.00000000</i>
   <i name="HFSCREENC">      0.00000000</i>
   <i type="int" name="NBANDSGWLOW">     0</i>
  </separator>
  <separator name="vdW DFT" >
   <i type="logical" name="LUSE_VDW"> F  </i>
   <i name="Zab_VDW">     -0.84910000</i>
   <i name="PARAM1">      0.12340000</i>
   <i name="PARAM2">      1.00000000</i>
   <i name="PARAM3">      0.00000000</i>
  </separator>
  <separator name="model GW" >
   <i type="int" name="MODEL_GW">     0</i>
   <i name="MODEL_EPS0">    145.38549728</i>
   <i name="MODEL_ALPHA">      1.00000000</i>
  </separator>
  <separator name="linear response parameters" >
   <i type="logical" name="LEPSILON"> F  </i>
   <i type="logical" name="LRPA"> F  </i>
   <i type="logical" name="LNABLA"> F  </i>
   <i type="logical" name="LVEL"> F  </i>
   <i type="int" name="KINTER">     0</i>
   <i name="CSHIFT">      0.10000000</i>
   <i name="OMEGAMAX">     -1.00000000</i>
   <i name="DEG_THRESHOLD">      0.00200000</i>
  </separator>
  <separator name="orbital magnetization" >
   <i type="logical" name="NUCIND"> F  </i>
   <v name="MAGPOS">      0.00000000      0.00000000      0.00000000</v>
   <i type="logical" name="LNICSALL"> T  </i>
   <i type="logical" name="ORBITALMAG"> F  </i>
   <i type="logical" name="LMAGBLOCH"> F  </i>
   <i type="logical" name="LCHIMAG"> F  </i>
   <i type="logical" name="LGAUGE"> T  </i>
   <i type="int" name="MAGATOM">     0</i>
   <v name="MAGDIPOL">      0.00000000      0.00000000      0.00000000</v>
   <v name="AVECCONST">      0.00000000      0.00000000      0.00000000</v>
  </separator>
  <separator name="response functions" >
   <i type="logical" name="LADDER"> F  </i>
   <i type="logical" name="LFXC"> F  </i>
   <i type="logical" name="LHARTREE"> T  </i>
   <i type="int" name="IBSE">     0</i>
   <i type="logical" name="LTCTE"> F  </i>
   <i type="logical" name="LTETE"> F  </i>
   <i type="logical" name="LTRIPLET"> F  </i>
   <i type="logical" name="LFXCEPS"> F  </i>
   <i type="logical" name="LFXHEG"> F  </i>
   <i type="logical" name="L2ORDER"> F  </i>
   <i type="logical" name="LUSEW"> F  </i>
   <i name="ENCUTGW">     -2.00000000</i>
   <i name="ENCUTGWSOFT">     -2.00000000</i>
   <i name="ENCUTLF">     -1.00000000</i>
   <i type="int" name="LMAXMP2">    -1</i>
   <i name="SCISSOR">      0.00000000</i>
   <i type="int" name="NOMEGA">     0</i>
   <i type="int" name="NOMEGAR">     0</i>
   <i type="int" name="NBANDSGW">    -1</i>
   <i type="int" name="NBANDSO">    -1</i>
   <i type="int" name="NBANDSV">    -1</i>
   <i type="int" name="NELM">     1</i>
   <i type="int" name="DIM">     3</i>
   <i type="int" name="ANTIRES">     0</i>
   <i name="OMEGAMAX">    -30.00000000</i>
   <i name="OMEGAMIN">    -30.00000000</i>
   <i name="OMEGATL">   -200.00000000</i>
   <i type="int" name="OMEGAGRID">     0</i>
   <i name="CSHIFT">     -0.10000000</i>
   <i type="logical" name="SELFENERGY"> F  </i>
   <i type="logical" name="LSPECTRAL"> F  </i>
   <i type="logical" name="ODDONLYGW"> F  </i>
   <i type="logical" name="EVENONLYGW"> F  </i>
   <i type="int" name="NKREDLFX">     1</i>
   <i type="int" name="NKREDLFY">     1</i>
   <i type="int" name="NKREDLFZ">     1</i>
   <i type="int" name="MAXMEM">  1800</i>
   <i type="int" name="TELESCOPE">     0</i>
   <i type="int" name="TAUPAR">     1</i>
  </separator>
  <separator name="External order field" >
   <i name="OFIELD_KAPPA">      0.00000000</i>
   <v name="OFIELD_K">      0.00000000      0.00000000      0.00000000</v>
   <i name="OFIELD_Q6_NEAR">      0.00000000</i>
   <i name="OFIELD_Q6_FAR">      0.00000000</i>
   <i name="OFIELD_A">      0.00000000</i>
  </separator>
 </parameters>
 <atominfo>
  <atoms>      49 </atoms>
  <types>       1 </types>
  <array name="atoms" >
   <dimension dim="1">ion</dimension>
   <field type="string">element</field>
   <field type="int">atomtype</field>
   <set>
    <rc><c>Ag</c><c>   1</c></rc>
    <rc><c>Ag</c><c>   1</c></rc>
    <rc><c>Ag</c><c>   1</c></rc>
    <rc><c>Ag</c><c>   1</c></rc>
    <rc><c>Ag</c><c>   1</c></rc>
    <rc><c>Ag</c><c>   1</c></rc>
    <rc><c>Ag</c><c>   1</c></rc>
    <rc><c>Ag</c><c>   1</c></rc>
    <rc><c>Ag</c><c>   1</c></rc>
    <rc><c>Ag</c><c>   1</c></rc>
    <rc><c>Ag</c><c>   1</c></rc>
    <rc><c>Ag</c><c>   1</c></rc>
    <rc><c>Ag</c><c>   1</c></rc>
    <rc><c>Ag</c><c>   1</c></rc>
    <rc><c>Ag</c><c>   1</c></rc>
    <rc><c>Ag</c><c>   1</c></rc>
    <rc><c>Ag</c><c>   1</c></rc>
    <rc><c>Ag</c><c>   1</c></rc>
    <rc><c>Ag</c><c>   1</c></rc>
    <rc><c>Ag</c><c>   1</c></rc>
    <rc><c>Ag</c><c>   1</c></rc>
    <rc><c>Ag</c><c>   1</c></rc>
    <rc><c>Ag</c><c>   1</c></rc>
    <rc><c>Ag</c><c>   1</c></rc>
    <rc><c>Ag</c><c>   1</c></rc>
    <rc><c>Ag</c><c>   1</c></rc>
    <rc><c>Ag</c><c>   1</c></rc>
    <rc><c>Ag</c><c>   1</c></rc>
    <rc><c>Ag</c><c>   1</c></rc>
    <rc><c>Ag</c><c>   1</c></rc>
    <rc><c>Ag</c><c>   1</c></rc>
    <rc><c>Ag</c><c>   1</c></rc>
    <rc><c>Ag</c><c>   1</c></rc>
    <rc><c>Ag</c><c>   1</c></rc>
    <rc><c>Ag</c><c>   1</c></rc>
    <rc><c>Ag</c><c>   1</c></rc>
    <rc><c>Ag</c><c>   1</c></rc>
    <rc><c>Ag</c><c>   1</c></rc>
    <rc><c>Ag</c><c>   1</c></rc>
    <rc><c>Ag</c><c>   1</c></rc>
    <rc><c>Ag</c><c>   1</c></rc>
    <rc><c>Ag</c><c>   1</c></rc>
    <rc><c>Ag</c><c>   1</c></rc>
    <rc><c>Ag</c><c>   1</c></rc>
    <rc><c>Ag</c><c>   1</c></rc>
    <rc><c>Ag</c><c>   1</c></rc>
    <rc><c>Ag</c><c>   1</c></rc>
    <rc><c>Ag</c><c>   1</c></rc>
    <rc><c>Ag</c><c>   1</c></rc>
   </set>
  </array>
  <array name="atomtypes" >
   <dimension dim="1">type</dimension>
   <field type="int">atomspertype</field>
   <field type="string">element</field>
   <field>mass</field>
   <field>valence</field>
   <field type="string">pseudopotential</field>
   <set>
    <rc><c>  49</c><c>Ag</c><c>    107.86800000</c><c>     11.00000000</c><c>  PAW_PBE Ag 02Apr2005                  </c></rc>
   </set>
  </array>
 </atominfo>
 <structure name="initialpos" >
  <crystal>
   <varray name="basis" >
    <v>      22.81332769       0.00000000       0.00000000 </v>
    <v>       0.00000000      22.81332769       0.00000000 </v>
    <v>       0.00000000       0.00000000      22.81332769 </v>
   </varray>
   <i name="volume">  11873.14894456 </i>
   <varray name="rec_basis" >
    <v>       0.04383403       0.00000000       0.00000000 </v>
    <v>       0.00000000       0.04383403       0.00000000 </v>
    <v>       0.00000000       0.00000000       0.04383403 </v>
   </varray>
  </crystal>
  <varray name="positions" >
   <v>       0.69474181       0.42773731       0.41271657 </v>
   <v>       0.70976231       0.52125540       0.34945049 </v>
   <v>       0.60589060       0.46791914       0.33858295 </v>
   <v>       0.74714728       0.52248888       0.46559111 </v>
   <v>       0.57737300       0.41321052       0.44355324 </v>
   <v>       0.66745714       0.43945754       0.52928827 </v>
   <v>       0.49587461       0.40087540       0.35089922 </v>
   <v>       0.60312094       0.58402010       0.33930121 </v>
   <v>       0.50080528       0.31591144       0.43680171 </v>
   <v>       0.63425511       0.52709961       0.44245852 </v>
   <v>       0.70621974       0.61673345       0.39779703 </v>
   <v>       0.49339422       0.53208549       0.29937234 </v>
   <v>       0.53249194       0.35753798       0.54702464 </v>
   <v>       0.40733918       0.45877306       0.34668131 </v>
   <v>       0.72182810       0.53290748       0.57774909 </v>
   <v>       0.54331910       0.47258227       0.54194477 </v>
   <v>       0.51315993       0.51741265       0.40405010 </v>
   <v>       0.39140796       0.35111908       0.40137049 </v>
   <v>       0.45346994       0.42163239       0.46400933 </v>
   <v>       0.60353327       0.65913556       0.43417639 </v>
   <v>       0.49643282       0.64031931       0.37406113 </v>
   <v>       0.64001289       0.48841453       0.63938406 </v>
   <v>       0.70095621       0.62970365       0.51298114 </v>
   <v>       0.41588212       0.31396643       0.52123638 </v>
   <v>       0.45777893       0.31708761       0.63260397 </v>
   <v>       0.42903612       0.42129348       0.58689791 </v>
   <v>       0.60487448       0.56381465       0.55369433 </v>
   <v>       0.39332105       0.56513443       0.37453707 </v>
   <v>       0.60227371       0.68663419       0.54449790 </v>
   <v>       0.32671340       0.46538378       0.42660042 </v>
   <v>       0.65371107       0.61359508       0.63309163 </v>
   <v>       0.33224584       0.37926181       0.50126743 </v>
   <v>       0.52959607       0.41683018       0.65740030 </v>
   <v>       0.40388059       0.65361259       0.44230298 </v>
   <v>       0.49709503       0.70745735       0.49123053 </v>
   <v>       0.40378680       0.52993922       0.49357104 </v>
   <v>       0.45246720       0.53643961       0.59772213 </v>
   <v>       0.34156239       0.36245602       0.62102959 </v>
   <v>       0.42078293       0.39391950       0.70357584 </v>
   <v>       0.50753449       0.60078534       0.49641586 </v>
   <v>       0.54976573       0.54624296       0.66447056 </v>
   <v>       0.51899067       0.64940481       0.60913397 </v>
   <v>       0.31462901       0.58172925       0.48055577 </v>
   <v>       0.30967107       0.47188500       0.55651040 </v>
   <v>       0.46057481       0.49377250       0.71581409 </v>
   <v>       0.35137688       0.48488418       0.67351319 </v>
   <v>       0.40645328       0.64493933       0.55698223 </v>
   <v>       0.41740945       0.59713655       0.67909800 </v>
   <v>       0.33064970       0.57269786       0.60120674 </v>
  </varray>
 </structure>
 <calculation>
  <scstep>
   <time name="dav">    5.63    5.64</time>
   <time name="total">    5.86    5.88</time>
   <energy>
    <i name="alphaZ">    172.00474391 </i>
    <i name="ewald"> 152520.32851044 </i>
    <i name="hartreedc">-201348.72900821 </i>
    <i name="XCdc">   -522.90716131 </i>
    <i name="pawpsdc">  49165.23672541 </i>
    <i name="pawaedc"> -46905.96583506 </i>
    <i name="eentropy">      0.00000000 </i>
    <i name="bandstr">    573.60886347 </i>
    <i name="atom">  50822.73287423 </i>
    <i name="e_fr_energy">   4476.30971288 </i>
    <i name="e_wo_entrp">   4476.30971288 </i>
    <i name="e_0_energy">   4476.30971288 </i>
   </energy>
  </scstep>
  <scstep>
   <time name="dav">    7.98    7.99</time>
   <time name="total">    7.98    8.47</time>
   <energy>
    <i name="e_fr_energy">    636.06308031 </i>
    <i name="e_wo_entrp">    636.06308031 </i>
    <i name="e_0_energy">    636.06308031 </i>
   </energy>
  </scstep>
  <scstep>
   <time name="dav">    6.47    6.48</time>
   <time name="total">    6.48    6.49</time>
   <energy>
    <i name="e_fr_energy">    -77.63455569 </i>
    <i name="e_wo_entrp">    -77.63455569 </i>
    <i name="e_0_energy">    -77.63455569 </i>
   </energy>
  </scstep>
  <scstep>
   <time name="dav">    5.90    5.90</time>
   <time name="total">    5.90    5.91</time>
   <energy>
    <i name="e_fr_energy">   -103.17080967 </i>
    <i name="e_wo_entrp">   -103.17080967 </i>
    <i name="e_0_energy">   -103.17080967 </i>
   </energy>
  </scstep>
  <scstep>
   <time name="dav">    6.02    6.02</time>
   <time name="total">    6.16    6.18</time>
   <energy>
    <i name="e_fr_energy">   -103.55490175 </i>
    <i name="e_wo_entrp">   -103.55490175 </i>
    <i name="e_0_energy">   -103.55490175 </i>
   </energy>
  </scstep>
  <scstep>
   <time name="dav">    5.58    5.59</time>
   <time name="total">    5.94    5.99</time>
   <energy>
    <i name="e_fr_energy">    -46.92037940 </i>
    <i name="e_wo_entrp">    -46.92037940 </i>
    <i name="e_0_energy">    -46.92037940 </i>
   </energy>
  </scstep>
  <scstep>
   <time name="dav">    5.75    5.76</time>
   <time name="total">    6.12    6.14</time>
   <energy>
    <i name="e_fr_energy">    -36.34422329 </i>
    <i name="e_wo_entrp">    -36.34422329 </i>
    <i name="e_0_energy">    -36.34422329 </i>
   </energy>
  </scstep>
  <scstep>
   <time name="dav">    5.88    5.88</time>
   <time name="total">    6.24    6.25</time>
   <energy>
    <i name="e_fr_energy">    -31.20165495 </i>
    <i name="e_wo_entrp">    -31.20165495 </i>
    <i name="e_0_energy">    -31.20165495 </i>
   </energy>
  </scstep>
  <scstep>
   <time name="dav">    5.95    5.95</time>
   <time name="total">    6.32    6.35</time>
   <energy>
    <i name="e_fr_energy">    -35.39339854 </i>
    <i name="e_wo_entrp">    -35.39339854 </i>
    <i name="e_0_energy">    -35.39339854 </i>
   </energy>
  </scstep>
  <scstep>
   <time name="dav">    5.76    5.76</time>
   <time name="total">    6.14    6.84</time>
   <energy>
    <i name="e_fr_energy">    -41.32989688 </i>
    <i name="e_wo_entrp">    -41.32989688 </i>
    <i name="e_0_energy">    -41.32989688 </i>
   </energy>
  </scstep>
  <scstep>
   <time name="dav">    5.65    5.66</time>
   <time name="total">    6.02    7.42</time>
   <energy>
    <i name="e_fr_energy">    -57.47912917 </i>
    <i name="e_wo_entrp">    -57.47912917 </i>
    <i name="e_0_energy">    -57.47912917 </i>
   </energy>
  </scstep>
  <scstep>
   <time name="dav">    5.74    5.75</time>
   <time name="total">    6.13    6.17</time>
   <energy>
    <i name="e_fr_energy">    -71.30011146 </i>
    <i name="e_wo_entrp">    -71.30011146 </i>
    <i name="e_0_energy">    -71.30011146 </i>
   </energy>
  </scstep>
  <scstep>
   <time name="dav">    5.86    5.86</time>
   <time name="total">    6.23    6.24</time>
   <energy>
    <i name="e_fr_energy">    -78.00256853 </i>
    <i name="e_wo_entrp">    -78.00256853 </i>
    <i name="e_0_energy">    -78.00256853 </i>
   </energy>
  </scstep>
  <scstep>
   <time name="dav">    5.67    5.68</time>
   <time name="total">    6.03    6.11</time>
   <energy>
    <i name="e_fr_energy">    -86.65592704 </i>
    <i name="e_wo_entrp">    -86.65592704 </i>
    <i name="e_0_energy">    -86.65592704 </i>
   </energy>
  </scstep>
  <scstep>
   <time name="dav">    5.86    5.87</time>
   <time name="total">    6.23    6.23</time>
   <energy>
    <i name="e_fr_energy">    -89.63967816 </i>
    <i name="e_wo_entrp">    -89.63967816 </i>
    <i name="e_0_energy">    -89.63967816 </i>
   </energy>
  </scstep>
  <scstep>
   <time name="dav">    5.73    5.74</time>
   <time name="total">    6.10    6.13</time>
   <energy>
    <i name="e_fr_energy">    -93.90927007 </i>
    <i name="e_wo_entrp">    -93.90927007 </i>
    <i name="e_0_energy">    -93.90927007 </i>
   </energy>
  </scstep>
  <scstep>
   <time name="dav">    5.66    5.66</time>
   <time name="total">    6.03    6.06</time>
   <energy>
    <i name="e_fr_energy">    -97.28548610 </i>
    <i name="e_wo_entrp">    -97.28548610 </i>
    <i name="e_0_energy">    -97.28548610 </i>
   </energy>
  </scstep>
  <scstep>
   <time name="dav">    6.10    6.11</time>
   <time name="total">    6.47    6.50</time>
   <energy>
    <i name="e_fr_energy">    -97.53309157 </i>
    <i name="e_wo_entrp">    -97.53309157 </i>
    <i name="e_0_energy">    -97.53309157 </i>
   </energy>
  </scstep>
  <scstep>
   <time name="dav">    5.75    5.75</time>
   <time name="total">    6.12    6.14</time>
   <energy>
    <i name="e_fr_energy">    -98.34632107 </i>
    <i name="e_wo_entrp">    -98.34632107 </i>
    <i name="e_0_energy">    -98.34632107 </i>
   </energy>
  </scstep>
  <scstep>
   <time name="dav">    5.74    5.74</time>
   <time name="total">    6.10    6.18</time>
   <energy>
    <i name="e_fr_energy">    -99.74835869 </i>
    <i name="e_wo_entrp">    -99.74835869 </i>
    <i name="e_0_energy">    -99.74835869 </i>
   </energy>
  </scstep>
  <scstep>
   <time name="dav">    5.84    5.84</time>
   <time name="total">    6.21    6.46</time>
   <energy>
    <i name="e_fr_energy">   -100.36717492 </i>
    <i name="e_wo_entrp">   -100.36717492 </i>
    <i name="e_0_energy">   -100.36717492 </i>
   </energy>
  </scstep>
  <scstep>
   <time name="dav">    5.84    5.84</time>
   <time name="total">    6.21    6.30</time>
   <energy>
    <i name="e_fr_energy">   -100.62372851 </i>
    <i name="e_wo_entrp">   -100.62372851 </i>
    <i name="e_0_energy">   -100.62372851 </i>
   </energy>
  </scstep>
  <scstep>
   <time name="dav">    5.79    5.80</time>
   <time name="total">    6.17    6.19</time>
   <energy>
    <i name="e_fr_energy">   -100.84440385 </i>
    <i name="e_wo_entrp">   -100.84440385 </i>
    <i name="e_0_energy">   -100.84440385 </i>
   </energy>
  </scstep>
  <scstep>
   <time name="dav">    4.68    4.69</time>
   <time name="total">    5.05    5.08</time>
   <energy>
    <i name="e_fr_energy">   -100.89467415 </i>
    <i name="e_wo_entrp">   -100.89467415 </i>
    <i name="e_0_energy">   -100.89467415 </i>
   </energy>
  </scstep>
  <scstep>
   <time name="dav">    4.71    4.72</time>
   <time name="total">    5.09    5.11</time>
   <energy>
    <i name="e_fr_energy">   -100.93519205 </i>
    <i name="e_wo_entrp">   -100.93519205 </i>
    <i name="e_0_energy">   -100.93519205 </i>
   </energy>
  </scstep>
  <scstep>
   <time name="dav">    4.42    4.43</time>
   <time name="total">    4.81    4.83</time>
   <energy>
    <i name="e_fr_energy">   -100.95265082 </i>
    <i name="e_wo_entrp">   -100.95265082 </i>
    <i name="e_0_energy">   -100.95265082 </i>
   </energy>
  </scstep>
  <scstep>
   <time name="dav">    4.48    4.49</time>
   <time name="total">    4.86    4.88</time>
   <energy>
    <i name="e_fr_energy">   -100.95949044 </i>
    <i name="e_wo_entrp">   -100.95949044 </i>
    <i name="e_0_energy">   -100.95949044 </i>
   </energy>
  </scstep>
  <scstep>
   <time name="dav">    4.33    4.34</time>
   <time name="total">    4.70    4.74</time>
   <energy>
    <i name="e_fr_energy">   -100.96550136 </i>
    <i name="e_wo_entrp">   -100.96550136 </i>
    <i name="e_0_energy">   -100.96550136 </i>
   </energy>
  </scstep>
  <scstep>
   <time name="dav">    4.21    4.21</time>
   <time name="total">    4.58    4.59</time>
   <energy>
    <i name="e_fr_energy">   -100.96921136 </i>
    <i name="e_wo_entrp">   -100.96921136 </i>
    <i name="e_0_energy">   -100.96921136 </i>
   </energy>
  </scstep>
  <scstep>
   <time name="dav">    4.27    4.27</time>
   <time name="total">    4.64    4.66</time>
   <energy>
    <i name="e_fr_energy">   -100.97108107 </i>
    <i name="e_wo_entrp">   -100.97108107 </i>
    <i name="e_0_energy">   -100.97108107 </i>
   </energy>
  </scstep>
  <scstep>
   <time name="dav">    4.06    4.07</time>
   <time name="total">    4.43    4.44</time>
   <energy>
    <i name="e_fr_energy">   -100.97166813 </i>
    <i name="e_wo_entrp">   -100.97166813 </i>
    <i name="e_0_energy">   -100.97166813 </i>
   </energy>
  </scstep>
  <scstep>
   <time name="dav">    4.16    4.16</time>
   <time name="total">    4.53    4.54</time>
   <energy>
    <i name="e_fr_energy">   -100.97180062 </i>
    <i name="e_wo_entrp">   -100.97180062 </i>
    <i name="e_0_energy">   -100.97180062 </i>
   </energy>
  </scstep>
  <scstep>
   <time name="dav">    4.08    4.09</time>
   <time name="total">    4.32    4.34</time>
   <energy>
    <i name="alphaZ">    172.00474391 </i>
    <i name="ewald"> 152520.32851044 </i>
    <i name="hartreedc">-201211.12779673 </i>
    <i name="XCdc">   -543.77038307 </i>
    <i name="pawpsdc">  54829.72264029 </i>
    <i name="pawaedc"> -52688.79183596 </i>
    <i name="eentropy">      0.00000000 </i>
    <i name="bandstr">  -4002.07059985 </i>
    <i name="atom">  50822.73287423 </i>
    <i name="e_fr_energy">   -100.97184673 </i>
    <i name="e_wo_entrp">   -100.97184673 </i>
    <i name="e_0_energy">   -100.97184673 </i>
   </energy>
  </scstep>
  <structure>
   <crystal>
    <varray name="basis" >
     <v>      22.81332769       0.00000000       0.00000000 </v>
     <v>       0.00000000      22.81332769       0.00000000 </v>
     <v>       0.00000000       0.00000000      22.81332769 </v>
    </varray>
    <i name="volume">  11873.14894456 </i>
    <varray name="rec_basis" >
     <v>       0.04383403       0.00000000       0.00000000 </v>
     <v>       0.00000000       0.04383403       0.00000000 </v>
     <v>       0.00000000       0.00000000       0.04383403 </v>
    </varray>
   </crystal>
   <varray name="positions" >
    <v>       0.69474181       0.42773731       0.41271657 </v>
    <v>       0.70976231       0.52125540       0.34945049 </v>
    <v>       0.60589060       0.46791914       0.33858295 </v>
    <v>       0.74714728       0.52248888       0.46559111 </v>
    <v>       0.57737300       0.41321052       0.44355324 </v>
    <v>       0.66745714       0.43945754       0.52928827 </v>
    <v>       0.49587461       0.40087540       0.35089922 </v>
    <v>       0.60312094       0.58402010       0.33930121 </v>
    <v>       0.50080528       0.31591144       0.43680171 </v>
    <v>       0.63425511       0.52709961       0.44245852 </v>
    <v>       0.70621974       0.61673345       0.39779703 </v>
    <v>       0.49339422       0.53208549       0.29937234 </v>
    <v>       0.53249194       0.35753798       0.54702464 </v>
    <v>       0.40733918       0.45877306       0.34668131 </v>
    <v>       0.72182810       0.53290748       0.57774909 </v>
    <v>       0.54331910       0.47258227       0.54194477 </v>
    <v>       0.51315993       0.51741265       0.40405010 </v>
    <v>       0.39140796       0.35111908       0.40137049 </v>
    <v>       0.45346994       0.42163239       0.46400933 </v>
    <v>       0.60353327       0.65913556       0.43417639 </v>
    <v>       0.49643282       0.64031931       0.37406113 </v>
    <v>       0.64001289       0.48841453       0.63938406 </v>
    <v>       0.70095621       0.62970365       0.51298114 </v>
    <v>       0.41588212       0.31396643       0.52123638 </v>
    <v>       0.45777893       0.31708761       0.63260397 </v>
    <v>       0.42903612       0.42129348       0.58689791 </v>
    <v>       0.60487448       0.56381465       0.55369433 </v>
    <v>       0.39332105       0.56513443       0.37453707 </v>
    <v>       0.60227371       0.68663419       0.54449790 </v>
    <v>       0.32671340       0.46538378       0.42660042 </v>
    <v>       0.65371107       0.61359508       0.63309163 </v>
    <v>       0.33224584       0.37926181       0.50126743 </v>
    <v>       0.52959607       0.41683018       0.65740030 </v>
    <v>       0.40388059       0.65361259       0.44230298 </v>
    <v>       0.49709503       0.70745735       0.49123053 </v>
    <v>       0.40378680       0.52993922       0.49357104 </v>
    <v>       0.45246720       0.53643961       0.59772213 </v>
    <v>       0.34156239       0.36245602       0.62102959 </v>
    <v>       0.42078293       0.39391950       0.70357584 </v>
    <v>       0.50753449       0.60078534       0.49641586 </v>
    <v>       0.54976573       0.54624296       0.66447056 </v>
    <v>       0.51899067       0.64940481       0.60913397 </v>
    <v>       0.31462901       0.58172925       0.48055577 </v>
    <v>       0.30967107       0.47188500       0.55651040 </v>
    <v>       0.46057481       0.49377250       0.71581409 </v>
    <v>       0.35137688       0.48488418       0.67351319 </v>
    <v>       0.40645328       0.64493933       0.55698223 </v>
    <v>       0.41740945       0.59713655       0.67909800 </v>
    <v>       0.33064970       0.57269786       0.60120674 </v>
   </varray>
  </structure>
  <varray name="forces" >
   <v>       0.30776093      -1.44066061       0.06882125 </v>
   <v>       0.88859746      -0.96894045      -1.81533740 </v>
   <v>      -0.66346463      -0.86845275      -0.73987065 </v>
   <v>       1.14831748      -0.05555879       0.01474069 </v>
   <v>       0.27706910      -0.45567683       0.01777595 </v>
   <v>      -0.35018242      -0.32427929      -0.01398098 </v>
   <v>       2.22368699      -1.04498456      -0.47299193 </v>
   <v>      -0.42796282       0.80094989      -0.69987899 </v>
   <v>       0.47420202      -0.73781267      -0.21882722 </v>
   <v>      -1.15939065       0.23415258       0.64606073 </v>
   <v>       0.49962630       2.00995072       0.15559239 </v>
   <v>      -0.06334830       0.35795865      -1.75486745 </v>
   <v>       0.33852019      -0.56083735      -0.12000717 </v>
   <v>      -1.30767618       0.12819719      -0.99630590 </v>
   <v>       1.41874927       0.15075322       0.22285100 </v>
   <v>      -0.82987806      -0.10149078      -0.08049247 </v>
   <v>       0.09796611      -0.22710679       1.97006230 </v>
   <v>      -0.84112307      -0.78393587      -0.81582871 </v>
   <v>       0.26500401       0.97650051       0.69520660 </v>
   <v>      -0.35642574       0.16081847      -0.53718908 </v>
   <v>       0.60713334      -0.08474283      -0.46427506 </v>
   <v>       0.22407233      -1.60717054       0.75961463 </v>
   <v>       0.30040118       0.44845512       0.11686800 </v>
   <v>       0.99578633      -1.47009541       0.27413430 </v>
   <v>       0.49074999      -1.60345004      -0.10458034 </v>
   <v>       0.51056661       0.99645140      -1.01948941 </v>
   <v>      -0.47266450      -0.03328682      -1.63065648 </v>
   <v>      -0.29734527       0.37040523      -0.39737346 </v>
   <v>       0.73773012       0.80991818       0.26846683 </v>
   <v>      -0.63944297       0.50314992       0.05471652 </v>
   <v>       0.88509710       1.52920519       2.01230332 </v>
   <v>      -1.32535999      -0.51190778      -0.42501992 </v>
   <v>       0.89716054       0.16706327      -0.18129832 </v>
   <v>      -0.69573803       1.02494529       0.09446024 </v>
   <v>      -0.05277271       2.12167769      -0.05230035 </v>
   <v>       2.37866406      -1.59650844      -0.03726613 </v>
   <v>       0.85526436      -0.69910029      -0.94315570 </v>
   <v>      -1.31966727      -0.64194334       0.23997609 </v>
   <v>      -0.95231384      -1.12740776       1.43834028 </v>
   <v>       0.32122069      -2.05456986      -0.16891175 </v>
   <v>      -0.39327785       0.82450502       0.59373790 </v>
   <v>      -0.86066068      -0.18901082       0.80353799 </v>
   <v>      -2.65579846       1.11471298      -0.44563290 </v>
   <v>      -0.55877623       0.25714024       0.17900431 </v>
   <v>       0.54139744       1.24121508       1.10215888 </v>
   <v>      -0.56389373      -0.17541533       0.14488651 </v>
   <v>       0.35666354       0.79813565       0.43634545 </v>
   <v>      -0.40947145       1.61398297       1.44571451 </v>
   <v>      -0.84477264       0.72410154       0.38016108 </v>
  </varray>
  <varray name="stress" >
   <v>       4.12305867      -0.44957333      -0.27882146 </v>
   <v>      -0.44957334       6.00122250       1.11529756 </v>
   <v>      -0.27882147       1.11529756       4.50221413 </v>
  </varray>
  <energy>
   <i name="e_fr_energy">   -100.97184673 </i>
   <i name="e_wo_entrp">   -100.97184673 </i>
   <i name="e_0_energy">      0.00000000 </i>
  </energy>
  <time name="totalsc">  201.22  206.69</time>
 </calculation>
 <calculation>
  <scstep>
   <time name="dav">    5.58    5.59</time>
   <time name="total">    5.95    6.07</time>
   <energy>
    <i name="alphaZ">    172.00474391 </i>
    <i name="ewald"> 151829.62067627 </i>
    <i name="hartreedc">-200528.29748198 </i>
    <i name="XCdc">   -544.85446392 </i>
    <i name="pawpsdc">  54829.71462415 </i>
    <i name="pawaedc"> -52688.78402605 </i>
    <i name="eentropy">      0.00000000 </i>
    <i name="bandstr">  -3994.11294849 </i>
    <i name="atom">  50822.73287423 </i>
    <i name="e_fr_energy">   -101.97600187 </i>
    <i name="e_wo_entrp">   -101.97600187 </i>
    <i name="e_0_energy">   -101.97600187 </i>
   </energy>
  </scstep>
  <scstep>
   <time name="dav">    5.80    5.80</time>
   <time name="total">    6.16    6.17</time>
   <energy>
    <i name="e_fr_energy">   -102.01190589 </i>
    <i name="e_wo_entrp">   -102.01190589 </i>
    <i name="e_0_energy">   -102.01190589 </i>
   </energy>
  </scstep>
  <scstep>
   <time name="dav">    5.84    5.85</time>
   <time name="total">    6.21    6.26</time>
   <energy>
    <i name="e_fr_energy">   -102.01024665 </i>
    <i name="e_wo_entrp">   -102.01024665 </i>
    <i name="e_0_energy">   -102.01024665 </i>
   </energy>
  </scstep>
  <scstep>
   <time name="dav">    5.90    5.91</time>
   <time name="total">    6.27    6.30</time>
   <energy>
    <i name="e_fr_energy">   -102.01010533 </i>
    <i name="e_wo_entrp">   -102.01010533 </i>
    <i name="e_0_energy">   -102.01010533 </i>
   </energy>
  </scstep>
  <scstep>
   <time name="dav">    4.63    4.64</time>
   <time name="total">    5.00    5.03</time>
   <energy>
    <i name="e_fr_energy">   -102.00998605 </i>
    <i name="e_wo_entrp">   -102.00998605 </i>
    <i name="e_0_energy">   -102.00998605 </i>
   </energy>
  </scstep>
  <scstep>
   <time name="dav">    4.17    4.18</time>
   <time name="total">    4.40    4.48</time>
   <energy>
    <i name="alphaZ">    172.00474391 </i>
    <i name="ewald"> 151829.62067627 </i>
    <i name="hartreedc">-200534.40103086 </i>
    <i name="XCdc">   -544.71107519 </i>
    <i name="pawpsdc">  54633.49685112 </i>
    <i name="pawaedc"> -52489.88115237 </i>
    <i name="eentropy">      0.00000000 </i>
    <i name="bandstr">  -3990.87185983 </i>
    <i name="atom">  50822.73287423 </i>
    <i name="e_fr_energy">   -102.00997272 </i>
    <i name="e_wo_entrp">   -102.00997272 </i>
    <i name="e_0_energy">   -102.00997272 </i>
   </energy>
  </scstep>
  <structure>
   <crystal>
    <varray name="basis" >
     <v>      22.81332769       0.00000000       0.00000000 </v>
     <v>       0.00000000      22.81332769       0.00000000 </v>
     <v>       0.00000000       0.00000000      22.81332769 </v>
    </varray>
    <i name="volume">  11873.14894456 </i>
    <varray name="rec_basis" >
     <v>       0.04383403       0.00000000       0.00000000 </v>
     <v>       0.00000000       0.04383403       0.00000000 </v>
     <v>       0.00000000       0.00000000       0.04383403 </v>
    </varray>
   </crystal>
   <varray name="positions" >
    <v>       0.69487197       0.42712800       0.41274568 </v>
    <v>       0.71013813       0.52084560       0.34868272 </v>
    <v>       0.60561000       0.46755185       0.33827003 </v>
    <v>       0.74763294       0.52246539       0.46559734 </v>
    <v>       0.57749019       0.41301780       0.44356076 </v>
    <v>       0.66730903       0.43932039       0.52928236 </v>
    <v>       0.49681509       0.40043344       0.35069918 </v>
    <v>       0.60293994       0.58435885       0.33900521 </v>
    <v>       0.50100583       0.31559940       0.43670916 </v>
    <v>       0.63376477       0.52719864       0.44273176 </v>
    <v>       0.70643105       0.61758353       0.39786284 </v>
    <v>       0.49336743       0.53223688       0.29863014 </v>
    <v>       0.53263511       0.35730078       0.54697388 </v>
    <v>       0.40678612       0.45882728       0.34625994 </v>
    <v>       0.72242814       0.53297124       0.57784334 </v>
    <v>       0.54296812       0.47253934       0.54191073 </v>
    <v>       0.51320137       0.51731660       0.40488331 </v>
    <v>       0.39105222       0.35078753       0.40102544 </v>
    <v>       0.45358202       0.42204539       0.46430335 </v>
    <v>       0.60338253       0.65920357       0.43394920 </v>
    <v>       0.49668960       0.64028347       0.37386477 </v>
    <v>       0.64010766       0.48773481       0.63970533 </v>
    <v>       0.70108326       0.62989331       0.51303057 </v>
    <v>       0.41630327       0.31334467       0.52135232 </v>
    <v>       0.45798648       0.31640946       0.63255974 </v>
    <v>       0.42925205       0.42171491       0.58646674 </v>
    <v>       0.60467458       0.56380057       0.55300467 </v>
    <v>       0.39319529       0.56529109       0.37436901 </v>
    <v>       0.60258572       0.68697674       0.54461144 </v>
    <v>       0.32644295       0.46559658       0.42662356 </v>
    <v>       0.65408540       0.61424183       0.63394270 </v>
    <v>       0.33168530       0.37904531       0.50108767 </v>
    <v>       0.52997551       0.41690084       0.65732362 </v>
    <v>       0.40358633       0.65404608       0.44234293 </v>
    <v>       0.49707271       0.70835468       0.49120841 </v>
    <v>       0.40479281       0.52926400       0.49355528 </v>
    <v>       0.45282892       0.53614393       0.59732324 </v>
    <v>       0.34100426       0.36218452       0.62113108 </v>
    <v>       0.42038017       0.39344268       0.70418416 </v>
    <v>       0.50767034       0.59991640       0.49634442 </v>
    <v>       0.54959940       0.54659167       0.66472167 </v>
    <v>       0.51862667       0.64932488       0.60947381 </v>
    <v>       0.31350579       0.58220070       0.48036730 </v>
    <v>       0.30943474       0.47199375       0.55658611 </v>
    <v>       0.46080379       0.49429745       0.71628023 </v>
    <v>       0.35113839       0.48480999       0.67357447 </v>
    <v>       0.40660413       0.64527689       0.55716677 </v>
    <v>       0.41723627       0.59781916       0.67970944 </v>
    <v>       0.33029242       0.57300411       0.60136753 </v>
   </varray>
  </structure>
  <varray name="forces" >
   <v>       0.27750837      -1.27997564       0.04404839 </v>
   <v>       0.73751361      -0.70779620      -1.49973449 </v>
   <v>      -0.60036062      -0.74210174      -0.67137734 </v>
   <v>       0.98030555      -0.04292175      -0.07156029 </v>
   <v>       0.28198178      -0.45089376       0.02509276 </v>
   <v>      -0.33014259      -0.27284197      -0.00089303 </v>
   <v>       1.81370809      -0.80698939      -0.43000423 </v>
   <v>      -0.35119197       0.68140890      -0.65720165 </v>
   <v>       0.41238306      -0.66794531      -0.21391645 </v>
   <v>      -0.92611910       0.19326104       0.45504009 </v>
   <v>       0.46483028       1.61898814       0.01341056 </v>
   <v>      -0.01597296       0.28600054      -1.36801384 </v>
   <v>       0.32608491      -0.54245865      -0.10950512 </v>
   <v>      -0.95187358      -0.07923285      -0.93648374 </v>
   <v>       1.21919549       0.14048783       0.27253232 </v>
   <v>      -0.76750240      -0.12193767      -0.08481046 </v>
   <v>       0.02458537      -0.20812275       1.53188655 </v>
   <v>      -0.69494321      -0.66178686      -0.69843961 </v>
   <v>       0.21001229       0.72447113       0.50459622 </v>
   <v>      -0.35482623       0.17169044      -0.45753033 </v>
   <v>       0.52062197      -0.09121485      -0.41168712 </v>
   <v>       0.18330041      -1.38193204       0.64710873 </v>
   <v>       0.28469827       0.40379141       0.13801072 </v>
   <v>       0.81373686      -1.25978718       0.20863531 </v>
   <v>       0.41492899      -1.38958812      -0.05484599 </v>
   <v>       0.35350876       0.71458630      -0.81179861 </v>
   <v>      -0.15776204       0.14161991      -1.09758382 </v>
   <v>      -0.26690971       0.37970424      -0.33682656 </v>
   <v>       0.61732145       0.72439847       0.28423446 </v>
   <v>      -0.60158938       0.50636791       0.08290060 </v>
   <v>       0.66505883       1.20818857       1.60102159 </v>
   <v>      -1.12271275      -0.58554221      -0.36308375 </v>
   <v>       0.76208798       0.16588454      -0.14554859 </v>
   <v>      -0.63073171       0.93475636       0.09271238 </v>
   <v>      -0.01039591       1.65674048      -0.01892439 </v>
   <v>       1.62200611      -1.15771534      -0.18955459 </v>
   <v>       0.71218143      -0.41781213      -0.56683413 </v>
   <v>      -1.09591093      -0.53307584       0.17753622 </v>
   <v>      -0.79424357      -0.94417421       1.23847186 </v>
   <v>       0.23023680      -1.52945697      -0.17414636 </v>
   <v>      -0.22394208       0.76431810       0.51627309 </v>
   <v>      -0.75327325      -0.14564899       0.68064523 </v>
   <v>      -1.94186049       0.74800800      -0.33093711 </v>
   <v>      -0.51378223       0.24603989       0.14792391 </v>
   <v>       0.39650874       0.99359407       1.00728431 </v>
   <v>      -0.47744362      -0.17341135       0.13429807 </v>
   <v>       0.33711740       0.71946763       0.40477334 </v>
   <v>      -0.32826181       1.36236863       1.14178585 </v>
   <v>      -0.74967065       0.70822122       0.35101906 </v>
  </varray>
  <varray name="stress" >
   <v>       3.27439215      -0.30734248      -0.30133921 </v>
   <v>      -0.30734248       5.04950655       1.04018521 </v>
   <v>      -0.30133922       1.04018522       3.78840492 </v>
  </varray>
  <energy>
   <i name="e_fr_energy">   -102.00997272 </i>
   <i name="e_wo_entrp">   -102.00997272 </i>
   <i name="e_0_energy">      0.00000000 </i>
  </energy>
  <time name="totalsc">   44.99   45.35</time>
 </calculation>
 <calculation>
  <scstep>
   <time name="dav">    5.58    5.58</time>
   <time name="total">    5.95    5.96</time>
   <energy>
    <i name="alphaZ">    172.00474391 </i>
    <i name="ewald"> 149800.28122151 </i>
    <i name="hartreedc">-198525.03244444 </i>
    <i name="XCdc">   -547.64260566 </i>
    <i name="pawpsdc">  54634.32225737 </i>
    <i name="pawaedc"> -52490.71914033 </i>
    <i name="eentropy">      0.00000000 </i>
    <i name="bandstr">  -3969.58709714 </i>
    <i name="atom">  50822.73287423 </i>
    <i name="e_fr_energy">   -103.64019053 </i>
    <i name="e_wo_entrp">   -103.64019053 </i>
    <i name="e_0_energy">   -103.64019053 </i>
   </energy>
  </scstep>
  <scstep>
   <time name="dav">    5.76    5.77</time>
   <time name="total">    6.13    6.58</time>
   <energy>
    <i name="e_fr_energy">   -103.96214706 </i>
    <i name="e_wo_entrp">   -103.96214706 </i>
    <i name="e_0_energy">   -103.96214706 </i>
   </energy>
  </scstep>
  <scstep>
   <time name="dav">    5.73    5.73</time>
   <time name="total">    6.10    6.11</time>
   <energy>
    <i name="e_fr_energy">   -103.95114876 </i>
    <i name="e_wo_entrp">   -103.95114876 </i>
    <i name="e_0_energy">   -103.95114876 </i>
   </energy>
  </scstep>
  <scstep>
   <time name="dav">    5.92    5.93</time>
   <time name="total">    6.29    6.30</time>
   <energy>
    <i name="e_fr_energy">   -103.94849343 </i>
    <i name="e_wo_entrp">   -103.94849343 </i>
    <i name="e_0_energy">   -103.94849343 </i>
   </energy>
  </scstep>
  <scstep>
   <time name="dav">    5.84    5.85</time>
   <time name="total">    6.21    6.83</time>
   <energy>
    <i name="e_fr_energy">   -103.94764807 </i>
    <i name="e_wo_entrp">   -103.94764807 </i>
    <i name="e_0_energy">   -103.94764807 </i>
   </energy>
  </scstep>
  <scstep>
   <time name="dav">    5.82    5.83</time>
   <time name="total">    6.19    6.20</time>
   <energy>
    <i name="e_fr_energy">   -103.94749970 </i>
    <i name="e_wo_entrp">   -103.94749970 </i>
    <i name="e_0_energy">   -103.94749970 </i>
   </energy>
  </scstep>
  <scstep>
   <time name="dav">    4.16    4.17</time>
   <time name="total">    4.38    4.42</time>
   <energy>
    <i name="alphaZ">    172.00474391 </i>
    <i name="ewald"> 149800.28122151 </i>
    <i name="hartreedc">-198541.82767773 </i>
    <i name="XCdc">   -547.21790817 </i>
    <i name="pawpsdc">  54152.29165939 </i>
    <i name="pawaedc"> -52001.74649595 </i>
    <i name="eentropy">      0.00000000 </i>
    <i name="bandstr">  -3960.46598020 </i>
    <i name="atom">  50822.73287423 </i>
    <i name="e_fr_energy">   -103.94756301 </i>
    <i name="e_wo_entrp">   -103.94756301 </i>
    <i name="e_0_energy">   -103.94756301 </i>
   </energy>
  </scstep>
  <structure>
   <crystal>
    <varray name="basis" >
     <v>      22.81332769       0.00000000       0.00000000 </v>
     <v>       0.00000000      22.81332769       0.00000000 </v>
     <v>       0.00000000       0.00000000      22.81332769 </v>
    </varray>
    <i name="volume">  11873.14894456 </i>
    <varray name="rec_basis" >
     <v>       0.04383403       0.00000000       0.00000000 </v>
     <v>       0.00000000       0.04383403       0.00000000 </v>
     <v>       0.00000000       0.00000000       0.04383403 </v>
    </varray>
   </crystal>
   <varray name="positions" >
    <v>       0.69526246       0.42530009       0.41283300 </v>
    <v>       0.71126558       0.51961621       0.34637942 </v>
    <v>       0.60476820       0.46644995       0.33733128 </v>
    <v>       0.74908993       0.52239489       0.46561605 </v>
    <v>       0.57784173       0.41243963       0.44358331 </v>
    <v>       0.66686472       0.43890895       0.52926462 </v>
    <v>       0.49963651       0.39910757       0.35009904 </v>
    <v>       0.60239694       0.58537509       0.33811720 </v>
    <v>       0.50160750       0.31466326       0.43643151 </v>
    <v>       0.63229373       0.52749573       0.44355148 </v>
    <v>       0.70706497       0.62013376       0.39806025 </v>
    <v>       0.49328705       0.53269106       0.29640356 </v>
    <v>       0.53306463       0.35658919       0.54682162 </v>
    <v>       0.40512694       0.45898993       0.34499583 </v>
    <v>       0.72422825       0.53316251       0.57812610 </v>
    <v>       0.54191516       0.47241057       0.54180860 </v>
    <v>       0.51332567       0.51702844       0.40738293 </v>
    <v>       0.38998500       0.34979287       0.39999032 </v>
    <v>       0.45391825       0.42328437       0.46518543 </v>
    <v>       0.60293029       0.65940762       0.43326761 </v>
    <v>       0.49745993       0.64017595       0.37327570 </v>
    <v>       0.64039196       0.48569563       0.64066913 </v>
    <v>       0.70146441       0.63046231       0.51317885 </v>
    <v>       0.41756673       0.31147941       0.52170014 </v>
    <v>       0.45860914       0.31437500       0.63242705 </v>
    <v>       0.42989986       0.42297921       0.58517321 </v>
    <v>       0.60407486       0.56375834       0.55093569 </v>
    <v>       0.39281802       0.56576106       0.37386482 </v>
    <v>       0.60352176       0.68800436       0.54495207 </v>
    <v>       0.32563163       0.46623498       0.42669299 </v>
    <v>       0.65520842       0.61618209       0.63649592 </v>
    <v>       0.33000368       0.37839580       0.50054841 </v>
    <v>       0.53111383       0.41711281       0.65709359 </v>
    <v>       0.40270358       0.65534653       0.44246278 </v>
    <v>       0.49700575       0.71104667       0.49114205 </v>
    <v>       0.40781087       0.52723835       0.49350799 </v>
    <v>       0.45391408       0.53525691       0.59612656 </v>
    <v>       0.33932986       0.36137002       0.62143556 </v>
    <v>       0.41917187       0.39201222       0.70600913 </v>
    <v>       0.50807791       0.59730956       0.49613010 </v>
    <v>       0.54910041       0.54763780       0.66547500 </v>
    <v>       0.51753466       0.64908506       0.61049334 </v>
    <v>       0.31013610       0.58361505       0.47980188 </v>
    <v>       0.30872577       0.47232001       0.55681323 </v>
    <v>       0.46149071       0.49587231       0.71767866 </v>
    <v>       0.35042292       0.48458743       0.67375830 </v>
    <v>       0.40705666       0.64628956       0.55772041 </v>
    <v>       0.41671673       0.59986699       0.68154377 </v>
    <v>       0.32922057       0.57392285       0.60184987 </v>
   </varray>
  </structure>
  <varray name="forces" >
   <v>       0.20134151      -0.82614251      -0.02411290 </v>
   <v>       0.36693655      -0.15252222      -0.73299921 </v>
   <v>      -0.42468582      -0.41048828      -0.48596026 </v>
   <v>       0.55842519      -0.01034330      -0.28209259 </v>
   <v>       0.29998168      -0.43872059       0.04687910 </v>
   <v>      -0.27542035      -0.14040607       0.03366781 </v>
   <v>       0.83994736      -0.29957463      -0.33404124 </v>
   <v>      -0.14027768       0.36119832      -0.54460502 </v>
   <v>       0.25006084      -0.47955558      -0.19989103 </v>
   <v>      -0.32669926       0.06613852      -0.08037305 </v>
   <v>       0.37526041       0.67492676      -0.30582921 </v>
   <v>       0.07275701       0.12127025      -0.48614716 </v>
   <v>       0.29049040      -0.49190710      -0.08173911 </v>
   <v>      -0.17551607      -0.51912064      -0.78206391 </v>
   <v>       0.70157371       0.10694190       0.38380974 </v>
   <v>      -0.53850204      -0.19818156      -0.09832519 </v>
   <v>      -0.11862641      -0.21349018       0.45609364 </v>
   <v>      -0.33289574      -0.36606638      -0.40664051 </v>
   <v>       0.11342515      -0.03823603      -0.02520613 </v>
   <v>      -0.33970802       0.20018289      -0.23280280 </v>
   <v>       0.27090556      -0.10932602      -0.28464680 </v>
   <v>       0.09265904      -0.80999926       0.36775568 </v>
   <v>       0.24352263       0.27093943       0.19537325 </v>
   <v>       0.38171923      -0.74115774       0.03696386 </v>
   <v>       0.23211360      -0.82179669       0.08954721 </v>
   <v>      -0.06286011      -0.03964990      -0.28413024 </v>
   <v>       0.57978100       0.52439321       0.19723824 </v>
   <v>      -0.17784126       0.39872761      -0.17153625 </v>
   <v>       0.31198097       0.50121429       0.31493055 </v>
   <v>      -0.48702374       0.51729315       0.16179202 </v>
   <v>       0.19339907       0.51582927       0.66790746 </v>
   <v>      -0.62031575      -0.73520464      -0.20754530 </v>
   <v>       0.41491714       0.16214736      -0.05996767 </v>
   <v>      -0.45617588       0.69754523       0.08281421 </v>
   <v>       0.07935985       0.63516166       0.05738261 </v>
   <v>       0.00250322      -0.23017833      -0.54889590 </v>
   <v>       0.38686535       0.32355846       0.40217626 </v>
   <v>      -0.57084187      -0.26990495       0.02408048 </v>
   <v>      -0.42093984      -0.50215940       0.76126339 </v>
   <v>      -0.02137582      -0.25098648      -0.16800470 </v>
   <v>       0.22609482       0.60092725       0.31394271 </v>
   <v>      -0.47197654      -0.02424339       0.36376787 </v>
   <v>      -0.54351314       0.06008189      -0.10669259 </v>
   <v>      -0.38656247       0.21598915       0.06223873 </v>
   <v>       0.03167949       0.39374438       0.77774439 </v>
   <v>      -0.24723892      -0.17334218       0.10295271 </v>
   <v>       0.27824300       0.50995059       0.31731647 </v>
   <v>      -0.15641827       0.77931827       0.44232261 </v>
   <v>      -0.50052879       0.65522421       0.27428778 </v>
  </varray>
  <varray name="stress" >
   <v>       1.26160470      -0.00914761      -0.32323560 </v>
   <v>      -0.00914762       2.77490413       0.88127751 </v>
   <v>      -0.32323560       0.88127751       2.07077237 </v>
  </varray>
  <energy>
   <i name="e_fr_energy">   -103.94756301 </i>
   <i name="e_wo_entrp">   -103.94756301 </i>
   <i name="e_0_energy">      0.00000000 </i>
  </energy>
  <time name="totalsc">   52.27   53.55</time>
 </calculation>
 <calculation>
  <scstep>
   <time name="dav">    5.56    5.57</time>
   <time name="total">    5.93    5.94</time>
   <energy>
    <i name="alphaZ">    172.00474391 </i>
    <i name="ewald"> 145926.02582775 </i>
    <i name="hartreedc">-194693.73399575 </i>
    <i name="XCdc">   -551.78889792 </i>
    <i name="pawpsdc">  54150.79714850 </i>
    <i name="pawaedc"> -52000.25170849 </i>
    <i name="eentropy">      0.00000000 </i>
    <i name="bandstr">  -3928.50013988 </i>
    <i name="atom">  50822.73287423 </i>
    <i name="e_fr_energy">   -102.71414765 </i>
    <i name="e_wo_entrp">   -102.71414765 </i>
    <i name="e_0_energy">   -102.71414765 </i>
   </energy>
  </scstep>
  <scstep>
   <time name="dav">    5.68    5.69</time>
   <time name="total">    6.06    6.07</time>
   <energy>
    <i name="e_fr_energy">   -104.13097606 </i>
    <i name="e_wo_entrp">   -104.13097606 </i>
    <i name="e_0_energy">   -104.13097606 </i>
   </energy>
  </scstep>
  <scstep>
   <time name="dav">    5.96    5.96</time>
   <time name="total">    6.32    6.35</time>
   <energy>
    <i name="e_fr_energy">   -104.12480313 </i>
    <i name="e_wo_entrp">   -104.12480313 </i>
    <i name="e_0_energy">   -104.12480313 </i>
   </energy>
  </scstep>
  <scstep>
   <time name="dav">    5.84    5.84</time>
   <time name="total">    6.20    6.24</time>
   <energy>
    <i name="e_fr_energy">   -104.09124117 </i>
    <i name="e_wo_entrp">   -104.09124117 </i>
    <i name="e_0_energy">   -104.09124117 </i>
   </energy>
  </scstep>
  <scstep>
   <time name="dav">    5.96    5.96</time>
   <time name="total">    6.32    6.53</time>
   <energy>
    <i name="e_fr_energy">   -104.09158672 </i>
    <i name="e_wo_entrp">   -104.09158672 </i>
    <i name="e_0_energy">   -104.09158672 </i>
   </energy>
  </scstep>
  <scstep>
   <time name="dav">    5.76    5.76</time>
   <time name="total">    6.13    6.14</time>
   <energy>
    <i name="e_fr_energy">   -104.09082051 </i>
    <i name="e_wo_entrp">   -104.09082051 </i>
    <i name="e_0_energy">   -104.09082051 </i>
   </energy>
  </scstep>
  <scstep>
   <time name="dav">    5.97    5.98</time>
   <time name="total">    6.34    6.38</time>
   <energy>
    <i name="e_fr_energy">   -104.09097167 </i>
    <i name="e_wo_entrp">   -104.09097167 </i>
    <i name="e_0_energy">   -104.09097167 </i>
   </energy>
  </scstep>
  <scstep>
   <time name="dav">    4.27    4.27</time>
   <time name="total">    4.64    4.68</time>
   <energy>
    <i name="e_fr_energy">   -104.09120006 </i>
    <i name="e_wo_entrp">   -104.09120006 </i>
    <i name="e_0_energy">   -104.09120006 </i>
   </energy>
  </scstep>
  <scstep>
   <time name="dav">    4.29    4.29</time>
   <time name="total">    4.67    4.70</time>
   <energy>
    <i name="e_fr_energy">   -104.09142421 </i>
    <i name="e_wo_entrp">   -104.09142421 </i>
    <i name="e_0_energy">   -104.09142421 </i>
   </energy>
  </scstep>
  <scstep>
   <time name="dav">    4.25    4.26</time>
   <time name="total">    4.62    4.63</time>
   <energy>
    <i name="e_fr_energy">   -104.09160932 </i>
    <i name="e_wo_entrp">   -104.09160932 </i>
    <i name="e_0_energy">   -104.09160932 </i>
   </energy>
  </scstep>
  <scstep>
   <time name="dav">    4.21    4.21</time>
   <time name="total">    4.58    5.08</time>
   <energy>
    <i name="e_fr_energy">   -104.09185415 </i>
    <i name="e_wo_entrp">   -104.09185415 </i>
    <i name="e_0_energy">   -104.09185415 </i>
   </energy>
  </scstep>
  <scstep>
   <time name="dav">    4.30    4.31</time>
   <time name="total">    4.67    5.69</time>
   <energy>
    <i name="e_fr_energy">   -104.09206425 </i>
    <i name="e_wo_entrp">   -104.09206425 </i>
    <i name="e_0_energy">   -104.09206425 </i>
   </energy>
  </scstep>
  <scstep>
   <time name="dav">    4.22    4.23</time>
   <time name="total">    4.60    4.60</time>
   <energy>
    <i name="e_fr_energy">   -104.09217881 </i>
    <i name="e_wo_entrp">   -104.09217881 </i>
    <i name="e_0_energy">   -104.09217881 </i>
   </energy>
  </scstep>
  <scstep>
   <time name="dav">    4.22    4.23</time>
   <time name="total">    4.59    4.61</time>
   <energy>
    <i name="e_fr_energy">   -104.09228024 </i>
    <i name="e_wo_entrp">   -104.09228024 </i>
    <i name="e_0_energy">   -104.09228024 </i>
   </energy>
  </scstep>
  <scstep>
   <time name="dav">    4.19    4.19</time>
   <time name="total">    4.41    4.44</time>
   <energy>
    <i name="alphaZ">    172.00474391 </i>
    <i name="ewald"> 145926.02582775 </i>
    <i name="hartreedc">-194722.95668879 </i>
    <i name="XCdc">   -550.97002151 </i>
    <i name="pawpsdc">  53553.57562301 </i>
    <i name="pawaedc"> -51393.16396038 </i>
    <i name="eentropy">      0.00000000 </i>
    <i name="bandstr">  -3911.34071582 </i>
    <i name="atom">  50822.73287423 </i>
    <i name="e_fr_energy">   -104.09231759 </i>
    <i name="e_wo_entrp">   -104.09231759 </i>
    <i name="e_0_energy">   -104.09231759 </i>
   </energy>
  </scstep>
  <structure>
   <crystal>
    <varray name="basis" >
     <v>      22.81332769       0.00000000       0.00000000 </v>
     <v>       0.00000000      22.81332769       0.00000000 </v>
     <v>       0.00000000       0.00000000      22.81332769 </v>
    </varray>
    <i name="volume">  11873.14894456 </i>
    <varray name="rec_basis" >
     <v>       0.04383403       0.00000000       0.00000000 </v>
     <v>       0.00000000       0.04383403       0.00000000 </v>
     <v>       0.00000000       0.00000000       0.04383403 </v>
    </varray>
   </crystal>
   <varray name="positions" >
    <v>       0.69604343       0.42164426       0.41300764 </v>
    <v>       0.71352049       0.51715742       0.34177281 </v>
    <v>       0.60308459       0.46424616       0.33545379 </v>
    <v>       0.75200391       0.52225391       0.46565345 </v>
    <v>       0.57854482       0.41128330       0.44362842 </v>
    <v>       0.66597610       0.43808606       0.52922914 </v>
    <v>       0.50527934       0.39645581       0.34889878 </v>
    <v>       0.60131094       0.58740759       0.33634119 </v>
    <v>       0.50281084       0.31279098       0.43587622 </v>
    <v>       0.62935166       0.52808992       0.44519093 </v>
    <v>       0.70833283       0.62523422       0.39845508 </v>
    <v>       0.49312630       0.53359942       0.29195040 </v>
    <v>       0.53392366       0.35516601       0.54651709 </v>
    <v>       0.40180857       0.45931525       0.34246760 </v>
    <v>       0.72782848       0.53354507       0.57869160 </v>
    <v>       0.53980926       0.47215303       0.54160434 </v>
    <v>       0.51357427       0.51645214       0.41238217 </v>
    <v>       0.38785056       0.34780355       0.39792007 </v>
    <v>       0.45459073       0.42576234       0.46694959 </v>
    <v>       0.60202583       0.65981571       0.43190444 </v>
    <v>       0.49900059       0.63996090       0.37209755 </v>
    <v>       0.64096057       0.48161726       0.64259673 </v>
    <v>       0.70222671       0.63160032       0.51347541 </v>
    <v>       0.42009364       0.30774889       0.52239578 </v>
    <v>       0.45985447       0.31030608       0.63216167 </v>
    <v>       0.43119548       0.42550781       0.58258615 </v>
    <v>       0.60287543       0.56367387       0.54679773 </v>
    <v>       0.39206347       0.56670100       0.37285645 </v>
    <v>       0.60539383       0.69005961       0.54563333 </v>
    <v>       0.32400898       0.46751177       0.42683184 </v>
    <v>       0.65745444       0.62006261       0.64160235 </v>
    <v>       0.32664044       0.37709678       0.49946987 </v>
    <v>       0.53339046       0.41753675       0.65663353 </v>
    <v>       0.40093807       0.65794744       0.44270248 </v>
    <v>       0.49687183       0.71643065       0.49100933 </v>
    <v>       0.41384697       0.52318704       0.49341343 </v>
    <v>       0.45608440       0.53348287       0.59373321 </v>
    <v>       0.33598107       0.35974103       0.62204453 </v>
    <v>       0.41675527       0.38915131       0.70965907 </v>
    <v>       0.50889304       0.59209587       0.49570147 </v>
    <v>       0.54810243       0.54973007       0.66698168 </v>
    <v>       0.51535064       0.64860542       0.61253240 </v>
    <v>       0.30339674       0.58644375       0.47867104 </v>
    <v>       0.30730781       0.47297253       0.55726747 </v>
    <v>       0.46286457       0.49902202       0.72047550 </v>
    <v>       0.34899198       0.48414229       0.67412597 </v>
    <v>       0.40796173       0.64831491       0.55882768 </v>
    <v>       0.41567765       0.60396264       0.68521242 </v>
    <v>       0.32707687       0.57576034       0.60281457 </v>
   </varray>
  </structure>
  <varray name="forces" >
   <v>       0.09372851      -0.13669599      -0.13295306 </v>
   <v>      -0.12474238       0.30808073       0.16948736 </v>
   <v>      -0.00039730       0.13209046      -0.20273593 </v>
   <v>      -0.00178931       0.04187951      -0.53041883 </v>
   <v>       0.34009303      -0.41799590       0.09427236 </v>
   <v>      -0.17946509       0.07298814       0.09678702 </v>
   <v>      -0.33644001       0.10442914      -0.21516039 </v>
   <v>       0.21318138      -0.12910969      -0.38457374 </v>
   <v>       0.01655931      -0.18346806      -0.16783648 </v>
   <v>       0.64118229      -0.23965682      -1.15269902 </v>
   <v>       0.24540431      -0.35242642      -0.62266552 </v>
   <v>       0.11478066      -0.05170551       0.40317828 </v>
   <v>       0.22251878      -0.40076094      -0.02299357 </v>
   <v>       0.64048266      -0.88442164      -0.54254670 </v>
   <v>       0.00506189       0.03667145       0.47817990 </v>
   <v>       0.13744436      -0.43202753      -0.12228073 </v>
   <v>      -0.18145880      -0.49066841      -1.25712818 </v>
   <v>       0.11194391       0.04762896       0.00038827 </v>
   <v>       0.21122286      -1.92480224      -1.07855897 </v>
   <v>      -0.26146354       0.25440579       0.16932500 </v>
   <v>      -0.20555925      -0.13524625      -0.10684743 </v>
   <v>       0.00964956      -0.09595966       0.00197150 </v>
   <v>       0.18078915       0.02248376       0.28926224 </v>
   <v>      -0.21375991      -0.08809045      -0.22337782 </v>
   <v>       0.02329670      -0.03878539       0.34001078 </v>
   <v>      -0.74662501      -1.34997069       0.52895691 </v>
   <v>       1.57453722       0.97630979       2.12485315 </v>
   <v>      -0.01441248       0.41117173       0.08423074 </v>
   <v>      -0.10282776       0.17221084       0.32756051 </v>
   <v>      -0.26868222       0.53739010       0.29889990 </v>
   <v>      -0.24778011      -0.19205685      -0.26941451 </v>
   <v>      -0.01487006      -0.80538083       0.00819523 </v>
   <v>      -0.06829942       0.15610320       0.05664332 </v>
   <v>      -0.19739969       0.33638906       0.06816736 </v>
   <v>       0.15532812      -0.32460395       0.15267061 </v>
   <v>      -2.09928516       1.16800737      -1.01316806 </v>
   <v>       0.04426046       1.61907816       1.97858895 </v>
   <v>       0.08939994       0.09430775      -0.15594684 </v>
   <v>      -0.02698430       0.03328105       0.02891328 </v>
   <v>      -0.52120305       1.63111063      -0.00011846 </v>
   <v>       0.92110307       0.36082167       0.01945036 </v>
   <v>      -0.06620355       0.19459683      -0.07182705 </v>
   <v>       0.53494631      -0.44078803       0.08070047 </v>
   <v>      -0.17683133       0.13741175      -0.07722093 </v>
   <v>      -0.53561991      -0.39493947       0.44550127 </v>
   <v>       0.08695047      -0.18708776       0.04654611 </v>
   <v>       0.13836043       0.20743059       0.16471988 </v>
   <v>      -0.00254316       0.10715745      -0.27195102 </v>
   <v>      -0.15758254       0.53321255       0.16496248 </v>
  </varray>
  <varray name="stress" >
   <v>      -0.91330207       0.22412048      -0.29646056 </v>
   <v>       0.22412048       0.25532283       0.85717898 </v>
   <v>      -0.29646056       0.85717900       0.21498462 </v>
  </varray>
  <energy>
   <i name="e_fr_energy">   -104.09231759 </i>
   <i name="e_wo_entrp">   -104.09231759 </i>
   <i name="e_0_energy">      0.00000000 </i>
  </energy>
  <time name="totalsc">   91.11   93.82</time>
 </calculation>
 <calculation>
  <scstep>
   <time name="dav">    5.58    5.58</time>
   <time name="total">    5.94    5.97</time>
   <energy>
    <i name="alphaZ">    172.00474391 </i>
    <i name="ewald"> 147545.56228814 </i>
    <i name="hartreedc">-196335.59897424 </i>
    <i name="XCdc">   -549.15447367 </i>
    <i name="pawpsdc">  53553.54812872 </i>
    <i name="pawaedc"> -51393.13637916 </i>
    <i name="eentropy">     -0.00000000 </i>
    <i name="bandstr">  -3920.24330181 </i>
    <i name="atom">  50822.73287423 </i>
    <i name="e_fr_energy">   -104.28509388 </i>
    <i name="e_wo_entrp">   -104.28509388 </i>
    <i name="e_0_energy">   -104.28509388 </i>
   </energy>
  </scstep>
  <scstep>
   <time name="dav">    5.74    5.75</time>
   <time name="total">    6.11    6.12</time>
   <energy>
    <i name="e_fr_energy">   -104.53050137 </i>
    <i name="e_wo_entrp">   -104.53050137 </i>
    <i name="e_0_energy">   -104.53050137 </i>
   </energy>
  </scstep>
  <scstep>
   <time name="dav">    5.93    5.94</time>
   <time name="total">    6.30    6.35</time>
   <energy>
    <i name="e_fr_energy">   -104.52460234 </i>
    <i name="e_wo_entrp">   -104.52460234 </i>
    <i name="e_0_energy">   -104.52460234 </i>
   </energy>
  </scstep>
  <scstep>
   <time name="dav">    5.89    5.90</time>
   <time name="total">    6.26    6.29</time>
   <energy>
    <i name="e_fr_energy">   -104.52218115 </i>
    <i name="e_wo_entrp">   -104.52218115 </i>
    <i name="e_0_energy">   -104.52218115 </i>
   </energy>
  </scstep>
  <scstep>
   <time name="dav">    5.94    5.94</time>
   <time name="total">    6.30    6.31</time>
   <energy>
    <i name="e_fr_energy">   -104.52200532 </i>
    <i name="e_wo_entrp">   -104.52200532 </i>
    <i name="e_0_energy">   -104.52200532 </i>
   </energy>
  </scstep>
  <scstep>
   <time name="dav">    5.93    5.93</time>
   <time name="total">    6.16    6.17</time>
   <energy>
    <i name="alphaZ">    172.00474391 </i>
    <i name="ewald"> 147545.56228814 </i>
    <i name="hartreedc">-196323.99042074 </i>
    <i name="XCdc">   -549.55654452 </i>
    <i name="pawpsdc">  53758.50289289 </i>
    <i name="pawaedc"> -51601.68048745 </i>
    <i name="eentropy">      0.00000000 </i>
    <i name="bandstr">  -3928.09729084 </i>
    <i name="atom">  50822.73287423 </i>
    <i name="e_fr_energy">   -104.52194438 </i>
    <i name="e_wo_entrp">   -104.52194438 </i>
    <i name="e_0_energy">   -104.52194438 </i>
   </energy>
  </scstep>
  <structure>
   <crystal>
    <varray name="basis" >
     <v>      22.81332769       0.00000000       0.00000000 </v>
     <v>       0.00000000      22.81332769       0.00000000 </v>
     <v>       0.00000000       0.00000000      22.81332769 </v>
    </varray>
    <i name="volume">  11873.14894456 </i>
    <varray name="rec_basis" >
     <v>       0.04383403       0.00000000       0.00000000 </v>
     <v>       0.00000000       0.04383403       0.00000000 </v>
     <v>       0.00000000       0.00000000       0.04383403 </v>
    </varray>
   </crystal>
   <varray name="positions" >
    <v>       0.69571105       0.42320017       0.41293331 </v>
    <v>       0.71256081       0.51820388       0.34373337 </v>
    <v>       0.60380113       0.46518409       0.33625284 </v>
    <v>       0.75076372       0.52231391       0.46563753 </v>
    <v>       0.57824559       0.41177543       0.44360923 </v>
    <v>       0.66635429       0.43843628       0.52924424 </v>
    <v>       0.50287776       0.39758439       0.34940961 </v>
    <v>       0.60177314       0.58654256       0.33709706 </v>
    <v>       0.50229870       0.31358782       0.43611255 </v>
    <v>       0.63060380       0.52783704       0.44449318 </v>
    <v>       0.70779323       0.62306347       0.39828704 </v>
    <v>       0.49319472       0.53321282       0.29384566 </v>
    <v>       0.53355806       0.35577171       0.54664669 </v>
    <v>       0.40322086       0.45917679       0.34354361 </v>
    <v>       0.72629623       0.53338225       0.57845092 </v>
    <v>       0.54070553       0.47226264       0.54169127 </v>
    <v>       0.51346846       0.51669741       0.41025450 </v>
    <v>       0.38875897       0.34865020       0.39880116 </v>
    <v>       0.45430452       0.42470773       0.46619877 </v>
    <v>       0.60241077       0.65964203       0.43248460 </v>
    <v>       0.49834489       0.64005243       0.37259897 </v>
    <v>       0.64071857       0.48335301       0.64177635 </v>
    <v>       0.70190228       0.63111598       0.51334920 </v>
    <v>       0.41901819       0.30933660       0.52209972 </v>
    <v>       0.45932446       0.31203780       0.63227461 </v>
    <v>       0.43064407       0.42443164       0.58368719 </v>
    <v>       0.60338590       0.56370982       0.54855884 </v>
    <v>       0.39238460       0.56630096       0.37328561 </v>
    <v>       0.60459708       0.68918490       0.54534339 </v>
    <v>       0.32469957       0.46696837       0.42677274 </v>
    <v>       0.65649854       0.61841107       0.63942906 </v>
    <v>       0.32807183       0.37764964       0.49992890 </v>
    <v>       0.53242153       0.41735632       0.65682933 </v>
    <v>       0.40168947       0.65684050       0.44260046 </v>
    <v>       0.49692883       0.71413924       0.49106582 </v>
    <v>       0.41127802       0.52491127       0.49345367 </v>
    <v>       0.45516072       0.53423790       0.59475181 </v>
    <v>       0.33740631       0.36043432       0.62178536 </v>
    <v>       0.41778377       0.39036890       0.70810566 </v>
    <v>       0.50854612       0.59431480       0.49588390 </v>
    <v>       0.54852717       0.54883961       0.66634044 </v>
    <v>       0.51628016       0.64880955       0.61166458 </v>
    <v>       0.30626500       0.58523986       0.47915232 </v>
    <v>       0.30791129       0.47269482       0.55707415 </v>
    <v>       0.46227986       0.49768151       0.71928517 </v>
    <v>       0.34960098       0.48433174       0.67396949 </v>
    <v>       0.40757654       0.64745293       0.55835643 </v>
    <v>       0.41611988       0.60221954       0.68365105 </v>
    <v>       0.32798922       0.57497831       0.60240400 </v>
   </varray>
  </structure>
  <varray name="forces" >
   <v>       0.13614342      -0.38965564      -0.09298674 </v>
   <v>       0.05463862       0.19013796      -0.14374470 </v>
   <v>      -0.19295646      -0.08298379      -0.30952243 </v>
   <v>       0.20901492       0.02092701      -0.44816653 </v>
   <v>       0.32476831      -0.42714900       0.07411221 </v>
   <v>      -0.21836469      -0.01126584       0.07070173 </v>
   <v>       0.07347675       0.01116761      -0.25726561 </v>
   <v>       0.07048344       0.05700715      -0.44196173 </v>
   <v>       0.10477767      -0.29811305      -0.18165359 </v>
   <v>       0.25399488      -0.09445512      -0.67523194 </v>
   <v>       0.29610229      -0.01860089      -0.52703577 </v>
   <v>       0.11167771       0.00376509       0.10894028 </v>
   <v>       0.25306372      -0.43935669      -0.04892012 </v>
   <v>       0.38064497      -0.79096514      -0.63987801 </v>
   <v>       0.24657106       0.06567498       0.45673374 </v>
   <v>      -0.18883980      -0.31643671      -0.11201993 </v>
   <v>      -0.18450234      -0.32726903      -0.56175698 </v>
   <v>      -0.04297574      -0.10610515      -0.15140706 </v>
   <v>       0.11882849      -1.02765878      -0.61149593 </v>
   <v>      -0.30249130       0.23169052       0.00467982 </v>
   <v>      -0.00299471      -0.12757877      -0.17340826 </v>
   <v>       0.03485598      -0.34607560       0.13393401 </v>
   <v>       0.20612608       0.12519849       0.25345605 </v>
   <v>       0.00525860      -0.32729532      -0.12152835 </v>
   <v>       0.09099171      -0.31448704       0.23814483 </v>
   <v>      -0.46634943      -0.80433253       0.19955691 </v>
   <v>       1.19752167       0.80856809       1.33449402 </v>
   <v>      -0.08069313       0.40992870      -0.01468773 </v>
   <v>       0.04666106       0.29792182       0.32938098 </v>
   <v>      -0.35906925       0.53086476       0.24470368 </v>
   <v>      -0.11009920       0.03709468       0.05094067 </v>
   <v>      -0.22224007      -0.80649923      -0.07180349 </v>
   <v>       0.10926784       0.15909029       0.01348568 </v>
   <v>      -0.29337171       0.47767751       0.07641166 </v>
   <v>       0.13359252      -0.04671409       0.11583921 </v>
   <v>      -1.26542692       0.55039566      -0.84806536 </v>
   <v>       0.15553045       1.07425189       1.33458224 </v>
   <v>      -0.15962582      -0.04366517      -0.09481756 </v>
   <v>      -0.14592012      -0.14696618       0.31190548 </v>
   <v>      -0.29958294       0.87431142      -0.09795071 </v>
   <v>       0.65463528       0.44847987       0.13110402 </v>
   <v>      -0.22497270       0.10253975       0.09002126 </v>
   <v>       0.24551755      -0.30104981       0.02738051 </v>
   <v>      -0.25960723       0.17229822      -0.02227606 </v>
   <v>      -0.31756609      -0.11691009       0.56727187 </v>
   <v>      -0.04044833      -0.17987495       0.07050351 </v>
   <v>       0.20305002       0.31906147       0.22766897 </v>
   <v>      -0.05113323       0.33585326      -0.02694549 </v>
   <v>      -0.28796382       0.58755740       0.20857676 </v>
  </varray>
  <varray name="stress" >
   <v>      -0.25152567       0.16651492      -0.30905118 </v>
   <v>       0.16651491       1.03209822       0.82062987 </v>
   <v>      -0.30905119       0.82062987       0.76577489 </v>
  </varray>
  <energy>
   <i name="e_fr_energy">   -104.52194438 </i>
   <i name="e_wo_entrp">   -104.52194438 </i>
   <i name="e_0_energy">      0.00000000 </i>
  </energy>
  <time name="totalsc">   48.09   48.28</time>
 </calculation>
 <calculation>
  <scstep>
   <time name="dav">    5.60    5.60</time>
   <time name="total">    5.96    5.98</time>
   <energy>
    <i name="alphaZ">    172.00474391 </i>
    <i name="ewald"> 146645.47558329 </i>
    <i name="hartreedc">-195428.58528373 </i>
    <i name="XCdc">   -550.39465618 </i>
    <i name="pawpsdc">  53755.87332991 </i>
    <i name="pawaedc"> -51599.04783496 </i>
    <i name="eentropy">      0.00000000 </i>
    <i name="bandstr">  -3922.96349798 </i>
    <i name="atom">  50822.73287423 </i>
    <i name="e_fr_energy">   -104.90474151 </i>
    <i name="e_wo_entrp">   -104.90474151 </i>
    <i name="e_0_energy">   -104.90474151 </i>
   </energy>
  </scstep>
  <scstep>
   <time name="dav">    5.74    5.75</time>
   <time name="total">    6.11    6.12</time>
   <energy>
    <i name="e_fr_energy">   -104.94403771 </i>
    <i name="e_wo_entrp">   -104.94403771 </i>
    <i name="e_0_energy">   -104.94403771 </i>
   </energy>
  </scstep>
  <scstep>
   <time name="dav">    5.98    5.98</time>
   <time name="total">    6.34    6.50</time>
   <energy>
[...]
       <r>     1.0210     0.0000   323.0000 </r>
       <r>     1.0628     0.0000   323.0000 </r>
       <r>     1.1046     0.0000   325.0000 </r>
       <r>     1.1464    23.4774   327.9814 </r>
       <r>     1.1882     0.0000   330.0000 </r>
       <r>     1.2300     0.0000   332.0000 </r>
       <r>     1.2718     0.0000   334.0000 </r>
       <r>     1.3136     0.0000   335.0000 </r>
       <r>     1.3554     0.0000   337.0000 </r>
       <r>     1.3972     0.0000   339.0000 </r>
       <r>     1.4390     0.0000   341.0000 </r>
       <r>     1.4808     0.0000   343.0000 </r>
       <r>     1.5226     0.0000   346.0000 </r>
       <r>     1.5644     0.0009   347.0000 </r>
       <r>     1.6062     0.0000   348.0000 </r>
       <r>     1.6480     0.0000   348.0000 </r>
       <r>     1.6898     0.0000   348.0000 </r>
       <r>     1.7316     0.0000   348.0000 </r>
       <r>     1.7734     0.0000   348.0000 </r>
       <r>     1.8152     0.0000   348.0000 </r>
       <r>     1.8570     0.0000   348.0000 </r>
       <r>     1.8988     0.0000   348.0000 </r>
       <r>     1.9406     0.0000   348.0000 </r>
       <r>     1.9824     0.0000   348.0000 </r>
       <r>     2.0242     0.0000   348.0000 </r>
       <r>     2.0660     0.0000   348.0000 </r>
       <r>     2.1078     0.0000   348.0000 </r>
       <r>     2.1496     0.0000   348.0000 </r>
      </set>
      <set comment="spin 2">
       <r>   -10.3909     0.0000     0.0000 </r>
       <r>   -10.3491     0.0000     0.0000 </r>
       <r>   -10.3073     0.0000     0.0000 </r>
       <r>   -10.2655     0.0000     0.0000 </r>
       <r>   -10.2237     0.0000     0.0000 </r>
       <r>   -10.1819     0.0000     0.0000 </r>
       <r>   -10.1401     0.0000     0.0000 </r>
       <r>   -10.0983     0.0000     0.0000 </r>
       <r>   -10.0565     0.0000     0.0000 </r>
       <r>   -10.0147     0.0000     0.0000 </r>
       <r>    -9.9729     0.0000     0.0000 </r>
       <r>    -9.9311     0.0000     0.0000 </r>
       <r>    -9.8893     0.0000     0.0000 </r>
       <r>    -9.8475     0.0000     0.0000 </r>
       <r>    -9.8057     0.0000     1.0000 </r>
       <r>    -9.7639     0.0000     1.0000 </r>
       <r>    -9.7221     0.0000     1.0000 </r>
       <r>    -9.6803     0.0000     1.0000 </r>
       <r>    -9.6385     0.0000     1.0000 </r>
       <r>    -9.5967     0.0000     1.0000 </r>
       <r>    -9.5549     0.0000     1.0000 </r>
       <r>    -9.5131     0.0000     1.0000 </r>
       <r>    -9.4713     0.0000     1.0000 </r>
       <r>    -9.4295     0.0000     1.0000 </r>
       <r>    -9.3877     0.0000     1.0000 </r>
       <r>    -9.3459     0.0000     1.0000 </r>
       <r>    -9.3041     0.0000     1.0000 </r>
       <r>    -9.2623     0.0000     1.0000 </r>
       <r>    -9.2205     0.0000     1.0000 </r>
       <r>    -9.1787     0.0000     3.0000 </r>
       <r>    -9.1369     0.0000     4.0000 </r>
       <r>    -9.0951     0.0000     5.0000 </r>
       <r>    -9.0533     0.0000     6.0000 </r>
       <r>    -9.0115     0.0000     7.0000 </r>
       <r>    -8.9697     0.0000     8.0000 </r>
       <r>    -8.9279     0.0000     9.0000 </r>
       <r>    -8.8861     0.0000     9.0000 </r>
       <r>    -8.8443     0.0000    11.0000 </r>
       <r>    -8.8025     0.0000    12.0000 </r>
       <r>    -8.7607     0.0000    13.0000 </r>
       <r>    -8.7189     0.0000    15.0000 </r>
       <r>    -8.6771     0.0000    17.0000 </r>
       <r>    -8.6353     0.0000    19.0000 </r>
       <r>    -8.5935     0.0000    22.0000 </r>
       <r>    -8.5517     0.0000    24.0000 </r>
       <r>    -8.5099     0.0000    29.0000 </r>
       <r>    -8.4681     0.0000    32.0000 </r>
       <r>    -8.4263     0.0000    34.0000 </r>
       <r>    -8.3845     0.0000    37.0000 </r>
       <r>    -8.3427     0.0000    41.0000 </r>
       <r>    -8.3009     0.0000    44.0000 </r>
       <r>    -8.2591     0.0000    47.0000 </r>
       <r>    -8.2172    11.1687    50.4669 </r>
       <r>    -8.1754     0.0000    54.0000 </r>
       <r>    -8.1336     0.0000    57.0000 </r>
       <r>    -8.0918     0.0000    60.0000 </r>
       <r>    -8.0500     0.0000    64.0000 </r>
       <r>    -8.0082     0.0000    67.0000 </r>
       <r>    -7.9664     0.0000    70.0000 </r>
       <r>    -7.9246     0.0000    73.0000 </r>
       <r>    -7.8828     0.0000    77.0000 </r>
       <r>    -7.8410     0.0000    80.0000 </r>
       <r>    -7.7992     0.0000    82.0000 </r>
       <r>    -7.7574     0.0574    85.0024 </r>
       <r>    -7.7156     0.0000    88.0000 </r>
       <r>    -7.6738     0.0000    92.0000 </r>
       <r>    -7.6320     0.0000    95.0000 </r>
       <r>    -7.5902     0.0000    98.0000 </r>
       <r>    -7.5484     0.0000   102.0000 </r>
       <r>    -7.5066     0.0000   105.0000 </r>
       <r>    -7.4648     0.0000   108.0000 </r>
       <r>    -7.4230     0.0000   111.0000 </r>
       <r>    -7.3812     0.0000   115.0000 </r>
       <r>    -7.3394     0.0000   118.0000 </r>
       <r>    -7.2976     0.0000   122.0000 </r>
       <r>    -7.2558     0.0000   126.0000 </r>
       <r>    -7.2140    23.9224   130.0000 </r>
       <r>    -7.1722    23.9200   132.9999 </r>
       <r>    -7.1304     0.0000   135.0000 </r>
       <r>    -7.0886     0.0000   139.0000 </r>
       <r>    -7.0468     0.0000   141.0000 </r>
       <r>    -7.0050    23.9224   145.0000 </r>
       <r>    -6.9632     0.0000   148.0000 </r>
       <r>    -6.9214     0.0000   151.0000 </r>
       <r>    -6.8796     0.0000   154.0000 </r>
       <r>    -6.8378     0.0000   156.0000 </r>
       <r>    -6.7960     0.0000   162.0000 </r>
       <r>    -6.7542     0.0000   166.0000 </r>
       <r>    -6.7124     0.0000   170.0000 </r>
       <r>    -6.6706     0.0000   175.0000 </r>
       <r>    -6.6288     0.0000   180.0000 </r>
       <r>    -6.5870     0.0000   185.0000 </r>
       <r>    -6.5452    23.9224   192.0000 </r>
       <r>    -6.5034     0.0000   197.0000 </r>
       <r>    -6.4616     0.0000   202.0000 </r>
       <r>    -6.4198     0.0000   207.0000 </r>
       <r>    -6.3780     0.0000   213.0000 </r>
       <r>    -6.3362     0.0000   218.0000 </r>
       <r>    -6.2944     0.0000   223.0000 </r>
       <r>    -6.2526     0.0000   227.0000 </r>
       <r>    -6.2108     0.0000   231.0000 </r>
       <r>    -6.1690     0.0000   236.0000 </r>
       <r>    -6.1272     0.0000   240.0000 </r>
       <r>    -6.0854     0.0088   244.0004 </r>
       <r>    -6.0435     0.0000   247.0000 </r>
       <r>    -6.0017     0.0000   249.0000 </r>
       <r>    -5.9599     0.0000   250.0000 </r>
       <r>    -5.9181     0.0000   252.0000 </r>
       <r>    -5.8763     0.0000   252.0000 </r>
       <r>    -5.8345     0.0000   252.0000 </r>
       <r>    -5.7927     0.0000   253.0000 </r>
       <r>    -5.7509     0.0000   254.0000 </r>
       <r>    -5.7091     0.0000   254.0000 </r>
       <r>    -5.6673     0.0000   254.0000 </r>
       <r>    -5.6255     0.0000   254.0000 </r>
       <r>    -5.5837     0.0000   254.0000 </r>
       <r>    -5.5419     0.0000   254.0000 </r>
       <r>    -5.5001     0.0000   254.0000 </r>
       <r>    -5.4583     0.0000   254.0000 </r>
       <r>    -5.4165     0.0000   254.0000 </r>
       <r>    -5.3747     0.0000   255.0000 </r>
       <r>    -5.3329     0.0000   255.0000 </r>
       <r>    -5.2911     0.0000   255.0000 </r>
       <r>    -5.2493     0.0000   255.0000 </r>
       <r>    -5.2075     0.0000   256.0000 </r>
       <r>    -5.1657     0.0000   256.0000 </r>
       <r>    -5.1239     0.0000   256.0000 </r>
       <r>    -5.0821     0.0000   256.0000 </r>
       <r>    -5.0403     0.0000   257.0000 </r>
       <r>    -4.9985     0.0000   257.0000 </r>
       <r>    -4.9567     0.0000   258.0000 </r>
       <r>    -4.9149     0.0000   258.0000 </r>
       <r>    -4.8731     0.0000   258.0000 </r>
       <r>    -4.8313     0.0000   258.0000 </r>
       <r>    -4.7895     0.0000   258.0000 </r>
       <r>    -4.7477     0.0000   259.0000 </r>
       <r>    -4.7059     0.0000   259.0000 </r>
       <r>    -4.6641     0.0000   260.0000 </r>
       <r>    -4.6223     0.0000   260.0000 </r>
       <r>    -4.5805     0.0000   260.0000 </r>
       <r>    -4.5387     0.0000   260.0000 </r>
       <r>    -4.4969     0.0000   260.0000 </r>
       <r>    -4.4551     0.0000   260.0000 </r>
       <r>    -4.4133     0.0000   260.0000 </r>
       <r>    -4.3715     0.0000   261.0000 </r>
       <r>    -4.3297     0.0000   261.0000 </r>
       <r>    -4.2879     0.0000   262.0000 </r>
       <r>    -4.2461     0.0000   262.0000 </r>
       <r>    -4.2043     0.0000   262.0000 </r>
       <r>    -4.1625     0.0000   263.0000 </r>
       <r>    -4.1207     0.0000   263.0000 </r>
       <r>    -4.0789     0.0000   263.0000 </r>
       <r>    -4.0371     0.0000   263.0000 </r>
       <r>    -3.9953     0.0000   263.0000 </r>
       <r>    -3.9535     0.0000   263.0000 </r>
       <r>    -3.9117     0.0000   263.0000 </r>
       <r>    -3.8699     0.0000   264.0000 </r>
       <r>    -3.8280     0.0000   265.0000 </r>
       <r>    -3.7862     0.0000   265.0000 </r>
       <r>    -3.7444     0.0000   265.0000 </r>
       <r>    -3.7026     0.0000   266.0000 </r>
       <r>    -3.6608     0.0000   266.0000 </r>
       <r>    -3.6190     0.0000   266.0000 </r>
       <r>    -3.5772     0.0000   267.0000 </r>
       <r>    -3.5354     0.0000   267.0000 </r>
       <r>    -3.4936     0.0000   267.0000 </r>
       <r>    -3.4518     0.0000   268.0000 </r>
       <r>    -3.4100     0.0000   268.0000 </r>
       <r>    -3.3682     0.0000   268.0000 </r>
       <r>    -3.3264     0.0000   268.0000 </r>
       <r>    -3.2846     0.0000   269.0000 </r>
       <r>    -3.2428     0.0000   269.0000 </r>
       <r>    -3.2010     0.0000   269.0000 </r>
       <r>    -3.1592     0.0000   270.0000 </r>
       <r>    -3.1174     0.0000   270.0000 </r>
       <r>    -3.0756     0.0000   270.0000 </r>
       <r>    -3.0338     0.0000   270.0000 </r>
       <r>    -2.9920     0.0000   270.0000 </r>
       <r>    -2.9502     0.0000   271.0000 </r>
       <r>    -2.9084     0.0000   271.0000 </r>
       <r>    -2.8666     0.0000   272.0000 </r>
       <r>    -2.8248     0.0000   272.0000 </r>
       <r>    -2.7830     0.0000   272.0000 </r>
       <r>    -2.7412     0.0000   272.0000 </r>
       <r>    -2.6994     0.0000   272.0000 </r>
       <r>    -2.6576     0.0000   273.0000 </r>
       <r>    -2.6158     0.0000   273.0000 </r>
       <r>    -2.5740     0.0000   274.0000 </r>
       <r>    -2.5322     0.0000   274.0000 </r>
       <r>    -2.4904     0.0000   274.0000 </r>
       <r>    -2.4486     0.0000   274.0000 </r>
       <r>    -2.4068     0.0000   275.0000 </r>
       <r>    -2.3650     0.0000   276.0000 </r>
       <r>    -2.3232     0.0000   276.0000 </r>
       <r>    -2.2814     0.0000   277.0000 </r>
       <r>    -2.2396     0.0000   277.0000 </r>
       <r>    -2.1978     0.0000   278.0000 </r>
       <r>    -2.1560     0.0000   279.0000 </r>
       <r>    -2.1142     0.0000   279.0000 </r>
       <r>    -2.0724     0.0000   279.0000 </r>
       <r>    -2.0306     0.0000   281.0000 </r>
       <r>    -1.9888     0.0000   281.0000 </r>
       <r>    -1.9470     0.0000   282.0000 </r>
       <r>    -1.9052     0.0000   282.0000 </r>
       <r>    -1.8634     0.0000   283.0000 </r>
       <r>    -1.8216     0.0000   284.0000 </r>
       <r>    -1.7798     0.0000   284.0000 </r>
       <r>    -1.7380     0.0000   284.0000 </r>
       <r>    -1.6962     0.0000   285.0000 </r>
       <r>    -1.6543     0.0000   285.0000 </r>
       <r>    -1.6125     0.0000   285.0000 </r>
       <r>    -1.5707     0.0000   285.0000 </r>
       <r>    -1.5289     0.0000   286.0000 </r>
       <r>    -1.4871     0.0000   286.0000 </r>
       <r>    -1.4453     0.0000   287.0000 </r>
       <r>    -1.4035     0.0000   287.0000 </r>
       <r>    -1.3617     0.0000   288.0000 </r>
       <r>    -1.3199     0.0000   288.0000 </r>
       <r>    -1.2781     0.0000   288.0000 </r>
       <r>    -1.2363     0.0000   290.0000 </r>
       <r>    -1.1945     0.0000   290.0000 </r>
       <r>    -1.1527     0.0000   290.0000 </r>
       <r>    -1.1109     0.0000   291.0000 </r>
       <r>    -1.0691     0.0000   291.0000 </r>
       <r>    -1.0273     0.0000   292.0000 </r>
       <r>    -0.9855     0.0000   292.0000 </r>
       <r>    -0.9437     0.0000   293.0000 </r>
       <r>    -0.9019     0.0000   293.0000 </r>
       <r>    -0.8601     0.0000   293.0000 </r>
       <r>    -0.8183     0.0000   293.0000 </r>
       <r>    -0.7765     0.0000   295.0000 </r>
       <r>    -0.7347     0.0000   295.0000 </r>
       <r>    -0.6929     0.0000   296.0000 </r>
       <r>    -0.6511     0.0000   296.0000 </r>
       <r>    -0.6093     0.0000   298.0000 </r>
       <r>    -0.5675     0.0000   298.0000 </r>
       <r>    -0.5257     0.0000   299.0000 </r>
       <r>    -0.4839     0.0000   299.0000 </r>
       <r>    -0.4421     0.0000   301.0000 </r>
       <r>    -0.4003     0.0000   301.0000 </r>
       <r>    -0.3585     0.0000   301.0000 </r>
       <r>    -0.3167     0.0000   302.0000 </r>
       <r>    -0.2749     0.0000   302.0000 </r>
       <r>    -0.2331     0.0000   303.0000 </r>
       <r>    -0.1913     0.0000   303.0000 </r>
       <r>    -0.1495     0.0000   303.0000 </r>
       <r>    -0.1077     0.0000   304.0000 </r>
       <r>    -0.0659     0.0000   304.0000 </r>
       <r>    -0.0241     0.0000   305.0000 </r>
       <r>     0.0177     0.0000   305.0000 </r>
       <r>     0.0595     0.0000   305.0000 </r>
       <r>     0.1013    23.9224   306.0000 </r>
       <r>     0.1431     0.0000   307.0000 </r>
       <r>     0.1849     0.0000   307.0000 </r>
       <r>     0.2267     0.0000   307.0000 </r>
       <r>     0.2685     0.0000   307.0000 </r>
       <r>     0.3103     0.0000   308.0000 </r>
       <r>     0.3521     0.0000   309.0000 </r>
       <r>     0.3939     0.0000   309.0000 </r>
       <r>     0.4357     0.0000   310.0000 </r>
       <r>     0.4775     0.0000   311.0000 </r>
       <r>     0.5193     0.0000   312.0000 </r>
       <r>     0.5612     0.0000   312.0000 </r>
       <r>     0.6030     0.0000   313.0000 </r>
       <r>     0.6448     0.0000   313.0000 </r>
       <r>     0.6866     0.0000   314.0000 </r>
       <r>     0.7284     0.0000   314.0000 </r>
       <r>     0.7702     0.0000   315.0000 </r>
       <r>     0.8120     0.0000   316.0000 </r>
       <r>     0.8538     0.0000   317.0000 </r>
       <r>     0.8956     0.0000   318.0000 </r>
       <r>     0.9374     0.0000   318.0000 </r>
       <r>     0.9792     0.0000   319.0000 </r>
       <r>     1.0210     0.0000   323.0000 </r>
       <r>     1.0628     0.0000   323.0000 </r>
       <r>     1.1046    23.7123   324.9912 </r>
       <r>     1.1464     0.0000   327.0000 </r>
       <r>     1.1882     0.0000   329.0000 </r>
       <r>     1.2300     0.0000   332.0000 </r>
       <r>     1.2718     0.0000   334.0000 </r>
       <r>     1.3136     0.0000   335.0000 </r>
       <r>     1.3554     0.0000   336.0000 </r>
       <r>     1.3972    23.9224   339.0000 </r>
       <r>     1.4390    23.9030   339.9992 </r>
       <r>     1.4808     0.0000   342.0000 </r>
       <r>     1.5226    23.9224   345.0000 </r>
       <r>     1.5644     0.0000   347.0000 </r>
       <r>     1.6062     0.0000   348.0000 </r>
       <r>     1.6480     0.0000   348.0000 </r>
       <r>     1.6898     0.0000   348.0000 </r>
       <r>     1.7316     0.0000   348.0000 </r>
       <r>     1.7734     0.0000   348.0000 </r>
       <r>     1.8152     0.0000   348.0000 </r>
       <r>     1.8570     0.0000   348.0000 </r>
       <r>     1.8988     0.0000   348.0000 </r>
       <r>     1.9406     0.0000   348.0000 </r>
       <r>     1.9824     0.0000   348.0000 </r>
       <r>     2.0242     0.0000   348.0000 </r>
       <r>     2.0660     0.0000   348.0000 </r>
       <r>     2.1078     0.0000   348.0000 </r>
       <r>     2.1496     0.0000   348.0000 </r>
      </set>
     </set>
    </array>
   </total>
  </dos>
 </calculation>
 <structure name="finalpos" >
  <crystal>
   <varray name="basis" >
    <v>      22.81332769       0.00000000       0.00000000 </v>
    <v>       0.00000000      22.81332769       0.00000000 </v>
    <v>       0.00000000       0.00000000      22.81332769 </v>
   </varray>
   <i name="volume">  11873.14894456 </i>
   <varray name="rec_basis" >
    <v>       0.04383403       0.00000000       0.00000000 </v>
    <v>       0.00000000       0.04383403       0.00000000 </v>
    <v>       0.00000000       0.00000000       0.04383403 </v>
   </varray>
  </crystal>
  <varray name="positions" >
   <v>       0.69794779       0.42102253       0.41329666 </v>
   <v>       0.70822484       0.51846655       0.34344992 </v>
   <v>       0.60169762       0.46045964       0.33405161 </v>
   <v>       0.74793657       0.52225598       0.46339698 </v>
   <v>       0.58503802       0.39809073       0.44273232 </v>
   <v>       0.65532613       0.44518930       0.53654127 </v>
   <v>       0.51255927       0.37887788       0.34448387 </v>
   <v>       0.60168634       0.58714403       0.33680506 </v>
   <v>       0.52773382       0.29237717       0.43092135 </v>
   <v>       0.62534883       0.53147012       0.44724172 </v>
   <v>       0.70643414       0.62444650       0.39649265 </v>
   <v>       0.49762787       0.53595825       0.29337425 </v>
   <v>       0.52107926       0.34960780       0.54557494 </v>
   <v>       0.41605066       0.45111635       0.33824013 </v>
   <v>       0.73376721       0.52997240       0.58512404 </v>
   <v>       0.53229928       0.47176856       0.52356694 </v>
   <v>       0.50955997       0.50426165       0.40583169 </v>
   <v>       0.37346757       0.34390750       0.38940356 </v>
   <v>       0.45460044       0.40060554       0.45392357 </v>
   <v>       0.60065017       0.66628352       0.43649307 </v>
   <v>       0.49487223       0.63337750       0.37980096 </v>
   <v>       0.65418608       0.49169668       0.66823730 </v>
   <v>       0.69656687       0.62356535       0.51614603 </v>
   <v>       0.42551744       0.28160142       0.49085527 </v>
   <v>       0.41235177       0.31035836       0.60815865 </v>
   <v>       0.42805589       0.42861505       0.58056061 </v>
   <v>       0.60665988       0.55298736       0.57497153 </v>
   <v>       0.39365412       0.56303726       0.37888907 </v>
   <v>       0.59910500       0.68076482       0.55779320 </v>
   <v>       0.33518229       0.45927551       0.42988907 </v>
   <v>       0.67160821       0.62374991       0.64428246 </v>
   <v>       0.34160006       0.36584631       0.51276071 </v>
   <v>       0.54024018       0.44765911       0.64482502 </v>
   <v>       0.39071754       0.67285074       0.43362598 </v>
   <v>       0.49304250       0.70948201       0.49668603 </v>
   <v>       0.41950147       0.51834721       0.49517343 </v>
   <v>       0.47184957       0.54449050       0.60644769 </v>
   <v>       0.32091338       0.38810576       0.63385005 </v>
   <v>       0.42967819       0.39857235       0.69747659 </v>
   <v>       0.51992857       0.59371505       0.49860346 </v>
   <v>       0.56364374       0.57522742       0.68869295 </v>
   <v>       0.49999634       0.66307342       0.62022282 </v>
   <v>       0.31536236       0.57939676       0.47683968 </v>
   <v>       0.30886553       0.47945309       0.55071714 </v>
   <v>       0.46586143       0.51229107       0.72551863 </v>
   <v>       0.35777334       0.49941203       0.66562553 </v>
   <v>       0.40303418       0.63598096       0.54923849 </v>
   <v>       0.40062085       0.61368750       0.67547514 </v>
   <v>       0.30263138       0.58873344       0.60189628 </v>
  </varray>
 </structure>
</modeling>
