  54  54   0   0
  0.2561078E+03  0.2400337E-08  0.2400337E-08  0.2400337E-08  0.1000000E-15
  1.000000000000000E-004
  CAR 
 unknown system                          
      2.14402472    -10.34689001  301     -3.34156867      1.00000000
    -10.347  0.0000E+00  0.0000E+00  0.0000E+00  0.0000E+00
    -10.305  0.0000E+00  0.0000E+00  0.0000E+00  0.0000E+00
    -10.264  0.0000E+00  0.0000E+00  0.0000E+00  0.0000E+00
    -10.222  0.0000E+00  0.0000E+00  0.0000E+00  0.0000E+00
    -10.180  0.0000E+00  0.0000E+00  0.0000E+00  0.0000E+00
    -10.139  0.0000E+00  0.0000E+00  0.0000E+00  0.0000E+00
    -10.097  0.0000E+00  0.0000E+00  0.0000E+00  0.0000E+00
    -10.055  0.0000E+00  0.0000E+00  0.0000E+00  0.0000E+00
    -10.014  0.0000E+00  0.0000E+00  0.0000E+00  0.0000E+00
     -9.972  0.0000E+00  0.0000E+00  0.0000E+00  0.0000E+00
     -9.931  0.0000E+00  0.0000E+00  0.0000E+00  0.0000E+00
     -9.889  0.0000E+00  0.0000E+00  0.0000E+00  0.0000E+00
     -9.847  0.0000E+00  0.0000E+00  0.0000E+00  0.0000E+00
     -9.806  0.0000E+00  0.0000E+00  0.0000E+00  0.0000E+00
     -9.764  0.0000E+00  0.0000E+00  0.1000E-02  0.1000E-02
     -9.722  0.0000E+00  0.0000E+00  0.1000E-02  0.1000E-02
     -9.681  0.0000E+00  0.0000E+00  0.1000E-02  0.1000E-02
     -9.639  0.0000E+00  0.0000E+00  0.1000E-02  0.1000E-02
     -9.597  0.0000E+00  0.0000E+00  0.1000E-02  0.1000E-02
     -9.556  0.0000E+00  0.0000E+00  0.1000E-02  0.1000E-02
     -9.514  0.0000E+00  0.0000E+00  0.1000E-02  0.1000E-02
     -9.473  0.0000E+00  0.0000E+00  0.1000E-02  0.1000E-02
     -9.431  0.0000E+00  0.0000E+00  0.1000E-02  0.1000E-02
     -9.389  0.0000E+00  0.0000E+00  0.1000E-02  0.1000E-02
     -9.348  0.0000E+00  0.0000E+00  0.1000E-02  0.1000E-02
     -9.306  0.0000E+00  0.0000E+00  0.1000E-02  0.1000E-02
     -9.264  0.0000E+00  0.0000E+00  0.1000E-02  0.1000E-02
     -9.223  0.0000E+00  0.0000E+00  0.2000E-02  0.2000E-02
     -9.181  0.0000E+00  0.0000E+00  0.2000E-02  0.2000E-02
     -9.139  0.0000E+00  0.0000E+00  0.3000E-02  0.3000E-02
     -9.098  0.0000E+00  0.0000E+00  0.4000E-02  0.4000E-02
     -9.056  0.0000E+00  0.0000E+00  0.4000E-02  0.4000E-02
     -9.015  0.0000E+00  0.0000E+00  0.6000E-02  0.6000E-02
     -8.973  0.0000E+00  0.0000E+00  0.8000E-02  0.8000E-02
     -8.931  0.0000E+00  0.0000E+00  0.1100E-01  0.1100E-01
     -8.890  0.0000E+00  0.0000E+00  0.1300E-01  0.1300E-01
     -8.848  0.0000E+00  0.0000E+00  0.1400E-01  0.1400E-01
     -8.806  0.2402E-01  0.2402E-01  0.1800E-01  0.1800E-01
     -8.765  0.0000E+00  0.0000E+00  0.2100E-01  0.2100E-01
     -8.723  0.0000E+00  0.0000E+00  0.2400E-01  0.2400E-01
     -8.681  0.0000E+00  0.0000E+00  0.2700E-01  0.2700E-01
     -8.640  0.0000E+00  0.0000E+00  0.3000E-01  0.3000E-01
     -8.598  0.1038E-05  0.1038E-05  0.3400E-01  0.3400E-01
     -8.557  0.0000E+00  0.0000E+00  0.3700E-01  0.3700E-01
     -8.515  0.0000E+00  0.0000E+00  0.4000E-01  0.4000E-01
     -8.473  0.0000E+00  0.0000E+00  0.4300E-01  0.4300E-01
     -8.432  0.0000E+00  0.0000E+00  0.4700E-01  0.4700E-01
     -8.390  0.5831E-11  0.5830E-11  0.4900E-01  0.4900E-01
     -8.348  0.0000E+00  0.0000E+00  0.5300E-01  0.5300E-01
     -8.307  0.0000E+00  0.0000E+00  0.5500E-01  0.5500E-01
     -8.265  0.0000E+00  0.0000E+00  0.5900E-01  0.5900E-01
     -8.223  0.0000E+00  0.0000E+00  0.6200E-01  0.6200E-01
     -8.182  0.0000E+00  0.0000E+00  0.6600E-01  0.6600E-01
     -8.140  0.0000E+00  0.0000E+00  0.6900E-01  0.6900E-01
     -8.099  0.0000E+00  0.0000E+00  0.7300E-01  0.7300E-01
     -8.057  0.0000E+00  0.0000E+00  0.7600E-01  0.7600E-01
     -8.015  0.2402E-01  0.2402E-01  0.7900E-01  0.7900E-01
     -7.974  0.2402E-01  0.2402E-01  0.8300E-01  0.8300E-01
     -7.932  0.0000E+00  0.0000E+00  0.8600E-01  0.8600E-01
     -7.890  0.0000E+00  0.0000E+00  0.9000E-01  0.9000E-01
     -7.849  0.0000E+00  0.0000E+00  0.9400E-01  0.9400E-01
     -7.807  0.0000E+00  0.0000E+00  0.9700E-01  0.9700E-01
     -7.765  0.0000E+00  0.0000E+00  0.1010E+00  0.1010E+00
     -7.724  0.0000E+00  0.0000E+00  0.1040E+00  0.1040E+00
     -7.682  0.0000E+00  0.0000E+00  0.1080E+00  0.1080E+00
     -7.641  0.0000E+00  0.0000E+00  0.1130E+00  0.1130E+00
     -7.599  0.0000E+00  0.0000E+00  0.1160E+00  0.1160E+00
     -7.557  0.0000E+00  0.0000E+00  0.1190E+00  0.1190E+00
     -7.516  0.0000E+00  0.0000E+00  0.1230E+00  0.1230E+00
     -7.474  0.0000E+00  0.0000E+00  0.1260E+00  0.1260E+00
     -7.432  0.0000E+00  0.0000E+00  0.1310E+00  0.1310E+00
     -7.391  0.0000E+00  0.0000E+00  0.1340E+00  0.1340E+00
     -7.349  0.0000E+00  0.0000E+00  0.1380E+00  0.1380E+00
     -7.307  0.0000E+00  0.0000E+00  0.1410E+00  0.1410E+00
     -7.266  0.0000E+00  0.0000E+00  0.1450E+00  0.1450E+00
     -7.224  0.0000E+00  0.0000E+00  0.1490E+00  0.1490E+00
     -7.183  0.0000E+00  0.0000E+00  0.1520E+00  0.1520E+00
     -7.141  0.0000E+00  0.0000E+00  0.1560E+00  0.1560E+00
     -7.099  0.0000E+00  0.0000E+00  0.1600E+00  0.1600E+00
     -7.058  0.0000E+00  0.0000E+00  0.1630E+00  0.1630E+00
     -7.016  0.1066E-11  0.1066E-11  0.1660E+00  0.1660E+00
     -6.974  0.0000E+00  0.0000E+00  0.1700E+00  0.1700E+00
     -6.933  0.0000E+00  0.0000E+00  0.1750E+00  0.1750E+00
     -6.891  0.0000E+00  0.0000E+00  0.1790E+00  0.1790E+00
     -6.849  0.0000E+00  0.0000E+00  0.1830E+00  0.1830E+00
     -6.808  0.2402E-01  0.2402E-01  0.1880E+00  0.1880E+00
     -6.766  0.0000E+00  0.0000E+00  0.1930E+00  0.1930E+00
     -6.725  0.0000E+00  0.0000E+00  0.1990E+00  0.1990E+00
     -6.683  0.0000E+00  0.0000E+00  0.2040E+00  0.2040E+00
     -6.641  0.1330E-04  0.1329E-04  0.2100E+00  0.2100E+00
     -6.600  0.0000E+00  0.0000E+00  0.2160E+00  0.2160E+00
     -6.558  0.0000E+00  0.0000E+00  0.2210E+00  0.2210E+00
     -6.516  0.0000E+00  0.0000E+00  0.2270E+00  0.2270E+00
     -6.475  0.1315E-05  0.1317E-05  0.2320E+00  0.2320E+00
     -6.433  0.0000E+00  0.0000E+00  0.2400E+00  0.2400E+00
     -6.391  0.0000E+00  0.0000E+00  0.2440E+00  0.2440E+00
     -6.350  0.0000E+00  0.0000E+00  0.2500E+00  0.2500E+00
     -6.308  0.0000E+00  0.0000E+00  0.2540E+00  0.2540E+00
     -6.267  0.0000E+00  0.0000E+00  0.2580E+00  0.2580E+00
     -6.225  0.0000E+00  0.0000E+00  0.2640E+00  0.2640E+00
     -6.183  0.0000E+00  0.0000E+00  0.2670E+00  0.2670E+00
     -6.142  0.0000E+00  0.0000E+00  0.2700E+00  0.2700E+00
     -6.100  0.0000E+00  0.0000E+00  0.2730E+00  0.2730E+00
     -6.058  0.0000E+00  0.0000E+00  0.2750E+00  0.2750E+00
     -6.017  0.0000E+00  0.0000E+00  0.2770E+00  0.2770E+00
     -5.975  0.0000E+00  0.0000E+00  0.2780E+00  0.2780E+00
     -5.933  0.0000E+00  0.0000E+00  0.2780E+00  0.2780E+00
     -5.892  0.0000E+00  0.0000E+00  0.2780E+00  0.2780E+00
     -5.850  0.0000E+00  0.0000E+00  0.2780E+00  0.2780E+00
     -5.809  0.0000E+00  0.0000E+00  0.2780E+00  0.2780E+00
     -5.767  0.0000E+00  0.0000E+00  0.2790E+00  0.2790E+00
     -5.725  0.0000E+00  0.0000E+00  0.2790E+00  0.2790E+00
     -5.684  0.0000E+00  0.0000E+00  0.2790E+00  0.2790E+00
     -5.642  0.0000E+00  0.0000E+00  0.2800E+00  0.2800E+00
     -5.600  0.0000E+00  0.0000E+00  0.2800E+00  0.2800E+00
     -5.559  0.0000E+00  0.0000E+00  0.2800E+00  0.2800E+00
     -5.517  0.0000E+00  0.0000E+00  0.2810E+00  0.2810E+00
     -5.475  0.0000E+00  0.0000E+00  0.2810E+00  0.2810E+00
     -5.434  0.0000E+00  0.0000E+00  0.2820E+00  0.2820E+00
     -5.392  0.0000E+00  0.0000E+00  0.2820E+00  0.2820E+00
     -5.351  0.0000E+00  0.0000E+00  0.2820E+00  0.2820E+00
     -5.309  0.0000E+00  0.0000E+00  0.2820E+00  0.2820E+00
     -5.267  0.0000E+00  0.0000E+00  0.2820E+00  0.2820E+00
     -5.226  0.0000E+00  0.0000E+00  0.2830E+00  0.2830E+00
     -5.184  0.0000E+00  0.0000E+00  0.2830E+00  0.2830E+00
     -5.142  0.0000E+00  0.0000E+00  0.2830E+00  0.2830E+00
     -5.101  0.0000E+00  0.0000E+00  0.2830E+00  0.2830E+00
     -5.059  0.0000E+00  0.0000E+00  0.2840E+00  0.2840E+00
     -5.017  0.0000E+00  0.0000E+00  0.2840E+00  0.2840E+00
     -4.976  0.0000E+00  0.0000E+00  0.2850E+00  0.2850E+00
     -4.934  0.0000E+00  0.0000E+00  0.2850E+00  0.2850E+00
     -4.893  0.0000E+00  0.0000E+00  0.2850E+00  0.2850E+00
     -4.851  0.0000E+00  0.0000E+00  0.2850E+00  0.2850E+00
     -4.809  0.0000E+00  0.0000E+00  0.2850E+00  0.2850E+00
     -4.768  0.0000E+00  0.0000E+00  0.2860E+00  0.2860E+00
     -4.726  0.0000E+00  0.0000E+00  0.2860E+00  0.2860E+00
     -4.684  0.0000E+00  0.0000E+00  0.2860E+00  0.2860E+00
     -4.643  0.2402E-01  0.2402E-01  0.2870E+00  0.2870E+00
     -4.601  0.0000E+00  0.0000E+00  0.2870E+00  0.2870E+00
     -4.559  0.0000E+00  0.0000E+00  0.2870E+00  0.2870E+00
     -4.518  0.0000E+00  0.0000E+00  0.2870E+00  0.2870E+00
     -4.476  0.0000E+00  0.0000E+00  0.2870E+00  0.2870E+00
     -4.435  0.0000E+00  0.0000E+00  0.2880E+00  0.2880E+00
     -4.393  0.0000E+00  0.0000E+00  0.2880E+00  0.2880E+00
     -4.351  0.0000E+00  0.0000E+00  0.2880E+00  0.2880E+00
     -4.310  0.0000E+00  0.0000E+00  0.2880E+00  0.2880E+00
     -4.268  0.0000E+00  0.0000E+00  0.2890E+00  0.2890E+00
     -4.226  0.0000E+00  0.0000E+00  0.2900E+00  0.2900E+00
     -4.185  0.0000E+00  0.0000E+00  0.2900E+00  0.2900E+00
     -4.143  0.0000E+00  0.0000E+00  0.2900E+00  0.2900E+00
     -4.101  0.0000E+00  0.0000E+00  0.2900E+00  0.2900E+00
     -4.060  0.0000E+00  0.0000E+00  0.2900E+00  0.2900E+00
     -4.018  0.0000E+00  0.0000E+00  0.2910E+00  0.2910E+00
     -3.977  0.0000E+00  0.0000E+00  0.2910E+00  0.2910E+00
     -3.935  0.0000E+00  0.0000E+00  0.2910E+00  0.2910E+00
     -3.893  0.0000E+00  0.0000E+00  0.2920E+00  0.2920E+00
     -3.852  0.0000E+00  0.0000E+00  0.2920E+00  0.2920E+00
     -3.810  0.0000E+00  0.0000E+00  0.2920E+00  0.2920E+00
     -3.768  0.0000E+00  0.0000E+00  0.2920E+00  0.2920E+00
     -3.727  0.0000E+00  0.0000E+00  0.2930E+00  0.2930E+00
     -3.685  0.0000E+00  0.0000E+00  0.2940E+00  0.2940E+00
     -3.643  0.0000E+00  0.0000E+00  0.2940E+00  0.2940E+00
     -3.602  0.0000E+00  0.0000E+00  0.2940E+00  0.2940E+00
     -3.560  0.0000E+00  0.0000E+00  0.2940E+00  0.2940E+00
     -3.519  0.0000E+00  0.0000E+00  0.2940E+00  0.2940E+00
     -3.477  0.0000E+00  0.0000E+00  0.2950E+00  0.2950E+00
     -3.435  0.0000E+00  0.0000E+00  0.2950E+00  0.2950E+00
     -3.394  0.0000E+00  0.0000E+00  0.2950E+00  0.2950E+00
     -3.352  0.0000E+00  0.0000E+00  0.2970E+00  0.2970E+00
     -3.310  0.0000E+00  0.0000E+00  0.2970E+00  0.2970E+00
     -3.269  0.0000E+00  0.0000E+00  0.2970E+00  0.2970E+00
     -3.227  0.0000E+00  0.0000E+00  0.2970E+00  0.2970E+00
     -3.185  0.0000E+00  0.0000E+00  0.2970E+00  0.2970E+00
     -3.144  0.0000E+00  0.0000E+00  0.2980E+00  0.2980E+00
     -3.102  0.0000E+00  0.0000E+00  0.2980E+00  0.2980E+00
     -3.061  0.0000E+00  0.0000E+00  0.2980E+00  0.2980E+00
     -3.019  0.0000E+00  0.0000E+00  0.3000E+00  0.3000E+00
     -2.977  0.0000E+00  0.0000E+00  0.3000E+00  0.3000E+00
     -2.936  0.0000E+00  0.0000E+00  0.3000E+00  0.3000E+00
     -2.894  0.0000E+00  0.0000E+00  0.3010E+00  0.3010E+00
     -2.852  0.0000E+00  0.0000E+00  0.3010E+00  0.3010E+00
     -2.811  0.0000E+00  0.0000E+00  0.3010E+00  0.3010E+00
     -2.769  0.0000E+00  0.0000E+00  0.3010E+00  0.3010E+00
     -2.727  0.0000E+00  0.0000E+00  0.3010E+00  0.3010E+00
     -2.686  0.0000E+00  0.0000E+00  0.3020E+00  0.3020E+00
     -2.644  0.0000E+00  0.0000E+00  0.3020E+00  0.3020E+00
     -2.603  0.0000E+00  0.0000E+00  0.3020E+00  0.3020E+00
     -2.561  0.0000E+00  0.0000E+00  0.3030E+00  0.3030E+00
     -2.519  0.0000E+00  0.0000E+00  0.3040E+00  0.3040E+00
     -2.478  0.0000E+00  0.0000E+00  0.3040E+00  0.3040E+00
     -2.436  0.0000E+00  0.0000E+00  0.3050E+00  0.3050E+00
     -2.394  0.0000E+00  0.0000E+00  0.3060E+00  0.3060E+00
     -2.353  0.0000E+00  0.0000E+00  0.3070E+00  0.3070E+00
     -2.311  0.0000E+00  0.0000E+00  0.3070E+00  0.3070E+00
     -2.269  0.0000E+00  0.0000E+00  0.3070E+00  0.3070E+00
     -2.228  0.0000E+00  0.0000E+00  0.3070E+00  0.3070E+00
     -2.186  0.0000E+00  0.0000E+00  0.3080E+00  0.3080E+00
     -2.145  0.0000E+00  0.0000E+00  0.3090E+00  0.3090E+00
     -2.103  0.0000E+00  0.0000E+00  0.3090E+00  0.3090E+00
     -2.061  0.0000E+00  0.0000E+00  0.3090E+00  0.3090E+00
     -2.020  0.0000E+00  0.0000E+00  0.3090E+00  0.3090E+00
     -1.978  0.0000E+00  0.0000E+00  0.3100E+00  0.3100E+00
     -1.936  0.0000E+00  0.0000E+00  0.3110E+00  0.3110E+00
     -1.895  0.0000E+00  0.0000E+00  0.3120E+00  0.3120E+00
     -1.853  0.0000E+00  0.0000E+00  0.3120E+00  0.3120E+00
     -1.811  0.0000E+00  0.0000E+00  0.3130E+00  0.3130E+00
     -1.770  0.0000E+00  0.0000E+00  0.3130E+00  0.3130E+00
     -1.728  0.0000E+00  0.0000E+00  0.3140E+00  0.3140E+00
     -1.687  0.0000E+00  0.0000E+00  0.3140E+00  0.3140E+00
     -1.645  0.0000E+00  0.0000E+00  0.3140E+00  0.3140E+00
     -1.603  0.0000E+00  0.0000E+00  0.3140E+00  0.3140E+00
     -1.562  0.0000E+00  0.0000E+00  0.3150E+00  0.3150E+00
     -1.520  0.0000E+00  0.0000E+00  0.3150E+00  0.3150E+00
     -1.478  0.0000E+00  0.0000E+00  0.3160E+00  0.3160E+00
     -1.437  0.0000E+00  0.0000E+00  0.3160E+00  0.3160E+00
     -1.395  0.0000E+00  0.0000E+00  0.3170E+00  0.3170E+00
     -1.353  0.0000E+00  0.0000E+00  0.3170E+00  0.3170E+00
     -1.312  0.0000E+00  0.0000E+00  0.3190E+00  0.3190E+00
     -1.270  0.0000E+00  0.0000E+00  0.3190E+00  0.3190E+00
     -1.229  0.0000E+00  0.0000E+00  0.3200E+00  0.3200E+00
     -1.187  0.0000E+00  0.0000E+00  0.3210E+00  0.3210E+00
     -1.145  0.0000E+00  0.0000E+00  0.3210E+00  0.3210E+00
     -1.104  0.0000E+00  0.0000E+00  0.3220E+00  0.3220E+00
     -1.062  0.0000E+00  0.0000E+00  0.3220E+00  0.3220E+00
     -1.020  0.0000E+00  0.0000E+00  0.3230E+00  0.3230E+00
     -0.979  0.0000E+00  0.0000E+00  0.3240E+00  0.3240E+00
     -0.937  0.0000E+00  0.0000E+00  0.3240E+00  0.3240E+00
     -0.895  0.0000E+00  0.0000E+00  0.3240E+00  0.3240E+00
     -0.854  0.0000E+00  0.0000E+00  0.3250E+00  0.3250E+00
     -0.812  0.0000E+00  0.0000E+00  0.3250E+00  0.3250E+00
     -0.771  0.0000E+00  0.0000E+00  0.3260E+00  0.3260E+00
     -0.729  0.0000E+00  0.0000E+00  0.3270E+00  0.3270E+00
     -0.687  0.0000E+00  0.0000E+00  0.3280E+00  0.3280E+00
     -0.646  0.0000E+00  0.0000E+00  0.3280E+00  0.3280E+00
     -0.604  0.0000E+00  0.0000E+00  0.3280E+00  0.3280E+00
     -0.562  0.0000E+00  0.0000E+00  0.3290E+00  0.3290E+00
     -0.521  0.0000E+00  0.0000E+00  0.3290E+00  0.3290E+00
     -0.479  0.0000E+00  0.0000E+00  0.3300E+00  0.3300E+00
     -0.437  0.0000E+00  0.0000E+00  0.3310E+00  0.3310E+00
     -0.396  0.0000E+00  0.0000E+00  0.3310E+00  0.3310E+00
     -0.354  0.0000E+00  0.0000E+00  0.3320E+00  0.3320E+00
     -0.313  0.0000E+00  0.0000E+00  0.3330E+00  0.3330E+00
     -0.271  0.0000E+00  0.0000E+00  0.3330E+00  0.3330E+00
     -0.229  0.0000E+00  0.0000E+00  0.3330E+00  0.3330E+00
     -0.188  0.0000E+00  0.0000E+00  0.3330E+00  0.3330E+00
     -0.146  0.0000E+00  0.0000E+00  0.3340E+00  0.3340E+00
     -0.104  0.0000E+00  0.0000E+00  0.3340E+00  0.3340E+00
     -0.063  0.0000E+00  0.0000E+00  0.3350E+00  0.3350E+00
     -0.021  0.0000E+00  0.0000E+00  0.3360E+00  0.3360E+00
      0.021  0.0000E+00  0.0000E+00  0.3370E+00  0.3370E+00
      0.062  0.0000E+00  0.0000E+00  0.3370E+00  0.3370E+00
      0.104  0.0000E+00  0.0000E+00  0.3380E+00  0.3380E+00
      0.145  0.0000E+00  0.0000E+00  0.3390E+00  0.3390E+00
      0.187  0.0000E+00  0.0000E+00  0.3400E+00  0.3400E+00
      0.229  0.0000E+00  0.0000E+00  0.3400E+00  0.3400E+00
      0.270  0.0000E+00  0.0000E+00  0.3410E+00  0.3410E+00
      0.312  0.0000E+00  0.0000E+00  0.3420E+00  0.3420E+00
      0.354  0.0000E+00  0.0000E+00  0.3420E+00  0.3420E+00
      0.395  0.0000E+00  0.0000E+00  0.3430E+00  0.3430E+00
      0.437  0.0000E+00  0.0000E+00  0.3430E+00  0.3430E+00
      0.479  0.0000E+00  0.0000E+00  0.3430E+00  0.3430E+00
      0.520  0.0000E+00  0.0000E+00  0.3430E+00  0.3430E+00
      0.562  0.0000E+00  0.0000E+00  0.3440E+00  0.3440E+00
      0.603  0.0000E+00  0.0000E+00  0.3450E+00  0.3450E+00
      0.645  0.0000E+00  0.0000E+00  0.3460E+00  0.3460E+00
      0.687  0.0000E+00  0.0000E+00  0.3460E+00  0.3460E+00
      0.728  0.0000E+00  0.0000E+00  0.3470E+00  0.3470E+00
      0.770  0.0000E+00  0.0000E+00  0.3480E+00  0.3480E+00
      0.812  0.0000E+00  0.0000E+00  0.3500E+00  0.3500E+00
      0.853  0.0000E+00  0.0000E+00  0.3510E+00  0.3510E+00
      0.895  0.0000E+00  0.0000E+00  0.3530E+00  0.3530E+00
      0.937  0.0000E+00  0.0000E+00  0.3540E+00  0.3540E+00
      0.978  0.0000E+00  0.0000E+00  0.3550E+00  0.3550E+00
      1.020  0.0000E+00  0.0000E+00  0.3570E+00  0.3570E+00
      1.061  0.0000E+00  0.0000E+00  0.3580E+00  0.3580E+00
      1.103  0.0000E+00  0.0000E+00  0.3600E+00  0.3600E+00
      1.145  0.0000E+00  0.0000E+00  0.3630E+00  0.3630E+00
      1.186  0.0000E+00  0.0000E+00  0.3660E+00  0.3660E+00
      1.228  0.0000E+00  0.0000E+00  0.3680E+00  0.3680E+00
      1.270  0.0000E+00  0.0000E+00  0.3690E+00  0.3690E+00
      1.311  0.0000E+00  0.0000E+00  0.3700E+00  0.3700E+00
      1.353  0.0000E+00  0.0000E+00  0.3730E+00  0.3730E+00
      1.395  0.0000E+00  0.0000E+00  0.3750E+00  0.3750E+00
      1.436  0.0000E+00  0.0000E+00  0.3770E+00  0.3770E+00
      1.478  0.0000E+00  0.0000E+00  0.3790E+00  0.3790E+00
      1.519  0.0000E+00  0.0000E+00  0.3820E+00  0.3820E+00
      1.561  0.0000E+00  0.0000E+00  0.3830E+00  0.3830E+00
      1.603  0.0000E+00  0.0000E+00  0.3840E+00  0.3840E+00
      1.644  0.0000E+00  0.0000E+00  0.3840E+00  0.3840E+00
      1.686  0.0000E+00  0.0000E+00  0.3840E+00  0.3840E+00
      1.728  0.0000E+00  0.0000E+00  0.3840E+00  0.3840E+00
      1.769  0.0000E+00  0.0000E+00  0.3840E+00  0.3840E+00
      1.811  0.0000E+00  0.0000E+00  0.3840E+00  0.3840E+00
      1.853  0.0000E+00  0.0000E+00  0.3840E+00  0.3840E+00
      1.894  0.0000E+00  0.0000E+00  0.3840E+00  0.3840E+00
      1.936  0.0000E+00  0.0000E+00  0.3840E+00  0.3840E+00
      1.977  0.0000E+00  0.0000E+00  0.3840E+00  0.3840E+00
      2.019  0.0000E+00  0.0000E+00  0.3840E+00  0.3840E+00
      2.061  0.0000E+00  0.0000E+00  0.3840E+00  0.3840E+00
      2.102  0.0000E+00  0.0000E+00  0.3840E+00  0.3840E+00
      2.144  0.0000E+00  0.0000E+00  0.3840E+00  0.3840E+00
