       N       E                     dE             d eps       ncg     rms          rms(c)
DAV:   1     0.640813763289E+03    0.64081E+03   -0.18162E+04   320   0.540E+02
DAV:   2     0.102025131792E+03   -0.53879E+03   -0.48604E+03   520   0.127E+02
DAV:   3    -0.270695870760E+02   -0.12909E+03   -0.11409E+03   392   0.104E+02
DAV:   4    -0.383577608931E+02   -0.11288E+02   -0.98707E+01   352   0.371E+01
DAV:   5    -0.386604425805E+02   -0.30268E+00   -0.28485E+00   392   0.536E+00    0.166E+01
DAV:   6    -0.427920907438E+02   -0.41316E+01   -0.56893E+01   336   0.607E+01    0.515E+01
DAV:   7    -0.394616840131E+02    0.33304E+01   -0.27417E+01   336   0.534E+01    0.307E+01
DAV:   8    -0.349118392464E+02    0.45498E+01   -0.90729E+00   368   0.253E+01    0.250E+01
DAV:   9    -0.351249934386E+02   -0.21315E+00   -0.34585E+00   360   0.222E+01    0.278E+01
DAV:  10    -0.354821589597E+02   -0.35717E+00   -0.25260E+00   408   0.242E+01    0.330E+01
DAV:  11    -0.354331577615E+02    0.49001E-01   -0.46900E+00   392   0.191E+01    0.386E+01
DAV:  12    -0.347316067580E+02    0.70155E+00   -0.29842E+00   400   0.165E+01    0.318E+01
DAV:  13    -0.345217262096E+02    0.20988E+00   -0.14263E+00   400   0.130E+01    0.295E+01
DAV:  14    -0.341566176708E+02    0.36511E+00   -0.22126E+00   376   0.121E+01    0.215E+01
DAV:  15    -0.340526299504E+02    0.10399E+00   -0.11486E+00   360   0.974E+00    0.120E+01
DAV:  16    -0.342444273231E+02   -0.19180E+00   -0.52445E-01   432   0.836E+00    0.118E+01
DAV:  17    -0.341296907880E+02    0.11474E+00   -0.33632E-01   352   0.733E+00    0.726E+00
DAV:  18    -0.342423625658E+02   -0.11267E+00   -0.18496E-01   432   0.528E+00    0.107E+01
DAV:  19    -0.342123916587E+02    0.29971E-01   -0.12716E-01   360   0.420E+00    0.716E+00
DAV:  20    -0.342487886466E+02   -0.36397E-01   -0.77374E-02   408   0.379E+00    0.774E+00
DAV:  21    -0.342714549103E+02   -0.22666E-01   -0.71452E-02   368   0.352E+00    0.639E+00
DAV:  22    -0.342916237391E+02   -0.20169E-01   -0.68070E-02   408   0.355E+00    0.678E+00
DAV:  23    -0.343708832907E+02   -0.79260E-01   -0.87093E-02   384   0.369E+00    0.592E+00
DAV:  24    -0.343793967946E+02   -0.85135E-02   -0.56526E-02   384   0.357E+00    0.531E+00
DAV:  25    -0.344719892376E+02   -0.92592E-01   -0.33025E-02   408   0.245E+00    0.491E+00
DAV:  26    -0.345941578779E+02   -0.12217E+00   -0.37556E-02   392   0.209E+00    0.372E+00
DAV:  27    -0.346963975299E+02   -0.10224E+00   -0.44696E-02   352   0.200E+00    0.263E+00
DAV:  28    -0.347446204038E+02   -0.48223E-01   -0.31375E-02   328   0.173E+00    0.197E+00
DAV:  29    -0.347588646091E+02   -0.14244E-01   -0.14093E-02   376   0.128E+00    0.150E+00
DAV:  30    -0.347556850776E+02    0.31795E-02   -0.64244E-03   392   0.678E-01    0.129E+00
DAV:  31    -0.347319411546E+02    0.23744E-01   -0.20206E-03   384   0.314E-01    0.132E+00
DAV:  32    -0.346883962901E+02    0.43545E-01   -0.61782E-03   416   0.638E-01    0.130E+00
DAV:  33    -0.347265160343E+02   -0.38120E-01   -0.52959E-03   376   0.972E-01    0.996E-01
DAV:  34    -0.347385463659E+02   -0.12030E-01   -0.24221E-03   408   0.390E-01    0.839E-01
DAV:  35    -0.347430248670E+02   -0.44785E-02   -0.11786E-03   336   0.259E-01    0.847E-01
DAV:  36    -0.347495535931E+02   -0.65287E-02   -0.71855E-04   240   0.211E-01    0.906E-01
DAV:  37    -0.347380049984E+02    0.11549E-01   -0.60792E-04   304   0.226E-01    0.990E-01
DAV:  38    -0.347468033080E+02   -0.87983E-02   -0.33214E-04   208   0.148E-01    0.949E-01
DAV:  39    -0.347556949481E+02   -0.88916E-02   -0.42609E-03   400   0.482E-01    0.704E-01
DAV:  40    -0.347630639949E+02   -0.73690E-02   -0.29325E-03   424   0.381E-01    0.738E-01
DAV:  41    -0.347628493412E+02    0.21465E-03   -0.18798E-03   376   0.312E-01    0.903E-01
DAV:  42    -0.347368746086E+02    0.25975E-01   -0.21796E-03   328   0.327E-01    0.986E-01
DAV:  43    -0.347157586248E+02    0.21116E-01   -0.21231E-03   320   0.295E-01    0.963E-01
DAV:  44    -0.347165229293E+02   -0.76430E-03   -0.15458E-03   352   0.261E-01    0.949E-01
DAV:  45    -0.346958447544E+02    0.20678E-01   -0.62460E-03   448   0.433E-01    0.709E-01
DAV:  46    -0.347236577810E+02   -0.27813E-01   -0.37619E-03   416   0.563E-01    0.855E-01
DAV:  47    -0.347531108403E+02   -0.29453E-01   -0.23602E-03   384   0.361E-01    0.911E-01
DAV:  48    -0.347396944884E+02    0.13416E-01   -0.29487E-03   368   0.335E-01    0.116E+00
DAV:  49    -0.347102684912E+02    0.29426E-01   -0.14712E-02   384   0.802E-01    0.869E-01
DAV:  50    -0.347164033413E+02   -0.61349E-02   -0.10960E-02   472   0.766E-01    0.738E-01
DAV:  51    -0.347254769377E+02   -0.90736E-02   -0.20951E-02   456   0.846E-01    0.107E+00
DAV:  52    -0.347742382854E+02   -0.48761E-01   -0.74398E-03   384   0.732E-01    0.118E+00
DAV:  53    -0.347447621524E+02    0.29476E-01   -0.27499E-03   376   0.349E-01    0.110E+00
DAV:  54    -0.347059143259E+02    0.38848E-01   -0.27513E-03   320   0.291E-01    0.994E-01
DAV:  55    -0.347123693100E+02   -0.64550E-02   -0.10787E-03   328   0.247E-01    0.889E-01
DAV:  56    -0.347222548842E+02   -0.98856E-02   -0.99719E-04   352   0.229E-01    0.811E-01
DAV:  57    -0.347527850139E+02   -0.30530E-01   -0.95735E-04   328   0.232E-01    0.779E-01
DAV:  58    -0.347584038158E+02   -0.56188E-02   -0.10831E-04   200   0.982E-02    0.777E-01
DAV:  59    -0.347591177106E+02   -0.71389E-03   -0.96973E-05   208   0.878E-02    0.831E-01
DAV:  60    -0.347546140067E+02    0.45037E-02   -0.12679E-04   200   0.803E-02
   1 F= -.34754614E+02 E0= -.34754614E+02  d E =-.347546E+02  mag=    11.9426
       N       E                     dE             d eps       ncg     rms          rms(c)
DAV:   1    -0.352399081080E+02   -0.48079E+00   -0.24130E+01   320   0.165E+01    0.179E+00
DAV:   2    -0.354470853217E+02   -0.20718E+00   -0.37037E-01   440   0.854E+00    0.944E+00
DAV:   3    -0.352107738362E+02    0.23631E+00   -0.36389E-01   352   0.977E+00    0.692E+00
DAV:   4    -0.352951240241E+02   -0.84350E-01   -0.39237E-01   416   0.627E+00    0.686E+00
DAV:   5    -0.352735933125E+02    0.21531E-01   -0.77913E-02   368   0.528E+00    0.390E+00
DAV:   6    -0.352781262752E+02   -0.45330E-02   -0.50649E-02   368   0.374E+00    0.156E+00
DAV:   7    -0.353215542401E+02   -0.43428E-01   -0.17293E-02   400   0.207E+00    0.185E+00
DAV:   8    -0.353093512739E+02    0.12203E-01   -0.88557E-03   336   0.149E+00    0.120E+00
DAV:   9    -0.353033196464E+02    0.60316E-02   -0.16523E-03   376   0.349E-01    0.116E+00
DAV:  10    -0.352837514239E+02    0.19568E-01   -0.27085E-03   376   0.536E-01    0.146E+00
DAV:  11    -0.352805035872E+02    0.32478E-02   -0.63544E-03   368   0.972E-01    0.150E+00
DAV:  12    -0.352603327047E+02    0.20171E-01   -0.85130E-03   416   0.153E+00    0.201E+00
DAV:  13    -0.352520698111E+02    0.82629E-02   -0.99821E-03   408   0.152E+00    0.147E+00
DAV:  14    -0.352637107316E+02   -0.11641E-01   -0.12530E-02   456   0.128E+00    0.134E+00
DAV:  15    -0.352802060086E+02   -0.16495E-01   -0.66821E-03   432   0.113E+00    0.900E-01
DAV:  16    -0.353057423923E+02   -0.25536E-01   -0.57570E-03   424   0.114E+00    0.127E+00
DAV:  17    -0.353102148779E+02   -0.44725E-02   -0.72675E-03   392   0.118E+00    0.104E+00
DAV:  18    -0.353352815848E+02   -0.25067E-01   -0.55683E-03   424   0.958E-01    0.123E+00
DAV:  19    -0.353385212885E+02   -0.32397E-02   -0.30611E-03   360   0.849E-01    0.728E-01
DAV:  20    -0.353476070116E+02   -0.90857E-02   -0.53906E-03   432   0.780E-01    0.103E+00
DAV:  21    -0.353401385859E+02    0.74684E-02   -0.24388E-03   344   0.637E-01    0.498E-01
DAV:  22    -0.353449031827E+02   -0.47646E-02   -0.84694E-04   288   0.265E-01    0.543E-01
DAV:  23    -0.353399009546E+02    0.50022E-02   -0.30463E-04   248   0.136E-01    0.560E-01
DAV:  24    -0.353411771984E+02   -0.12762E-02   -0.20043E-03   352   0.338E-01    0.471E-01
DAV:  25    -0.353456760256E+02   -0.44988E-02   -0.11790E-03   360   0.366E-01    0.408E-01
DAV:  26    -0.353504324331E+02   -0.47564E-02   -0.13803E-03   344   0.273E-01    0.505E-01
DAV:  27    -0.353422907995E+02    0.81416E-02   -0.43704E-04   280   0.155E-01    0.562E-01
DAV:  28    -0.353362684934E+02    0.60223E-02   -0.28126E-03   368   0.347E-01    0.678E-01
DAV:  29    -0.353325331759E+02    0.37353E-02   -0.30287E-03   400   0.353E-01    0.721E-01
DAV:  30    -0.353262182578E+02    0.63149E-02   -0.20233E-03   408   0.330E-01    0.712E-01
DAV:  31    -0.353084248284E+02    0.17793E-01   -0.23944E-03   360   0.275E-01    0.792E-01
DAV:  32    -0.352988400953E+02    0.95847E-02   -0.16890E-03   320   0.280E-01    0.793E-01
DAV:  33    -0.353032000648E+02   -0.43600E-02   -0.11710E-03   304   0.211E-01    0.740E-01
DAV:  34    -0.353188118808E+02   -0.15612E-01   -0.50764E-04   288   0.156E-01    0.695E-01
DAV:  35    -0.353309363778E+02   -0.12124E-01   -0.26422E-04   248   0.101E-01    0.623E-01
DAV:  36    -0.353308732129E+02    0.63165E-04   -0.33268E-04   208   0.120E-01
   2 F= -.35330873E+02 E0= -.35330873E+02  d E =-.576259E+00  mag=    11.9846
       N       E                     dE             d eps       ncg     rms          rms(c)
DAV:   1    -0.361835324395E+02   -0.85260E+00   -0.73945E+01   320   0.292E+01    0.281E+00
DAV:   2    -0.362748969378E+02   -0.91364E-01   -0.74322E-01   432   0.879E+00    0.766E+00
DAV:   3    -0.363357439339E+02   -0.60847E-01   -0.62614E-01   352   0.142E+01    0.133E+01
DAV:   4    -0.362789240137E+02    0.56820E-01   -0.15704E+00   408   0.987E+00    0.169E+01
DAV:   5    -0.359071930872E+02    0.37173E+00   -0.17547E+00   368   0.882E+00    0.289E+00
DAV:   6    -0.362684657522E+02   -0.36127E+00   -0.12066E-01   392   0.535E+00    0.372E+00
DAV:   7    -0.362819039252E+02   -0.13438E-01   -0.52037E-02   352   0.340E+00    0.212E+00
DAV:   8    -0.362869638027E+02   -0.50599E-02   -0.16321E-02   336   0.207E+00    0.127E+00
DAV:   9    -0.363107870079E+02   -0.23823E-01   -0.20157E-02   408   0.155E+00    0.167E+00
DAV:  10    -0.362952438632E+02    0.15543E-01   -0.51429E-03   352   0.119E+00    0.920E-01
DAV:  11    -0.362841261555E+02    0.11118E-01   -0.13704E-03   376   0.273E-01    0.952E-01
DAV:  12    -0.362982119413E+02   -0.14086E-01   -0.26498E-03   432   0.826E-01    0.150E+00
DAV:  13    -0.362902705609E+02    0.79414E-02   -0.12011E-02   400   0.172E+00    0.226E+00
DAV:  14    -0.362731652185E+02    0.17105E-01   -0.14781E-02   376   0.184E+00    0.185E+00
DAV:  15    -0.362872859360E+02   -0.14121E-01   -0.63993E-03   384   0.147E+00    0.132E+00
DAV:  16    -0.363135497267E+02   -0.26264E-01   -0.62933E-03   408   0.999E-01    0.939E-01
DAV:  17    -0.363065995568E+02    0.69502E-02   -0.19530E-03   360   0.544E-01    0.801E-01
DAV:  18    -0.363119509366E+02   -0.53514E-02   -0.12657E-03   328   0.374E-01    0.969E-01
DAV:  19    -0.363015260144E+02    0.10425E-01   -0.58183E-04   256   0.324E-01    0.975E-01
DAV:  20    -0.362892641646E+02    0.12262E-01   -0.29116E-04   256   0.123E-01    0.100E+00
DAV:  21    -0.363088372672E+02   -0.19573E-01   -0.21676E-03   368   0.486E-01    0.102E+00
DAV:  22    -0.363110584054E+02   -0.22211E-02   -0.15205E-03   360   0.702E-01    0.956E-01
DAV:  23    -0.363334061645E+02   -0.22348E-01   -0.48442E-03   440   0.524E-01    0.851E-01
DAV:  24    -0.363310524355E+02    0.23537E-02   -0.22562E-03   392   0.332E-01    0.817E-01
DAV:  25    -0.363087109302E+02    0.22342E-01   -0.88479E-04   328   0.219E-01    0.853E-01
DAV:  26    -0.363501596529E+02   -0.41449E-01   -0.10268E-02   424   0.668E-01    0.652E-01
DAV:  27    -0.363541683426E+02   -0.40087E-02   -0.10687E-02   448   0.705E-01    0.489E-01
DAV:  28    -0.363624567447E+02   -0.82884E-02   -0.27854E-03   416   0.399E-01    0.463E-01
DAV:  29    -0.363561727628E+02    0.62840E-02   -0.59657E-04   320   0.138E-01    0.474E-01
DAV:  30    -0.363452771699E+02    0.10896E-01   -0.38333E-04   264   0.182E-01    0.608E-01
DAV:  31    -0.363427385911E+02    0.25386E-02   -0.93605E-05   224   0.841E-02    0.621E-01
DAV:  32    -0.363459310028E+02   -0.31924E-02   -0.88195E-05   200   0.623E-02    0.637E-01
DAV:  33    -0.363512001104E+02   -0.52691E-02   -0.24550E-04   216   0.906E-02    0.624E-01
DAV:  34    -0.363591406384E+02   -0.79405E-02   -0.10240E-03   264   0.178E-01    0.588E-01
DAV:  35    -0.363644291218E+02   -0.52885E-02   -0.21048E-03   344   0.260E-01    0.540E-01
DAV:  36    -0.363641563400E+02    0.27278E-03   -0.39358E-03   440   0.357E-01    0.465E-01
DAV:  37    -0.363620623854E+02    0.20940E-02   -0.44184E-03   440   0.431E-01    0.362E-01
DAV:  38    -0.363694828210E+02   -0.74204E-02   -0.18105E-03   392   0.285E-01    0.316E-01
DAV:  39    -0.363716013638E+02   -0.21185E-02   -0.83402E-04   280   0.171E-01    0.294E-01
DAV:  40    -0.363722592957E+02   -0.65793E-03   -0.58021E-04   256   0.145E-01    0.257E-01
DAV:  41    -0.363676363885E+02    0.46229E-02   -0.22384E-03   352   0.268E-01    0.207E-01
DAV:  42    -0.363677707304E+02   -0.13434E-03   -0.17481E-03   368   0.268E-01    0.181E-01
DAV:  43    -0.363734591039E+02   -0.56884E-02   -0.68254E-04   344   0.186E-01    0.980E-02
DAV:  44    -0.363735149077E+02   -0.55804E-04   -0.42148E-04   216   0.130E-01
   3 F= -.36373515E+02 E0= -.36373515E+02  d E =-.161890E+01  mag=    11.9996
       N       E                     dE             d eps       ncg     rms          rms(c)
DAV:   1    -0.378215751525E+02   -0.14481E+01   -0.30295E+02   320   0.617E+01    0.562E+00
DAV:   2    -0.380323695411E+02   -0.21079E+00   -0.36860E+00   400   0.142E+01    0.129E+01
DAV:   3    -0.384194228169E+02   -0.38705E+00   -0.21889E+00   352   0.262E+01    0.212E+01
DAV:   4    -0.377856094224E+02    0.63381E+00   -0.20341E+00   384   0.171E+01    0.135E+01
DAV:   5    -0.377844766595E+02    0.11328E-02   -0.13931E+00   384   0.117E+01    0.409E+00
DAV:   6    -0.382461117948E+02   -0.46164E+00   -0.47853E-01   392   0.899E+00    0.870E+00
DAV:   7    -0.380171942861E+02    0.22892E+00   -0.53376E-01   352   0.764E+00    0.276E+00
DAV:   8    -0.381755209624E+02   -0.15833E+00   -0.12112E-01   408   0.462E+00    0.407E+00
DAV:   9    -0.382158110917E+02   -0.40290E-01   -0.10724E-01   368   0.415E+00    0.262E+00
DAV:  10    -0.382232647924E+02   -0.74537E-02   -0.39307E-02   352   0.320E+00    0.136E+00
DAV:  11    -0.382593585348E+02   -0.36094E-01   -0.21578E-02   432   0.263E+00    0.212E+00
DAV:  12    -0.382629867645E+02   -0.36282E-02   -0.23132E-02   344   0.250E+00    0.101E+00
DAV:  13    -0.382843466434E+02   -0.21360E-01   -0.10427E-02   440   0.220E+00    0.117E+00
DAV:  14    -0.382900726918E+02   -0.57260E-02   -0.87446E-03   368   0.187E+00    0.863E-01
DAV:  15    -0.382940849523E+02   -0.40123E-02   -0.55866E-03   408   0.145E+00    0.848E-01
DAV:  16    -0.383009380381E+02   -0.68531E-02   -0.38239E-03   384   0.116E+00    0.741E-01
DAV:  17    -0.383010871250E+02   -0.14909E-03   -0.24515E-03   376   0.999E-01    0.447E-01
DAV:  18    -0.383052846493E+02   -0.41975E-02   -0.18352E-03   416   0.817E-01    0.625E-01
DAV:  19    -0.383042218892E+02    0.10628E-02   -0.14269E-03   360   0.781E-01    0.206E-01
DAV:  20    -0.383067846765E+02   -0.25628E-02   -0.55416E-04   312   0.336E-01    0.189E-01
DAV:  21    -0.383071924946E+02   -0.40782E-03   -0.32066E-04   240   0.370E-01    0.229E-01
DAV:  22    -0.383076368050E+02   -0.44431E-03   -0.18394E-04   216   0.294E-01    0.943E-02
DAV:  23    -0.383088125749E+02   -0.11758E-02   -0.11671E-04   216   0.126E-01    0.566E-02
DAV:  24    -0.383098740792E+02   -0.10615E-02   -0.85890E-05   208   0.756E-02    0.483E-02
DAV:  25    -0.383107684333E+02   -0.89435E-03   -0.55184E-05   208   0.609E-02    0.332E-02
DAV:  26    -0.383116250228E+02   -0.85659E-03   -0.41978E-05   208   0.351E-02    0.295E-02
DAV:  27    -0.383128204412E+02   -0.11954E-02   -0.54770E-05   216   0.351E-02    0.245E-02
DAV:  28    -0.383140493973E+02   -0.12290E-02   -0.65026E-05   216   0.349E-02    0.175E-02
DAV:  29    -0.383150356562E+02   -0.98626E-03   -0.43602E-05   208   0.303E-02    0.128E-02
DAV:  30    -0.383155669862E+02   -0.53133E-03   -0.22965E-05   224   0.228E-02    0.102E-02
DAV:  31    -0.383158707363E+02   -0.30375E-03   -0.10821E-05   208   0.148E-02    0.895E-03
DAV:  32    -0.383162388772E+02   -0.36814E-03   -0.18269E-05   208   0.133E-02    0.868E-03
DAV:  33    -0.383164437725E+02   -0.20490E-03   -0.93386E-06   224   0.123E-02    0.778E-03
DAV:  34    -0.383165312800E+02   -0.87508E-04   -0.95628E-06   208   0.107E-02
   4 F= -.38316531E+02 E0= -.38316531E+02  d E =-.356192E+01  mag=    12.0022
       N       E                     dE             d eps       ncg     rms          rms(c)
DAV:   1    -0.396861754646E+02   -0.13697E+01   -0.13351E+03   320   0.151E+02    0.112E+01
DAV:   2    -0.417825612444E+02   -0.20964E+01   -0.17402E+01   384   0.326E+01    0.298E+01
DAV:   3    -0.421369043338E+02   -0.35434E+00   -0.87822E+00   344   0.492E+01    0.268E+01
DAV:   4    -0.429128334687E+02   -0.77593E+00   -0.72194E+00   392   0.314E+01    0.360E+01
DAV:   5    -0.411231171805E+02    0.17897E+01   -0.26082E+00   384   0.188E+01    0.137E+01
DAV:   6    -0.411897711679E+02   -0.66654E-01   -0.14589E+00   472   0.158E+01    0.876E+00
DAV:   7    -0.418534448975E+02   -0.66367E+00   -0.21675E+00   368   0.153E+01    0.162E+01
DAV:   8    -0.414366225810E+02    0.41682E+00   -0.15226E+00   352   0.133E+01    0.812E+00
DAV:   9    -0.414590686909E+02   -0.22446E-01   -0.25587E-01   392   0.824E+00    0.499E+00
DAV:  10    -0.414574409673E+02    0.16277E-02   -0.84806E-02   360   0.394E+00    0.444E+00
DAV:  11    -0.414366478634E+02    0.20793E-01   -0.58173E-02   352   0.479E+00    0.478E+00
DAV:  12    -0.412987743496E+02    0.13787E+00   -0.99376E-02   416   0.562E+00    0.436E+00
DAV:  13    -0.412269452865E+02    0.71829E-01   -0.77362E-02   368   0.562E+00    0.212E+00
DAV:  14    -0.411089850396E+02    0.11796E+00   -0.57040E-02   424   0.343E+00    0.238E+00
DAV:  15    -0.410622888453E+02    0.46696E-01   -0.43471E-02   352   0.436E+00    0.196E+00
DAV:  16    -0.409239769653E+02    0.13831E+00   -0.22553E-02   336   0.259E+00    0.112E+00
DAV:  17    -0.409328616609E+02   -0.88847E-02   -0.17292E-02   352   0.295E+00    0.174E+00
DAV:  18    -0.409555953214E+02   -0.22734E-01   -0.21920E-02   376   0.252E+00    0.127E+00
DAV:  19    -0.409982913011E+02   -0.42696E-01   -0.10582E-02   328   0.208E+00    0.578E-01
DAV:  20    -0.411413375527E+02   -0.14305E+00   -0.12489E-02   368   0.948E-01    0.587E-01
DAV:  21    -0.411763728538E+02   -0.35035E-01   -0.40249E-03   328   0.113E+00    0.549E-01
DAV:  22    -0.413378974073E+02   -0.16152E+00   -0.12577E-02   328   0.706E-01    0.258E-01
DAV:  23    -0.414909290051E+02   -0.15303E+00   -0.11438E-02   336   0.512E-01    0.231E-01
DAV:  24    -0.415984183423E+02   -0.10749E+00   -0.58757E-03   328   0.414E-01    0.153E-01
DAV:  25    -0.416874114879E+02   -0.88993E-01   -0.36998E-03   336   0.220E-01    0.105E-01
DAV:  26    -0.417811403562E+02   -0.93729E-01   -0.50292E-03   352   0.210E-01    0.107E-01
DAV:  27    -0.418253430575E+02   -0.44203E-01   -0.16897E-03   304   0.176E-01    0.872E-02
DAV:  28    -0.418485106295E+02   -0.23168E-01   -0.65814E-04   296   0.111E-01    0.601E-02
DAV:  29    -0.418600927007E+02   -0.11582E-01   -0.21167E-04   264   0.730E-02    0.325E-02
DAV:  30    -0.418681856524E+02   -0.80930E-02   -0.15647E-04   240   0.533E-02    0.287E-02
DAV:  31    -0.418749015056E+02   -0.67159E-02   -0.14516E-04   256   0.446E-02    0.203E-02
DAV:  32    -0.418792292519E+02   -0.43277E-02   -0.77308E-05   232   0.350E-02    0.182E-02
DAV:  33    -0.418817352054E+02   -0.25060E-02   -0.49187E-05   224   0.265E-02    0.959E-03
DAV:  34    -0.418829814354E+02   -0.12462E-02   -0.32071E-05   224   0.183E-02    0.784E-03
DAV:  35    -0.418835238377E+02   -0.54240E-03   -0.17620E-05   216   0.142E-02    0.846E-03
DAV:  36    -0.418836640758E+02   -0.14024E-03   -0.10078E-05   208   0.110E-02    0.442E-03
DAV:  37    -0.418837052936E+02   -0.41218E-04   -0.59233E-06   208   0.635E-03
   5 F= -.41883705E+02 E0= -.41883705E+02  d E =-.712909E+01  mag=    10.0003
       N       E                     dE             d eps       ncg     rms          rms(c)
DAV:   1    -0.466161572764E+01    0.37222E+02   -0.74649E+03   320   0.510E+02    0.459E+01
DAV:   2    -0.535248323309E+02   -0.48863E+02   -0.42750E+02   352   0.129E+02    0.531E+01
DAV:   3    -0.615452606876E+02   -0.80204E+01   -0.14675E+02   360   0.177E+02    0.613E+01
DAV:   4    -0.484977736564E+02    0.13047E+02   -0.42859E+01   368   0.838E+01    0.430E+01
DAV:   5    -0.449809766741E+02    0.35168E+01   -0.30294E+01   344   0.769E+01    0.322E+01
DAV:   6    -0.442132481207E+02    0.76773E+00   -0.18963E+01   368   0.708E+01    0.324E+01
DAV:   7    -0.434107865784E+02    0.80246E+00   -0.12475E+01   416   0.508E+01    0.320E+01
DAV:   8    -0.417283075844E+02    0.16825E+01   -0.72451E+00   416   0.352E+01    0.190E+01
DAV:   9    -0.411530345017E+02    0.57527E+00   -0.19961E+00   440   0.213E+01    0.939E+00
DAV:  10    -0.413365789452E+02   -0.18354E+00   -0.67509E-01   376   0.133E+01    0.649E+00
DAV:  11    -0.413486283041E+02   -0.12049E-01   -0.40435E-01   360   0.112E+01    0.582E+00
DAV:  12    -0.414285426317E+02   -0.79914E-01   -0.19971E-01   376   0.752E+00    0.536E+00
DAV:  13    -0.415041945065E+02   -0.75652E-01   -0.28363E-01   360   0.113E+01    0.590E+00
DAV:  14    -0.415548194731E+02   -0.50625E-01   -0.19255E-01   360   0.742E+00    0.293E+00
DAV:  15    -0.416033776644E+02   -0.48558E-01   -0.16085E-01   376   0.842E+00    0.433E+00
DAV:  16    -0.415574598809E+02    0.45918E-01   -0.78540E-02   360   0.558E+00    0.148E+00
DAV:  17    -0.415875890063E+02   -0.30129E-01   -0.39607E-02   360   0.398E+00    0.162E+00
DAV:  18    -0.415906103698E+02   -0.30214E-02   -0.22516E-02   336   0.271E+00    0.685E-01
DAV:  19    -0.416066083410E+02   -0.15998E-01   -0.12520E-02   352   0.208E+00    0.874E-01
DAV:  20    -0.416122264414E+02   -0.56181E-02   -0.66349E-03   352   0.156E+00    0.427E-01
DAV:  21    -0.416190853486E+02   -0.68589E-02   -0.25905E-03   424   0.844E-01    0.408E-01
DAV:  22    -0.416233200550E+02   -0.42347E-02   -0.20367E-03   360   0.844E-01    0.227E-01
DAV:  23    -0.416309242211E+02   -0.76042E-02   -0.16915E-03   384   0.397E-01    0.142E-01
DAV:  24    -0.416340872952E+02   -0.31631E-02   -0.53894E-04   288   0.250E-01    0.114E-01
DAV:  25    -0.416353490157E+02   -0.12617E-02   -0.14561E-04   224   0.152E-01    0.899E-02
DAV:  26    -0.416377815526E+02   -0.24325E-02   -0.12343E-04   232   0.107E-01    0.411E-02
DAV:  27    -0.416407854232E+02   -0.30039E-02   -0.14655E-04   248   0.731E-02    0.362E-02
DAV:  28    -0.416424060732E+02   -0.16207E-02   -0.56309E-05   232   0.531E-02    0.284E-02
DAV:  29    -0.416443346096E+02   -0.19285E-02   -0.41410E-05   248   0.417E-02    0.158E-02
DAV:  30    -0.416459226584E+02   -0.15880E-02   -0.31106E-05   232   0.319E-02    0.101E-02
DAV:  31    -0.416469255047E+02   -0.10028E-02   -0.17994E-05   232   0.192E-02    0.789E-03
DAV:  32    -0.416478610431E+02   -0.93554E-03   -0.12323E-05   224   0.150E-02    0.713E-03
DAV:  33    -0.416487993499E+02   -0.93831E-03   -0.13941E-05   224   0.136E-02    0.510E-03
DAV:  34    -0.416493416751E+02   -0.54233E-03   -0.10211E-05   224   0.106E-02    0.342E-03
DAV:  35    -0.416496352257E+02   -0.29355E-03   -0.59848E-06   224   0.772E-03    0.279E-03
DAV:  36    -0.416498349299E+02   -0.19970E-03   -0.42105E-06   224   0.659E-03    0.232E-03
DAV:  37    -0.416499938347E+02   -0.15890E-03   -0.41426E-06   216   0.534E-03    0.168E-03
DAV:  38    -0.416500390730E+02   -0.45238E-04   -0.20517E-06   224   0.394E-03
   6 F= -.41650039E+02 E0= -.41650039E+02  d E =-.689543E+01  mag=    10.0002
       N       E                     dE             d eps       ncg     rms          rms(c)
DAV:   1    -0.397970097487E+02    0.18530E+01   -0.26586E+03   328   0.244E+02    0.159E+01
DAV:   2    -0.555565740883E+02   -0.15760E+02   -0.42792E+01   400   0.995E+01    0.559E+01
DAV:   3    -0.459192856141E+02    0.96373E+01   -0.30571E+01   384   0.666E+01    0.398E+01
DAV:   4    -0.436010899129E+02    0.23182E+01   -0.11305E+01   400   0.376E+01    0.253E+01
DAV:   5    -0.434295386242E+02    0.17155E+00   -0.31508E+00   392   0.291E+01    0.155E+01
DAV:   6    -0.434885922879E+02   -0.59054E-01   -0.17720E+00   400   0.208E+01    0.174E+01
DAV:   7    -0.436176524316E+02   -0.12906E+00   -0.22895E+00   376   0.171E+01    0.177E+01
DAV:   8    -0.432865964313E+02    0.33106E+00   -0.80612E-01   368   0.148E+01    0.948E+00
DAV:   9    -0.435680528305E+02   -0.28146E+00   -0.56969E-01   448   0.144E+01    0.111E+01
DAV:  10    -0.433860335714E+02    0.18202E+00   -0.11835E+00   392   0.156E+01    0.846E+00
DAV:  11    -0.437574914791E+02   -0.37146E+00   -0.73727E-01   432   0.180E+01    0.139E+01
DAV:  12    -0.434794371037E+02    0.27805E+00   -0.94494E-01   384   0.149E+01    0.779E+00
DAV:  13    -0.435267063889E+02   -0.47269E-01   -0.34320E-01   384   0.102E+01    0.681E+00
DAV:  14    -0.434986587741E+02    0.28048E-01   -0.15111E-01   368   0.725E+00    0.427E+00
DAV:  15    -0.435069734435E+02   -0.83147E-02   -0.80569E-02   400   0.599E+00    0.358E+00
DAV:  16    -0.435157894600E+02   -0.88160E-02   -0.70018E-02   400   0.458E+00    0.168E+00
DAV:  17    -0.435267600996E+02   -0.10971E-01   -0.29518E-02   448   0.309E+00    0.190E+00
DAV:  18    -0.435307062579E+02   -0.39462E-02   -0.12577E-02   368   0.226E+00    0.110E+00
DAV:  19    -0.435406148431E+02   -0.99086E-02   -0.11962E-02   392   0.218E+00    0.149E+00
DAV:  20    -0.435505533112E+02   -0.99385E-02   -0.99327E-03   360   0.191E+00    0.673E-01
DAV:  21    -0.435626131834E+02   -0.12060E-01   -0.66192E-03   432   0.170E+00    0.103E+00
DAV:  22    -0.435603569491E+02    0.22562E-02   -0.39816E-03   384   0.147E+00    0.304E-01
DAV:  23    -0.435671571883E+02   -0.68002E-02   -0.15886E-03   408   0.372E-01    0.199E-01
DAV:  24    -0.435702923794E+02   -0.31352E-02   -0.50462E-04   320   0.362E-01    0.147E-01
DAV:  25    -0.435721284861E+02   -0.18361E-02   -0.20933E-04   232   0.244E-01    0.650E-02
DAV:  26    -0.435735169915E+02   -0.13885E-02   -0.99821E-05   240   0.957E-02    0.307E-02
DAV:  27    -0.435745355620E+02   -0.10186E-02   -0.62104E-05   208   0.537E-02    0.221E-02
DAV:  28    -0.435752373255E+02   -0.70176E-03   -0.28179E-05   224   0.345E-02    0.242E-02
DAV:  29    -0.435759961608E+02   -0.75884E-03   -0.19230E-05   200   0.306E-02    0.163E-02
DAV:  30    -0.435765592962E+02   -0.56314E-03   -0.14952E-05   224   0.236E-02    0.103E-02
DAV:  31    -0.435769184902E+02   -0.35919E-03   -0.84122E-06   200   0.129E-02    0.825E-03
DAV:  32    -0.435772432016E+02   -0.32471E-03   -0.48087E-06   216   0.105E-02    0.573E-03
DAV:  33    -0.435775348095E+02   -0.29161E-03   -0.31986E-06   200   0.706E-03    0.333E-03
DAV:  34    -0.435778703644E+02   -0.33555E-03   -0.34725E-06   208   0.698E-03    0.343E-03
DAV:  35    -0.435781238514E+02   -0.25349E-03   -0.28760E-06   224   0.712E-03    0.374E-03
DAV:  36    -0.435782609572E+02   -0.13711E-03   -0.17303E-06   224   0.542E-03    0.172E-03
DAV:  37    -0.435783770812E+02   -0.11612E-03   -0.13547E-06   216   0.347E-03    0.158E-03
DAV:  38    -0.435784805556E+02   -0.10347E-03   -0.10344E-06   208   0.371E-03    0.179E-03
DAV:  39    -0.435785562244E+02   -0.75669E-04   -0.91087E-07   224   0.323E-03
   7 F= -.43578556E+02 E0= -.43578556E+02  d E =-.882394E+01  mag=    10.0000
       N       E                     dE             d eps       ncg     rms          rms(c)
DAV:   1    -0.432526547855E+02    0.32583E+00   -0.52268E+02   320   0.846E+01    0.722E+00
DAV:   2    -0.444056027229E+02   -0.11529E+01   -0.64876E+00   456   0.303E+01    0.201E+01
DAV:   3    -0.436680214347E+02    0.73758E+00   -0.37839E+00   376   0.352E+01    0.118E+01
DAV:   4    -0.440777775881E+02   -0.40976E+00   -0.26878E+00   400   0.175E+01    0.136E+01
DAV:   5    -0.436472929208E+02    0.43048E+00   -0.80263E-01   368   0.146E+01    0.686E+00
DAV:   6    -0.438609276694E+02   -0.21363E+00   -0.66452E-01   384   0.122E+01    0.707E+00
DAV:   7    -0.438669948750E+02   -0.60672E-02   -0.21871E-01   368   0.924E+00    0.412E+00
DAV:   8    -0.438751651179E+02   -0.81702E-02   -0.17815E-01   360   0.756E+00    0.293E+00
DAV:   9    -0.438949259809E+02   -0.19761E-01   -0.76221E-02   352   0.517E+00    0.275E+00
DAV:  10    -0.438843936769E+02    0.10532E-01   -0.49477E-02   344   0.468E+00    0.142E+00
DAV:  11    -0.439123477677E+02   -0.27954E-01   -0.33843E-02   424   0.355E+00    0.205E+00
DAV:  12    -0.439017570364E+02    0.10591E-01   -0.20460E-02   352   0.332E+00    0.644E-01
DAV:  13    -0.439138004847E+02   -0.12043E-01   -0.87569E-03   432   0.157E+00    0.927E-01
DAV:  14    -0.439121575385E+02    0.16429E-02   -0.45810E-03   344   0.151E+00    0.351E-01
DAV:  15    -0.439162813831E+02   -0.41238E-02   -0.28513E-03   456   0.985E-01    0.581E-01
DAV:  16    -0.439158368074E+02    0.44458E-03   -0.15432E-03   344   0.832E-01    0.238E-01
DAV:  17    -0.439174952376E+02   -0.16584E-02   -0.86524E-04   368   0.549E-01    0.240E-01
DAV:  18    -0.439183494593E+02   -0.85422E-03   -0.57986E-04   296   0.470E-01    0.140E-01
DAV:  19    -0.439192580295E+02   -0.90857E-03   -0.18765E-04   208   0.246E-01    0.752E-02
DAV:  20    -0.439195170384E+02   -0.25901E-03   -0.82391E-05   224   0.173E-01    0.678E-02
DAV:  21    -0.439200599569E+02   -0.54292E-03   -0.52729E-05   192   0.115E-01    0.256E-02
DAV:  22    -0.439204362700E+02   -0.37631E-03   -0.27431E-05   208   0.790E-02    0.370E-02
DAV:  23    -0.439207022788E+02   -0.26601E-03   -0.22686E-05   200   0.734E-02    0.109E-02
DAV:  24    -0.439211401801E+02   -0.43790E-03   -0.17144E-05   200   0.195E-02    0.866E-03
DAV:  25    -0.439214346904E+02   -0.29451E-03   -0.71773E-06   216   0.123E-02    0.557E-03
DAV:  26    -0.439217466644E+02   -0.31197E-03   -0.47042E-06   200   0.939E-03    0.536E-03
DAV:  27    -0.439219924583E+02   -0.24579E-03   -0.33763E-06   216   0.970E-03    0.355E-03
DAV:  28    -0.439221640360E+02   -0.17158E-03   -0.21820E-06   200   0.611E-03    0.217E-03
DAV:  29    -0.439223240940E+02   -0.16006E-03   -0.17336E-06   216   0.420E-03    0.148E-03
DAV:  30    -0.439225165260E+02   -0.19243E-03   -0.25057E-06   208   0.380E-03    0.188E-03
DAV:  31    -0.439226136397E+02   -0.97114E-04   -0.11423E-06   216   0.380E-03
   8 F= -.43922614E+02 E0= -.43922614E+02  d E =-.916800E+01  mag=    10.0000
       N       E                     dE             d eps       ncg     rms          rms(c)
DAV:   1    -0.439251672922E+02   -0.26508E-02   -0.63148E+01   320   0.274E+01    0.249E+00
DAV:   2    -0.440794145122E+02   -0.15425E+00   -0.61984E-01   464   0.113E+01    0.904E+00
DAV:   3    -0.438470217489E+02    0.23239E+00   -0.33826E-01   368   0.129E+01    0.329E+00
DAV:   4    -0.440199452444E+02   -0.17292E+00   -0.18452E-01   456   0.698E+00    0.387E+00
DAV:   5    -0.439730868871E+02    0.46858E-01   -0.95102E-02   376   0.596E+00    0.250E+00
DAV:   6    -0.439824684750E+02   -0.93816E-02   -0.47435E-02   440   0.318E+00    0.172E+00
DAV:   7    -0.439926760734E+02   -0.10208E-01   -0.21619E-02   432   0.236E+00    0.103E+00
DAV:   8    -0.440015745693E+02   -0.88985E-02   -0.22392E-02   400   0.276E+00    0.144E+00
DAV:   9    -0.439963405542E+02    0.52340E-02   -0.13117E-02   352   0.214E+00    0.431E-01
DAV:  10    -0.440021615629E+02   -0.58210E-02   -0.44659E-03   384   0.130E+00    0.506E-01
DAV:  11    -0.440020891717E+02    0.72391E-04   -0.23156E-03   344   0.102E+00    0.305E-01
DAV:  12    -0.440025634183E+02   -0.47425E-03   -0.80702E-04   360   0.526E-01    0.214E-01
DAV:  13    -0.440028598448E+02   -0.29643E-03   -0.27309E-04   200   0.332E-01    0.106E-01
DAV:  14    -0.440030131075E+02   -0.15326E-03   -0.11439E-04   216   0.203E-01    0.725E-02
DAV:  15    -0.440032770898E+02   -0.26398E-03   -0.65750E-05   192   0.144E-01    0.794E-02
DAV:  16    -0.440033340629E+02   -0.56973E-04   -0.44402E-05   200   0.138E-01
   9 F= -.44003334E+02 E0= -.44003334E+02  d E =-.924872E+01  mag=    10.0000
       N       E                     dE             d eps       ncg     rms          rms(c)
DAV:   1    -0.440054157641E+02   -0.21387E-02   -0.17967E+00   320   0.453E+00    0.411E-01
DAV:   2    -0.440072477337E+02   -0.18320E-02   -0.18295E-02   464   0.184E+00    0.114E+00
DAV:   3    -0.440037983615E+02    0.34494E-02   -0.10326E-02   344   0.226E+00    0.679E-01
DAV:   4    -0.440075285658E+02   -0.37302E-02   -0.50140E-03   440   0.126E+00    0.715E-01
DAV:   5    -0.440063921156E+02    0.11365E-02   -0.27807E-03   360   0.101E+00    0.495E-01
DAV:   6    -0.440068044791E+02   -0.41236E-03   -0.11460E-03   368   0.579E-01    0.170E-01
DAV:   7    -0.440084319865E+02   -0.16275E-02   -0.76500E-04   336   0.541E-01    0.372E-01
DAV:   8    -0.440077705443E+02    0.66144E-03   -0.77555E-04   344   0.606E-01    0.222E-01
DAV:   9    -0.440082176807E+02   -0.44714E-03   -0.36019E-04   264   0.452E-01    0.236E-01
DAV:  10    -0.440081417016E+02    0.75979E-04   -0.21118E-04   216   0.348E-01
  10 F= -.44008142E+02 E0= -.44008142E+02  d E =-.925353E+01  mag=    10.0000
       N       E                     dE             d eps       ncg     rms          rms(c)
DAV:   1    -0.442497177452E+02   -0.24150E+00   -0.11982E+02   320   0.378E+01    0.319E+00
DAV:   2    -0.444141140162E+02   -0.16440E+00   -0.14008E+00   424   0.130E+01    0.653E+00
DAV:   3    -0.444317876830E+02   -0.17674E-01   -0.82911E-01   360   0.176E+01    0.805E+00
DAV:   4    -0.445327943947E+02   -0.10101E+00   -0.53788E-01   424   0.117E+01    0.115E+01
DAV:   5    -0.442560745544E+02    0.27672E+00   -0.42174E-01   384   0.927E+00    0.359E+00
DAV:   6    -0.443549189910E+02   -0.98844E-01   -0.71940E-02   408   0.451E+00    0.108E+00
DAV:   7    -0.443981706302E+02   -0.43252E-01   -0.19615E-02   336   0.130E+00    0.938E-01
DAV:   8    -0.444157047769E+02   -0.17534E-01   -0.21427E-02   376   0.295E+00    0.213E+00
DAV:   9    -0.443993681308E+02    0.16337E-01   -0.17441E-02   384   0.284E+00    0.815E-01
DAV:  10    -0.444133203960E+02   -0.13952E-01   -0.12632E-02   416   0.202E+00    0.976E-01
DAV:  11    -0.444112485046E+02    0.20719E-02   -0.42163E-03   352   0.138E+00    0.497E-01
DAV:  12    -0.444132794945E+02   -0.20310E-02   -0.21247E-03   376   0.102E+00    0.321E-01
DAV:  13    -0.444142952922E+02   -0.10158E-02   -0.12346E-03   384   0.650E-01    0.373E-01
DAV:  14    -0.444141514429E+02    0.14385E-03   -0.55288E-04   304   0.535E-01    0.115E-01
DAV:  15    -0.444149246119E+02   -0.77317E-03   -0.24433E-04   216   0.305E-01    0.158E-01
DAV:  16    -0.444150802126E+02   -0.15560E-03   -0.18531E-04   216   0.276E-01    0.653E-02
DAV:  17    -0.444154525033E+02   -0.37229E-03   -0.84865E-05   208   0.175E-01    0.895E-02
DAV:  18    -0.444155907124E+02   -0.13821E-03   -0.60279E-05   208   0.153E-01    0.332E-02
DAV:  19    -0.444159205800E+02   -0.32987E-03   -0.25734E-05   208   0.503E-02    0.225E-02
DAV:  20    -0.444160169609E+02   -0.96381E-04   -0.17176E-05   200   0.595E-02
  11 F= -.44416017E+02 E0= -.44416017E+02  d E =-.407875E+00  mag=    10.0000
       N       E                     dE             d eps       ncg     rms          rms(c)
DAV:   1    -0.440369362219E+02    0.37898E+00   -0.46503E+02   320   0.800E+01    0.657E+00
DAV:   2    -0.453824570519E+02   -0.13455E+01   -0.80996E+00   432   0.320E+01    0.203E+01
DAV:   3    -0.445038345030E+02    0.87862E+00   -0.62575E+00   352   0.346E+01    0.116E+01
DAV:   4    -0.453561217772E+02   -0.85229E+00   -0.27328E+00   464   0.231E+01    0.186E+01
DAV:   5    -0.445536641385E+02    0.80246E+00   -0.21381E+00   408   0.189E+01    0.110E+01
DAV:   6    -0.444076165112E+02    0.14605E+00   -0.58641E-01   432   0.104E+01    0.318E+00
DAV:   7    -0.447266762741E+02   -0.31906E+00   -0.22152E-01   416   0.852E+00    0.765E+00
DAV:   8    -0.445763575638E+02    0.15032E+00   -0.20202E-01   376   0.755E+00    0.203E+00
DAV:   9    -0.446978218696E+02   -0.12146E+00   -0.83262E-02   408   0.519E+00    0.315E+00
DAV:  10    -0.446728935477E+02    0.24928E-01   -0.54138E-02   360   0.503E+00    0.164E+00
DAV:  11    -0.446994636678E+02   -0.26570E-01   -0.41689E-02   440   0.427E+00    0.201E+00
DAV:  12    -0.447020189832E+02   -0.25553E-02   -0.26300E-02   344   0.342E+00    0.140E+00
DAV:  13    -0.447019999250E+02    0.19058E-04   -0.12475E-02   392   0.249E+00    0.125E+00
DAV:  14    -0.447033010376E+02   -0.13011E-02   -0.65739E-03   328   0.141E+00    0.494E-01
DAV:  15    -0.447094986905E+02   -0.61977E-02   -0.43216E-03   368   0.134E+00    0.667E-01
DAV:  16    -0.447107610559E+02   -0.12624E-02   -0.27898E-03   328   0.102E+00    0.271E-01
DAV:  17    -0.447127847976E+02   -0.20237E-02   -0.10049E-03   368   0.608E-01    0.270E-01
DAV:  18    -0.447130897904E+02   -0.30499E-03   -0.57685E-04   328   0.503E-01    0.140E-01
DAV:  19    -0.447137002549E+02   -0.61046E-03   -0.26367E-04   224   0.313E-01    0.199E-01
DAV:  20    -0.447142996998E+02   -0.59944E-03   -0.22704E-04   216   0.293E-01    0.699E-02
DAV:  21    -0.447151026125E+02   -0.80291E-03   -0.94588E-05   208   0.110E-01    0.425E-02
DAV:  22    -0.447155744103E+02   -0.47180E-03   -0.43564E-05   216   0.936E-02    0.431E-02
DAV:  23    -0.447157764237E+02   -0.20201E-03   -0.31556E-05   208   0.957E-02    0.241E-02
DAV:  24    -0.447162779468E+02   -0.50152E-03   -0.22940E-05   200   0.365E-02    0.135E-02
DAV:  25    -0.447166160690E+02   -0.33812E-03   -0.14489E-05   208   0.197E-02    0.940E-03
DAV:  26    -0.447169250013E+02   -0.30893E-03   -0.76537E-06   200   0.131E-02    0.110E-02
DAV:  27    -0.447172844161E+02   -0.35941E-03   -0.64833E-06   208   0.150E-02    0.642E-03
DAV:  28    -0.447175599723E+02   -0.27556E-03   -0.54442E-06   208   0.964E-03    0.386E-03
DAV:  29    -0.447177672251E+02   -0.20725E-03   -0.31673E-06   208   0.788E-03    0.316E-03
DAV:  30    -0.447179308304E+02   -0.16361E-03   -0.22094E-06   208   0.514E-03    0.222E-03
DAV:  31    -0.447180956167E+02   -0.16479E-03   -0.18234E-06   208   0.370E-03    0.175E-03
DAV:  32    -0.447182021645E+02   -0.10655E-03   -0.10115E-06   208   0.342E-03    0.125E-03
DAV:  33    -0.447182758026E+02   -0.73638E-04   -0.68853E-07   200   0.272E-03
  12 F= -.44718276E+02 E0= -.44718276E+02  d E =-.710134E+00  mag=    10.0000
       N       E                     dE             d eps       ncg     rms          rms(c)
DAV:   1    -0.447079137310E+02    0.10288E-01   -0.14277E+01   320   0.128E+01    0.110E+00
DAV:   2    -0.447257246575E+02   -0.17811E-01   -0.14325E-01   440   0.450E+00    0.294E+00
DAV:   3    -0.447127592689E+02    0.12965E-01   -0.81537E-02   360   0.562E+00    0.215E+00
DAV:   4    -0.447321026771E+02   -0.19343E-01   -0.56986E-02   400   0.396E+00    0.269E+00
DAV:   5    -0.447164775076E+02    0.15625E-01   -0.30854E-02   360   0.306E+00    0.157E+00
DAV:   6    -0.447191687002E+02   -0.26912E-02   -0.80632E-03   416   0.176E+00    0.375E-01
DAV:   7    -0.447283589033E+02   -0.91902E-02   -0.13132E-02   448   0.127E+00    0.129E+00
DAV:   8    -0.447187132710E+02    0.96456E-02   -0.11151E-02   368   0.133E+00    0.334E-01
DAV:   9    -0.447266829604E+02   -0.79697E-02   -0.23543E-03   424   0.977E-01    0.400E-01
DAV:  10    -0.447263571496E+02    0.32581E-03   -0.12236E-03   360   0.771E-01    0.243E-01
DAV:  11    -0.447266889691E+02   -0.33182E-03   -0.49144E-04   336   0.480E-01    0.233E-01
DAV:  12    -0.447267271884E+02   -0.38219E-04   -0.30313E-04   240   0.385E-01
  13 F= -.44726727E+02 E0= -.44726727E+02  d E =-.718585E+00  mag=    10.0000
       N       E                     dE             d eps       ncg     rms          rms(c)
DAV:   1    -0.447422223718E+02   -0.15533E-01   -0.13160E+02   320   0.400E+01    0.411E+00
DAV:   2    -0.460439553315E+02   -0.13017E+01   -0.28018E+00   448   0.277E+01    0.229E+01
DAV:   3    -0.444818805587E+02    0.15621E+01   -0.23458E+00   376   0.252E+01    0.689E+00
DAV:   4    -0.449533718024E+02   -0.47149E+00   -0.78004E-01   440   0.130E+01    0.136E+01
DAV:   5    -0.447591138648E+02    0.19426E+00   -0.31212E-01   352   0.105E+01    0.604E+00
DAV:   6    -0.447400506661E+02    0.19063E-01   -0.30431E-01   376   0.671E+00    0.276E+00
DAV:   7    -0.448143294675E+02   -0.74279E-01   -0.64290E-02   384   0.378E+00    0.263E+00
DAV:   8    -0.448384714829E+02   -0.24142E-01   -0.57365E-02   368   0.416E+00    0.276E+00
DAV:   9    -0.448733883415E+02   -0.34917E-01   -0.91270E-02   376   0.502E+00    0.482E+00
DAV:  10    -0.448437522187E+02    0.29636E-01   -0.60053E-02   368   0.520E+00    0.274E+00
DAV:  11    -0.448872012725E+02   -0.43449E-01   -0.56919E-02   384   0.425E+00    0.242E+00
DAV:  12    -0.449074500393E+02   -0.20249E-01   -0.24040E-02   408   0.276E+00    0.115E+00
DAV:  13    -0.449126628417E+02   -0.52128E-02   -0.12471E-02   376   0.252E+00    0.914E-01
DAV:  14    -0.449180976239E+02   -0.54348E-02   -0.51064E-03   360   0.141E+00    0.676E-01
DAV:  15    -0.449188952970E+02   -0.79767E-03   -0.35981E-03   336   0.126E+00    0.560E-01
DAV:  16    -0.449225887950E+02   -0.36935E-02   -0.29807E-03   392   0.101E+00    0.689E-01
DAV:  17    -0.449214152306E+02    0.11736E-02   -0.19947E-03   352   0.917E-01    0.245E-01
DAV:  18    -0.449234896833E+02   -0.20745E-02   -0.93421E-04   368   0.521E-01    0.337E-01
DAV:  19    -0.449228688891E+02    0.62079E-03   -0.56885E-04   288   0.459E-01    0.153E-01
DAV:  20    -0.449232571449E+02   -0.38826E-03   -0.19831E-04   208   0.194E-01    0.162E-01
DAV:  21    -0.449229431239E+02    0.31402E-03   -0.18325E-04   208   0.218E-01    0.157E-01
DAV:  22    -0.449240436307E+02   -0.11005E-02   -0.11893E-04   216   0.184E-01    0.120E-01
DAV:  23    -0.449243811779E+02   -0.33755E-03   -0.11519E-04   216   0.141E-01    0.588E-02
DAV:  24    -0.449247507405E+02   -0.36956E-03   -0.83032E-05   224   0.865E-02    0.458E-02
DAV:  25    -0.449249803542E+02   -0.22961E-03   -0.11146E-04   216   0.609E-02    0.437E-02
DAV:  26    -0.449250211291E+02   -0.40775E-04   -0.79728E-05   224   0.581E-02
  14 F= -.44925021E+02 E0= -.44925021E+02  d E =-.198294E+00  mag=    10.0000
       N       E                     dE             d eps       ncg     rms          rms(c)
DAV:   1    -0.449140339685E+02    0.10946E-01   -0.29926E+01   320   0.187E+01    0.183E+00
DAV:   2    -0.451758264708E+02   -0.26179E+00   -0.68362E-01   448   0.123E+01    0.120E+01
DAV:   3    -0.447334426529E+02    0.44238E+00   -0.10238E+00   360   0.116E+01    0.194E+00
DAV:   4    -0.449992813700E+02   -0.26584E+00   -0.15333E-01   440   0.670E+00    0.670E+00
DAV:   5    -0.449123126378E+02    0.86969E-01   -0.66404E-02   360   0.549E+00    0.277E+00
DAV:   6    -0.449247721389E+02   -0.12460E-01   -0.30122E-02   400   0.326E+00    0.532E-01
DAV:   7    -0.449474869167E+02   -0.22715E-01   -0.18637E-02   472   0.177E+00    0.148E+00
DAV:   8    -0.449397136344E+02    0.77733E-02   -0.14491E-02   376   0.175E+00    0.880E-01
DAV:   9    -0.449459266669E+02   -0.62130E-02   -0.62777E-03   416   0.134E+00    0.914E-01
DAV:  10    -0.449442046579E+02    0.17220E-02   -0.62038E-03   376   0.129E+00    0.614E-01
DAV:  11    -0.449470651654E+02   -0.28605E-02   -0.52070E-03   392   0.119E+00    0.594E-01
DAV:  12    -0.449484365235E+02   -0.13714E-02   -0.20656E-03   352   0.733E-01    0.249E-01
DAV:  13    -0.449492043186E+02   -0.76780E-03   -0.73494E-04   320   0.525E-01    0.353E-01
DAV:  14    -0.449488768591E+02    0.32746E-03   -0.34157E-04   280   0.413E-01    0.123E-01
DAV:  15    -0.449493318761E+02   -0.45502E-03   -0.17063E-04   216   0.250E-01    0.124E-01
DAV:  16    -0.449496063430E+02   -0.27447E-03   -0.93364E-05   208   0.183E-01    0.736E-02
DAV:  17    -0.449497188254E+02   -0.11248E-03   -0.57135E-05   200   0.160E-01    0.674E-02
DAV:  18    -0.449498476787E+02   -0.12885E-03   -0.32359E-05   208   0.959E-02    0.298E-02
DAV:  19    -0.449498933888E+02   -0.45710E-04   -0.18259E-05   208   0.701E-02
  15 F= -.44949893E+02 E0= -.44949893E+02  d E =-.223166E+00  mag=    10.0000
       N       E                     dE             d eps       ncg     rms          rms(c)
DAV:   1    -0.449573893934E+02   -0.75417E-02   -0.98554E+01   320   0.340E+01    0.363E+00
DAV:   2    -0.464364137338E+02   -0.14790E+01   -0.39900E+00   408   0.291E+01    0.206E+01
DAV:   3    -0.446623558015E+02    0.17741E+01   -0.14944E+00   392   0.251E+01    0.231E+00
DAV:   4    -0.450357974609E+02   -0.37344E+00   -0.43512E-01   424   0.649E+00    0.417E+00
DAV:   5    -0.450213561844E+02    0.14441E-01   -0.11336E-01   352   0.603E+00    0.161E+00
DAV:   6    -0.450623761229E+02   -0.41020E-01   -0.42471E-02   424   0.331E+00    0.226E+00
DAV:   7    -0.450523617908E+02    0.10014E-01   -0.21833E-02   352   0.288E+00    0.175E+00
DAV:   8    -0.450619933087E+02   -0.96315E-02   -0.15231E-02   416   0.229E+00    0.219E+00
DAV:   9    -0.450573823925E+02    0.46109E-02   -0.11292E-02   384   0.216E+00    0.110E+00
DAV:  10    -0.450629820233E+02   -0.55996E-02   -0.82143E-03   368   0.184E+00    0.825E-01
DAV:  11    -0.450682673583E+02   -0.52853E-02   -0.66273E-03   392   0.152E+00    0.117E+00
DAV:  12    -0.450633610830E+02    0.49063E-02   -0.33300E-03   352   0.131E+00    0.523E-01
DAV:  13    -0.450676170095E+02   -0.42559E-02   -0.18616E-03   400   0.825E-01    0.577E-01
DAV:  14    -0.450673222165E+02    0.29479E-03   -0.10350E-03   336   0.644E-01    0.192E-01
DAV:  15    -0.450695193621E+02   -0.21971E-02   -0.92105E-04   320   0.469E-01    0.257E-01
DAV:  16    -0.450698708196E+02   -0.35146E-03   -0.41482E-04   288   0.431E-01    0.117E-01
DAV:  17    -0.450703188263E+02   -0.44801E-03   -0.10352E-04   200   0.192E-01    0.861E-02
DAV:  18    -0.450703842092E+02   -0.65383E-04   -0.61231E-05   200   0.148E-01
  16 F= -.45070384E+02 E0= -.45070384E+02  d E =-.120491E+00  mag=    10.0000
       N       E                     dE             d eps       ncg     rms          rms(c)
DAV:   1    -0.450544646959E+02    0.15854E-01   -0.25510E+01   320   0.171E+01    0.183E+00
DAV:   2    -0.454406182694E+02   -0.38615E+00   -0.95827E-01   400   0.145E+01    0.135E+01
DAV:   3    -0.448059578631E+02    0.63466E+00   -0.13358E+00   392   0.130E+01    0.140E+00
DAV:   4    -0.450509880207E+02   -0.24503E+00   -0.10067E-01   448   0.357E+00    0.225E+00
DAV:   5    -0.450599722681E+02   -0.89842E-02   -0.27558E-02   360   0.309E+00    0.940E-01
DAV:   6    -0.450810488684E+02   -0.21077E-01   -0.15844E-02   416   0.224E+00    0.210E+00
DAV:   7    -0.450677345557E+02    0.13314E-01   -0.10141E-02   344   0.193E+00    0.993E-01
DAV:   8    -0.450777389698E+02   -0.10004E-01   -0.57193E-03   384   0.154E+00    0.123E+00
DAV:   9    -0.450772445028E+02    0.49447E-03   -0.39813E-03   384   0.135E+00    0.912E-01
DAV:  10    -0.450779853520E+02   -0.74085E-03   -0.30705E-03   360   0.120E+00    0.413E-01
DAV:  11    -0.450826910509E+02   -0.47057E-02   -0.38957E-03   416   0.852E-01    0.586E-01
DAV:  12    -0.450820235451E+02    0.66751E-03   -0.22095E-03   328   0.756E-01    0.258E-01
DAV:  13    -0.450833999563E+02   -0.13764E-02   -0.90073E-04   352   0.459E-01    0.251E-01
DAV:  14    -0.450836080134E+02   -0.20806E-03   -0.48382E-04   296   0.461E-01    0.174E-01
DAV:  15    -0.450842405652E+02   -0.63255E-03   -0.39316E-04   224   0.356E-01    0.209E-01
DAV:  16    -0.450842322679E+02    0.82973E-05   -0.23102E-04   216   0.306E-01
  17 F= -.45084232E+02 E0= -.45084232E+02  d E =-.134339E+00  mag=    10.0000
       N       E                     dE             d eps       ncg     rms          rms(c)
DAV:   1    -0.450908364602E+02   -0.65959E-02   -0.22701E+01   320   0.162E+01    0.153E+00
DAV:   2    -0.451328048421E+02   -0.41968E-01   -0.24336E-01   440   0.672E+00    0.468E+00
DAV:   3    -0.450896160842E+02    0.43189E-01   -0.15966E-01   352   0.857E+00    0.352E+00
DAV:   4    -0.451276635716E+02   -0.38047E-01   -0.99222E-02   456   0.565E+00    0.431E+00
DAV:   5    -0.450941050127E+02    0.33559E-01   -0.45267E-02   368   0.468E+00    0.221E+00
DAV:   6    -0.451053786675E+02   -0.11274E-01   -0.16750E-02   408   0.281E+00    0.615E-01
DAV:   7    -0.451214323744E+02   -0.16054E-01   -0.10235E-02   464   0.194E+00    0.155E+00
DAV:   8    -0.451136926380E+02    0.77397E-02   -0.89108E-03   384   0.189E+00    0.805E-01
DAV:   9    -0.451184436016E+02   -0.47510E-02   -0.38545E-03   400   0.125E+00    0.764E-01
DAV:  10    -0.451187664694E+02   -0.32287E-03   -0.32331E-03   416   0.112E+00    0.524E-01
DAV:  11    -0.451198036390E+02   -0.10372E-02   -0.21161E-03   384   0.964E-01    0.320E-01
DAV:  12    -0.451208765416E+02   -0.10729E-02   -0.16996E-03   376   0.665E-01    0.343E-01
DAV:  13    -0.451207696127E+02    0.10693E-03   -0.67156E-04   320   0.627E-01    0.168E-01
DAV:  14    -0.451212533969E+02   -0.48378E-03   -0.29778E-04   192   0.278E-01    0.135E-01
DAV:  15    -0.451211848713E+02    0.68526E-04   -0.18240E-04   200   0.225E-01
  18 F= -.45121185E+02 E0= -.45121185E+02  d E =-.369526E-01  mag=    10.0000
       N       E                     dE             d eps       ncg     rms          rms(c)
DAV:   1    -0.451214861428E+02   -0.23275E-03   -0.13160E+00   320   0.389E+00    0.368E-01
DAV:   2    -0.451229962045E+02   -0.15101E-02   -0.13956E-02   448   0.163E+00    0.109E+00
DAV:   3    -0.451208477873E+02    0.21484E-02   -0.97680E-03   352   0.210E+00    0.105E+00
DAV:   4    -0.451218372171E+02   -0.98943E-03   -0.60135E-03   440   0.141E+00    0.101E+00
DAV:   5    -0.451208809837E+02    0.95623E-03   -0.28625E-03   368   0.115E+00    0.499E-01
DAV:   6    -0.451221434756E+02   -0.12625E-02   -0.90736E-04   368   0.671E-01    0.137E-01
DAV:   7    -0.451234117710E+02   -0.12683E-02   -0.66301E-04   344   0.484E-01    0.388E-01
DAV:   8    -0.451229756871E+02    0.43608E-03   -0.52048E-04   304   0.472E-01    0.223E-01
DAV:   9    -0.451233015957E+02   -0.32591E-03   -0.18237E-04   200   0.312E-01    0.175E-01
DAV:  10    -0.451233695859E+02   -0.67990E-04   -0.17499E-04   192   0.284E-01
  19 F= -.45123370E+02 E0= -.45123370E+02  d E =-.391373E-01  mag=    10.0000
       N       E                     dE             d eps       ncg     rms          rms(c)
DAV:   1    -0.451247216851E+02   -0.14201E-02   -0.11020E+01   320   0.111E+01    0.105E+00
DAV:   2    -0.451560560871E+02   -0.31334E-01   -0.11913E-01   472   0.504E+00    0.386E+00
DAV:   3    -0.451176816502E+02    0.38374E-01   -0.10415E-01   352   0.606E+00    0.280E+00
DAV:   4    -0.451365937257E+02   -0.18912E-01   -0.62308E-02   440   0.424E+00    0.291E+00
DAV:   5    -0.451241177947E+02    0.12476E-01   -0.29212E-02   368   0.325E+00    0.139E+00
DAV:   6    -0.451314376335E+02   -0.73198E-02   -0.85447E-03   376   0.201E+00    0.519E-01
DAV:   7    -0.451365372018E+02   -0.50996E-02   -0.40083E-03   424   0.125E+00    0.110E+00
DAV:   8    -0.451329647366E+02    0.35725E-02   -0.35391E-03   368   0.115E+00    0.472E-01
DAV:   9    -0.451367633662E+02   -0.37986E-02   -0.16756E-03   368   0.822E-01    0.531E-01
DAV:  10    -0.451364153151E+02    0.34805E-03   -0.11935E-03   384   0.744E-01    0.277E-01
DAV:  11    -0.451370889023E+02   -0.67359E-03   -0.69466E-04   336   0.551E-01    0.236E-01
DAV:  12    -0.451373791123E+02   -0.29021E-03   -0.52037E-04   304   0.446E-01    0.199E-01
DAV:  13    -0.451374054206E+02   -0.26308E-04   -0.28325E-04   216   0.393E-01
  20 F= -.45137405E+02 E0= -.45137405E+02  d E =-.140358E-01  mag=    10.0000
       N       E                     dE             d eps       ncg     rms          rms(c)
DAV:   1    -0.451373774172E+02    0.16951E-05   -0.45734E-01   336   0.227E+00    0.230E-01
DAV:   2    -0.451386760830E+02   -0.12987E-02   -0.64548E-03   456   0.118E+00    0.796E-01
DAV:   3    -0.451357451787E+02    0.29309E-02   -0.58780E-03   344   0.139E+00    0.359E-01
DAV:   4    -0.451378164169E+02   -0.20712E-02   -0.21920E-03   400   0.732E-01    0.371E-01
DAV:   5    -0.451374831338E+02    0.33328E-03   -0.68684E-04   344   0.564E-01    0.186E-01
DAV:   6    -0.451376797734E+02   -0.19664E-03   -0.17859E-04   192   0.290E-01    0.151E-01
DAV:   7    -0.451379446346E+02   -0.26486E-03   -0.27652E-04   208   0.264E-01    0.177E-01
DAV:   8    -0.451379174559E+02    0.27179E-04   -0.13082E-04   200   0.234E-01
  21 F= -.45137917E+02 E0= -.45137917E+02  d E =-.145479E-01  mag=    10.0000
       N       E                     dE             d eps       ncg     rms          rms(c)
DAV:   1    -0.451377847801E+02    0.15985E-03   -0.41299E+00   320   0.684E+00    0.614E-01
DAV:   2    -0.451439600964E+02   -0.61753E-02   -0.40958E-02   448   0.247E+00    0.190E+00
DAV:   3    -0.451332583243E+02    0.10702E-01   -0.29452E-02   344   0.345E+00    0.128E+00
DAV:   4    -0.451442915502E+02   -0.11033E-01   -0.12283E-02   408   0.229E+00    0.191E+00
DAV:   5    -0.451325243559E+02    0.11767E-01   -0.89115E-03   368   0.185E+00    0.676E-01
DAV:   6    -0.451404030654E+02   -0.78787E-02   -0.25219E-03   408   0.953E-01    0.463E-01
DAV:   7    -0.451417542691E+02   -0.13512E-02   -0.16048E-03   360   0.775E-01    0.478E-01
DAV:   8    -0.451422991070E+02   -0.54484E-03   -0.10813E-03   360   0.649E-01    0.270E-01
DAV:   9    -0.451425174366E+02   -0.21833E-03   -0.46101E-04   288   0.447E-01    0.211E-01
DAV:  10    -0.451425926008E+02   -0.75164E-04   -0.28819E-04   216   0.326E-01
  22 F= -.45142593E+02 E0= -.45142593E+02  d E =-.467514E-02  mag=    10.0000
       N       E                     dE             d eps       ncg     rms          rms(c)
DAV:   1    -0.451413384792E+02    0.11790E-02   -0.16990E+00   320   0.439E+00    0.445E-01
DAV:   2    -0.451504402217E+02   -0.91017E-02   -0.24972E-02   448   0.250E+00    0.216E+00
DAV:   3    -0.451296155129E+02    0.20825E-01   -0.25443E-02   344   0.278E+00    0.794E-01
DAV:   4    -0.451445691214E+02   -0.14954E-01   -0.82146E-03   424   0.166E+00    0.149E+00
DAV:   5    -0.451379592311E+02    0.66099E-02   -0.47983E-03   368   0.138E+00    0.538E-01
DAV:   6    -0.451417606487E+02   -0.38014E-02   -0.12793E-03   360   0.792E-01    0.272E-01
DAV:   7    -0.451429667415E+02   -0.12061E-02   -0.82579E-04   344   0.553E-01    0.368E-01
DAV:   8    -0.451432174048E+02   -0.25066E-03   -0.67331E-04   336   0.536E-01    0.335E-01
DAV:   9    -0.451431728965E+02    0.44508E-04   -0.39027E-04   272   0.444E-01
  23 F= -.45143173E+02 E0= -.45143173E+02  d E =-.525544E-02  mag=    10.0000
       N       E                     dE             d eps       ncg     rms          rms(c)
DAV:   1    -0.451415917631E+02    0.16256E-02   -0.38957E+00   320   0.662E+00    0.643E-01
DAV:   2    -0.451589649969E+02   -0.17373E-01   -0.53302E-02   408   0.399E+00    0.262E+00
DAV:   3    -0.451326638496E+02    0.26301E-01   -0.48764E-02   344   0.412E+00    0.120E+00
DAV:   4    -0.451467861299E+02   -0.14122E-01   -0.17210E-02   456   0.230E+00    0.171E+00
DAV:   5    -0.451416882440E+02    0.50979E-02   -0.97294E-03   368   0.193E+00    0.123E+00
DAV:   6    -0.451416484099E+02    0.39834E-04   -0.34180E-03   368   0.132E+00    0.226E-01
DAV:   7    -0.451453083122E+02   -0.36599E-02   -0.13112E-03   464   0.606E-01    0.467E-01
DAV:   8    -0.451454097344E+02   -0.10142E-03   -0.92398E-04   368   0.631E-01    0.403E-01
DAV:   9    -0.451455669669E+02   -0.15723E-03   -0.74999E-04   352   0.552E-01    0.204E-01
DAV:  10    -0.451460977924E+02   -0.53083E-03   -0.39429E-04   256   0.381E-01    0.171E-01
DAV:  11    -0.451460799825E+02    0.17810E-04   -0.20664E-04   200   0.274E-01
  24 F= -.45146080E+02 E0= -.45146080E+02  d E =-.290709E-02  mag=    10.0000
       N       E                     dE             d eps       ncg     rms          rms(c)
DAV:   1    -0.451458902250E+02    0.20757E-03   -0.36846E-01   320   0.203E+00    0.224E-01
DAV:   2    -0.451489396176E+02   -0.30494E-02   -0.77892E-03   432   0.160E+00    0.108E+00
DAV:   3    -0.451433197249E+02    0.56199E-02   -0.51253E-03   368   0.158E+00    0.286E-01
DAV:   4    -0.451464674554E+02   -0.31477E-02   -0.16256E-03   448   0.722E-01    0.456E-01
DAV:   5    -0.451459881919E+02    0.47926E-03   -0.85007E-04   344   0.596E-01    0.437E-01
DAV:   6    -0.451457543454E+02    0.23385E-03   -0.57415E-04   272   0.404E-01    0.811E-02
DAV:   7    -0.451462867253E+02   -0.53238E-03   -0.13516E-04   192   0.195E-01    0.127E-01
DAV:   8    -0.451463722631E+02   -0.85538E-04   -0.12323E-04   200   0.206E-01
  25 F= -.45146372E+02 E0= -.45146372E+02  d E =-.319937E-02  mag=    10.0000
       N       E                     dE             d eps       ncg     rms          rms(c)
DAV:   1    -0.451462922367E+02   -0.55113E-05   -0.78048E-01   320   0.293E+00    0.290E-01
DAV:   2    -0.451494846842E+02   -0.31924E-02   -0.14057E-02   432   0.156E+00    0.152E+00
DAV:   3    -0.451383267947E+02    0.11158E-01   -0.11817E-02   344   0.172E+00    0.557E-01
DAV:   4    -0.451463695905E+02   -0.80428E-02   -0.41190E-03   432   0.111E+00    0.879E-01
DAV:   5    -0.451446251692E+02    0.17444E-02   -0.19965E-03   360   0.873E-01    0.320E-01
DAV:   6    -0.451458831803E+02   -0.12580E-02   -0.47455E-04   296   0.436E-01    0.184E-01
DAV:   7    -0.451464343620E+02   -0.55118E-03   -0.30762E-04   232   0.368E-01    0.254E-01
DAV:   8    -0.451470999116E+02   -0.66555E-03   -0.51466E-04   240   0.375E-01    0.246E-01
DAV:   9    -0.451471149545E+02   -0.15043E-04   -0.30642E-04   208   0.341E-01
  26 F= -.45147115E+02 E0= -.45147115E+02  d E =-.742691E-03  mag=    10.0000
       N       E                     dE             d eps       ncg     rms          rms(c)
DAV:   1    -0.451461245795E+02    0.97533E-03   -0.10463E+00   320   0.340E+00    0.327E-01
DAV:   2    -0.451495193515E+02   -0.33948E-02   -0.15011E-02   432   0.170E+00    0.144E+00
DAV:   3    -0.451399981125E+02    0.95212E-02   -0.11333E-02   344   0.190E+00    0.461E-01
DAV:   4    -0.451476817514E+02   -0.76836E-02   -0.59921E-03   408   0.105E+00    0.102E+00
DAV:   5    -0.451438611443E+02    0.38206E-02   -0.31300E-03   344   0.921E-01    0.333E-01
DAV:   6    -0.451460770712E+02   -0.22159E-02   -0.57337E-04   312   0.479E-01    0.157E-01
DAV:   7    -0.451469440673E+02   -0.86700E-03   -0.43706E-04   280   0.387E-01    0.268E-01
DAV:   8    -0.451474333341E+02   -0.48927E-03   -0.37055E-04   272   0.409E-01    0.263E-01
DAV:   9    -0.451473701989E+02    0.63135E-04   -0.26922E-04   200   0.353E-01
  27 F= -.45147370E+02 E0= -.45147370E+02  d E =-.997936E-03  mag=    10.0000
