14
Energy = -9.18998029 eV
Mg 13.346447591163159 13.437222134688925 8.494648190923472
Mg 11.365869612001987 11.279802652031334 8.899877580553802
Mg 10.53508937654605 14.312985033111792 9.311810754013724
Mg 13.972018690844088 11.122227519585643 10.730735834005237
Mg 12.8181707334462 13.831695666293562 11.457508601311087
Mg 9.477084606949287 12.059932696430568 11.049376577985488
Mg 11.381058972318009 9.767710739193868 11.7080565457836
Mg 10.148657823061102 14.71290663392757 12.320417319666857
Mg 14.704809612391177 12.475938329559211 13.364008102668688
Mg 13.987827695417128 9.603718804399781 13.53750659292583
Mg 11.406714279313826 9.317468342024304 14.953555730382313
Mg 10.93639295825564 12.031204127053554 13.676228983005043
Mg 12.599439835026045 14.30528350599065 14.517662141008447
Mg 13.199107389332415 11.620592991775096 15.857296221832907
