17
Energy = -12.65147215 eV
Mg 13.013153874697736 13.22025281673407 17.18884475667152
Mg 14.36378267998082 9.794444250421284 12.68635576172297
Mg 12.815345173357775 13.483348211063273 14.077381650321962
Mg 11.988926168688243 15.33932389520267 10.902211944995083
Mg 15.897854620562697 12.303662392481016 13.750050285030873
Mg 10.485905117195594 16.005546002658672 13.468109024750099
Mg 12.360082302544871 15.954193633084783 15.917376410379966
Mg 15.282839894735336 15.22277510753278 14.734215941673737
Mg 10.296782847802701 13.229475970480133 12.354876797684666
Mg 12.869194564764854 12.178750007918817 11.144555872907684
Mg 14.848257464654706 15.51381231342619 17.708923941819705
Mg 13.968384820099738 10.749227203268147 15.586888932202385
Mg 14.774359922259512 14.440940617247346 11.814983517985254
Mg 15.989902153720607 12.84484098879199 16.705399840571157
Mg 15.8184942746347 11.652965830009231 10.795003029913495
Mg 11.68721670994324 10.748093717276115 13.571560820806852
Mg 13.317907081911835 16.90148646694322 13.11938977649013
