19
Energy = -15.41411403 eV
Mg 10.085969747313708 12.436678010279373 7.116741919630698
Mg 11.595837386138573 9.609500713981365 7.7037088608164055
Mg 8.60207113547633 9.94245889123658 7.398552811356384
Mg 9.468072798500504 7.3284163950002466 8.335239138249129
Mg 12.346152538015176 12.357949303327722 9.014192783496377
Mg 9.750059087197547 13.895435479205096 9.694474235910869
Mg 7.48848504873407 12.234617056730174 8.911873347994229
Mg 11.862951156061028 7.165606132781544 9.965254419054249
Mg 10.304382365977274 10.361845235076114 10.32922900317174
Mg 7.4851052589320695 9.378334295980759 10.165179518597874
Mg 11.393429415378435 12.897045880229516 11.948312467684175
Mg 9.11389334301868 6.939861625596875 11.25389931384985
Mg 13.321566681891474 9.731548055039514 10.487251384568385
Mg 8.31081148351397 12.127782809694258 11.820629246760552
Mg 11.309099221681466 8.496373333900717 12.67372806539544
Mg 8.26146545760426 9.120256178971148 13.07308913148535
Mg 10.21435142030433 11.114374742020503 14.064772844813804
Mg 13.12236060981446 10.798052782582282 13.292945271147357
Mg 14.388440611480618 12.488367845401273 11.175431003051237
