24
Energy = -19.79982846 eV
Mg 15.238189759002713 17.16445498961666 12.39042782475332
Mg 12.216914448387412 17.4502757390762 11.854020648089001
Mg 16.591846228386803 14.61181905516664 11.517501511037496
Mg 13.84371684747822 15.374323049898909 10.398676417143319
Mg 16.321196214150998 15.021372748305676 14.494528483391
Mg 14.941374535748494 12.526055664487378 10.077126863649925
Mg 13.270897802147555 16.042880288842163 14.271003247971757
Mg 10.48425793766159 16.033985158461487 9.80200719660031
Mg 17.002633651807635 12.102350649994007 13.213269977608803
Mg 16.631712161057497 12.533643185858704 16.11901343311496
Mg 14.087809074564618 13.338698644638587 12.94475864653998
Mg 12.054988753071195 13.320096333893048 9.201080015907815
Mg 11.407502757567876 14.359955093497426 12.263447286735301
Mg 14.88995583576311 10.233217843512156 12.020384856861202
Mg 13.853936174811478 13.700336658052503 16.075689502951022
Mg 9.105813680472615 13.650457580556438 8.657604161118135
Mg 14.433134112872184 10.894489719266035 14.920851337554295
Mg 10.935238417841086 14.552903880628637 15.369269850441867
Mg 12.714631985666376 10.485660918180251 9.993167441541292
Mg 8.397106227653609 14.373569783521809 11.437570622829552
Mg 12.053286041559662 11.066335738232992 12.910726795866754
Mg 9.920648649226944 11.73297458570807 10.80821704867339
Mg 9.41811382320477 12.512494314674226 13.75420833779613
Mg 11.588633539877229 11.718126456290266 15.818893246602073
