24
Energy = -19.66201951 eV
Mg 14.091179379876623 10.934338320229134 8.26389093030983
Mg 11.401949658165233 9.474290869711416 7.777671727067748
Mg 11.943879083024006 12.060396074319213 6.384620152143871
Mg 9.788717975698619 12.147887427210492 8.566116475133379
Mg 8.954301540618745 9.499802702911673 9.645185929282567
Mg 15.584559529901865 10.090054463366888 10.863654310666293
Mg 10.64004064313099 7.147923108622038 9.608959270498424
Mg 12.400427078583913 13.464603934628865 9.013069369499119
Mg 13.512764279141251 8.215480285313236 9.68204478792187
Mg 12.012558369589147 10.736473065401782 10.600851947099969
Mg 9.771054983144982 14.524201221558998 10.661064274245781
Mg 14.943285497098628 12.928423491310921 10.44806754100111
Mg 9.212373976511943 11.662550699876396 11.615813727933322
Mg 10.279092825021925 8.750270689543656 12.367853733151133
Mg 12.237829126618209 6.454727880664019 11.920065482434188
Mg 14.595819704360103 11.71568506240198 13.199203898359938
Mg 12.354773405415619 13.475094977064726 12.042358421372263
Mg 7.342606258539812 14.878435487055823 12.461546570484858
Mg 9.8350317519384 13.655499961648534 13.776912433841003
Mg 11.584408905812218 11.128192399436175 13.759401886683756
Mg 13.472845722495535 8.975587334772696 12.75174434230194
Mg 8.451274304551426 10.614355872830915 14.45343069971541
Mg 6.2631589301226525 12.033847876300765 12.779180094478555
Mg 7.182874267987203 13.288683991167597 15.21409919172288
