27
Energy = -23.47447542 eV
Mg 18.464062939933527 12.744044310903323 14.35841370649614
Mg 14.42864849597521 15.721854988274494 15.703573025418924
Mg 14.8401889872992 12.967129516027045 14.26669537304556
Mg 17.11163907248422 10.580714143903238 15.831914820457156
Mg 11.68196059933834 11.881930232383132 15.028597390549299
Mg 17.263373646647814 13.909080448828016 11.897809450002223
Mg 10.278294857123738 10.893454601878563 12.530383909765055
Mg 14.652425483598654 12.588050673709875 11.034087601263204
Mg 13.292413522389072 10.518566815851273 12.783419987362747
Mg 9.478963277456801 16.60690941424244 14.262151857009735
Mg 12.416698244379758 16.97749826175461 13.674430508639873
Mg 15.462520445471776 11.151402621726453 18.23853002038998
Mg 13.07937461286356 16.962874250822445 10.687555450312807
Mg 13.511175167458882 13.136709527859807 17.192346130402004
Mg 10.379845623881007 15.862160400134636 11.513662276016309
Mg 16.639123448322596 13.578914025799612 16.81785301659693
Mg 14.174530407356587 10.184446947093374 15.681395712815348
Mg 9.412494068785731 13.632300513120128 13.578638141363783
Mg 14.943367698853411 15.697317407716168 12.684456756866382
Mg 12.386003739699166 14.237858101899795 9.551373767114828
Mg 15.305162113528562 15.208044743627791 9.69640746385388
Mg 17.326119466062437 15.458463980391357 14.613803816436281
Mg 12.391082059404653 13.794046909097764 12.684453033442482
Mg 16.55008957664828 10.793180047596628 12.903284001245645
Mg 11.553924643417277 14.831812991021469 15.641380424171833
Mg 12.066740421349644 11.293729853416524 10.170965382345926
Mg 9.713713174112064 13.053926273992005 10.581207343356438
