27
Energy = -22.74498526 eV
Mg 16.51542626926174 10.722814319864032 10.858695720454671
Mg 17.67449685085968 10.704205796731928 13.763189020535485
Mg 13.509984052421135 11.048534343320835 10.736879339628114
Mg 15.034443129229523 12.11327951994438 13.097449067914704
Mg 15.4047471798403 13.598471151323066 10.127285498398521
Mg 17.880422910349722 13.116947464030165 11.912890273076549
Mg 13.652469245109579 13.838457649086697 15.19105648727893
Mg 15.469252619724582 11.132724490268076 15.92881948328582
Mg 10.67391708409705 11.898448227701063 10.856272375597797
Mg 12.147329371101728 11.33615215244221 13.838288467458678
Mg 17.28666041275702 13.51381495850446 14.923126491313663
Mg 12.598335674692887 13.428471573854786 9.053372228340992
Mg 12.800894940814155 11.878330416076171 17.23860384786601
Mg 10.175528854851217 12.557831832258614 15.684914264219412
Mg 15.654294353105632 15.15359251749151 12.724118449920008
Mg 15.794713782896153 13.674323072590697 17.54877493856236
Mg 12.653656472025583 13.877443451260127 12.30227740966641
Mg 15.84380084051227 16.04069242148969 15.66146938284899
Mg 10.918659836647604 14.329565867783662 17.930681262798142
Mg 13.500517320857442 14.20335651308825 19.24952650535173
Mg 9.568418331105077 13.739450658388678 12.949084263100984
Mg 10.176912042171441 14.814925310439113 10.024173316157484
Mg 13.377735465576063 16.014908145563968 10.468245964940555
Mg 13.176517316034193 16.239826618219663 17.06108032140955
Mg 10.83087144542425 15.514491076692952 15.115248993045883
Mg 13.348504901595419 16.75196325578287 13.927508005870449
Mg 10.814692163410058 16.526526977796248 12.284560343063873
