22
Energy = -17.80342771 eV
Mg 10.044533767474134 16.989380199242508 13.599760240045748
Mg 10.017164927973655 14.24445135642802 14.90104085858888
Mg 10.28808688185463 14.53067362940071 11.940696225155136
Mg 14.32550962644286 11.204651967599535 12.205445199278218
Mg 12.148170099475195 16.91184271048143 11.519389840492483
Mg 13.356030809251415 13.748854509218624 11.031553010731031
Mg 11.825085931743981 12.119992639982694 13.505071933582192
Mg 16.37412840130502 13.564951498185044 11.75555634362676
Mg 11.80688758397585 16.455854287762204 16.092757141108798
Mg 16.96426681705729 10.910470751608734 13.643910209374239
Mg 14.134214522570195 10.840203392961907 15.319455664690496
Mg 12.51195284254848 13.357239877338973 16.33807379636045
Mg 12.955019054120532 14.947597895678411 13.74389296891602
Mg 15.366783173612864 13.42997197124354 14.578652720195523
Mg 15.147365811541809 12.84108502772715 17.603417933176065
Mg 15.130664107608625 16.24189301115808 11.629428838181632
Mg 17.66494084594211 11.58369620695871 16.421441816289402
Mg 18.584623015914477 13.386772617751044 14.229572874174961
Mg 14.058348669849911 17.675637577442775 14.147598744868407
Mg 14.69872080560956 15.770001534569834 16.50576064138927
Mg 17.473864491785484 14.63108944141364 16.71357397146292
Mg 16.80259111134226 16.100337308824948 14.07493205846683
