33
Energy = -30.15761007 eV
Mg 9.25486791178079 7.088869401219573 13.356386918806407
Mg 7.883856584835201 9.512314906274442 12.20557008289926
Mg 9.059072415656747 9.648802001622228 14.923144948106241
Mg 10.646570890332967 8.393114180695365 11.083413221107264
Mg 9.089159108799906 12.568908722102318 15.381139979740048
Mg 7.929431740152227 12.50802687229939 12.587149268093714
Mg 11.912287383626412 8.278048022239378 14.073876118800666
Mg 9.281252839566722 11.155663770298418 10.09849805772652
Mg 11.837010251167943 10.87141310509346 15.687186081680819
Mg 10.784370104722754 10.978455134477652 12.772842736298701
Mg 12.009313046099933 10.065483511304626 9.042038678981811
Mg 9.274252649860511 14.252812116169972 10.430773709010897
Mg 13.417736957548529 9.629571520393386 11.786231943651995
Mg 11.717372565133536 13.853010001485162 16.052518963545637
Mg 10.655708752362067 14.019553012433105 13.151955311551816
Mg 14.57855001396641 9.769106892960503 14.705285560101538
Mg 12.638055775239252 16.161853850862805 14.25905268414193
Mg 10.892961051969243 16.66774469177312 11.767685333326646
Mg 13.456788072157444 12.521704858969091 13.401617842243322
Mg 10.678331734897931 12.824922502096843 8.02109441362948
Mg 12.259749391355964 12.703470320821483 10.627224671533801
Mg 14.168889593386773 15.472178536333816 16.743357921883895
Mg 14.491951024552032 12.453233212765696 16.283530374937797
Mg 16.350053364922957 10.225105637153378 12.254983326252805
Mg 15.492237145027662 14.737178446767956 14.188779829121113
Mg 15.032254072638567 11.09054346521313 9.681732971833872
Mg 13.593133889293698 11.834413363758364 7.216252702960743
Mg 16.83182989398238 12.031533589063853 14.477001621316171
Mg 13.779907261441924 15.278455598614638 11.645566183459447
Mg 11.818380957205607 15.565902838032134 9.218983315892126
Mg 16.110246276656436 13.199584715453133 11.630539107506145
Mg 12.69959290486315 14.56851356938383 6.615601471612135
Mg 14.622907913043687 14.072817141590695 9.012425021337053
