41
Energy = -39.31386668 eV
Mg 14.104994198732351 7.45606140575521 15.362115961634803
Mg 13.942463991554414 8.688749227213556 12.613876923285083
Mg 10.94154473482029 10.012026772244962 12.033427611211668
Mg 11.48290727941009 8.356999145853795 14.488759927113477
Mg 13.657413617783547 10.713517297704453 10.449627755176147
Mg 12.922999449989264 10.047364305118654 16.588580219901097
Mg 15.651618420143258 9.970422371822478 15.066115807226018
Mg 16.08868637706913 10.942377797546476 12.19129227863765
Mg 13.315452498851347 11.051335109878094 7.404126374680852
Mg 10.553195156602895 12.313563195834272 7.87695409451224
Mg 13.298290563095025 11.463805889728102 13.783465429841945
Mg 8.862674360609825 12.307000368046632 12.758392061858874
Mg 11.519166701582098 12.86307445784692 10.875655932725826
Mg 16.073286399983918 12.235607478165337 9.374323295929601
Mg 10.426841080144115 11.081858999180628 15.003107340638403
Mg 11.217927275858678 9.588919395528636 9.022892805352917
Mg 8.759574809892484 10.93802387146778 9.99470936670317
Mg 12.160132242464336 12.977779035162978 16.608605383763212
Mg 15.065204315643118 12.274715160019582 17.125419165653565
Mg 16.794563246535663 12.699908385094785 14.570164311002394
Mg 14.375720266593909 13.557165668113132 11.893001820392373
Mg 14.31369365217147 14.41865859064928 14.883469634458784
Mg 10.980899179119875 15.547266150040443 17.553367422026895
Mg 10.97741763522776 15.083468173409747 8.815652719206
Mg 11.548178512925151 13.906296369170208 13.707411310140408
Mg 9.166984500487581 13.828972325706198 15.630380810285423
Mg 13.63062441548516 13.762819201057312 8.537738832203365
Mg 17.573210383963996 13.71067076359861 11.795916726694568
Mg 8.5619206097128 13.906572082631897 10.182123232926767
Mg 14.164642754765719 15.106626125919824 17.976173084437733
Mg 17.021814233314597 14.565006531059987 17.09175245302853
Mg 13.413320720276491 16.08417948660993 10.489753917952001
Mg 18.07398237207426 15.406891020773765 14.450171623777084
Mg 16.178721741229225 15.193151072327355 9.62429778869634
Mg 10.547661201921779 15.946497500548784 11.668597906980397
Mg 13.017518839145255 16.762288435560716 13.377982683226751
Mg 12.942868481495909 17.290961398506155 16.3275977994649
Mg 15.911018202621602 16.237989209592552 12.504974290550152
Mg 8.053225159319057 15.134868608326627 13.144559420369355
Mg 10.267787659748086 16.584529191574873 14.742049014912743
Mg 15.787354878409195 16.962753079888806 15.579111890399089
