45
Energy = -43.29357406 eV
Mg 13.901378938828595 8.606437357298885 9.733828324306765
Mg 11.184798733167836 13.30909504263399 8.019929060574002
Mg 6.065260283259705 12.269943314596476 9.684981287132311
Mg 13.631918034038812 16.673057466796944 11.298532883471447
Mg 13.99962269515746 11.422369563596504 14.453307377194902
Mg 8.703441072787681 8.50425159713797 9.756930170413032
Mg 6.210434862480453 9.489323990745254 11.30499664158499
Mg 8.666120426564488 16.580709687108317 11.30008882262661
Mg 11.272136843820471 7.855962647273157 8.142133057491462
Mg 11.153491506549239 15.91249264749281 9.67442872763103
Mg 8.637881520801676 14.07731600965436 13.040750084051933
Mg 13.723168063247009 8.855351358970653 6.6938311715488235
Mg 11.501353524127783 10.498575946289632 15.870335423828623
Mg 11.204405610667973 13.203336265935448 11.210408879095711
Mg 8.837996309946961 8.563680066739584 12.7792480239247
Mg 8.595453187099508 11.557148380598301 7.975063714513825
Mg 6.184513880550737 14.794616406207457 11.29801748519528
Mg 11.31076256277359 13.207516101156159 14.434381724468963
Mg 16.46055247204657 9.687634896051241 11.184732433585427
Mg 13.765576626056829 14.210648503126208 9.515003449064315
Mg 16.427661727047667 12.389645417751318 12.775932167857384
Mg 11.31522918672064 10.531737130925965 12.74091373874072
Mg 8.687027615791257 11.398340788092359 11.218213125101418
Mg 13.845211979793966 11.455145401015308 11.21942141414189
Mg 11.179030485854096 15.8474457277835 12.849590986658354
Mg 11.375650357755154 7.752968269437822 11.219614211533322
Mg 8.566911873490339 14.15422938373191 9.504382221348143
Mg 6.1785736626414955 12.2024176001345 12.904026975022822
Mg 14.345925258514747 8.659743886055812 15.96894443350526
Mg 13.833940279702455 14.134798944239863 12.987935115854205
Mg 11.235867466454595 10.572022555476742 9.661380457574651
Mg 14.033553914138858 8.648147966135847 12.817329413992354
Mg 16.220044522114303 14.97050421366523 11.216638161368014
Mg 11.214603664473335 10.599634392911279 6.546762047085362
Mg 13.796857406486517 11.610175110596794 7.982628691160048
Mg 8.803333095175102 11.406981381595585 14.457009979022498
Mg 8.754776040434193 8.812969424483663 6.724823814360869
Mg 6.2424784100323 9.636445305978533 8.26060346540011
Mg 16.280797765534032 9.795826565091069 8.169463417806353
Mg 16.37258737967494 12.443651595389195 9.593017947252862
Mg 11.534342770742125 7.8108194252663115 14.284703113888684
Mg 16.5330410269496 9.720749450952043 14.223014514140361
Mg 6.4320845269578895 9.531046262029347 14.340092197631114
Mg 9.08668539504137 8.667308736054856 15.85339564541982
Mg 12.01389898475308 7.750641027591865 17.459565774977584
