4
Energy = -0.53077516 eV
Mg 11.497134136989434 11.91585901516745 13.256278142612196
Mg 16.89496497845277 12.519651696338704 12.22868797341755
Mg 13.819743376857543 12.231795947962022 10.953868917567736
Mg 8.46716325765179 12.919917612887522 12.261681981437004
