49
Energy = -48.46343196 eV
Mg 16.974873063417014 15.98592378224242 11.91193785801106
Mg 17.89540085105403 13.033825441998909 12.316221021277682
Mg 17.68946132855828 11.379255612684366 9.761652331729337
Mg 15.849327781510592 18.914145726612446 11.514945414456252
Mg 17.010229745578286 11.676358492939142 14.897448312775484
Mg 15.825305307012503 13.782682701826296 10.096649898948398
Mg 16.92673161780816 9.846715791426123 12.223876597484457
Mg 16.461683812553762 14.651151854647177 14.557641027098674
Mg 14.860182048872998 16.64632636789799 9.859977513890398
Mg 15.201820859375427 17.434106205007204 14.019665974112524
Mg 16.031862524606563 13.609149689157395 17.501057588692053
Mg 15.195483593809765 9.274746251054287 14.647951199769368
Mg 15.76748258666629 12.189389613745128 7.507036719226446
Mg 14.849310471078592 10.39071485906693 9.73165058697088
Mg 14.48928408133541 16.02166953516656 16.593813340687984
Mg 14.890036287802234 12.087072632349642 12.59621387675797
Mg 13.844132484310693 14.482371872399945 7.965225584266307
Mg 12.611676663253256 12.831737115205854 10.603332238708452
Mg 13.90413336954324 15.026266114655236 12.499224474006347
Mg 12.956185691089665 18.020759320034472 11.951559841786153
Mg 15.462703836561804 10.718593059554848 17.253661240417294
Mg 13.830930581396357 14.944787431388761 19.280204737169214
Mg 13.9977676131742 8.581882265112293 11.94514829411469
Mg 13.766857366966972 13.19229354538704 15.297589133156334
Mg 11.925638085280998 15.975244456630291 9.932782051559016
Mg 12.757634820977042 11.624929764671327 7.691082457509072
Mg 10.900590955813211 14.116257205460487 7.775082653600419
Mg 13.07718409664236 12.297960079536745 18.25418138904798
Mg 11.954642763724515 9.575437596000148 9.777499483091667
Mg 10.34796686034349 11.230176838711671 11.921734475063488
Mg 12.526270806352496 10.733266449188745 13.762171328084364
Mg 12.719225091525113 7.48785956621492 14.485783015411458
Mg 9.793283213781686 11.63188891372061 8.840607797908746
Mg 11.561254382130754 14.832609196542204 16.993496280869415
Mg 12.31976286584869 16.672773815592723 14.651335460496774
Mg 11.225910027903167 13.761429611553817 13.591522316917208
Mg 10.27532635937827 16.535278576494406 12.347040118691634
Mg 9.494336528708782 14.160279708890055 10.552656257412789
Mg 12.768233058865746 9.562930545094817 16.63932454879614
Mg 10.891280744741682 8.080254781647827 12.19314588336295
Mg 8.84878813048612 9.105443124346806 10.047283732620476
Mg 10.833340488865492 11.877669993345933 16.24267438889993
Mg 7.57342731584167 11.856390003866046 11.278288314081294
Mg 8.647559286599561 13.905877820181447 16.281914509315488
Mg 10.135906360163625 9.137588940503894 14.987571173900243
Mg 8.096305325480257 14.41250396431489 13.209950758802758
Mg 9.436355574158567 16.427682273158204 15.204101210661054
Mg 8.426052849207515 11.626351194870086 14.373202037393972
Mg 8.01306947260837 9.138858836740049 12.810490129100733
