4
Energy = -1.52839174 eV
Mg 10.133147768336173 7.646950496453201 8.080548899540533
Mg 7.973677112108905 9.64497632293146 7.193526705651296
Mg 7.302122528064809 7.450693142990624 9.229072506067372
Mg 9.124038377081513 9.791417259860571 10.029613891927063
