4
Energy = -0.78911287 eV
Mg 7.219789694623521 8.748466098047759 4.889335298723174
Mg 8.982412889156416 6.093168934533877 5.428521678210001
Mg 4.13472800064117 5.172508682632046 9.25759590053699
Mg 6.13507048959596 6.460936920997125 6.897021783402559
