4
Energy = -0.85272737 eV
Mg 11.373287067452642 11.710943935876568 9.461899107282838
Mg 8.9168446056551 12.735184143302583 11.563347677568336
Mg 13.180733701244954 8.854441283786588 9.731662320490834
Mg 10.825274403127652 9.933640943372517 11.972160478401173
