5
Energy = -1.94944338 eV
Mg 12.878425534267206 13.966528283187275 11.952420656764597
Mg 11.932221130156098 11.544789415153978 9.91702887825115
Mg 13.799493084313603 11.199258177507303 12.619491939818165
Mg 10.931532219716134 11.95646576781822 13.026638891490423
Mg 13.11664292668292 13.181373111472638 15.143083285549835
