5
Energy = -1.8315362 eV
Mg 9.547447088051669 10.21433360673429 7.266771137698334
Mg 7.72253088474735 8.382877798090014 8.909854979857299
Mg 10.386351474615932 7.279798949129702 7.627119214003365
Mg 10.32732541748962 9.26729640366113 10.068179483216682
Mg 7.583702437877544 10.282397197773367 11.691482324123754
