6
Energy = -2.05290909 eV
Mg 13.736306866323256 13.631171353272608 14.452120992409585
Mg 11.215479704910663 14.920947926644395 13.31650778965056
Mg 11.346632339318345 11.83945478155103 13.473793539102687
Mg 12.976069567429517 13.215941503850502 11.436275657505025
Mg 11.305506545102363 10.564692954563686 10.426549077339455
Mg 11.242305826706106 7.790319749153497 8.577388511990023
