9
Energy = -3.84452677 eV
Mg 18.26109015889049 14.148453291823223 14.068359304910787
Mg 15.853958251837147 15.866909464057361 14.784886108864837
Mg 13.334684995386647 14.09674821460389 14.73959693537978
Mg 13.054679912025053 14.428543251230437 11.53642717187592
Mg 10.816032780704656 13.444170697407442 13.361407621910496
Mg 7.744048344703253 13.55480017388489 13.007200648482687
Mg 16.043571681583867 13.081645682451622 15.883727665942411
Mg 13.175682578098309 11.65569730187873 12.635010694111998
Mg 15.721839237016647 13.393289789657846 12.690881380194838
