unknown system                          
           1
    22.983817    0.000000    0.000000
     0.000000   22.983817    0.000000
     0.000000    0.000000   22.983817
   Ag
  41
Direct configuration=     1
   0.73697113  0.52252872  0.54184110
   0.65345916  0.58718231  0.60295612
   0.62983483  0.52639248  0.70605909
   0.73073931  0.51493353  0.42017791
   0.66208433  0.45611531  0.61189091
   0.64355910  0.57728386  0.48155283
   0.53886509  0.58050711  0.64440203
   0.56131798  0.64480662  0.54243774
   0.51647986  0.51776214  0.74909927
   0.65413216  0.44737099  0.49064254
   0.56637615  0.51049405  0.54847965
   0.54566519  0.44869501  0.65193277
   0.63763397  0.56769319  0.35960794
   0.55389586  0.63418730  0.41748174
   0.42382635  0.57096157  0.69345532
   0.58248150  0.37760366  0.56195550
   0.65083280  0.43870006  0.36696407
   0.44698949  0.63269088  0.58951686
   0.46421960  0.69457272  0.48825644
   0.55654193  0.50386534  0.42847593
   0.45267796  0.50456028  0.58766204
   0.32972859  0.61816218  0.63626060
   0.47006702  0.56950183  0.48496322
   0.45686502  0.37788502  0.59697438
   0.43007122  0.44349570  0.69318447
   0.57197963  0.37879642  0.43849094
   0.55293361  0.49909111  0.30324098
   0.47672931  0.43686515  0.49015158
   0.35007864  0.68087404  0.53568776
   0.56016128  0.37744898  0.31489227
   0.45549832  0.68598646  0.36908369
   0.49702523  0.31473647  0.50600658
   0.46614944  0.56360777  0.35948445
   0.35954900  0.43323618  0.53537077
   0.33320008  0.49492941  0.63641313
   0.35487602  0.55663789  0.52990801
   0.46703015  0.44102954  0.36821376
   0.37401452  0.62162210  0.42953607
   0.47672461  0.31757229  0.38657051
   0.38399777  0.38146303  0.43241476
   0.37704623  0.50096465  0.42422673
Direct configuration=     2
   0.73701199  0.52251900  0.54185648
   0.65343027  0.58715384  0.60293547
   0.62986896  0.52633489  0.70611245
   0.73076808  0.51486993  0.42013816
   0.66207999  0.45614878  0.61189253
   0.64370641  0.57739883  0.48154450
   0.53889594  0.58050104  0.64458414
   0.56133381  0.64476930  0.54243029
   0.51641550  0.51775859  0.74908534
   0.65432477  0.44736312  0.49063880
   0.56638759  0.51047897  0.54847189
   0.54571980  0.44862998  0.65211170
   0.63764005  0.56761680  0.35956788
   0.55388517  0.63424371  0.41751082
   0.42384739  0.57086860  0.69345973
   0.58242089  0.37764392  0.56198715
   0.65083867  0.43884148  0.36696099
   0.44688051  0.63273765  0.58955640
   0.46422908  0.69458838  0.48818854
   0.55662248  0.50390829  0.42822365
   0.45249192  0.50454832  0.58785300
   0.32969868  0.61814964  0.63622702
   0.47010075  0.56943391  0.48500526
   0.45691775  0.37794518  0.59703234
   0.43007681  0.44357482  0.69329473
   0.57196359  0.37866359  0.43835557
   0.55302930  0.49910919  0.30323490
   0.47667711  0.43689040  0.49023960
   0.35006701  0.68090094  0.53555186
   0.56006310  0.37741567  0.31493220
   0.45546441  0.68601766  0.36899482
   0.49697810  0.31458535  0.50593229
   0.46606104  0.56365219  0.35950145
   0.35956843  0.43329226  0.53537285
   0.33327430  0.49499005  0.63643817
   0.35473747  0.55672340  0.52999965
   0.46702661  0.44095682  0.36805806
   0.37400359  0.62170979  0.42948287
   0.47677108  0.31763034  0.38653378
   0.38395831  0.38129545  0.43235900
   0.37707276  0.50095329  0.42426611
Direct configuration=     3
   0.73713456  0.52248983  0.54190265
   0.65334360  0.58706842  0.60287352
   0.62997135  0.52616212  0.70627251
   0.73085437  0.51467911  0.42001892
   0.66206695  0.45624918  0.61189739
   0.64414835  0.57774375  0.48151952
   0.53898851  0.58048286  0.64513048
   0.56138131  0.64465733  0.54240796
   0.51622241  0.51774792  0.74904354
   0.65490259  0.44733949  0.49062757
   0.56642190  0.51043373  0.54844863
   0.54588364  0.44843491  0.65264849
   0.63765828  0.56738764  0.35944772
   0.55385308  0.63441295  0.41759808
   0.42391049  0.57058971  0.69347297
   0.58223907  0.37776470  0.56208208
   0.65085627  0.43926575  0.36695173
   0.44655360  0.63287798  0.58967501
   0.46425752  0.69463535  0.48798484
   0.55686412  0.50403712  0.42746680
   0.45193377  0.50451244  0.58842589
   0.32960892  0.61811201  0.63612628
   0.47020195  0.56923015  0.48513139
   0.45707592  0.37812565  0.59720622
   0.43009360  0.44381219  0.69362553
   0.57191547  0.37826513  0.43794948
   0.55331637  0.49916342  0.30321667
   0.47652050  0.43696614  0.49050365
   0.35003214  0.68098164  0.53514414
   0.55976853  0.37731576  0.31505199
   0.45536269  0.68611126  0.36872822
   0.49683672  0.31413199  0.50570941
   0.46579584  0.56378545  0.35955243
   0.35962673  0.43346051  0.53537911
   0.33349697  0.49517195  0.63651326
   0.35432182  0.55697994  0.53027455
   0.46701598  0.44073866  0.36759095
   0.37397080  0.62197285  0.42932329
   0.47691050  0.31780448  0.38642357
   0.38383992  0.38079272  0.43219172
   0.37715233  0.50091918  0.42438426
Direct configuration=     4
   0.73737972  0.52243149  0.54199497
   0.65317026  0.58689758  0.60274962
   0.63017613  0.52581658  0.70659264
   0.73102696  0.51429747  0.41978044
   0.66204087  0.45644998  0.61190711
   0.64503223  0.57843359  0.48146955
   0.53917365  0.58044649  0.64622317
   0.56147631  0.64443339  0.54236328
   0.51583623  0.51772660  0.74895995
   0.65605822  0.44729224  0.49060511
   0.56649051  0.51034326  0.54840212
   0.54621131  0.44804478  0.65372205
   0.63769476  0.56692932  0.35920740
   0.55378892  0.63475142  0.41777260
   0.42403669  0.57003192  0.69349946
   0.58187542  0.37800627  0.56227195
   0.65089147  0.44011429  0.36693321
   0.44589976  0.63315862  0.58991225
   0.46431439  0.69472929  0.48757745
   0.55734741  0.50429480  0.42595311
   0.45081749  0.50444067  0.58957165
   0.32942942  0.61803675  0.63592481
   0.47040433  0.56882262  0.48538365
   0.45739228  0.37848658  0.59755397
   0.43012718  0.44428693  0.69428712
   0.57181923  0.37746820  0.43713729
   0.55389051  0.49927189  0.30318020
   0.47620728  0.43711763  0.49103176
   0.34996240  0.68114303  0.53432869
   0.55917940  0.37711593  0.31529157
   0.45515924  0.68629845  0.36819502
   0.49655395  0.31322528  0.50526366
   0.46526544  0.56405198  0.35965439
   0.35974334  0.43379700  0.53539163
   0.33394230  0.49553576  0.63666346
   0.35349053  0.55749301  0.53082434
   0.46699473  0.44030234  0.36665674
   0.37390521  0.62249896  0.42900413
   0.47718933  0.31815276  0.38620316
   0.38360315  0.37978726  0.43185717
   0.37731148  0.50085098  0.42462057
Direct configuration=     5
   0.73787003  0.52231481  0.54217962
   0.65282357  0.58655590  0.60250183
   0.63058570  0.52512549  0.70723290
   0.73137213  0.51353419  0.41930347
   0.66198871  0.45685158  0.61192656
   0.64679999  0.57981327  0.48136961
   0.53954392  0.58037374  0.64840853
   0.56166630  0.64398551  0.54227394
   0.51506387  0.51768394  0.74879276
   0.65836950  0.44719773  0.49056020
   0.56662775  0.51016230  0.54830908
   0.54686664  0.44726450  0.65586919
   0.63776771  0.56601267  0.35872677
   0.55366059  0.63542837  0.41812162
   0.42428910  0.56891635  0.69355243
   0.58114813  0.37848940  0.56265169
   0.65096187  0.44181136  0.36689618
   0.44459209  0.63371990  0.59038672
   0.46442813  0.69491717  0.48676267
   0.55831399  0.50481015  0.42292573
   0.44858493  0.50429713  0.59186317
   0.32907042  0.61788623  0.63552187
   0.47080910  0.56800758  0.48588816
   0.45802500  0.37920845  0.59824948
   0.43019433  0.44523640  0.69561032
   0.57162676  0.37587433  0.43551291
   0.55503878  0.49948883  0.30310726
   0.47558085  0.43742060  0.49208799
   0.34982292  0.68146583  0.53269781
   0.55800114  0.37671626  0.31577073
   0.45475235  0.68667284  0.36712861
   0.49598842  0.31141184  0.50437216
   0.46420463  0.56458503  0.35985830
   0.35997655  0.43446999  0.53541666
   0.33483296  0.49626338  0.63696385
   0.35182793  0.55851915  0.53192394
   0.46695224  0.43942969  0.36478832
   0.37377404  0.62355120  0.42836582
   0.47774700  0.31884933  0.38576235
   0.38312961  0.37777634  0.43118806
   0.37762978  0.50071457  0.42509318
Direct configuration=     6
   0.73777646  0.52233708  0.54214438
   0.65288973  0.58662110  0.60254912
   0.63050754  0.52525738  0.70711071
   0.73130626  0.51367985  0.41939449
   0.66199867  0.45677494  0.61192285
   0.64646264  0.57954998  0.48138868
   0.53947326  0.58038762  0.64799148
   0.56163004  0.64407099  0.54229099
   0.51521127  0.51769208  0.74882467
   0.65792843  0.44721577  0.49056877
   0.56660156  0.51019683  0.54832683
   0.54674158  0.44741340  0.65545944
   0.63775379  0.56618760  0.35881849
   0.55368508  0.63529918  0.41805502
   0.42424093  0.56912924  0.69354232
   0.58128692  0.37839720  0.56257922
   0.65094844  0.44148750  0.36690324
   0.44484164  0.63361279  0.59029618
   0.46440642  0.69488131  0.48691816
   0.55812953  0.50471180  0.42350346
   0.44901098  0.50432453  0.59142586
   0.32913893  0.61791496  0.63559877
   0.47073185  0.56816312  0.48579189
   0.45790425  0.37907069  0.59811676
   0.43018151  0.44505520  0.69535780
   0.57166349  0.37617850  0.43582290
   0.55481965  0.49944743  0.30312117
   0.47570039  0.43736278  0.49188642
   0.34984954  0.68140423  0.53300904
   0.55822599  0.37679253  0.31567929
   0.45483000  0.68660139  0.36733212
   0.49609634  0.31175791  0.50454229
   0.46440707  0.56448330  0.35981939
   0.35993204  0.43434156  0.53541188
   0.33466299  0.49612452  0.63690652
   0.35214522  0.55832333  0.53171410
   0.46696035  0.43959622  0.36514488
   0.37379907  0.62335040  0.42848763
   0.47764058  0.31871640  0.38584647
   0.38321998  0.37816009  0.43131575
   0.37756904  0.50074060  0.42500299
Direct configuration=     7
   0.73815092  0.52235414  0.54221498
   0.65274259  0.58640523  0.60258959
   0.63067009  0.52497301  0.70751708
   0.73174387  0.51357489  0.41934331
   0.66193940  0.45687853  0.61188022
   0.64694784  0.57989539  0.48121128
   0.53948525  0.58051321  0.64814624
   0.56143704  0.64374072  0.54244268
   0.51520728  0.51759795  0.74925127
   0.65803361  0.44681354  0.49047273
   0.56634396  0.51004039  0.54814672
   0.54704923  0.44712053  0.65596452
   0.63811650  0.56638954  0.35856354
   0.55368370  0.63542381  0.41816453
   0.42394641  0.56907664  0.69364081
   0.58082643  0.37869979  0.56231349
   0.65079837  0.44184668  0.36678413
   0.44484567  0.63367425  0.59034279
   0.46448894  0.69473038  0.48668419
   0.55796029  0.50455765  0.42350228
   0.44895780  0.50447033  0.59168545
   0.32895818  0.61808714  0.63550558
   0.47078051  0.56774164  0.48617972
   0.45831215  0.37916767  0.59826403
   0.43016137  0.44503585  0.69625818
   0.57195703  0.37613969  0.43596510
   0.55497804  0.49947992  0.30273400
   0.47591455  0.43753064  0.49173783
   0.34968269  0.68160821  0.53245187
   0.55805593  0.37670900  0.31553951
   0.45472118  0.68678223  0.36684686
   0.49595532  0.31155459  0.50447377
   0.46405960  0.56448608  0.35990670
   0.35999735  0.43452801  0.53505682
   0.33469439  0.49635919  0.63723210
   0.35172115  0.55871333  0.53146912
   0.46656370  0.43959365  0.36486516
   0.37385387  0.62337704  0.42835962
   0.47758394  0.31865372  0.38557389
   0.38315110  0.37790302  0.43128956
   0.37783221  0.50058613  0.42535117
Direct configuration=     8
   0.73927429  0.52240530  0.54242677
   0.65230116  0.58575761  0.60271101
   0.63115772  0.52411992  0.70873619
   0.73305671  0.51325999  0.41918976
   0.66176160  0.45718929  0.61175233
   0.64840344  0.58093163  0.48067908
   0.53952123  0.58088996  0.64861051
   0.56085804  0.64274993  0.54289776
   0.51519531  0.51731553  0.75053106
   0.65834917  0.44560684  0.49018460
   0.56557115  0.50957106  0.54760639
   0.54797216  0.44624193  0.65747975
   0.63920465  0.56699537  0.35779870
   0.55367956  0.63579770  0.41849308
   0.42306285  0.56891883  0.69393628
   0.57944496  0.37960755  0.56151630
   0.65034817  0.44292423  0.36642679
   0.44485777  0.63385866  0.59048263
   0.46473650  0.69427759  0.48598230
   0.55745258  0.50409519  0.42349874
   0.44879828  0.50490775  0.59246423
   0.32841591  0.61860369  0.63522603
   0.47092649  0.56647719  0.48734323
   0.45953582  0.37945862  0.59870584
   0.43010094  0.44497778  0.69895931
   0.57283766  0.37602328  0.43639168
   0.55545323  0.49957738  0.30157247
   0.47655701  0.43803423  0.49129207
   0.34918217  0.68222016  0.53078035
   0.55754574  0.37645840  0.31512018
   0.45439471  0.68732474  0.36539110
   0.49553224  0.31094462  0.50426821
   0.46301719  0.56449441  0.36016862
   0.36019326  0.43508735  0.53399163
   0.33478860  0.49706320  0.63820885
   0.35044896  0.55988331  0.53073419
   0.46537375  0.43958593  0.36402600
   0.37401828  0.62345696  0.42797557
   0.47741404  0.31846569  0.38475616
   0.38294444  0.37713182  0.43121100
   0.37862172  0.50012271  0.42639572
Direct configuration=     9
   0.73967186  0.52242341  0.54250172
   0.65214494  0.58552842  0.60275398
   0.63133030  0.52381801  0.70916764
   0.73352133  0.51314854  0.41913542
   0.66169867  0.45729927  0.61170707
   0.64891858  0.58129836  0.48049073
   0.53953396  0.58102330  0.64877481
   0.56065313  0.64239929  0.54305881
   0.51519107  0.51721558  0.75098399
   0.65846084  0.44517979  0.49008264
   0.56529766  0.50940496  0.54741517
   0.54829879  0.44593099  0.65801600
   0.63958975  0.56720977  0.35752802
   0.55367810  0.63593002  0.41860935
   0.42275015  0.56886298  0.69404085
   0.57895605  0.37992881  0.56123417
   0.65018885  0.44330558  0.36630032
   0.44486205  0.63392392  0.59053212
   0.46482411  0.69411735  0.48573389
   0.55727289  0.50393152  0.42349749
   0.44874182  0.50506256  0.59273984
   0.32822400  0.61878650  0.63512710
   0.47097816  0.56602970  0.48775500
   0.45996888  0.37956158  0.59886220
   0.43007956  0.44495724  0.69991525
   0.57314932  0.37598208  0.43654265
   0.55562140  0.49961188  0.30116139
   0.47678437  0.43821245  0.49113431
   0.34900503  0.68243673  0.53018879
   0.55736518  0.37636972  0.31497178
   0.45427917  0.68751674  0.36487590
   0.49538251  0.31072875  0.50419546
   0.46264828  0.56449736  0.36026131
   0.36026260  0.43528530  0.53361465
   0.33482193  0.49731235  0.63855452
   0.34999873  0.56029737  0.53047409
   0.46495262  0.43958320  0.36372901
   0.37407646  0.62348524  0.42783966
   0.47735391  0.31839914  0.38446676
   0.38287131  0.37685889  0.43118320
   0.37890113  0.49995871  0.42676539
Direct configuration=    10
   0.73977496  0.52229503  0.54241966
   0.65210758  0.58497098  0.60277907
   0.63121542  0.52360899  0.70948769
   0.73375850  0.51307254  0.41939687
   0.66158591  0.45743266  0.61138644
   0.64915044  0.58113622  0.48033707
   0.53944899  0.58066923  0.64903800
   0.56040273  0.64192595  0.54306677
   0.51536287  0.51730319  0.75147010
   0.65862216  0.44537007  0.49010866
   0.56548499  0.50927264  0.54750096
   0.54837015  0.44594453  0.65845039
   0.63971782  0.56749071  0.35766927
   0.55363524  0.63558688  0.41861306
   0.42264379  0.56895438  0.69441400
   0.57856741  0.38039616  0.56084802
   0.64982904  0.44362185  0.36612855
   0.44466285  0.63405315  0.59036820
   0.46479251  0.69355027  0.48538874
   0.55733853  0.50414238  0.42328942
   0.44894632  0.50474932  0.59304669
   0.32804336  0.61932727  0.63473920
   0.47080130  0.56603262  0.48782905
   0.46021491  0.38000084  0.59914845
   0.43025257  0.44481160  0.70033600
   0.57336649  0.37580816  0.43655956
   0.55548993  0.49974399  0.30116434
   0.47682857  0.43780025  0.49090120
   0.34889156  0.68270372  0.52999668
   0.55733039  0.37661628  0.31488794
   0.45427327  0.68748047  0.36451641
   0.49515514  0.31109417  0.50400590
   0.46268678  0.56436975  0.36039581
   0.36045972  0.43580833  0.53362391
   0.33493817  0.49738776  0.63868452
   0.34963292  0.56037594  0.53028423
   0.46465392  0.43975926  0.36340839
   0.37448844  0.62321094  0.42746037
   0.47735481  0.31830112  0.38435373
   0.38295754  0.37683104  0.43127354
   0.37907143  0.49980273  0.42714559
Direct configuration=    11
   0.74005859  0.52194185  0.54219389
   0.65200481  0.58343745  0.60284808
   0.63089939  0.52303397  0.71036814
   0.73441094  0.51286344  0.42011612
   0.66127570  0.45779960  0.61050438
   0.64978829  0.58069016  0.47991433
   0.53921523  0.57969516  0.64976206
   0.55971385  0.64062376  0.54308865
   0.51583550  0.51754421  0.75280740
   0.65906594  0.44589353  0.49018026
   0.56600036  0.50890865  0.54773699
   0.54856648  0.44598179  0.65964541
   0.64007013  0.56826358  0.35805787
   0.55351733  0.63464290  0.41862327
   0.42235118  0.56920583  0.69544057
   0.57749824  0.38168185  0.55978569
   0.64883921  0.44449191  0.36565598
   0.44411483  0.63440866  0.58991725
   0.46470559  0.69199020  0.48443921
   0.55751909  0.50472246  0.42271702
   0.44950893  0.50388758  0.59389086
   0.32754640  0.62081497  0.63367209
   0.47031477  0.56604064  0.48803274
   0.46089174  0.38120926  0.59993595
   0.43072854  0.44441094  0.70149352
   0.57396395  0.37532969  0.43660607
   0.55512826  0.50010745  0.30117245
   0.47695014  0.43666627  0.49025992
   0.34857939  0.68343823  0.52946818
   0.55723467  0.37729458  0.31465728
   0.45425706  0.68738070  0.36352742
   0.49452964  0.31209945  0.50348441
   0.46279272  0.56401868  0.36076580
   0.36100200  0.43724720  0.53364940
   0.33525794  0.49759520  0.63904215
   0.34862658  0.56059207  0.52976193
   0.46383219  0.44024363  0.36252632
   0.37562183  0.62245633  0.42641694
   0.47735726  0.31803145  0.38404281
   0.38319476  0.37675444  0.43152206
   0.37953995  0.49937364  0.42819156
Direct configuration=    12
   0.74043922  0.52182844  0.54215164
   0.65188979  0.58282816  0.60286207
   0.63089910  0.52278689  0.71062769
   0.73453170  0.51263739  0.42019534
   0.66111602  0.45761032  0.61069526
   0.64973238  0.58033613  0.48021143
   0.53876018  0.57914721  0.64997411
   0.55963540  0.63974801  0.54318820
   0.51577940  0.51787567  0.75353044
   0.65907286  0.44615516  0.48955606
   0.56577251  0.50897035  0.54754207
   0.54880175  0.44605019  0.66005791
   0.64025630  0.56859760  0.35809864
   0.55349327  0.63408706  0.41845281
   0.42235348  0.56935175  0.69577271
   0.57736227  0.38235055  0.55949977
   0.64860405  0.44502355  0.36566027
   0.44374458  0.63396241  0.59016411
   0.46448049  0.69125020  0.48377364
   0.55730237  0.50483626  0.42304193
   0.44992425  0.50400894  0.59414403
   0.32751237  0.62126457  0.63313577
   0.47023476  0.56536569  0.48840854
   0.46091366  0.38142426  0.60029548
   0.43102935  0.44455829  0.70190312
   0.57438327  0.37519240  0.43607744
   0.55493089  0.50065079  0.30125806
   0.47720368  0.43647537  0.48990048
   0.34860286  0.68373842  0.52889454
   0.55702560  0.37780535  0.31470692
   0.45456771  0.68720001  0.36304340
   0.49371536  0.31278090  0.50337942
   0.46314350  0.56380796  0.36059172
   0.36134611  0.43769159  0.53411600
   0.33571444  0.49804418  0.63916732
   0.34821344  0.56084274  0.52991051
   0.46367721  0.44023715  0.36203929
   0.37566011  0.62212801  0.42602830
   0.47757335  0.31824482  0.38371954
   0.38339715  0.37672280  0.43174566
   0.37951326  0.49919581  0.42840082
Direct configuration=    13
   0.74093975  0.52167929  0.54209607
   0.65173855  0.58202692  0.60288046
   0.63089871  0.52246198  0.71096900
   0.73469050  0.51234012  0.42029950
   0.66090604  0.45736143  0.61094626
   0.64965887  0.57987059  0.48060212
   0.53816178  0.57842664  0.65025297
   0.55953225  0.63859639  0.54331910
   0.51570563  0.51831155  0.75448124
   0.65908197  0.44649921  0.48873521
   0.56547289  0.50905148  0.54728576
   0.54911113  0.44614015  0.66060036
   0.64050111  0.56903686  0.35815226
   0.55346162  0.63335612  0.41822865
   0.42235651  0.56954362  0.69620949
   0.57718345  0.38322990  0.55912377
   0.64829481  0.44572266  0.36566591
   0.44325769  0.63337558  0.59048873
   0.46418447  0.69027708  0.48289841
   0.55701738  0.50498591  0.42346920
   0.45047041  0.50416854  0.59447695
   0.32746761  0.62185581  0.63243050
   0.47012954  0.56447811  0.48890272
   0.46094247  0.38170699  0.60076826
   0.43142492  0.44475207  0.70244175
   0.57493468  0.37501188  0.43538229
   0.55467133  0.50136528  0.30137063
   0.47753709  0.43622432  0.48942780
   0.34863372  0.68413319  0.52814018
   0.55675066  0.37847702  0.31477220
   0.45497623  0.68696239  0.36240691
   0.49264456  0.31367703  0.50324135
   0.46360478  0.56353086  0.36036280
   0.36179862  0.43827597  0.53472958
   0.33631475  0.49863460  0.63933193
   0.34767014  0.56117238  0.53010589
   0.46347340  0.44022862  0.36139883
   0.37571046  0.62169625  0.42551722
   0.47785750  0.31852540  0.38329444
   0.38366329  0.37668118  0.43203970
   0.37947815  0.49896196  0.42867601
Direct configuration=    14
   0.74110090  0.52140992  0.54233088
   0.65160203  0.58141804  0.60325279
   0.63102854  0.52249536  0.71114398
   0.73483808  0.51238249  0.41993341
   0.66106905  0.45701556  0.61092213
   0.64959963  0.57954050  0.48092155
   0.53807643  0.57818922  0.65052359
   0.55905213  0.63808522  0.54332729
   0.51551735  0.51878528  0.75495664
   0.65883866  0.44652541  0.48867729
   0.56543489  0.50883529  0.54741073
   0.54920469  0.44605290  0.66093907
   0.64073029  0.56910868  0.35816026
   0.55344316  0.63309826  0.41811174
   0.42226529  0.56974626  0.69656333
   0.57720490  0.38348457  0.55891115
   0.64844311  0.44627073  0.36536094
   0.44316021  0.63302384  0.59024045
   0.46417008  0.68930299  0.48270817
   0.55708016  0.50474980  0.42351897
   0.45068140  0.50423395  0.59486186
   0.32739887  0.62211473  0.63254456
   0.46957136  0.56387740  0.48896247
   0.46076833  0.38161753  0.60098150
   0.43168744  0.44532665  0.70256855
   0.57502332  0.37463493  0.43522150
   0.55485683  0.50217442  0.30149536
   0.47757049  0.43642305  0.48952156
   0.34897122  0.68431370  0.52718192
   0.55684110  0.37913780  0.31432649
   0.45539280  0.68653080  0.36200541
   0.49145545  0.31442099  0.50314209
   0.46349461  0.56356405  0.36016556
   0.36250171  0.43815319  0.53513216
   0.33679612  0.49939462  0.63965974
   0.34767868  0.56130525  0.52988137
   0.46310062  0.44024146  0.36112256
   0.37537970  0.62132992  0.42533918
   0.47801900  0.31888020  0.38291671
   0.38395372  0.37667477  0.43249150
   0.37930708  0.49894364  0.42848602
Direct configuration=    15
   0.74128363  0.52110448  0.54259713
   0.65144722  0.58072763  0.60367498
   0.63117575  0.52253321  0.71134239
   0.73500541  0.51243052  0.41951829
   0.66125388  0.45662337  0.61089477
   0.64953245  0.57916621  0.48128377
   0.53797966  0.57792001  0.65083045
   0.55850771  0.63750560  0.54333657
   0.51530387  0.51932245  0.75549570
   0.65856276  0.44655513  0.48861160
   0.56539179  0.50859016  0.54755244
   0.54931077  0.44595396  0.66132314
   0.64099017  0.56919013  0.35816934
   0.55342224  0.63280586  0.41797917
   0.42216186  0.56997603  0.69696455
   0.57722922  0.38377334  0.55867006
   0.64861126  0.44689218  0.36501514
   0.44304968  0.63262500  0.58995892
   0.46415377  0.68819845  0.48249244
   0.55715136  0.50448206  0.42357542
   0.45092064  0.50430812  0.59529830
   0.32732093  0.62240832  0.63267390
   0.46893844  0.56319625  0.48903023
   0.46057087  0.38151609  0.60122329
   0.43198512  0.44597816  0.70271234
   0.57512381  0.37420750  0.43503918
   0.55506716  0.50309191  0.30163679
   0.47760837  0.43664838  0.48962788
   0.34935391  0.68451839  0.52609533
   0.55694366  0.37988705  0.31382109
   0.45586515  0.68604142  0.36155013
   0.49010710  0.31526457  0.50302953
   0.46336969  0.56360168  0.35994190
   0.36329894  0.43801397  0.53558864
   0.33734196  0.50025640  0.64003144
   0.34768836  0.56145590  0.52962678
   0.46267792  0.44025601  0.36080930
   0.37500466  0.62091455  0.42513730
   0.47820213  0.31928250  0.38248841
   0.38428304  0.37666750  0.43300380
   0.37911311  0.49892286  0.42827060
Direct configuration=    16
   0.74099164  0.52069566  0.54257629
   0.65127360  0.58034519  0.60392521
   0.63116188  0.52253006  0.71159319
   0.73504155  0.51278747  0.41958200
   0.66172786  0.45627696  0.61104705
   0.64953228  0.57894389  0.48141284
   0.53829007  0.57819918  0.65119568
   0.55835710  0.63689719  0.54338332
   0.51547387  0.51979780  0.75567974
   0.65864738  0.44657458  0.48864786
   0.56544504  0.50840704  0.54801246
   0.54946514  0.44579010  0.66162240
   0.64135021  0.56946095  0.35848033
   0.55367087  0.63252531  0.41796800
   0.42210670  0.57082230  0.69726398
   0.57669623  0.38315656  0.55871345
   0.64886615  0.44661551  0.36462795
   0.44279215  0.63250020  0.58989506
   0.46437828  0.68755211  0.48217429
   0.55721985  0.50406966  0.42334230
   0.45109390  0.50421261  0.59574087
   0.32743272  0.62293206  0.63260464
   0.46873521  0.56265156  0.48833466
   0.46047546  0.38143668  0.60166942
   0.43199788  0.44636909  0.70280932
   0.57490326  0.37395252  0.43503068
   0.55518399  0.50386904  0.30165900
   0.47779617  0.43725004  0.48992835
   0.34948574  0.68442135  0.52540162
   0.55720334  0.38077838  0.31342343
   0.45591015  0.68553027  0.36144231
   0.48913708  0.31571873  0.50270746
   0.46283015  0.56354308  0.35998554
   0.36386410  0.43782061  0.53605338
   0.33724469  0.50090772  0.64024926
   0.34776914  0.56129481  0.52973720
   0.46248029  0.44059241  0.36064715
   0.37471785  0.62096664  0.42434098
   0.47829885  0.31966210  0.38183775
   0.38467137  0.37642836  0.43344353
   0.37859024  0.49852758  0.42773250
Direct configuration=    17
   0.74085750  0.52050785  0.54256671
   0.65119384  0.58016950  0.60404016
   0.63115551  0.52252862  0.71170841
   0.73505815  0.51295145  0.41961127
   0.66194560  0.45611782  0.61111700
   0.64953221  0.57884176  0.48147213
   0.53843268  0.57832743  0.65136347
   0.55828791  0.63661770  0.54340480
   0.51555197  0.52001617  0.75576429
   0.65868625  0.44658351  0.48866451
   0.56546950  0.50832292  0.54822379
   0.54953606  0.44571482  0.66175988
   0.64151562  0.56958536  0.35862320
   0.55378508  0.63239642  0.41796287
   0.42208136  0.57121107  0.69740153
   0.57645137  0.38287321  0.55873338
   0.64898324  0.44648840  0.36445007
   0.44267385  0.63244287  0.58986573
   0.46448142  0.68725519  0.48202814
   0.55725132  0.50388021  0.42323520
   0.45117350  0.50416874  0.59594418
   0.32748407  0.62317266  0.63257283
   0.46864185  0.56240133  0.48801512
   0.46043162  0.38140019  0.60187437
   0.43200374  0.44654867  0.70285387
   0.57480194  0.37383538  0.43502677
   0.55523766  0.50422604  0.30166920
   0.47788244  0.43752644  0.49006639
   0.34954630  0.68437678  0.52508293
   0.55732263  0.38118785  0.31324075
   0.45593082  0.68529545  0.36139277
   0.48869146  0.31592736  0.50255950
   0.46258229  0.56351616  0.36000558
   0.36412373  0.43773178  0.53626688
   0.33720000  0.50120693  0.64034932
   0.34780625  0.56122081  0.52978793
   0.46238951  0.44074695  0.36057266
   0.37458609  0.62099057  0.42397515
   0.47834328  0.31983648  0.38153885
   0.38484976  0.37631850  0.43364553
   0.37835004  0.49834599  0.42748529
Direct configuration=    18
   0.74074701  0.52045009  0.54244324
   0.65137394  0.58019222  0.60394432
   0.63117197  0.52235116  0.71194155
   0.73491829  0.51312973  0.41989788
   0.66179977  0.45559445  0.61137116
   0.64948291  0.57890995  0.48153213
   0.53835886  0.57889711  0.65163169
   0.55834412  0.63612126  0.54337874
   0.51565949  0.52019067  0.75552120
   0.65833800  0.44614618  0.48857959
   0.56561500  0.50805887  0.54843057
   0.54983331  0.44565946  0.66180696
   0.64176126  0.56959898  0.35886585
   0.55401073  0.63215808  0.41795854
   0.42242026  0.57206302  0.69740094
   0.57633338  0.38227948  0.55909317
   0.64932602  0.44614507  0.36471924
   0.44282646  0.63236230  0.58966462
   0.46463154  0.68726784  0.48188730
   0.55767977  0.50360650  0.42297858
   0.45130097  0.50466477  0.59616365
   0.32760261  0.62387217  0.63223157
   0.46865559  0.56231391  0.48778001
   0.46043824  0.38127937  0.60223825
   0.43175363  0.44673091  0.70313514
   0.57464538  0.37407138  0.43507568
   0.55526755  0.50483282  0.30161475
   0.47804230  0.43768102  0.49030824
   0.34942082  0.68398634  0.52501442
   0.55725167  0.38160576  0.31333383
   0.45580449  0.68542229  0.36128168
   0.48824821  0.31600607  0.50207898
   0.46229963  0.56320148  0.35992752
   0.36399469  0.43775698  0.53640690
   0.33685438  0.50141257  0.64038315
   0.34812844  0.56097763  0.52955609
   0.46256474  0.44086177  0.36053853
   0.37410995  0.62084555  0.42385843
   0.47837327  0.32002354  0.38074706
   0.38543307  0.37605030  0.43389071
   0.37748769  0.49803429  0.42731060
Direct configuration=    19
   0.74067217  0.52041096  0.54235961
   0.65149593  0.58020761  0.60387940
   0.63118312  0.52223097  0.71209945
   0.73482357  0.51325048  0.42009201
   0.66170100  0.45523995  0.61154330
   0.64944953  0.57895614  0.48157276
   0.53830885  0.57928298  0.65181337
   0.55838220  0.63578502  0.54336109
   0.51573231  0.52030887  0.75535654
   0.65810211  0.44584997  0.48852206
   0.56571356  0.50788003  0.54857063
   0.55003465  0.44562197  0.66183884
   0.64192764  0.56960821  0.35903020
   0.55416357  0.63199665  0.41795561
   0.42264981  0.57264007  0.69740054
   0.57625347  0.38187734  0.55933686
   0.64955820  0.44591252  0.36490156
   0.44292983  0.63230773  0.58952841
   0.46473321  0.68727640  0.48179191
   0.55796997  0.50342110  0.42280477
   0.45138731  0.50500075  0.59631231
   0.32768290  0.62434598  0.63200043
   0.46866490  0.56225470  0.48762077
   0.46044272  0.38119752  0.60248471
   0.43158422  0.44685434  0.70332565
   0.57453934  0.37423123  0.43510880
   0.55528780  0.50524380  0.30157787
   0.47815057  0.43778571  0.49047206
   0.34933583  0.68372189  0.52496802
   0.55720361  0.38188882  0.31339687
   0.45571892  0.68550820  0.36120643
   0.48794799  0.31605938  0.50175351