unknown system                          
           1
    22.291307    0.000000    0.000000
     0.000000   22.291307    0.000000
     0.000000    0.000000   22.291307
   Ag
  36
Direct configuration=     1
   0.39063116  0.57197414  0.67932794
   0.46802806  0.62707775  0.75574299
   0.39181091  0.46409113  0.62644700
   0.36173301  0.59235652  0.56467681
   0.49163198  0.50572419  0.69905946
   0.45655348  0.65958453  0.62342178
   0.37630786  0.48270245  0.50726545
   0.40773505  0.36400213  0.55562379
   0.35492312  0.60057560  0.44240949
   0.51091646  0.41116439  0.62446894
   0.45412674  0.66237526  0.50312366
   0.47673459  0.53965150  0.57111940
   0.56346608  0.61188435  0.68031235
   0.45674446  0.28496014  0.46537598
   0.38323144  0.38672271  0.43396724
   0.61703833  0.40780437  0.55340381
   0.34711491  0.49493367  0.38613121
   0.49399017  0.42640290  0.49119115
   0.53413389  0.31357478  0.55661483
   0.56174790  0.63302753  0.55706405
   0.58889133  0.50857847  0.61600851
   0.58065296  0.52663922  0.49398087
   0.67029372  0.60781439  0.61933214
   0.46512750  0.53999621  0.43697434
   0.44868613  0.65750853  0.37978225
   0.48781488  0.36217068  0.37017373
   0.58590613  0.35096195  0.44439641
   0.56026473  0.64866640  0.43470142
   0.55812718  0.46348558  0.38790545
   0.69600185  0.50548616  0.55190895
   0.66737127  0.62694703  0.49187806
   0.66840436  0.44722493  0.44135732
   0.44977373  0.46976052  0.32792044
   0.52545423  0.57318182  0.33068120
   0.63830446  0.55997781  0.38506357
   0.74827297  0.54547111  0.44652796
Direct configuration=     2
   0.39053412  0.57205052  0.67949617
   0.46801620  0.62707096  0.75570472
   0.39179497  0.46397903  0.62654569
   0.36165564  0.59248253  0.56462094
   0.49168542  0.50586857  0.69912072
   0.45662250  0.65958851  0.62361957
   0.37616375  0.48275476  0.50724674
   0.40779084  0.36395207  0.55562595
   0.35495138  0.60069812  0.44253744
   0.51084026  0.41118547  0.62444686
   0.45396263  0.66233382  0.50302081
   0.47666411  0.53962658  0.57106847
   0.56335692  0.61189817  0.68034972
   0.45679153  0.28508718  0.46531758
   0.38322874  0.38654718  0.43382314
   0.61705882  0.40773278  0.55334460
   0.34701072  0.49487692  0.38606992
   0.49404575  0.42636314  0.49127725
   0.53411068  0.31353719  0.55651882
   0.56182204  0.63321061  0.55726276
   0.58904009  0.50860988  0.61633802
   0.58061853  0.52660556  0.49389825
   0.67031166  0.60782509  0.61925329
   0.46512763  0.54010043  0.43690020
   0.44862984  0.65748379  0.37978753
   0.48777860  0.36205073  0.37018289
   0.58593452  0.35088694  0.44444340
   0.56023612  0.64862120  0.43455843
   0.55816333  0.46340898  0.38767831
   0.69606216  0.50553362  0.55186395
   0.66746499  0.62690883  0.49193496
   0.66854166  0.44714735  0.44140068
   0.44975781  0.46983819  0.32787934
   0.52548936  0.57313332  0.33069818
   0.63840418  0.56007122  0.38500934
   0.74827955  0.54539163  0.44649529
Direct configuration=     3
   0.39024298  0.57227966  0.68000085
   0.46798065  0.62705059  0.75558992
   0.39174714  0.46364273  0.62684175
   0.36142351  0.59286055  0.56445332
   0.49184572  0.50630171  0.69930449
   0.45682957  0.65960045  0.62421293
   0.37573140  0.48291170  0.50719061
   0.40795822  0.36380189  0.55563246
   0.35503615  0.60106567  0.44292129
   0.51061167  0.41124868  0.62438064
   0.45347028  0.66220949  0.50271228
   0.47645266  0.53955182  0.57091567
   0.56302942  0.61193962  0.68046182
   0.45693275  0.28546829  0.46514239
   0.38322066  0.38602061  0.43339084
   0.61712030  0.40751801  0.55316698
   0.34669815  0.49470668  0.38588604
   0.49421252  0.42624386  0.49153556
   0.53404102  0.31342442  0.55623080
   0.56204446  0.63375983  0.55785890
   0.58948636  0.50870409  0.61732655
   0.58051522  0.52650457  0.49365041
   0.67036549  0.60785717  0.61901674
   0.46512804  0.54041307  0.43667778
   0.44846097  0.65740960  0.37980335
   0.48766975  0.36169087  0.37021038
   0.58601968  0.35066193  0.44458437
   0.56015027  0.64848561  0.43412945
   0.55827179  0.46317917  0.38699690
   0.69624309  0.50567599  0.55172894
   0.66774616  0.62679422  0.49210566
   0.66895357  0.44691461  0.44153074
   0.44971005  0.47007120  0.32775607
   0.52559475  0.57298782  0.33074912
   0.63870332  0.56035145  0.38484666
   0.74829930  0.54515321  0.44639727
Direct configuration=     4
   0.38966071  0.57273794  0.68101020
   0.46790954  0.62700985  0.75536031
   0.39165148  0.46297014  0.62743388
   0.36095926  0.59361659  0.56411809
   0.49216632  0.50716800  0.69967203
   0.45724372  0.65962434  0.62539964
   0.37486672  0.48322558  0.50707835
   0.40829297  0.36350152  0.55564547
   0.35520569  0.60180078  0.44368900
   0.51015448  0.41137512  0.62424820
   0.45248559  0.66196084  0.50209520
   0.47602975  0.53940230  0.57061009
   0.56237443  0.61202254  0.68068603
   0.45721518  0.28623052  0.46479200
   0.38320451  0.38496745  0.43252625
   0.61724327  0.40708848  0.55281174
   0.34607300  0.49436621  0.38551829
   0.49454604  0.42600528  0.49205218
   0.53390171  0.31319889  0.55565475
   0.56248930  0.63485828  0.55905118
   0.59037889  0.50889251  0.61930361
   0.58030861  0.52630259  0.49315473
   0.67047314  0.60792134  0.61854363
   0.46512886  0.54103837  0.43623294
   0.44812323  0.65726122  0.37983499
   0.48745206  0.36097117  0.37026534
   0.58619001  0.35021191  0.44486630
   0.55997856  0.64821442  0.43327151
   0.55848869  0.46271955  0.38563406
   0.69660496  0.50596073  0.55145894
   0.66830851  0.62656499  0.49244705
   0.66977738  0.44644913  0.44179087
   0.44961452  0.47053723  0.32750952
   0.52580552  0.57269681  0.33085100
   0.63930162  0.56091190  0.38452130
   0.74833880  0.54467635  0.44620124
Direct configuration=     5
   0.38849616  0.57365449  0.68302892
   0.46776733  0.62692837  0.75490110
   0.39146017  0.46162495  0.62861815
   0.36003077  0.59512867  0.56344763
   0.49280752  0.50890057  0.70040712
   0.45807201  0.65967211  0.62777307
   0.37313734  0.48385333  0.50685383
   0.40896247  0.36290078  0.55567149
   0.35554478  0.60327100  0.44522443
   0.50924010  0.41162799  0.62398332
   0.45051622  0.66146353  0.50086106
   0.47518394  0.53910326  0.56999892
   0.56106445  0.61218837  0.68113444
   0.45778005  0.28775497  0.46409123
   0.38317219  0.38286114  0.43079707
   0.61748920  0.40622941  0.55210125
   0.34482270  0.49368526  0.38478279
   0.49521309  0.42552814  0.49308541
   0.53362310  0.31274782  0.55450266
   0.56337899  0.63705518  0.56143574
   0.59216397  0.50926935  0.62325773
   0.57989538  0.52589863  0.49216338
   0.67068844  0.60804968  0.61759742
   0.46513049  0.54228897  0.43534327
   0.44744775  0.65696445  0.37989827
   0.48701666  0.35953176  0.37037526
   0.58653066  0.34931187  0.44543017
   0.55963516  0.64767204  0.43155563
   0.55892250  0.46180031  0.38290840
   0.69732868  0.50653022  0.55091892
   0.66943320  0.62610654  0.49312983
   0.67142502  0.44551817  0.44231112
   0.44942348  0.47146927  0.32701642
   0.52622706  0.57211479  0.33105476
   0.64049820  0.56203280  0.38387057
   0.74841781  0.54372265  0.44580917
Direct configuration=     6
   0.38890068  0.57333611  0.68232768
   0.46781673  0.62695667  0.75506062
   0.39152662  0.46209223  0.62820678
   0.36035329  0.59460342  0.56368053
   0.49258479  0.50829873  0.70015178
   0.45778429  0.65965552  0.62694862
   0.37373807  0.48363527  0.50693182
   0.40872991  0.36310946  0.55566245
   0.35542699  0.60276030  0.44469107
   0.50955772  0.41154015  0.62407533
   0.45120031  0.66163628  0.50128976
   0.47547775  0.53920713  0.57021122
   0.56151949  0.61213077  0.68097868
   0.45758383  0.28722543  0.46433466
   0.38318341  0.38359280  0.43139773
   0.61740377  0.40652782  0.55234805
   0.34525701  0.49392180  0.38503828
   0.49498138  0.42569389  0.49272650
   0.53371988  0.31290451  0.55490286
   0.56306995  0.63629205  0.56060743
   0.59154389  0.50913845  0.62188420
   0.58003892  0.52603895  0.49250774
   0.67061365  0.60800510  0.61792610
   0.46512992  0.54185455  0.43565231
   0.44768239  0.65706754  0.37987629
   0.48716790  0.36003176  0.37033708
   0.58641233  0.34962452  0.44523430
   0.55975444  0.64786044  0.43215167
   0.55877181  0.46211963  0.38385520
   0.69707729  0.50633240  0.55110651
   0.66904252  0.62626579  0.49289265
   0.67085269  0.44584156  0.44213040
   0.44948984  0.47114551  0.32718770
   0.52608063  0.57231696  0.33098398
   0.64008255  0.56164344  0.38409661
   0.74839036  0.54405393  0.44594536
Direct configuration=     7
   0.38818949  0.57327565  0.68236466
   0.46760971  0.62715366  0.75542821
   0.39153092  0.46205659  0.62860687
   0.36024233  0.59511868  0.56441710
   0.49253762  0.50876748  0.70022152
   0.45783691  0.65956350  0.62717468
   0.37333779  0.48349325  0.50671531
   0.40882520  0.36301585  0.55562927
   0.35513744  0.60289483  0.44465462
   0.50940222  0.41185303  0.62398724
   0.45107564  0.66150133  0.50184296
   0.47547507  0.53914822  0.57009261
   0.56164509  0.61237778  0.68121823
   0.45776980  0.28746396  0.46406808
   0.38292240  0.38346526  0.43110279
   0.61745738  0.40678836  0.55240840
   0.34495253  0.49380153  0.38512807
   0.49517994  0.42588150  0.49276338
   0.53376605  0.31282908  0.55480738
   0.56298855  0.63695159  0.56045798
   0.59216413  0.50870021  0.62242330
   0.57986114  0.52597693  0.49255426
   0.67067562  0.60813275  0.61786037
   0.46510222  0.54186382  0.43556256
   0.44742812  0.65700054  0.37947974
   0.48729793  0.35997650  0.36996323
   0.58652147  0.34935010  0.44516091
   0.55983704  0.64747545  0.43222236
   0.55928048  0.46165288  0.38322626
   0.69700945  0.50638258  0.55102868
   0.66902581  0.62606624  0.49298612
   0.67107633  0.44549241  0.44216919
   0.44937359  0.47121212  0.32711582
   0.52632098  0.57224875  0.33089740
   0.64044174  0.56182606  0.38396367
   0.74864890  0.54370240  0.44563672
Direct configuration=     8
   0.38605590  0.57309425  0.68247557
   0.46698865  0.62774465  0.75653099
   0.39154382  0.46194968  0.62980715
   0.35990945  0.59666447  0.56662683
   0.49239611  0.51017371  0.70043074
   0.45799476  0.65928745  0.62785287
   0.37213695  0.48306717  0.50606579
   0.40911107  0.36273504  0.55552971
   0.35426879  0.60329840  0.44454525
   0.50893570  0.41279167  0.62372295
   0.45070164  0.66109649  0.50350255
   0.47546704  0.53897149  0.56973679
   0.56202186  0.61311881  0.68193688
   0.45832770  0.28817957  0.46326833
   0.38213934  0.38308266  0.43021796
   0.61761822  0.40756997  0.55258947
   0.34403907  0.49344072  0.38539742
   0.49577562  0.42644435  0.49287404
   0.53390455  0.31260281  0.55452096
   0.56274435  0.63893020  0.56000964
   0.59402485  0.50738547  0.62404060
   0.57932781  0.52579084  0.49269380
   0.67086153  0.60851570  0.61766318
   0.46501912  0.54189164  0.43529331
   0.44666534  0.65679956  0.37829010
   0.48768802  0.35981070  0.36884169
   0.58684890  0.34852683  0.44494072
   0.56008481  0.64632047  0.43243444
   0.56080649  0.46025265  0.38133943
   0.69680595  0.50653311  0.55079519
   0.66897569  0.62546758  0.49326651
   0.67174728  0.44444495  0.44228556
   0.44902482  0.47141195  0.32690018
   0.52704203  0.57204411  0.33063766
   0.64151932  0.56237393  0.38356487
   0.74942451  0.54264778  0.44471080
Direct configuration=     9
   0.38527029  0.57302746  0.68251641
   0.46675997  0.62796225  0.75693704
   0.39154857  0.46191032  0.63024910
   0.35978689  0.59723364  0.56744046
   0.49234401  0.51069150  0.70050777
   0.45805288  0.65918580  0.62810258
   0.37169479  0.48291029  0.50582663
   0.40921633  0.36263164  0.55549306
   0.35394895  0.60344700  0.44450498
   0.50876392  0.41313729  0.62362564
   0.45056394  0.66094743  0.50411363
   0.47546408  0.53890641  0.56960578
   0.56216059  0.61339166  0.68220150
   0.45853313  0.28844306  0.46297386
   0.38185101  0.38294178  0.42989216
   0.61767744  0.40785777  0.55265613
   0.34370273  0.49330787  0.38549660
   0.49599495  0.42665159  0.49291479
   0.53395554  0.31251950  0.55441550
   0.56265443  0.63965874  0.55984456
   0.59470998  0.50690138  0.62463610
   0.57913143  0.52572232  0.49274518
   0.67092998  0.60865670  0.61759057
   0.46498852  0.54190188  0.43519417
   0.44638448  0.65672556  0.37785206
   0.48783165  0.35974966  0.36842873
   0.58696946  0.34822370  0.44485964
   0.56017604  0.64589520  0.43251253
   0.56136837  0.45973708  0.38064469
   0.69673102  0.50658854  0.55070922
   0.66895723  0.62524715  0.49336975
   0.67199432  0.44405927  0.44232841
   0.44889641  0.47148553  0.32682078
   0.52730752  0.57196876  0.33054201
   0.64191609  0.56257566  0.38341803
   0.74971009  0.54225947  0.44436987
Direct configuration=    10
   0.38480332  0.57302147  0.68338489
   0.46610385  0.62809035  0.75710980
   0.39159189  0.46198873  0.63024047
   0.35961640  0.59761643  0.56740325
   0.49197484  0.51154405  0.70017012
   0.45797026  0.65867812  0.62866866
   0.37148576  0.48287945  0.50622054
   0.40932271  0.36297399  0.55531878
   0.35371224  0.60332439  0.44503971
   0.50870235  0.41363036  0.62338884
   0.45047471  0.66054694  0.50413603
   0.47559992  0.53883644  0.56959599
   0.56275207  0.61363491  0.68221925
   0.45887053  0.28871390  0.46248925
   0.38172484  0.38303801  0.42970920
   0.61746663  0.40802048  0.55259659
   0.34340694  0.49332171  0.38562809
   0.49610103  0.42697659  0.49252847
   0.53420474  0.31289345  0.55462822
   0.56260872  0.64033022  0.55963531
   0.59511194  0.50670471  0.62534219
   0.57905772  0.52567767  0.49283269
   0.67060412  0.60886210  0.61769749
   0.46477176  0.54173019  0.43510859
   0.44635682  0.65627851  0.37808112
   0.48805802  0.36012433  0.36766123
   0.58696557  0.34801112  0.44473982
   0.55971741  0.64521016  0.43277378
   0.56228924  0.45939434  0.38006708
   0.69672604  0.50676120  0.55032874
   0.66891139  0.62460043  0.49322924
   0.67198954  0.44373175  0.44226612
   0.44885469  0.47146418  0.32708988
   0.52772457  0.57178067  0.33055512
   0.64224311  0.56233285  0.38340711
   0.75007135  0.54173667  0.44404830
Direct configuration=    11
   0.38340238  0.57300351  0.68599032
   0.46413547  0.62847466  0.75762805
   0.39172187  0.46222395  0.63021457
   0.35910496  0.59876478  0.56729162
   0.49086731  0.51410169  0.69915717
   0.45772239  0.65715508  0.63036689
   0.37085870  0.48278692  0.50740229
   0.40964187  0.36400104  0.55479593
   0.35300212  0.60295654  0.44664391
   0.50851764  0.41510957  0.62267845
   0.45020702  0.65934548  0.50420322
   0.47600746  0.53862654  0.56956663
   0.56452652  0.61436468  0.68227250
   0.45988273  0.28952640  0.46103541
   0.38134630  0.38332670  0.42916030
   0.61683418  0.40850860  0.55241797
   0.34251956  0.49336322  0.38602256
   0.49641929  0.42795159  0.49136954
   0.53495234  0.31401529  0.55526640
   0.56247157  0.64234463  0.55900755
   0.59631781  0.50611472  0.62746044
   0.57883659  0.52554371  0.49309520
   0.66962653  0.60947829  0.61801825
   0.46412147  0.54121511  0.43485182
   0.44627387  0.65493736  0.37876827
   0.48873713  0.36124835  0.36535873
   0.58695391  0.34737338  0.44438037
   0.55834152  0.64315505  0.43355752
   0.56505182  0.45836611  0.37833426
   0.69671109  0.50727917  0.54918727
   0.66877385  0.62266030  0.49280770
   0.67197519  0.44274918  0.44207925
   0.44872954  0.47140013  0.32789718
   0.52897573  0.57121639  0.33059445
   0.64322417  0.56160445  0.38337435
   0.75115513  0.54016829  0.44308359
Direct configuration=    12
   0.38175844  0.57292781  0.68648511
   0.46400284  0.62879047  0.75757768
   0.39155932  0.46288825  0.63024094
   0.35921217  0.59849228  0.56846968
   0.49062379  0.51526501  0.69828974
   0.45773908  0.65578217  0.63081021
   0.37086439  0.48296937  0.50792126
   0.40999040  0.36469819  0.55420681
   0.35254176  0.60252317  0.44698791
   0.50842891  0.41601294  0.62247049
   0.45013028  0.65875440  0.50437067
   0.47615091  0.53876027  0.56951694
   0.56440483  0.61494978  0.68281056
   0.46097359  0.29066091  0.46035518
   0.38188561  0.38364087  0.42902241
   0.61671533  0.40895993  0.55204456
   0.34232768  0.49360143  0.38644678
   0.49630034  0.42805091  0.49031634
   0.53480925  0.31465759  0.55524406
   0.56243801  0.64304037  0.55938352
   0.59674139  0.50618009  0.62816872
   0.57893173  0.52544439  0.49317346
   0.66944300  0.60960717  0.61762590
   0.46374357  0.54063872  0.43480132
   0.44615198  0.65394000  0.37929073
   0.48898482  0.36153477  0.36471774
   0.58649525  0.34715095  0.44428373
   0.55781462  0.64195238  0.43369210
   0.56582023  0.45836402  0.37755503
   0.69652840  0.50757156  0.54885183
   0.66869721  0.62156704  0.49250879
   0.67209947  0.44242194  0.44212295
   0.44890114  0.47175171  0.32859389
   0.52945478  0.57066291  0.33083129
   0.64346339  0.56086722  0.38343453
   0.75181911  0.53937990  0.44271708
Direct configuration=    13
   0.37881519  0.57279228  0.68737096
   0.46376537  0.62935590  0.75748751
   0.39126829  0.46407758  0.63028814
   0.35940412  0.59800442  0.57057882
   0.49018780  0.51734778  0.69673672
   0.45776896  0.65332416  0.63160391
   0.37087459  0.48329601  0.50885040
   0.41061439  0.36594633  0.55315208
   0.35171755  0.60174727  0.44760380
   0.50827005  0.41763030  0.62209816
   0.44999287  0.65769615  0.50467046
   0.47640775  0.53899971  0.56942799
   0.56418696  0.61599732  0.68377390
   0.46292662  0.29269208  0.45913732
   0.38285116  0.38420334  0.42877553
   0.61650256  0.40976798  0.55137602
   0.34198414  0.49402790  0.38720629
   0.49608738  0.42822871  0.48843073
   0.53455308  0.31580754  0.55520406
   0.56237793  0.64428599  0.56005664
   0.59749975  0.50629711  0.62943681
   0.57910207  0.52526656  0.49331359
   0.66911441  0.60983790  0.61692347
   0.46306701  0.53960678  0.43471090
   0.44593376  0.65215434  0.38022611
   0.48942828  0.36204758  0.36357014
   0.58567409  0.34675272  0.44411072
   0.55687128  0.63979917  0.43393303
   0.56719595  0.45836028  0.37615993
   0.69620132  0.50809504  0.54825126
   0.66856000  0.61960972  0.49197362
   0.67232197  0.44183605  0.44220117
   0.44920835  0.47238117  0.32984126
   0.53031246  0.56967198  0.33125533
   0.64389169  0.55954731  0.38354226
   0.75300788  0.53796839  0.44206090
Direct configuration=    14
   0.37684149  0.57296498  0.68922127
   0.46345344  0.62953942  0.75730701
   0.39080915  0.46472622  0.63049345
   0.35933547  0.59718251  0.57096596
   0.48950159  0.51880473  0.69591970
   0.45757323  0.65173784  0.63172166
   0.37089958  0.48364586  0.50874614
   0.41087409  0.36682244  0.55302550
   0.35109801  0.60147944  0.44889211
   0.50810576  0.41854804  0.62163778
   0.44958227  0.65691775  0.50544111
   0.47692652  0.53907529  0.56851386
   0.56477433  0.61695611  0.68447643
   0.46455484  0.29378082  0.45866419
   0.38361435  0.38513278  0.42833361
   0.61630021  0.41041454  0.55098273
   0.34179227  0.49405274  0.38763305
   0.49619707  0.42815196  0.48710180
   0.53415486  0.31668462  0.55559194
   0.56264068  0.64464469  0.56043006
   0.59790050  0.50682029  0.62976102
   0.57881413  0.52479507  0.49344407
   0.66901891  0.61002736  0.61650323
   0.46272363  0.53910078  0.43531319
   0.44531603  0.65098228  0.38025924
   0.48997580  0.36241766  0.36226598
   0.58541327  0.34677673  0.44387540
   0.55706390  0.63847870  0.43438326
   0.56746473  0.45785417  0.37557346
   0.69630456  0.50800289  0.54825162
   0.66835413  0.61908261  0.49149469
   0.67263631  0.44129401  0.44220501
   0.44910036  0.47284959  0.33029908
   0.53053393  0.56925565  0.33127925
   0.64452940  0.55847029  0.38346051
   0.75376824  0.53698996  0.44187158
Direct configuration=    15
   0.37467477  0.57315456  0.69125252
   0.46311101  0.62974090  0.75710885
   0.39030512  0.46543829  0.63071884
   0.35926012  0.59628021  0.57139096
   0.48874827  0.52040416  0.69502278
   0.45735835  0.64999639  0.63185093
   0.37092702  0.48402992  0.50863167
   0.41115917  0.36778423  0.55288654
   0.35041789  0.60118542  0.45030641
   0.50792540  0.41955552  0.62113238
   0.44913150  0.65606324  0.50628712
   0.47749603  0.53915827  0.56751034
   0.56541914  0.61800867  0.68524766
   0.46634230  0.29497603  0.45814479
   0.38445217  0.38615311  0.42784848
   0.61607806  0.41112434  0.55055097
   0.34158164  0.49408001  0.38810154
   0.49631748  0.42806771  0.48564291
   0.53371769  0.31764749  0.55601776
   0.56292913  0.64503848  0.56084001
   0.59834044  0.50739463  0.63011694
   0.57849803  0.52427748  0.49358732
   0.66891407  0.61023535  0.61604190
   0.46234667  0.53854529  0.43597437
   0.44463789  0.64969560  0.38029560
   0.49057686  0.36282393  0.36083429
   0.58512694  0.34680310  0.44361706
   0.55727536  0.63702911  0.43487751
   0.56775980  0.45729857  0.37492963
   0.69641789  0.50790172  0.54825202
   0.66812813  0.61850396  0.49096893
   0.67298140  0.44069897  0.44220922
   0.44898181  0.47336382  0.33080166
   0.53077707  0.56879861  0.33130551
   0.64522948  0.55728794  0.38337076
   0.75460295  0.53591586  0.44166376
Direct configuration=    16
   0.37293437  0.57360192  0.69343899
   0.46259907  0.62997503  0.75726940
   0.38979082  0.46649897  0.63102582
   0.35875187  0.59453753  0.57276698
   0.48775220  0.52212492  0.69398368
   0.45700698  0.64821717  0.63227028
   0.37070712  0.48384199  0.50848511
   0.41101635  0.36857187  0.55333532
   0.34960132  0.60145506  0.45139009
   0.50752936  0.42102095  0.62086953
   0.44903118  0.65554220  0.50651333
   0.47788987  0.53852663  0.56630150
   0.56684557  0.61913590  0.68591528
   0.46741770  0.29575335  0.45762738
   0.38574714  0.38679681  0.42705510
   0.61561733  0.41149140  0.55055518
   0.34088570  0.49456122  0.38780225
   0.49650980  0.42723557  0.48485357
   0.53363047  0.31852427  0.55713772
   0.56309674  0.64494152  0.56087902
   0.59803051  0.50831452  0.63004766
   0.57883317  0.52335952  0.49333890
   0.66952764  0.61064932  0.61582687
   0.46224463  0.53931587  0.43636295
   0.44406459  0.64828947  0.38050351
   0.49094606  0.36254811  0.35852381
   0.58588780  0.34691831  0.44340587
   0.55699194  0.63611307  0.43502391
   0.56801785  0.45680848  0.37470139
   0.69708653  0.50750585  0.54840040
   0.66848682  0.61855416  0.49060121
   0.67338513  0.44002006  0.44200823
   0.44829375  0.47376255  0.33046924
   0.53082210  0.56878558  0.33150924
   0.64594664  0.55610711  0.38302328
   0.75502091  0.53505458  0.44211797
Direct configuration=    17
   0.37108476  0.57407736  0.69576267
   0.46205501  0.63022386  0.75744002
   0.38924425  0.46762621  0.63135206
   0.35821173  0.59268549  0.57422935
   0.48669364  0.52395367  0.69287937
   0.45663356  0.64632629  0.63271595
   0.37047342  0.48364226  0.50832935
   0.41086457  0.36940894  0.55381225
   0.34873350  0.60174161  0.45254178
   0.50710846  0.42257834  0.62059019
   0.44892455  0.65498847  0.50675373
   0.47830843  0.53785536  0.56501679
   0.56836151  0.62033388  0.68662480
   0.46856060  0.29657946  0.45707751
   0.38712337  0.38748090  0.42621193
   0.61512769  0.41188151  0.55055965
   0.34014608  0.49507263  0.38748417
   0.49671419  0.42635121  0.48401469
   0.53353777  0.31945608  0.55832797
   0.56327488  0.64483848  0.56092047
   0.59770113  0.50929213  0.62997404
   0.57918935  0.52238395  0.49307490
   0.67017971  0.61108927  0.61559834
   0.46213620  0.54013480  0.43677592
   0.44345532  0.64679511  0.38072446
   0.49133842  0.36225499  0.35606834
   0.58669642  0.34704075  0.44318142
   0.55669072  0.63513954  0.43517949
   0.56829208  0.45628764  0.37445882
   0.69779713  0.50708515  0.54855809
   0.66886801  0.61860750  0.49021043
   0.67381420  0.43929854  0.44179462
   0.44756250  0.47418631  0.33011596
   0.53086997  0.56877172  0.33172575
   0.64670881  0.55485219  0.38265399
   0.75546510  0.53413926  0.44260068
Direct configuration=    18
   0.36971621  0.57463566  0.69766854
   0.46209610  0.63086754  0.75830253
   0.38852463  0.46910345  0.63154731
   0.35794113  0.59038441  0.57588147
   0.48636248  0.52622275  0.69186532
   0.45713401  0.64434941  0.63322141
   0.37002160  0.48270271  0.50745944
   0.41044627  0.36979731  0.55434919
   0.34784199  0.60205434  0.45347619
   0.50631822  0.42377841  0.62090128
   0.44868191  0.65475648  0.50729678
   0.47806354  0.53681640  0.56414785
   0.56871117  0.62116688  0.68702579
   0.46914708  0.29767480  0.45679669
   0.38849201  0.38802827  0.42487837
   0.61522695  0.41220543  0.55113348
   0.33937497  0.49618378  0.38705073
   0.49673035  0.42562475  0.48386066
   0.53322571  0.31967386  0.55877911
   0.56315486  0.64395305  0.56087308
   0.59715302  0.51087701  0.62906569
   0.58096199  0.52165555  0.49180901
   0.67162179  0.61137607  0.61516194
   0.46219971  0.53930831  0.43662423
   0.44262908  0.64681304  0.38028999
   0.49171227  0.36132505  0.35423465
   0.58754446  0.34662153  0.44318460
   0.55672901  0.63498260  0.43518955
   0.56771909  0.45628213  0.37420956
   0.69792356  0.50670956  0.54917604
   0.66933846  0.61840710  0.49004533
   0.67439931  0.43877315  0.44187933
   0.44719948  0.47429273  0.33000636
   0.53118303  0.56832311  0.33189633
   0.64684934  0.55460718  0.38251859
   0.75557224  0.53412704  0.44353354
Direct configuration=    19
   0.36923281  0.57483287  0.69834173
   0.46211062  0.63109490  0.75860718
   0.38827044  0.46962525  0.63161627
   0.35784555  0.58957162  0.57646504
   0.48624550  0.52702424  0.69150714
   0.45731077  0.64365114  0.63339994
   0.36986200  0.48237084  0.50715216
   0.41029852  0.36993449  0.55453885
   0.34752710  0.60216480  0.45380624
   0.50603909  0.42420230  0.62101117
   0.44859621  0.65467454  0.50748860
   0.47797704  0.53644942  0.56384092
   0.56883468  0.62146111  0.68716742
   0.46935424  0.29806170  0.45669750
   0.38897544  0.38822162  0.42440733
   0.61526200  0.41231985  0.55133617
   0.33910260  0.49657626  0.38689763
   0.49673606  0.42536815  0.48380625
   0.53311548  0.31975079  0.55893846
   0.56311247  0.64364029  0.56085633
   0.59695942  0.51143682  0.62874484
   0.58158812  0.52139827  0.49136187
   0.67213117  0.61147737  0.61500779
   0.46222214  0.53901638  0.43657065
   0.44233724  0.64681937  0.38013653
   0.49184432  0.36099658  0.35358695
   0.58784400  0.34647345  0.44318573
   0.55674253  0.63492717  0.43519310
   0.56751670  0.45628018  0.37412151
   0.69796822  0.50657689  0.54939431
   0.66950464  0.61833632  0.48998702
   0.67460599  0.43858757  0.44190925
   0.44707125  0.47433032  0.32996764
   0.53129362  0.56816465  0.33195658
   0.64689897  0.55452064  0.38247076
   0.75561009  0.53412273  0.44386304
Direct configuration=    20
   0.36940519  0.57541667  0.69949982
   0.46250072  0.63186876  0.75965826
   0.38768608  0.47020832  0.63147158
   0.35815508  0.58844707  0.57635682
   0.48627609  0.52796159  0.69129849
   0.45757284  0.64303164  0.63337214
   0.36933206  0.48155699  0.50622368
   0.41004351  0.36995665  0.55467045
   0.34788440  0.60209043  0.45487853
   0.50572725  0.42361797  0.62143663
   0.44804680  0.65414558  0.50766889
   0.47826915  0.53577211  0.56251581
   0.56922764  0.62192472  0.68694564
   0.46921399  0.29860139  0.45677441
   0.38899103  0.38893319  0.42287793
   0.61521711  0.41195920  0.55201692
   0.33907859  0.49737539  0.38663631
   0.49737202  0.42546027  0.48466634
   0.53282034  0.32000927  0.55876833
   0.56341536  0.64217036  0.56092360
   0.59639614  0.51260991  0.62732754
   0.58193540  0.52129067  0.49024721
   0.67280869  0.61183475  0.61489758
   0.46213568  0.53839587  0.43578951
   0.44236070  0.64692429  0.38055762
   0.49245429  0.36046643  0.35341780
   0.58774959  0.34632725  0.44346109
   0.55639317  0.63538452  0.43510600
   0.56694632  0.45580983  0.37438994
   0.69781143  0.50640921  0.55013728
   0.66957420  0.61820881  0.49011529
   0.67473992  0.43843297  0.44217035
   0.44705242  0.47344800  0.33005520
   0.53110220  0.56818402  0.33198112
   0.64680518  0.55525595  0.38246923
   0.75544644  0.53497081  0.44455661
Direct configuration=    21
   0.36957477  0.57599098  0.70063907
   0.46288448  0.63263004  0.76069225
   0.38711123  0.47078192  0.63132923
   0.35845958  0.58734081  0.57625036
   0.48630618  0.52888370  0.69109325
   0.45783064  0.64242222  0.63334479
   0.36881074  0.48075638  0.50531029
   0.40979264  0.36997845  0.55479991
   0.34823589  0.60201726  0.45593338
   0.50542047  0.42304314  0.62185517
   0.44750632  0.65362522  0.50784625
   0.47855652  0.53510581  0.56121225
   0.56961421  0.62238079  0.68672746
   0.46907602  0.29913230  0.45685007
   0.38900636  0.38963319  0.42137340
   0.61517294  0.41160442  0.55268661
   0.33905497  0.49816153  0.38637923
   0.49799764  0.42555090  0.48551245
   0.53253000  0.32026355  0.55860097
   0.56371332  0.64072433  0.56098977
   0.59584201  0.51376392  0.62593329
   0.58227704  0.52118483  0.48915068
   0.67347519  0.61218632  0.61478916
   0.46205063  0.53778545  0.43502107
   0.44238379  0.64702750  0.38097186
   0.49305434  0.35994490  0.35325139
   0.58765672  0.34618343  0.44373197
   0.55604949  0.63583444  0.43502031
   0.56638522  0.45534714  0.37465400
   0.69765720  0.50624425  0.55086818
   0.66964263  0.61808337  0.49024148
   0.67487167  0.43828089  0.44242720
   0.44703391  0.47258002  0.33014133
   0.53091390  0.56820307  0.33200526
   0.64671291  0.55597931  0.38246772
   0.75528546  0.53580509  0.44523890
Direct configuration=    22
   0.36950244  0.57574602  0.70015316
   0.46272080  0.63230534  0.76025123
   0.38735642  0.47053727  0.63138995
   0.35832971  0.58781265  0.57629577
   0.48629334  0.52849040  0.69118079
   0.45772068  0.64268215  0.63335645
   0.36903310  0.48109786  0.50569987
   0.40989964  0.36996916  0.55474470
   0.34808597  0.60204847  0.45548346
   0.50555132  0.42328832  0.62167665
   0.44773684  0.65384716  0.50777060
   0.47843395  0.53539000  0.56176825