11
Energy = -24.29252947 eV
Au 7.542803976291299 10.532739429398621 9.768475437842138
Au 6.1037623782719495 8.577519309423197 10.94133632476954
Au 8.77337450696613 8.817721969107406 11.647988829279168
Au 9.7876178212902 11.974244244175024 9.677002604780627
Au 10.301023751182951 8.172132478963242 9.460204499209528
Au 11.289390129362276 8.520971335241004 6.913845679052785
Au 12.411799806601893 12.338140226946985 10.382806176452842
Au 9.24673242673905 10.14550542574931 7.718744947230857
Au 7.916769739892247 6.940460677680154 9.794581585399584
Au 11.968611893764377 10.327707244889286 8.72923571632613
Au 11.047058715018485 10.123530330966505 11.41710199988148
