18
Energy = -43.90196147 eV
Au 11.087485228108276 10.33120728814005 8.44715479885789
Au 14.304810995781024 9.160689327997567 12.612427101318458
Au 8.590776067660387 11.512261573552054 11.535373419806701
Au 12.83922973186207 9.465804809363588 10.351459277186178
Au 9.513275336656156 12.655755108966543 9.225902759376583
Au 10.142803531364496 8.673616398131136 10.431820899912545
Au 11.457848859790083 14.583223064823072 9.433576459972468
Au 8.906270567399856 9.02763598036824 12.893423936078987
Au 8.399365921748347 10.137792640265975 8.92912210568905
Au 11.59267058160021 12.770106969276286 7.323164047349803
Au 12.74897134570891 10.331545519340855 14.704182352750879
Au 13.212563730667851 14.227578625090912 11.510531563749357
Au 6.930628625156696 9.415329863033824 11.105112057734829
Au 12.910392502503052 12.11864212155216 9.636468044557624
Au 13.058424940784796 11.610607324060645 12.324139507909559
Au 10.439555699883494 11.242124683172243 13.588805453628552
Au 10.691452422342175 13.189932328178767 11.719640013237973
Au 11.597066969050752 8.708611427807027 12.746274906091173
