16
Energy = -37.98599607 eV
Au 11.229870696446833 12.338187405764177 8.290470894207095
Au 11.592928994163573 12.051680709270922 11.003854339339991
Au 9.25345006618993 11.710425978075383 12.309485974525934
Au 8.810429113866354 12.06101255975396 9.447419338850034
Au 12.400004271638569 9.957740781910134 9.385637896717075
Au 12.364852537753093 10.467581663630744 6.677257791226251
Au 9.657225496983614 10.230185640697231 7.438995858619648
Au 6.869625776218692 10.950808498324697 11.063833730339294
Au 11.377291792036795 8.071298006904687 7.520729838629323
Au 10.742503446186053 9.500510509737486 11.54156878254022
Au 7.225867694721191 9.945959509193282 8.590113755449048
Au 11.75362412176191 7.364962704224254 10.163938358315233
Au 6.953154207891292 8.10153837051507 10.537179115929314
Au 8.256027224794055 9.199876849759484 12.73908638059608
Au 9.397509445936805 7.067996331561074 11.468563936222472
Au 8.964319925740806 7.79013851212268 8.689800553196973
