18
Energy = -43.19698384 eV
Au 7.45017021603548 10.512378584986 11.619880593462529
Au 6.37690187750866 9.15525927721808 13.752500445702474
Au 8.58059451310354 8.076192513662917 12.634343965936889
Au 10.690119387558033 7.1737048759826285 11.305363565772518
Au 9.13718470269298 12.041015129856294 10.203499574334838
Au 10.185302459575384 10.69720701838388 8.018301044849757
Au 8.728385856014974 10.43957418085733 14.237019078260131
Au 10.867625332256052 9.778361714847906 12.636538308818587
Au 9.90609926082409 12.423534074647552 12.939391989995372
Au 9.32066448653317 9.244029080026909 10.10249077325397
Au 11.336342598523728 13.147796688500252 8.837022540742428
Au 12.127148936447814 9.23264310657692 10.236574106441966
Au 10.463358698818283 14.33590983141832 11.116222381360163
Au 12.122947687418316 8.839049374788866 7.572937257183245
Au 12.518566294502047 11.675630578504029 6.950149641840352
Au 12.037028114070683 11.89966595521182 11.287358014434776
Au 14.609957238754463 9.973993929182571 7.147527449046142
Au 13.769892056277106 11.213417496443572 9.394281304678357
