15
Energy = -33.90040564 eV
Au 13.286160154244032 14.728903844014473 11.795881465356182
Au 11.508182475285428 13.370645158086742 13.406195900307416
Au 10.545456387849267 12.094537678693872 8.83933745276535
Au 12.062194489697982 10.637121904582996 13.922001923018959
Au 9.517562242443853 7.8858973546005915 10.95725567722454
Au 11.965493834151943 8.60337476583088 11.941064118270972
Au 11.151398844281832 9.340219955602533 9.281579106511483
Au 8.751962047318132 10.463152716560275 10.319182040861175
Au 10.792949157705738 14.164329619056778 10.763262329061254
Au 13.134448192477652 12.932158619011402 9.70957327940992
Au 13.911623859182875 12.136524673271433 12.383840553955126
Au 9.542241110065712 9.781504256393449 12.964998037002273
Au 13.640448621577914 10.21333258298621 10.31218634935473
Au 9.045376428537969 12.50536354535945 12.262099568737373
Au 11.352736772195781 11.35116794296529 11.34977681517922
