22
Energy = -54.48647019 eV
Au 13.110332663442847 9.061312043970004 12.700650621616461
Au 14.215514759230429 8.4809844604071 10.223259148798407
Au 14.8955963689095 11.018550730717667 13.2268147565281
Au 13.731580078214167 11.189997564535467 10.741597507508851
Au 11.587286094342012 7.772955352036042 10.900663868438485
Au 12.26047368395492 9.76916424872285 8.843652276192598
Au 12.304982031111821 11.382939222102186 13.844066233207132
Au 10.374634908080637 9.353980143467101 12.829771527852072
Au 12.430872375213907 13.351218269823349 11.791232196139632
Au 10.704702381761253 7.580468246047511 8.308398149288001
Au 11.629682095089885 12.325985228082969 9.33289772688043
Au 10.66296647933454 14.755774710125579 10.129308692838531
Au 9.84663102363585 10.618218011841185 7.997286114405747
Au 11.380013308475448 13.894288666294226 14.273348105645262
Au 9.07362795925539 8.659125444457885 10.452066117667293
Au 9.583072273885687 11.583320784063227 14.18495544053753
Au 8.206250985623065 8.312266709251933 7.7884380661284105
Au 8.884031933058465 12.711857627486035 9.642915528762005
Au 9.545095786168092 13.423436260619845 12.210820136437377
Au 7.3179036229018335 10.5677131496352 6.701310675445567
Au 8.280502102022393 10.940857199208699 11.868650692491562
Au 7.290010303634795 10.52702056612302 9.40608221806002
