25
Energy = -63.09638765 eV
Au 12.827484866841118 14.108265843576104 10.016401663416866
Au 12.189940152187416 11.559969993182492 9.22641553513045
Au 9.573362593871417 10.988886189444933 8.598259688067806
Au 7.677905355002926 12.611954727246433 9.746006907264395
Au 14.751092629409232 12.172818287870955 10.120451322954201
Au 11.013189075899941 9.269321912069591 10.209642029105432
Au 12.3965147972881 8.145173521675025 12.422972759691039
Au 10.773960156220005 15.954197583848082 10.628052350779608
Au 13.317646971951108 16.247102944223602 11.723348464401257
Au 10.241356939637965 13.559894119679246 9.299067431274437
Au 8.457846880065409 10.152831068006575 10.955698807855015
Au 13.708685424764804 9.549005782012635 10.346227945440152
Au 16.416297369981393 10.072280567273012 10.608919327140619
Au 9.720578781494508 8.162930251943704 12.368842153552993
Au 11.533071291658148 14.293367641997836 12.698225408511757
Au 15.157567909275398 8.435253676044123 12.453697108542308
Au 8.919049854916747 14.228807516274095 11.68937571843816
Au 14.289381470147005 13.796309693262724 12.423408138166495
Au 7.2478527225253435 12.234721354082893 12.45029289118052
Au 12.605143375748877 12.034939329751127 13.831149373602551
Au 10.961178418949627 9.825530301087493 14.291566098395323
Au 9.886071555829886 12.3345552349569 13.595197697154276
Au 15.045260109656594 11.223160702511901 12.763289601560686
Au 8.285329086056738 10.102655591519492 13.721434803230766
Au 13.667680428084283 9.599514383922578 14.475504992606826
