20
Energy = -49.04700352 eV
Au 10.216037406217122 11.728040939978618 9.02800691126002
Au 12.619848732982915 10.777759002784412 8.288485005228083
Au 10.016600987015732 14.446919616437604 9.261386863639423
Au 8.428569430850445 10.116230022304771 10.292174934369735
Au 15.256252255018332 9.984898002076127 8.17553466044328
Au 12.46166470202038 13.324272053641314 9.68406168137832
Au 11.062666305544875 9.39995207793906 10.243964055397186
Au 8.160284553575046 12.890177287820745 10.564962133530996
Au 14.661229983208125 11.799403146013928 10.063424244604965
Au 13.751062705822656 9.05523710632671 10.257900883539097
Au 10.694410542349146 13.284762719278627 11.788674222496923
Au 13.212456408726252 12.393998953566454 12.300052475485606
Au 7.08387581372708 9.929824269226653 12.673909210177088
Au 9.709737111256018 9.271497492196117 12.687097546873678
Au 12.434422401362696 9.229113206559637 12.642788884393232
Au 6.202398223245879 12.520746333198232 12.481282165516319
Au 8.74491447774287 12.049998905422274 13.209928728088393
Au 15.04697014697494 10.339448732475844 12.36808175459798
Au 11.214172618263536 11.445796543595398 13.91818098149202
Au 13.653455941789469 10.64295433685082 14.701133405181343
