29
Energy = -74.27305975 eV
Au 11.70446246284296 7.286245492054257 9.166049647008068
Au 14.244232073509824 8.296988670248558 9.255941753143354
Au 15.00350826732786 9.573130806041133 11.575686576815695
Au 12.174753835076467 9.63413126472085 7.5467436520242615
Au 12.599986223745432 7.946329963806207 11.705199483924567
Au 9.578274604088236 8.62896387227339 8.10953583113917
Au 14.782404416751936 10.563962834159968 7.805454613692087
Au 10.035764749638716 8.78784369101114 10.832510491123141
Au 12.518173045516066 10.342082956470707 10.236147774365808
Au 10.200644169645301 11.322244520574564 8.589613248263129
Au 14.85641343545641 11.991824287033348 10.153826089065912
Au 12.78168681805402 12.43921692958097 8.253975074760666
Au 13.546529119276485 9.204787121547106 13.951176028490396
Au 10.894150946094094 9.616822893476607 13.304800865428758
Au 13.568728515723425 11.71594095297302 12.642213414153321
Au 8.37353962055947 10.478453195938963 12.400434146537751
Au 12.246915452942876 11.30336015583719 15.102157042471259
Au 7.855570732499151 10.099119039385663 9.654137833895787
Au 12.745288081631069 13.718096688377196 10.824926147680664
Au 10.702776115552147 14.043487367983895 9.00449288786783
Au 10.682997161753711 11.889619700994489 11.530409246231056
Au 8.401880236279604 12.929577885329419 10.061153055532493
Au 9.563953704464044 11.859382194765985 14.419459573628489
Au 11.910869758668785 13.768880347589693 13.466278078812099
Au 6.2041074882976925 11.655643866579277 11.176833494166925
Au 10.02174600592766 14.71550554639642 11.570269434887221
Au 10.995716952215778 13.51130111731255 16.080494171149933
Au 7.754122560361736 13.262744653303292 12.765972630420993
Au 9.426019929185342 14.80056522929371 14.240166851946777
