27
Energy = -68.19522268 eV
Au 12.809056915677235 6.758717556989023 11.319712666989401
Au 8.67050591263665 9.038977902180289 11.273595815703388
Au 14.127135171782923 8.884999221234569 12.510760396921441
Au 12.519747884019484 10.584331087116839 14.091565182790111
Au 9.587015550196957 10.564457833174462 13.56883880985062
Au 10.567237929689869 7.464252145550007 9.881430169155497
Au 13.128026412080846 9.03658179122974 9.822021922437859
Au 15.15252621392206 11.18485656528956 13.411393819004697
Au 11.342062859642885 8.964679625205639 12.163832396645935
Au 7.157359622017982 11.054677842155007 12.341156133092825
Au 14.272723322355127 11.321615824045363 10.75478063868381
Au 11.342690322071704 11.89941411789761 11.787874043312552
Au 10.917685249358952 12.767201867442727 14.647359986110041
Au 13.62472644767691 13.101114209089578 14.704494991491163
Au 10.603541370449191 10.331501101282763 9.67565890569922
Au 8.216864101188321 12.641123969055863 10.211161171458786
Au 14.731012559909086 13.612838501757976 12.132726593700006
Au 6.736805163295101 10.280465935585177 9.755625837623988
Au 8.832784722444135 13.189033455950304 12.897492194565968
Au 8.719694666493243 8.786445428530833 8.357538189404668
Au 12.848173039785115 11.389528850714335 8.377918447962763
Au 12.826919635458296 13.659110980563408 10.05948777101587
Au 12.165953775124152 14.47968616797495 12.7409732994664
Au 8.174954885559094 11.464445970289193 7.740870238218367
Au 10.235012964342278 14.39189468512616 10.844573059747127
Au 10.625595444346112 10.637691280188221 6.89009144043537
Au 10.504231664882981 12.94970692806641 8.51950967839392
