37
Energy = -96.35324924 eV
Au 12.189750470152436 13.065238181868935 14.77119652684058
Au 9.390566599264297 10.118118942498803 14.36402588153133
Au 9.578206021101545 12.752760965938172 15.181168542543007
Au 13.150524809752094 10.502270149119775 14.3551003150135
Au 10.195142542334121 7.502021886083056 14.56987340798237
Au 14.660327646337377 12.72813399826741 13.773249812363849
Au 7.151961983026381 11.521618951297095 15.156309774914972
Au 8.38687685227172 8.062116510133807 12.654169985619616
Au 13.0791950331128 14.990064140502703 12.85493697190694
Au 12.888472440592977 7.809050607005827 14.613253853439598
Au 14.235103634367087 8.703206439153613 12.383551947963348
Au 8.057473120891306 13.007012856869977 12.832641552700974
Au 11.29561131860843 9.09796319630809 12.560241692830186
Au 10.354533934600521 14.670435601188803 13.317936742757084
Au 6.98557060989054 10.469472828600749 12.64505790492097
Au 10.817501901143784 11.909622274650788 12.586723242481963
Au 12.234482092480853 13.475651959061631 10.478655908438068
Au 14.971426012551431 13.853276317663637 11.274485841165937
Au 12.57692478810918 8.101253856038715 10.293664838757948
Au 7.278061812131769 9.099838232793187 10.336612706189921
Au 13.486570670181933 11.28895227323246 11.597832549929635
Au 14.894249587734326 9.58727885012846 9.850687797972753
Au 9.29840863477951 14.240509462998004 10.731757400213509
Au 8.087450515395068 11.74917331203304 10.367692548950387
Au 8.877188440841218 10.056082379937353 8.287665112759717
Au 11.245814161179391 16.16626753613521 11.189252941290913
Au 13.924502830894497 7.750517460670965 7.9491862582924036
Au 9.846049853856229 8.123198179433372 10.315338768561965
Au 11.235444776487704 8.481844759726757 7.927840434118072
Au 9.716743362051412 12.718844016905717 8.37704672485364
Au 9.54800384938576 8.841410505677509 5.859767157484775
Au 10.934677280109529 11.038905781369534 6.484636536456087
Au 14.63169249168361 12.264595172023505 9.140383611281106
Au 13.393721002348942 10.411394130915909 7.566490222545393
Au 12.401938869607688 12.99036373878916 7.6747892228674575
Au 10.9952335175273 15.152844462298095 8.64688577622238
Au 11.076867184192709 10.770960733658503 10.10216013681486
