32
Energy = -82.85693724 eV
Au 14.66381810793581 13.112968060374492 10.187983307968985
Au 12.770793431075553 13.807950917477694 8.384382469671479
Au 16.364048116684987 12.045270879341201 12.079823486423235
Au 15.24053211931163 10.295846095869603 10.29724172422847
Au 14.202797656108444 13.537637261294094 12.958426275224733
Au 12.256527217038839 14.381818064982419 11.027738311708813
Au 13.237946688681381 11.09309977398049 8.57855290699477
Au 10.96691436791116 12.135314689284032 7.2609879490140115
Au 14.768633196153129 10.935477767889443 13.977812007389542
Au 14.44306330819679 8.690559921543931 12.355688586099932
Au 12.898058594431179 8.733412463121786 9.99519168792267
Au 12.935352194988813 11.182824354565872 11.768069398058497
Au 10.10937015828319 14.006003517017882 9.283104205831846
Au 12.421482029233045 12.12488248029289 14.827967119996536
Au 11.10404892926018 9.24634115769332 7.99572352010065
Au 9.154041662985342 10.251187246157272 6.367167920958018
Au 10.784323230369953 11.290485385796194 10.097901754803932
Au 12.489240143611385 9.362075714531882 14.19660948886773
Au 11.820726173831394 14.543964539948291 13.718866290696768
Au 11.999949426126026 7.38354510031591 12.238515078010074
Au 8.273105299407893 12.55718955803174 7.7002998428381195
Au 10.067433448703962 8.443800826237732 10.531890775444259
Au 10.38645963165993 11.486362807659319 12.74239294382018
Au 7.885511867044318 12.610042190546073 10.352530458194787
Au 8.414689017702411 10.008752314124527 8.977935918642599
Au 9.631368708796886 14.156199216485174 11.992816624167288
Au 7.97340837273529 10.064146751576214 11.626636496438456
Au 10.301923740463675 10.460342038366324 15.459412085037027
Au 9.863050670257216 8.696196476614062 13.291701655480082
Au 7.631542786866439 12.546499180365853 13.045927011384778
Au 9.705115955593676 13.220504611002278 14.813810894156966
Au 7.767828473779054 10.119802484900658 14.361565217894963
