32
Energy = -82.60642489 eV
Au 16.4504451360936 9.874447781232538 9.71893636850088
Au 14.168163092660716 11.382619941062162 8.789168215028646
Au 11.713339436420505 12.670331264966855 8.588637858198132
Au 9.1958646868237 13.769108746697135 8.884168690258615
Au 11.26621437213197 15.007898759131729 10.143344719872468
Au 13.661049598867633 13.732904650988045 10.368379524651564
Au 15.846114754100968 12.22514240415373 10.874319564960377
Au 14.079116387203305 8.628898995037268 9.582771648166611
Au 9.31116980542125 11.102083549513772 8.48183961787627
Au 11.884024042017456 9.892262901479514 8.329843401129327
Au 9.62797606739739 15.341842597149114 12.345922417628973
Au 12.097488954560411 14.112744947885398 12.675488829999464
Au 12.502555496285208 11.050354438820452 11.118794735075216
Au 14.902580989091877 9.813169533634067 12.125720719911248
Au 7.507856332105081 14.854208691312868 10.746520343181764
Au 11.720324361768844 7.2996972296792935 9.424390862915057
Au 12.780003702764525 8.050785889963208 12.007572697404731
Au 10.111990094951674 12.306090746811329 11.24207911140179
Au 9.489552825198881 8.360872703298423 8.202978566633702
Au 10.245851697066525 9.50322827671134 10.715957978109781
Au 7.46610565017251 9.498763696324211 9.820232956313955
Au 14.256480183849778 12.380482629254232 13.067170506791362
Au 8.045524895752925 13.087191992752793 13.002208290878377
Au 10.53757710986149 6.520873793980824 11.778312231390892
Au 12.378990441022053 12.620025669778393 15.017727394333802
Au 7.3080792443729825 12.17031675309492 10.324161002187507
Au 10.063326908956801 14.042230227194883 14.688814533087433
Au 12.66884234853267 10.13811479247236 13.841362181143547
Au 10.0537519650537 11.355501497796661 14.113410120726527
Au 7.99751544000968 10.407741063048595 12.48930491195262
Au 8.099692898801441 7.763942787059417 11.890477704114462
Au 10.333038405372488 8.763076744260774 13.390518200449554
