30
Energy = -77.299692 eV
Au 11.958633591615094 9.821053678319887 11.30043015509848
Au 11.918423846839326 9.629493151284208 14.267746565061962
Au 9.369007595108188 9.271243408922432 10.246708083736543
Au 12.059191155203576 12.376258174763253 8.74214610555046
Au 14.023067177776179 11.717614019514281 10.50910765714023
Au 14.308864618190787 10.540089205440069 13.08038514822181
Au 10.5135047868294 10.292374254109863 7.746417702825239
Au 8.250817159286038 11.081790399151693 11.984257249185454
Au 14.586643074232041 13.259611676938306 12.709747842782438
Au 10.10201061118276 14.478618491177558 9.360107836262252
Au 10.855811630248047 7.108990348481693 11.303283707523995
Au 9.954849011097057 12.932840393428599 7.076051398452539
Au 11.087076872553032 7.830554579932264 8.643863820926033
Au 8.967965761055103 11.920145471414878 9.451554443433213
Au 13.157536459649222 9.712054162591466 8.676230965810031
Au 13.521912993952062 7.848898657785182 12.731323540342412
Au 11.841263833445122 16.56101443853461 9.736732396357214
Au 13.349700293850544 7.163719243943549 9.994126736380728
Au 12.951912370330538 14.274442707386065 10.573937676345711
Au 10.961575583544752 12.36229937623874 11.502743587847121
Au 14.990186035820551 9.178890962978478 10.76744988870602
Au 10.298187054485481 15.755307414740084 11.819666061572086
Au 9.450058722120282 8.803896356462406 13.018408955111559
Au 8.360906052739304 13.806725931043475 11.44708408597445
Au 12.51221459247662 14.97579387210453 13.235763213554696
Au 7.54482581047967 12.925613516499936 13.969055470204781
Au 12.317508590512231 12.319192443447855 14.020326718512043
Au 11.284561305463514 7.000644821763264 14.049228737498172
Au 10.0178965634359 14.025444663516971 13.908292313053554
Au 9.724988816368365 11.266486147974835 14.36892390641924
