37
Energy = -96.77563103 eV
Au 9.239087008952975 13.07338456468409 6.59526784692919
Au 10.91945911502635 14.499749820546523 8.321893321328476
Au 13.548473238468361 13.80492992532147 7.712805316176012
Au 8.544058259681863 13.310759104663168 9.293368446203173
Au 11.629216670345665 11.861607132277648 7.175983866013104
Au 9.267292703096675 10.796551786337318 8.25719649497969
Au 10.263434630108799 14.95134579947082 10.95272919011702
Au 12.968282301234892 14.794301118648399 10.237607640322773
Au 11.170511930350385 12.239418544293992 10.040706032155951
Au 8.08920519614556 13.421493819625432 11.947460652148713
Au 15.248609699945554 13.18150658675043 9.799039933574955
Au 8.205560467725466 10.88779767797384 10.875876717048394
Au 14.02693910446533 11.13554211401762 8.387806690213763
Au 11.774639018034287 9.473855619600917 8.544224577279428
Au 9.572337254037475 14.983287482898726 13.629407009356862
Au 8.444213548096242 11.313566023284464 13.674803138808901
Au 9.522453807599435 8.620195682989003 9.923758063736267
Au 12.344159259445691 15.114008801342077 12.911634100103683
Au 13.28012290539995 11.996305560639689 11.772084056253519
Au 11.19829427985192 10.109841592261771 11.726322400639038
Au 14.887105560432914 14.20206076627576 12.278317345998932
Au 15.57591931848985 10.652638880325677 10.781471127575793
Au 8.883027715640532 8.744797790123712 12.613410356148004
Au 11.511891351520068 14.667975467961112 15.500093393932394
Au 14.265676981330795 8.633133238481983 9.454435132572366
Au 12.00742345095287 7.586630135137469 10.606796859712967
Au 10.835366549302698 12.624360635121237 12.889122759937562
Au 13.896121921016503 13.438251911952388 14.6822320837621
Au 12.739228857419112 10.362933768371214 14.147949275321675
Au 15.359913435185327 11.288114936841776 13.473077848521969
Au 10.111217424522113 9.470241936343958 14.98521633720047
Au 14.032777048540702 8.851766772548169 12.220503583748737
Au 11.581376911440152 7.859933641391917 13.309661810482385
Au 12.6059088541439 12.843751050167487 17.123571793044185
Au 10.264949978955665 12.175487904418144 15.617590340445288
Au 14.542673575884056 11.1292905504772 16.131275566961435
Au 12.02465633529206 10.188077306556153 16.79010864105708
