42
Energy = -111.02575237 eV
Au 8.518958048020798 8.101776529085774 10.405081469440514
Au 7.378266699197108 9.587947703933894 12.377419314968051
Au 6.69355253755219 11.785747464970607 13.88583757060477
Au 8.10608119961897 10.859930555740146 9.976208551734864
Au 9.599588463711132 12.398352248291582 8.092418158170311
Au 9.942134089027189 8.344237503922695 12.780340134403929
Au 8.872910400802699 10.156557656823844 14.624149339602656
Au 11.294939210994235 7.858573963183175 10.400514724864935
Au 7.565056206176117 14.276700131683294 12.93744281257935
Au 9.987248412740652 9.482990874075602 8.512355104676068
Au 12.518538376431087 8.423778798810135 7.994210551015908
Au 11.469423203795804 9.118594953490398 15.06291155664888
Au 11.006989443119794 11.723040415698488 10.276230289861044
Au 8.453715476198084 13.632354606159545 10.247446305240238
Au 12.772351855483041 8.163343424457363 12.738659567655688
Au 8.709654053694571 12.993337182822376 15.30985840483936
Au 11.976786760688045 11.14659764552366 7.639341162403413
Au 9.0960179420186 11.97889581997992 12.424567538987553
Au 11.50188226047059 13.610965060041522 15.456084053675603
Au 11.175448576984007 14.439707534021666 9.402644360506365
Au 13.830582390761037 9.048577631871742 10.278731279379176
Au 11.561639597213505 13.474136024643384 12.401724783965886
Au 13.548705400471889 11.91735267647271 11.26365824816174
Au 14.610862315410461 10.157025422282148 7.7104023956481935
Au 9.734429809853959 15.572269448306153 11.633006050661432
Au 11.507382461987206 10.68693764631719 12.777509151570397
Au 12.2409852085323 16.525090588965384 11.09096777929126
Au 10.48331549666576 11.293300976694972 16.53553958533162
Au 13.923478315603264 12.834968156199405 8.342730079448694
Au 15.087382781396679 9.816049290265447 12.592809091091441
Au 9.718285942580875 15.344434723612757 14.349333880685418
Au 13.094176947242282 11.345891923904812 15.76805834349387
Au 14.22761007572293 8.875196318110191 15.027192730620117
Au 14.05493726701817 13.507221188368451 14.359722955894037
Au 16.614236459099956 12.04445670688422 7.873626837950485
Au 14.303725153732037 14.814379904932837 11.895759766929622
Au 12.373133769089714 15.697099675146232 13.744471067835645
Au 15.910868517372709 10.903655620157494 10.20168871348901
Au 15.681372808260408 11.269214690977623 14.834160860518558
Au 13.82490034160318 15.395731951766837 9.212330729498948
Au 15.969258852346389 12.652136877615192 12.512707315614165
Au 15.994749370359138 13.769740735916091 9.952699960121857
