45
Energy = -119.4016391 eV
Au 14.3349162578049 8.818291511679591 13.339358684492693
Au 13.333546285042006 6.798379672547536 11.694261508183931
Au 16.212098609136348 10.602874421819303 12.04600272088677
Au 15.682291247293247 8.151322883747314 10.98535088434295
Au 15.383807319303731 10.916928394643984 14.72183131783779
Au 13.599330903502047 7.906934258140809 9.115126946516167
Au 11.642540277319716 8.116206679904243 13.526795830349112
Au 10.687310842321322 6.829357923165877 11.222813425206436
Au 12.706904391180148 10.247147542177458 15.120345348677029
Au 13.456809811771043 12.88776226931006 14.509639867224037
Au 12.404610788568148 9.54981808262643 10.969475760722673
Au 15.977454954412673 13.154577631327477 13.173893376763639
Au 14.913902422802156 10.389942273469657 9.531467148783111
Au 10.81458779577841 8.08714930338747 8.736565737802408
Au 13.986870048144596 15.141769052396254 12.96013902299361
Au 15.93303237173559 12.87797448930175 10.291780161476952
Au 9.928993383374667 9.83312671956297 14.917429157448078
Au 12.509671144205035 10.211908986380728 8.065133220865526
Au 8.933491187710466 8.326259474474677 12.770746026863009
Au 16.29607342647585 15.32914930772801 11.45847679940012
Au 11.337189571235118 11.165822061793904 12.906649082960671
Au 9.66428058817987 10.041226340517818 10.325360029342695
Au 8.31874440268643 7.570851033918011 10.106631865760729
Au 10.74583122648871 12.463218089396888 15.293698370685387
Au 13.936925010350667 15.006414803090086 10.136994271297713
Au 9.809520436260858 10.427267115420074 7.466294256288687
Au 13.695393381403822 12.706805998950882 8.601619457105285
Au 11.208373272946949 12.31585872717811 10.427882918210114
Au 8.825879832910827 11.931868468802094 12.105363973553157
Au 11.683102621032784 14.997031135947806 14.383485822147902
Au 13.69130657372974 11.961693036516651 11.723414722274892
Au 7.375362580783505 10.320955241271903 13.949209751978948
Au 11.608935544065005 12.475518543699112 6.818730584641596
Au 11.53111353299279 15.11112313671129 11.591948857384168
Au 6.953455437351812 9.740141519362204 11.325039003176563
Au 9.397931760435503 14.774435743779385 15.907566960627491
Au 7.410689950158294 11.655764382432793 6.855935320875319
Au 7.262616397752286 9.57962893679478 8.604078044658737
Au 11.542181619276349 14.53862034644031 8.842737784862894
Au 9.233200347939999 14.82829216373974 13.131649535831782
Au 9.131714613421916 14.341136942200567 10.45531009972988
Au 7.274810802007398 12.20401411705717 9.685510933729633
Au 7.862009159059659 12.917314536023552 14.593763065442761
Au 9.25588693552532 13.26481479869121 7.962932443729693
Au 6.838853989337363 13.779062022953676 11.983759971660582
