4
Energy = -6.8962834 eV
Au 6.314276786770831 6.788388730273893 6.121282022302255
Au 5.591432204148144 4.25028686826104 6.531305783434152
Au 7.482276362740373 5.242733102002937 7.978376499131161
Au 5.75106047569397 8.867572356091985 4.827491213657326
