4
Energy = -5.44667745 eV
Au 8.976660500637358 9.860738512137042 13.083243433910896
Au 10.589989403661217 10.989274959452134 14.644172189621187
Au 12.1774339658025 11.46054261555047 6.553501710751184
Au 11.33648118380944 10.781698225894587 8.821582783495836
