42
Energy = -111.26625416 eV
Au 15.521966516918125 7.913901639017389 13.619438913209759
Au 8.638463114004672 11.483418825379951 16.528913759658348
Au 10.95260549206925 10.184146369106763 15.818410094772062
Au 12.992285135668658 14.575347276484484 15.142257153269691
Au 15.520556367108997 10.636708905868327 14.117215452455088
Au 13.413119592280076 11.825153920941469 15.57740275965991
Au 13.142218643384203 9.188288658012585 14.542041290960151
Au 15.446898159158286 13.312660643944614 14.369057917790478
Au 15.040538719031836 15.89626452925185 13.657081185750377
Au 10.892139444763698 13.040232785929566 15.935312689295108
Au 15.461553354775054 7.037312075388717 11.029855507312803
Au 8.44580694223041 13.453770481321047 14.626563999384317
Au 10.372860929028931 15.50212389536469 14.56946314728633
Au 13.55320514651797 10.290433149226612 11.85538706703644
Au 10.705493425314211 8.764508330059078 13.093560882815481
Au 13.023137399309357 7.508656519667751 12.218638027679072
Au 8.77409487055037 10.601091542124985 13.925479479001341
Au 16.272991102229067 9.6739871299948 11.603920129973899
Au 12.538047558709614 16.997557050974724 13.84519769042422
Au 13.439308148718258 13.156625705780977 12.442040831519707
Au 11.514956898189887 11.42388072652959 13.419638569461085
Au 9.307861949134631 10.285333981780708 11.194020265415617
Au 7.826444687632067 12.438873728559189 12.111990441768402
Au 8.39216150986414 15.29960891990574 12.55395113910159
Au 11.354848047770448 8.643512448478061 10.32136281364163
Au 13.30539512753293 6.854273613679581 9.40774449088824
Au 10.7154413014259 13.804497541510312 12.432514487354444
Au 10.793758131147614 16.58671105554035 11.79518803415134
Au 11.655860328419207 11.983857501758253 10.647846577373684
Au 15.734212275368785 14.284577363409499 11.533291044320364
Au 13.568287065334196 16.147320913464938 11.335673478586019
Au 14.662919730432284 9.297605075006027 9.378849087035348
Au 13.744462749577613 13.976090996810852 9.513397119369776
Au 6.906592335152799 14.350316530357285 10.414665548508875
Au 15.331187287122102 11.876827417972088 10.287300100891352
Au 12.46209125213533 8.855374212861125 7.727497741282611
Au 8.736434145998317 12.46022696380014 9.438584167147722
Au 10.486262257491122 10.592557123231625 8.547637015743252
Au 9.415353886800597 15.14127287135681 9.83305841934515
Au 11.126957427848454 13.469612828045525 8.344005690872827
Au 11.89943720884 16.00057835673085 9.20901439818443
Au 13.223571945221305 11.49668800558201 8.34731900051256
