49
Energy = -131.6897348 eV
Au 15.70860774993152 12.365228103218499 17.06817908993107
Au 16.670388447916046 9.058143634212163 13.940728291463785
Au 16.162303673142947 13.5413475768396 12.442314726425245
Au 15.347525490577356 9.754691113438941 16.26259156045736
Au 15.547882739640638 14.258364654710268 15.129898184293642
Au 13.431549658550269 10.948059698653703 17.84152584658311
Au 16.12809504106425 10.802837611844302 11.903979268088847
Au 15.369296387200881 16.096026308054856 13.151650928921727
Au 13.16706793179021 13.423258282620402 16.725965552129693
Au 15.575132894345787 12.43167244679556 9.68556227569076
Au 14.537796906132185 7.551963373956739 14.815692518328106
Au 16.49512862815172 11.72683905894058 14.5077880455209
Au 13.752049398800015 12.354380598296018 11.73837602230234
Au 13.098121123449806 15.619939131427543 15.205546174832193
Au 14.164341504666268 17.518018022828333 11.05016268580859
Au 12.604152616151467 9.16508005950844 15.933835417631794
Au 14.608581539957456 8.434877054520387 12.190757475017072
Au 13.152417627800471 17.83233058159826 13.732993310766759
Au 14.936778905296292 15.005346367750667 10.40837498349795
Au 11.125362758213294 11.501412042356957 16.386710497506375
Au 14.58573349797094 9.753205253474315 9.777801332147178
Au 11.79739345473179 10.537012489049326 12.624022546392846
Au 13.003480786948609 19.836290533876966 11.874491013043942
Au 12.459140012646813 12.76220022892053 14.117614228660468
Au 12.878904834564777 15.052462063562425 12.36543757851973
Au 12.141951198123127 7.91500919371411 13.491297110967444
Au 10.736455393559904 16.222677976675364 13.774066886161933
Au 11.279951201848013 17.78389097881852 11.543765478648833
Au 12.295569246758912 8.361174404352013 10.710046503270336
Au 8.859692291579684 11.950774214583925 14.908133904434688
Au 12.334762209752023 15.93774670594701 9.65510420782499
Au 13.411013874072502 13.802509713759228 8.349793847563555
Au 10.572987371228008 14.137678733488569 15.599918420346675
Au 11.893030077616631 11.286842705451429 9.886754261458314
Au 12.37556585184765 9.275261954539147 8.02447330814829
Au 14.223241036612263 11.324013714053809 7.545119661796018
Au 10.146248349927363 9.438220882688885 14.772135226687517
Au 10.943007489137527 13.073052026767128 11.739219218755274
Au 8.869973631319107 14.248610775282328 13.332198289383687
Au 9.779606634454117 8.573707677255163 12.098085670258447
Au 9.816107485699744 15.596045703707134 11.056968208999413
Au 7.791407482702942 9.803630487988727 13.481666120406345
Au 10.589416068190955 13.961229469628284 8.905323115540284
Au 11.579198370095519 12.02470307796776 7.169143832776068
Au 10.001550324438082 9.138188967098731 9.408355891614413
Au 8.057301356517518 10.49537422924451 10.78674371324074
Au 7.0567407177775285 12.298973367376888 12.708953349520584
Au 8.415319277469761 13.262018491476946 10.561342203616235
Au 9.20390960769486 11.568967923443191 8.471822094168552
