51
Energy = -136.91913659 eV
Au 7.446617435043654 9.020297509927815 14.812100562455166
Au 6.528150092861238 10.782832984109957 12.932324749785185
Au 7.772897953674462 11.754802023596305 15.283860774131583
Au 8.414362258464118 8.77696715009098 12.256100662294308
Au 9.308699923348795 9.749317718406521 16.6587160178032
Au 7.812044235246129 10.862663675812247 10.485558783104349
Au 10.060872047956202 8.046088232263877 14.61477367625121
Au 6.924801374227453 13.50468520752386 12.661008420368214
Au 9.653600522808345 8.871357184951243 9.804613226126062
Au 9.157679262029406 11.963433413786875 12.726936454868431
Au 10.855459023644428 7.495972063595693 11.99463994602595
Au 9.436050277501819 16.162808586766094 9.699660149269572
Au 8.943113429250197 14.163038841440827 14.73547935044162
Au 8.641229066036164 13.533269717116164 10.314979862327611
Au 10.391381712854415 12.187917820754846 16.125908656617927
Au 11.995029498612654 9.851285501779877 16.145114066174802
Au 11.363897626463487 12.047158678127278 11.041618260649365
Au 11.14743655407928 10.221004373129873 13.293998021028072
Au 9.804088274238405 11.4772380763366 8.690441054754086
Au 12.814327020138537 8.036687366353839 14.139721199479826
Au 8.602960377388042 15.665191750976842 12.397293086543067
Au 12.025231807270789 7.418270985268689 9.323833870781787
Au 13.591297499016239 7.058437483299642 11.595776133811329
Au 11.152253787597282 9.373807008556533 7.499641335277849
Au 11.494544913927095 13.094112034334962 13.744716467693515
Au 10.759103039096646 17.500057248645735 11.730062211890305
Au 14.634546855689631 10.077371838256083 15.254835144602067
Au 15.38988384509216 8.372762794056053 13.239634208741975
Au 11.13688144225057 14.717393575013347 11.453504543545389
Au 12.30391557316979 11.932332433053228 7.527147912570878
Au 10.961521199562275 15.931394143988957 14.044800026621171
Au 13.812585935899746 9.553130813651547 8.3046283102607
Au 10.946601437864679 14.021602908100391 8.698411985736291
Au 15.353248103656412 9.030703383149667 10.548760026914731
Au 13.206335593671252 12.340815694252129 15.82100174379538
Au 12.513417885069257 9.567939426646296 10.905072145789802
Au 13.780522723495212 11.09806599730468 12.80302688845774
Au 13.950513249116407 11.847644516777294 10.042036099209088
Au 12.422694035917404 16.40738160956655 9.612853114558316
Au 13.6962770979937 13.783097937535496 11.97250239402433
Au 13.271498531507367 16.65779275620763 12.498394760405837
Au 16.578932602936906 10.755456288782945 12.513807056342968
Au 15.07186729645352 11.912146222268442 7.478748333961326
Au 15.00888269076828 15.736432944648627 10.371123342883584
Au 13.693353750096641 14.276197816287759 8.32387074965918
Au 13.51497302424041 14.827540191851996 14.680254631063743
Au 16.687947015890362 11.271423551197673 9.737737582215832
Au 15.528382600415508 12.779690420150375 14.204365709629174
Au 16.594313128524277 13.368077469020804 11.598844682594333
Au 16.391797754338903 13.892320194398708 8.883136430311312
Au 15.724193919503824 15.485470483579569 13.073841937358129
