6
Energy = -11.32929905 eV
Au 11.748692649330552 9.868747983019835 10.200111672927356
Au 12.409367392938702 8.193954510421465 8.219625230119492
Au 9.83717576458073 8.511508274358118 8.69574823181758
Au 9.207872848411148 10.501189728376822 10.493856654012507
Au 6.66267344378163 11.18227904807853 10.573023370230406
Au 7.2954693454877875 9.03151748867435 9.121250418222294
