6
Energy = -11.16922811 eV
Au 10.586039773952601 8.149635335986664 10.002628398090557
Au 8.126041140087429 9.054949725669632 10.31227585160332
Au 9.454465121989214 12.493862543113963 7.204602192162678
Au 9.384385126858339 10.149746049214897 8.124267727231848
Au 8.884595578786467 7.535828102956531 8.014305495418052
Au 9.689310198734793 8.72755241373272 12.454363645230977
