8
Energy = -17.01701768 eV
Au 9.927299787811474 8.263402005619744 7.073470527372925
Au 10.357974640762304 7.2618715771874 9.634078269720565
Au 9.76593294983506 11.005444170725582 7.048309817946271
Au 7.946138488172219 6.917350495550074 8.325786372140353
Au 5.910401023580421 8.332246770513256 9.48787118961512
Au 8.28864406505334 8.650251998137566 10.811971173515008
Au 7.748392601746421 9.733022043157582 8.194002885376761
Au 10.24066371296882 10.014828251257075 9.555880905343987
