19
Energy = -27.2416004 eV
Li 12.68919217632725 8.857852332523294 9.176899730068717
Li 10.928528301075382 10.356958202622902 7.352024012527986
Li 10.611895431698526 6.696152859564885 8.933332709483096
Li 13.59068667217054 10.42006929131422 11.69297998825494
Li 13.8687325078973 11.637436476656987 8.467115165002387
Li 11.700841154662879 7.810948052061424 11.67506140754934
Li 11.245624788080269 13.739496532537032 8.530384197362416
Li 11.598907390946888 11.378380899780275 9.836638302706811
Li 9.734518132573163 9.18650160143597 9.906581805763386
Li 12.21584406455605 12.333096028143958 13.639282033069385
Li 13.175098920839902 13.373353540954135 10.917007704645329
Li 8.867312838377757 12.009964207755964 9.02293868177182
Li 9.004862955917071 8.453054709938225 12.855932921984254
Li 10.767873273463785 10.455096206769987 12.233127550271966
Li 7.991252786138746 11.067429526065542 11.53978163788391
Li 10.124533644457381 13.165319655680925 11.491796235444019
Li 11.788438800979007 9.37101258549522 14.433220306442493
Li 9.242008745579003 11.60492349372679 14.17517436756104
Li 7.426867430794783 13.94821426618287 10.849847287998815
