18
Energy = -25.64425455 eV
Li 14.252820142778841 11.560106110853772 11.025124231755038
Li 13.706150106613523 8.862023683414705 12.512053790854457
Li 12.78960799965233 11.620068741913217 13.77778712615911
Li 13.228584462266532 9.075598435665304 9.44703629764175
Li 9.660494958732084 11.652724065264891 7.247750318458887
Li 12.260603262305917 11.876966579231732 8.758396534769506
Li 10.099916800454668 14.2867393455807 8.885209251784365
Li 11.021467442338531 7.620231040559869 11.268133242418939
Li 11.76199047288951 10.427086611605464 11.49334677313668
Li 10.243994759156683 9.276665704529057 9.012659065154681
Li 11.672155323073177 13.500455137130848 11.398042562451122
Li 10.840667819987972 9.21775699041559 13.921245724152701
Li 9.832791603851527 11.970170464295167 13.137905054164964
Li 8.818452921344182 9.67460710514512 11.682497454865285
Li 7.499046024678227 10.550684350594185 9.258690251834379
Li 9.864512654616645 11.848175810501107 10.047529000971023
Li 7.946295179745225 13.261679033718204 11.138556623963083
Li 8.192632208742774 7.383299028568764 9.947487395274289
