13
Energy = -16.94059518 eV
Li 10.640723939737489 12.220267065541462 9.787944875814217
Li 9.71901607458806 9.347191881159366 10.430134297026653
Li 8.605493246437895 11.745318214980987 11.858846533771683
Li 13.443309881713498 12.753117925060897 11.138808369625915
Li 15.798630434953168 13.028802322595741 12.835807419493785
Li 13.157809818764248 12.66112363050109 14.022799257471428
Li 11.371066397190077 10.894859098885341 12.160150943669553
Li 10.91759500992248 13.748061307845521 12.352862235994197
Li 12.78653258774275 10.034465755514177 9.96257247562929
Li 10.159372938376414 11.529321898611885 14.482916066323256
Li 14.239359875153273 10.33495377910592 12.738317622122665
Li 11.841371308955882 15.095153138732773 9.973319164769118
Li 13.72363364324523 15.241061607826445 12.446588706760153
