15
Energy = -20.48953325 eV
Li 12.68578181133436 9.89940239592169 10.628297726898762
Li 10.097784598782598 9.284250701938973 11.212580439867745
Li 10.567761053533683 10.468002354309615 8.89924938932709
Li 11.381328492043718 6.9796359404523285 10.736098605511515
Li 10.128537712505686 10.549734254710222 6.342592793104164
Li 12.285849531639158 8.754898518506442 7.762645617477594
Li 12.406353011025887 11.99318775692711 7.97854210903185
Li 10.764593780930458 8.289124517511263 13.535671369136107
Li 10.295149248905227 12.136142651414048 11.11652405899891
Li 9.368378706679584 8.073805421260491 8.70246435016416
Li 9.287569331139473 12.959807393291715 8.459430483364244
Li 8.319449283271519 10.566606612223703 12.982892190876925
Li 8.33542298619744 7.537815324315728 11.803157134662332
Li 7.964738362802474 10.655096444071367 10.032713693838463
Li 7.580199491455458 13.321387115391888 11.276037439987007
