24
Energy = -35.02075936 eV
Li 11.107142118957386 12.251080305421876 7.803033373641844
Li 13.77047978933719 10.499767300290646 7.780591671636821
Li 11.773291393938358 14.472856418204483 12.922049582353175
Li 13.433544847284374 13.070684445190732 10.096437719645001
Li 13.91344799830318 12.297871095576332 13.026368173845258
Li 7.4991682591691555 13.325522009873067 9.54445599132125
Li 9.406131852273623 11.405255969885596 9.951784218048546
Li 11.269576453809226 11.913015342753699 14.692888019462307
Li 14.72207346424967 10.371715300449186 10.78433436976021
Li 10.455732843961096 14.041272770653459 10.157289651725446
Li 12.144153564160451 10.623828496519314 9.859047335836122
Li 11.322358920147936 11.988031155449974 11.980957477043058
Li 12.385438655588878 9.542432669887148 12.68342728334355
Li 10.029798928408097 8.852785883774759 10.679050225634278
Li 12.685599998617818 7.908018646522332 9.983912672828186
Li 10.623620120349436 9.198263033288988 7.832916337576659
Li 8.117527924487934 11.104182204494816 7.546869720332794
Li 8.782203497577703 13.003945743753025 12.44275275651492
Li 7.007610021732459 10.503791360036308 10.793166492313025
Li 9.325718593093455 9.983120983257994 13.033145116552882
Li 9.87984167609481 6.3942291646307385 9.50227578859038
Li 7.780611970295621 8.487093155988976 8.780756935645504
Li 10.680209555109501 6.982435856052682 12.528257390541176
Li 7.765518290827679 7.5251791846240055 11.61528514316502
