25
Energy = -36.30292661 eV
Li 13.286953481144575 10.71887361467552 13.4005901059471
Li 10.392071902246172 11.004385661993743 14.473326622374634
Li 14.383181940029393 12.474840696339042 11.117320199938959
Li 11.513864503174 13.378380831829132 12.868052785877476
Li 8.13924971527327 12.958924009471028 13.528143690991673
Li 7.813379803768651 9.681464648184779 13.295266391755074
Li 10.976512485041372 8.821593472438131 12.305410188443076
Li 12.01546788705717 11.19701204984854 11.098610283316344
Li 8.838997177827867 6.678106142194179 12.158919283412342
Li 9.5235377596486 11.401989464525784 11.918725221612851
Li 11.807911015343596 13.775264905370433 9.854502128084983
Li 7.084251587323903 11.603708385441324 10.582087950384564
Li 13.591667185564326 9.007184114255997 10.559415184718603
Li 9.044525918514807 14.042277295962824 10.72718152088918
Li 12.854757586272065 11.34284186286786 8.406965724848899
Li 11.048880802634736 6.5896515049049915 9.925920313027735
Li 9.811157316850126 13.603814052018377 7.460034990442751
Li 10.957602351902997 9.224039123879846 9.199606433948315
Li 8.643494646185816 9.02868046387648 10.600379884104642
Li 12.842005103981014 8.190689220613859 7.5728609779372285
Li 8.043402726806764 6.695080664571557 9.199885840993396
Li 9.76058017999226 11.656184801607342 9.235926600489085
Li 10.608284655307537 10.468236836052883 6.587839093161338
Li 9.913669285438054 7.544292016223451 7.1158670867342355
Li 7.973571701840247 9.745088418058147 7.905107632929841
