29
Energy = -42.37720178 eV
Li 12.076231732873511 8.179564658627129 13.088852030646146
Li 14.433952516430086 7.521858418826089 14.794430289353022
Li 9.377136958946528 8.277374613647169 11.69612314297703
Li 12.819640969919963 10.36777520119988 14.883685734836222
Li 10.493328993877121 10.868166577578405 12.86762630423918
Li 6.7808249703732 8.645352034934197 10.30810420393585
Li 7.72792952997992 11.172225054463613 11.573297297731733
Li 11.604893240316448 7.338103024851486 10.003392574111032
Li 11.216547811091946 13.233813815275385 14.746011259217255
Li 9.043966254344433 13.63779238973624 12.81714837417207
Li 14.13025007018186 6.761836703813796 11.72540136343339
Li 8.897596138750618 7.873540496219242 8.451823638461345
Li 9.690258717402632 16.10915631610333 14.356715172612734
Li 12.299418641458471 9.934488588402388 10.723626716815184
Li 9.574428502391063 10.224633125122185 9.790166844088786
Li 7.248959386335218 10.762350417574917 8.340586899929031
Li 14.51143444741302 9.44726877469606 12.585136512914415
Li 14.28944844906533 8.723772664214517 9.279315778380022
Li 12.977407287892316 12.210536861584485 12.525970997223917
Li 8.22960054155303 13.440551378031572 9.725876334092442
Li 10.77219345343531 12.72383180539702 10.591186299185129
Li 11.588292977769587 9.35055317491753 7.816003020449114
Li 11.451275626344076 14.968477022424267 12.318814537062092
Li 9.973294238171988 12.203505249251831 7.664391187874542
Li 14.988182804011151 11.463842903205096 10.485266321345556
Li 12.772607872238696 11.93460821991544 8.648890258385403
Li 13.515192532101906 14.171438438548673 10.374129061554397
Li 9.042093936921164 16.02054825984525 11.248807984195194
Li 10.874483629038233 14.915037699470467 8.960634480266783
