22
Energy = -31.64830325 eV
Li 9.747899346377064 10.544597862385642 14.46115389283177
Li 13.79302187987944 12.074724710017446 11.806744186710016
Li 9.82296054875274 10.82116538819973 9.280368709593182
Li 11.636203733943455 8.179250298457253 9.974258868475934
Li 11.135522327075456 13.190541567622532 15.940257050364949
Li 11.422259880724132 8.057550160495706 13.352011951176749
Li 10.953271334485132 12.735953808925045 13.328950451096715
Li 13.888656684724218 9.165750515026927 11.820958535544504
Li 14.615799390214024 9.055603701802703 8.77222416121046
Li 12.839756295704126 10.87753275101691 14.377862457310629
Li 8.773195720890193 12.118730087191587 11.751364637888198
Li 12.338751378200554 9.785531233756723 7.021798579304589
Li 9.904474430969634 15.052737179171812 12.319717679092994
Li 11.30004383413086 10.35488674183848 11.962537416383626
Li 8.98233604927511 8.957370053644889 11.72630308656299
Li 8.506942602545003 13.500653543924708 14.569701855170395
Li 12.606703197506922 10.704941892067913 9.549694021053186
Li 14.444100635844288 12.295631333166076 8.618944655041298
Li 9.09477220485491 13.896143233748358 9.398547574697197
Li 12.885559429215643 14.545253386519228 13.460172006200933
Li 11.541949475797997 12.698246453589977 7.726293883628505
Li 11.598651135792299 13.261310625754758 10.570187617976496
