39
Energy = -59.68040215 eV
Li 9.837286956542256 8.184398251915844 7.565004465117729
Li 12.581096184209194 9.335373363655847 6.962137117144604
Li 10.23263210043163 11.359624954224081 6.947413933559209
Li 8.014544456276358 10.152233082495835 9.126038366907013
Li 12.294574815131606 7.597154929236767 9.536282170761982
Li 11.663004271410093 14.770815842620006 9.179868683183699
Li 13.027226722549266 11.94491838005708 8.430349536471264
Li 11.012128179171217 10.018780854463913 9.267970303765372
Li 9.5330975721159 7.861843098658303 10.693022284475003
Li 14.906722682198811 9.034467573047317 8.992365775099632
Li 9.372156397197976 12.649969521730963 9.373426554924015
Li 13.80571564789536 16.621891230002166 10.927671829120424
Li 14.072518442465485 13.658550709653511 10.763897716662022
Li 7.270194263359373 12.599904934601144 11.716761901233136
Li 10.809139450141325 17.401834432421463 11.047069775451082
Li 11.800266753356196 9.376861930100112 12.12287818407035
Li 9.157891530969422 14.935188347604608 10.956136473742133
Li 11.535404230503802 12.302366234425905 10.955171414311637
Li 16.083430271610084 11.850124219206146 9.366375044003
Li 9.286479446896939 10.548423519546207 11.738787877667598
Li 14.006718051881016 10.624615331541374 10.936292934780695
Li 16.563874701609784 9.575738025053138 11.510586993474009
Li 11.804074843860123 15.05056543650892 12.119626632102268
Li 9.622637844547224 8.237817613068245 13.82811677797231
Li 14.133232359270194 7.771206654291461 12.055637504808828
Li 9.823768609516563 13.053693585531924 13.114015175731966
Li 15.90274786151625 12.368256580332222 12.55976626512412
Li 12.395174234465898 17.233127813354816 13.721364618636501
Li 14.452199634129313 14.907387263414247 13.521163783760494
Li 8.026531969564099 10.754342651100146 14.366991215161837
Li 10.90801090779857 10.745715604322339 14.379696350935482
Li 9.520898385892565 15.86424168686779 13.791730500346947
Li 12.957017281909005 12.396622240516791 13.2757608418292
Li 12.396743899551966 8.396926779605565 15.026203617406452
Li 14.44193363538609 10.133717306788952 13.861068018781728
Li 9.64171821207828 12.71004664334292 16.01697860862023
Li 10.011908291407163 9.616828502007522 16.685101321233745
Li 11.90461930891186 14.340640879713792 14.983389667337537
Li 12.81199832940812 11.519016946446 16.19017904496933
