33
Energy = -49.31120757 eV
Li 8.552547968480308 11.840097913947286 7.73884050057355
Li 7.162448839870291 10.61271254160545 10.515961118122123
Li 11.11507188824267 12.507425998972261 5.654459924523531
Li 8.592892923420525 7.981149500534251 11.330857299435255
Li 9.999388244042454 10.249763320992232 9.863365923464505
Li 6.770748094062767 9.394106988435242 13.599593398481804
Li 10.965718059314755 10.034813420638642 7.258126372586945
Li 11.360728648183928 8.82190277220836 11.918276316546864
Li 12.7042057582969 8.441743026657983 9.268049926181568
Li 11.241031627426699 12.695324795678406 8.473939196905134
Li 9.147684670905358 12.87895316251158 10.663397653500324
Li 7.072131555790955 12.428835946964906 13.067303013991463
Li 9.06176313888046 10.529193099406994 12.694135659744816
Li 11.601721903794134 11.73060021469728 11.87842364940621
Li 9.555534361753491 8.354936024405772 14.33973873036454
Li 13.66234011690708 11.192915585918954 7.1419527609352995
Li 12.924998951941257 11.007802051994508 9.791233772500544
Li 15.620943310725297 10.429265118011717 9.741904044501885
Li 8.801831499534988 11.191608318263643 15.423934828095483
Li 14.041789789005023 9.738592270615687 12.42274626795939
Li 11.673490596243738 10.697029184660739 14.409201356967204
Li 14.235294014201141 13.525032023356422 9.216122433907024
Li 11.889829558479681 14.312880502819304 11.046450295544654
Li 10.01169870027821 13.307052497001601 13.57980894682969
Li 14.686761691189284 12.346497154330383 11.776558311244534
Li 13.036408254921367 13.512565740813747 13.62260489154504
Li 16.85297317317994 10.689339117254686 12.811556413514243
Li 11.711010868523227 13.255367847247454 16.047807504474175
Li 14.615587653965433 11.596448503383966 14.845927761005775
Li 14.374950818692623 15.516817786113522 12.262345336581713
Li 11.709600750582895 15.875164944537055 13.900734889176082
Li 16.3221099090442 13.641687701508559 13.65091422594673
Li 14.275044852008708 15.059496450127057 15.448652690470723
