38
Energy = -58.38870804 eV
Li 11.595089831819083 9.09480441943955 6.955544917396458
Li 13.993861660903448 9.696052128548379 8.785221892644202
Li 9.299536696033583 11.239291957382136 7.157564577526028
Li 12.42529287292149 12.105902689789673 7.645564112114455
Li 13.952298373671818 12.278876704132456 9.959514686581958
Li 9.070283445532082 8.282918995661174 8.56790384259334
Li 11.837086200083977 7.4584874867234925 9.818673637078103
Li 9.456375159811943 12.681482066640722 9.607790596212032
Li 16.101485087001336 11.945564535092085 8.367358366823543
Li 14.571494268047802 14.639095386324307 8.758028290988008
Li 12.92249868254585 9.611513563499633 11.393221466512534
Li 10.919667501856615 10.239762278135501 9.321441158409986
Li 7.734079730354703 10.507069801115648 10.243334262247785
Li 11.474993968073285 14.530328540551476 9.069900772342516
Li 8.377513700736856 15.199662346321528 8.9408056635673
Li 15.963132395587271 13.563021960890225 11.524277072420034
Li 15.836415436201092 10.442547227309104 11.327404603631908
Li 9.830477807749451 8.884497965917689 11.54805838977263
Li 11.938407365717634 7.403457740210426 13.188875401122273
Li 9.357260880486958 11.588456867791708 12.42758037722421
Li 14.36242100915886 9.282227625173537 14.028195531377245
Li 11.648106083830028 12.155177598242576 11.195877715482103
Li 9.86776090335069 14.70513709996875 11.55271033569117
Li 7.078719728623185 10.783548480395611 13.41716311797802
Li 13.054372212031536 14.69234836053768 11.551784617418045
Li 11.580032916060425 10.193574836903398 13.694048281781539
Li 7.219664015985866 13.363870389691389 11.393946575553308
Li 13.947411374964943 11.933048714932948 12.866694778537124
Li 8.686129368557324 13.88911514177781 14.20208821530545
Li 9.268179955422852 8.637343318583335 14.363288480608455
Li 16.23651404539599 11.856894300622395 14.309426807860383
Li 11.447114582866288 13.231998450113492 13.690403787599763
Li 11.848523923351724 8.822132367805917 16.11731785821758
Li 9.840488216835443 11.360419711833554 15.53739852275128
Li 13.153711190497205 11.632144498218167 15.635697224934814
Li 11.282419627503188 16.01848823000244 13.818467682370287
Li 11.216004933198036 14.062310349265642 16.246233192392964
Li 14.103825045085834 14.340211617641012 14.338268825881212
