34
Energy = -51.99116009 eV
Li 15.660940900850116 11.828787974431904 7.410662894121501
Li 12.626153564653974 10.62083698965162 7.049857050271353
Li 13.240789165467055 13.222897223663617 8.573953714091973
Li 10.685079613447627 13.922427778492315 10.317999616611987
Li 10.197205176363102 12.645512677961355 7.521858338183626
Li 14.264343321058396 10.579415986541475 9.556262365933057
Li 8.47334725205605 13.84236594222372 12.56681876127496
Li 9.417816983746883 9.63620047654598 8.052491166858227
Li 15.614133946109304 13.146891237576419 10.427525285240552
Li 13.224994807655225 15.309322811467354 11.096074478212099
Li 11.26290301941427 11.165408079486046 9.547769178625257
Li 8.387494781776974 11.853844361578226 10.008625742846618
Li 10.318915146984427 16.369752616501955 12.059856335481628
Li 11.990400335092263 8.366517557598666 9.229162983638068
Li 9.574538276518096 9.209701039010314 11.039861883781917
Li 6.989003330674993 8.994180784806277 10.167278744356537
Li 13.040687026290383 12.55524041126848 11.469278508742887
Li 7.704847747004037 10.609407283981593 12.889909778272427
Li 9.193813087785285 6.904876279295462 9.740611229073359
Li 11.365186187072934 14.075301945856573 13.31024890472304
Li 12.448739475812737 9.703231963946802 11.792550811396412
Li 9.714592054200473 15.443599931791496 15.018360825829
Li 10.297464307447862 11.673658914785022 12.27512194745129
Li 12.6135105288491 16.264953336229233 14.11516900537165
Li 8.19260374252785 7.438443162806304 12.618896219475793
Li 11.39668101192393 7.06764822864691 12.02463227439674
Li 14.467898516469003 13.717621191157177 13.555309760163178
Li 9.652064295870247 12.28153356052214 15.026097622656124
Li 10.359729948095392 9.292813129101303 13.97766577490813
Li 15.11052880226483 10.766122094420421 12.498828138492385
Li 12.24612394494073 13.845499597136948 15.975653385483326
Li 14.415222031715297 7.85024339826693 11.088392917335314
Li 12.586356311640266 11.446267879410154 14.216888869709551
Li 13.464869333115308 8.470389081384992 14.010537525522432
