36
Energy = -55.5345513 eV
Li 14.907366755307713 8.923473562947853 14.330993014300887
Li 15.276015665046872 10.592820302484187 11.75099644012138
Li 14.993194004512151 12.152333303815425 14.475500451348346
Li 14.496108254247835 9.432333533779087 8.930276444536732
Li 11.943005964003763 8.080071157796214 14.259060641016964
Li 13.641713124651073 13.123374488453502 12.161051141246732
Li 12.672665540355503 10.431583696562504 16.203772544406142
Li 16.314551811836807 13.562010450906502 11.895663343733341
Li 14.361134879748105 15.265085865998563 13.692929708924044
Li 12.81961663647191 10.578392912699812 13.465098045923455
Li 12.64245357370105 10.822813658692873 10.571641033467843
Li 13.25104041051435 8.20519770605271 11.617028232651931
Li 10.119801560060873 11.088646392647934 14.615549768712444
Li 11.843350735693777 13.562358946817866 9.75407595122417
Li 14.651130125028176 12.525143003925693 9.369708347301668
Li 9.062462539860984 8.459098008910413 14.59013442526478
Li 12.097293028597916 13.30596759073545 14.725553248583882
Li 13.933527842181705 15.397893641175818 10.437366649398072
Li 10.339206565435498 9.503188762019848 12.044221459273873
Li 11.443564502113027 15.224118719740385 12.280895521387086
Li 10.022185771497897 6.900495487518882 11.78972908843644
Li 12.946160966460281 14.382277230000831 7.396371516055173
Li 7.220064410252014 11.04446274139425 14.660571087450368
Li 12.273259470351972 11.32294608337114 7.735714018973055
Li 10.987939429289947 16.087755137256156 9.186459352753396
Li 9.93784098090999 11.28439566084285 9.606241196583282
Li 10.870598022139896 12.427094311339628 12.193819749888528
Li 11.380735829345406 8.663856805538838 9.114673387960588
Li 8.956642284031709 13.768621831111682 13.872957842525452
Li 7.3817919527710005 8.886135569120098 12.340857658765339
Li 9.893701603798961 13.399736227220984 7.676948372362532
Li 9.444953265425374 10.26144758413517 7.037060313994342
Li 8.49026230999096 8.936836301400149 9.642231924419264
Li 8.144163265102325 11.582873175684545 11.965328973501054
Li 9.014097001122808 14.071752847028595 10.598695734954275
Li 7.296403519207638 11.761832368442676 9.017324735953688
