4
Energy = -2.51667108 eV
Li 12.96043093856192 12.330160309400226 8.090986884833042
Li 8.58732284651452 10.237335284450046 11.219540212603404
Li 7.38645073493124 6.898169207457597 10.246159891750931
Li 11.816651442386833 11.285190044633788 11.1941646301337
