4
Energy = -1.67736091 eV
Li 9.787217490827375 11.30192478049229 11.386931086325257
Li 12.901180150200636 10.783148334280591 11.070234108122543
Li 8.266417511281205 10.353112449031677 8.809624296022438
Li 8.50367365793955 7.0288927408860555 8.124141354956778
