48
Energy = -74.59699699 eV
Li 14.180305098189407 11.496463554914206 6.460714777734968
Li 12.151419335818376 13.996341918860114 7.172640889234195
Li 11.731230895499626 10.937818585736556 8.382207463161157
Li 15.135665675732234 14.329211277712039 6.946671505556016
Li 14.434467874404254 9.62930173264682 8.941878865056998
Li 12.316007563383328 9.167695324695867 11.02409108540372
Li 10.221299533767214 13.235631903008738 9.432405719737204
Li 16.551713892395576 12.012464804186651 8.786736587083814
Li 13.885762098552895 12.625121694858779 8.964005881636355
Li 13.500694416064881 16.691590298812113 8.39383944858807
Li 10.339701726283954 16.187730568211744 8.481449826557045
Li 10.858825116027223 10.350635516139484 13.360743674587992
Li 14.887970063299106 8.001619623371152 11.810194523897366
Li 16.769572929255045 9.88500691042199 13.523127743777524
Li 9.563781800248071 10.450266928774715 10.661584222315437
Li 9.630713616363648 8.642373011206 15.311114873780795
Li 15.605949662619615 14.778871406646742 9.750646541235124
Li 13.779122699990083 10.025886698204758 13.586653948938512
Li 12.201831843347344 11.965047214275861 11.235593607192381
Li 12.37316648211734 14.89660640756359 10.044167429613259
Li 9.793062934674715 12.840940409566233 12.454650368440126
Li 15.151487044444321 11.078707719887909 11.299933476973694
Li 7.530912417136376 12.846044873979045 10.680442511544737
Li 12.134957996969066 7.719842537251437 13.826805707112655
Li 9.352888668270655 11.616585927436226 15.425846889156633
Li 12.496815278541654 7.958292752266083 16.998218421130765
Li 14.25030176897371 13.677628406803466 11.914242067618387
Li 12.11326881861334 10.415442606873738 16.02911802375301
Li 17.05675299313918 13.253874275661186 11.97607114145457
Li 14.862970530524679 7.708146021462788 14.887462188605353
Li 9.422390367893241 15.407908105285552 11.436571388652133
Li 15.346451818039723 12.305177070211315 14.232958916752247
Li 7.500105752871722 13.9102299506797 13.54813254576461
Li 7.831481364090081 10.71717367795073 13.100054186321046
Li 12.082373376275111 15.351774683504475 12.931300167701304
Li 10.207881804104762 9.944620334159573 18.004725399073696
Li 14.469230427227131 16.69968412930263 11.544352912559615
Li 11.64395050298745 17.595148320707814 11.037658006633567
Li 12.480719405323484 12.762311692396747 14.334996694061397
Li 14.949163251771639 10.187372819788576 16.33530250902186
Li 14.941434012661286 15.232129080176394 14.206206477205646
Li 13.114023806790385 10.661194811456145 18.701281030079222
Li 10.092330231076042 14.344308188111098 14.85244365708664
Li 13.031030294013801 17.874203618920706 13.906195265885218
Li 10.106044250184832 17.09531187037705 13.875225435281358
Li 14.135679066840746 13.069994436401997 16.793047810497868
Li 11.323141581788404 12.860815219726922 17.35393133493119
Li 12.500500679239808 15.542418794826999 15.884178086453918
