44
Energy = -68.14784305 eV
Li 14.842181766848272 14.793501055289697 14.858744100167419
Li 11.816555270201729 9.523309438340743 16.048871551276903
Li 14.408442152723827 12.327089223147416 13.013382671808133
Li 14.425486959028468 9.914996918158726 14.753425791013878
Li 16.610403057977372 12.141334486964304 14.578110488706256
Li 13.458372220596551 12.317052338086139 15.937676670500359
Li 16.95698228631901 8.990248041358559 13.847848518304685
Li 11.900209934058198 14.786552879525875 16.66899551082402
Li 12.081189598020323 16.996826444288914 14.56109050693561
Li 10.41719635943169 12.236651640306363 15.473941350761692
Li 11.906125814665204 8.242977782761047 13.202564462076259
Li 16.482141873051958 10.878790678034164 11.603022250113106
Li 12.316060240528465 14.156054275832393 13.90413182557502
Li 14.606163402863746 6.943505943676968 14.0551609211619
Li 9.655268106553189 15.01787601044882 14.452588796891346
Li 14.434564355279399 8.997725965203534 12.180800805589094
Li 11.951109321802337 11.00938668283562 13.534714788819455
Li 16.08009290623786 14.084791577735158 11.816132087133155
Li 9.331840837557502 17.903459121695526 13.311471446069284
Li 11.964171087293314 18.742556894025807 11.950827849229029
Li 16.434510189969522 7.317878096711386 11.412340642903505
Li 9.24850874941123 9.55655592107588 14.196453547820472
Li 13.39861570398955 6.523889309758902 11.143348945782034
Li 13.949424180167373 16.30416654304925 12.352729949584392
Li 13.030916296504271 11.119762879085279 10.8545045133933
Li 10.459503102322556 13.175199059412227 12.039340940952668
Li 11.01903089082644 16.16590914883057 11.979518481135324
Li 14.903292153228584 9.113250266809597 9.420988155350585
Li 9.545412901253396 7.525505106155202 11.51393746619583
Li 15.00739599974625 12.31747074490898 9.381672448979028
Li 7.2724214252248265 9.699232729790358 11.689379785430068
Li 12.981665872249334 14.023071209878916 10.909146109207006
Li 9.925524413350503 10.355449364783828 11.580651382132654
Li 9.573967550194023 17.749325102569298 10.206999649933929
Li 8.125974125807637 12.267468347789812 13.346062129712593
Li 8.259091832077518 15.25268405451213 11.767868542847046
Li 12.583994405248568 16.695976618778783 9.582384870826138
Li 12.758871434437685 13.833341504772282 8.035420467842952
Li 11.872958244483648 8.785055261040089 10.10081600618669
Li 12.821886850209028 10.672433685515385 7.821208335290714
Li 10.223992024533565 14.803371809898886 9.506424053589026
Li 9.150920294540938 9.590130483722657 9.007220382014765
Li 8.143644423231924 12.392862405870233 10.287807325656777
Li 10.902513676645166 11.969407005547632 9.357770972695308
