4
Energy = -3.81058627 eV
Li 6.509714770537174 10.207457070195002 8.99920511028686
Li 10.255482322647365 6.56741229214059 7.783550309603345
Li 8.573349703323487 8.982777125480792 7.208118109972658
Li 8.237913361985765 7.827645705474478 9.61102106196889
