46
Energy = -71.09164666 eV
Li 12.931821357563347 11.469662822859153 8.912013856301044
Li 9.639690222180734 11.18500043830173 8.497651051547972
Li 15.019839925425545 8.663450903854814 8.26162627009614
Li 11.10872367117043 13.821655721395697 8.741806085098236
Li 12.861278670982326 6.503569353984846 9.166644229425598
Li 15.311683283700303 6.794438412579385 10.889838640887962
Li 11.894022475004977 9.027171248462043 7.845357472329477
Li 15.83245131709382 11.645086545889368 8.916399402009741
Li 16.40923106872341 9.685391897887525 10.966789111934872
Li 14.209904038780829 14.041362961307904 9.645971838322767
Li 11.875665552250219 13.378663956322782 11.515692545279073
Li 7.999407264259192 14.086711119011518 8.594970123050631
Li 8.09089829571901 10.192251833937885 11.07277555890296
Li 12.410905243060386 7.127295732074419 12.176838601672417
Li 13.472451802511642 8.957673217215403 10.4359802352865
Li 14.237913311977072 11.59679297253133 11.586684913775597
Li 9.053942061541614 12.928716575732125 10.830818714889906
Li 12.906826558168412 16.483646177742745 10.546174743061659
Li 10.249404590818264 8.054048698811647 10.12825398192716
Li 14.86386398242918 8.637182287876495 13.320720703669897
Li 11.076635906496794 10.564675020016882 10.88667507444612
Li 16.172576990120515 16.08255909331015 10.967269386300275
Li 16.634075949421327 13.07359882383121 11.506512023148563
Li 9.896666825683058 15.6997918823728 10.714730167830474
Li 14.316245810644146 14.661562783521184 12.434811751878446
Li 9.976885382402752 8.687673329221003 13.224809005602486
Li 16.629933792879797 11.062269639232634 13.70094571514988
Li 9.7806927263954 11.531956388926394 13.199818377989308
Li 7.133343132561279 15.136475959325878 11.69323664988142
Li 9.287339421408985 14.393270098772923 13.333837141501997
Li 12.4534273313937 7.82514506177627 15.168498677700596
Li 16.541844766640597 14.826796632508378 14.036937165094981
Li 14.062111728113946 10.344980476571454 15.899742522227143
Li 14.499589447096056 17.295502576286278 13.246362447008712
Li 9.081604189565814 17.212730785346867 13.321651499197388
Li 11.771224326266402 13.107733559209668 14.34814922576465
Li 12.524791369784229 10.114176763456864 13.354888475655445
Li 11.771459505289045 15.886657972627733 13.130198988739687
Li 14.420905357869296 12.639498010960349 14.31811385372069
Li 7.097726595261581 12.5103922445093 13.299283168485344
Li 11.033575879308227 10.454936182800482 15.722130426852328
Li 13.686064959255665 15.24526173166356 15.376887048200203
Li 7.278967088773353 15.267535901928818 14.909042892933302
Li 9.084853374590022 12.824356360057353 15.813029427755339
Li 10.506212951747168 15.46811021087198 15.789704330276916
Li 12.434972711539377 12.93818116780701 16.98445977165778
