45
Energy = -69.83438552 eV
Li 16.885437840214657 13.088301401044014 10.675427449103132
Li 17.719164023554836 10.208781751646995 11.866689994261625
Li 16.159752720678462 9.469908765325483 14.449965856375595
Li 14.904105379401125 15.57498605784086 9.275957224076388
Li 16.425411398802567 12.544865102220575 13.744649842897376
Li 15.164225578583107 15.199887124055772 12.287666171235022
Li 15.332307144145815 8.095244111497259 11.53008580019996
Li 13.154733289413599 17.534915669237314 11.24906278279511
Li 15.992824785690138 10.43583891861196 9.344473197735864
Li 14.47862721746115 14.135889796673036 15.407221590436345
Li 12.345933750851216 15.64345825255971 13.603849416690089
Li 15.890766162781452 13.104475489432055 7.607237244537457
Li 12.45131863117399 14.970429641415196 10.66636241442164
Li 16.012207273619456 11.789514054004206 16.78690165971326
Li 14.325315763231652 12.746310817566993 9.905218413105816
Li 15.008951044830134 10.734511552202562 12.175142918097782
Li 13.186668647675818 8.618145595993921 13.789513367187928
Li 12.95008904186938 12.315968640806924 17.5620269511421
Li 13.951023184820881 11.318468100560615 15.004463631254099
Li 12.7441155995937 14.030422344017047 7.865051567563257
Li 13.534648732601035 13.086750500557537 12.607047895124845
Li 13.135921925307676 9.856428609191882 10.369365579192262
Li 13.3133392814707 11.067194939630154 7.69310950768979
Li 11.598410916641285 16.701131400504472 8.754465130991061
Li 10.067235383160986 16.326968634750227 11.717203334905975
Li 11.893345298007175 10.83099501825496 12.935434233108278
Li 11.190737876446466 8.155496719369788 11.457005908003078
Li 11.210862028262687 10.241253829811834 15.909392899426019
Li 11.544394785946569 12.144498606153658 9.957313564195774
Li 11.706129955772942 13.109216163790261 15.06229319102461
Li 9.505109399831174 8.89578182581032 13.780550795850894
Li 10.416993476545994 9.663753893726312 8.924553982622133
Li 8.011233010356998 11.56421926327744 9.547144826385614
Li 10.318621733077094 12.219799916397545 7.416253052324455
Li 9.244329375249228 11.785294981829054 14.328765615104626
Li 10.600869681198946 13.48069124654953 12.370346311376618
Li 9.561597243178735 12.626634352133253 17.01852106770724
Li 9.548895541436524 10.757002577771607 11.554192102056183
Li 7.90016584059027 10.129495873868434 16.142238883145804
Li 8.10870648852114 8.548766057573896 10.788459599493923
Li 9.724097892750073 14.243573956249293 9.561631122231454
Li 9.281712783657595 14.848376884761294 14.567521906033448
Li 7.006135951624289 10.600726838911845 12.995947945824621
Li 7.858372994231703 13.515924050140503 12.183200640340006
Li 6.944767402141535 12.908229836553183 15.208424912783652
