4
Energy = -3.66047953 eV
Li 9.237467877368609 6.977595907985097 7.077002676231733
Li 8.068919972965675 9.584053561475224 8.645939911292027
Li 6.746725315261143 8.220950440138227 6.557642830955318
Li 7.623343333273048 6.893856589270151 9.395871080389735
