42
Energy = -64.69301624 eV
Li 15.933438726579295 12.974646595662549 11.403425893776753
Li 16.02756091499868 10.25672569234386 9.219225846153746
Li 15.0541761421044 7.635269183662372 10.764145141897922
Li 14.368180073045394 10.471617619254616 11.688096496370198
Li 14.425203345587649 11.983678536033157 14.172468829893276
Li 14.430072765251506 8.733420538760672 14.07221182224606
Li 14.679767388836465 7.784134378320606 7.588498253810647
Li 15.043916145337246 15.203808369818788 13.41782882708969
Li 13.948259446963233 12.400131105578046 9.398289392172174
Li 13.979823727471862 15.558903639540342 10.478752882751188
Li 12.328081125862859 6.6527100557933965 9.248454879636757
Li 12.361367237855957 8.109007000866267 11.857720453396885
Li 14.004749831073754 10.739664147920037 6.756998864681932
Li 13.27384888715536 9.358926345455492 9.278929454462908
Li 12.655799446513228 10.591215679255349 16.243010321383057
Li 13.173260497719664 13.502470989945877 12.181610804655351
Li 12.9631997583805 14.251046015559991 15.572831607989649
Li 12.006165991817587 10.07403773066964 13.625810902516838
Li 11.626185515729272 7.728286737193413 15.085974629694464
Li 12.109401580798583 15.910562361792993 12.988927058496703
Li 11.659702241760847 8.680856859456696 7.0263645814956055
Li 10.485880614816844 12.754992417259457 16.89317575035036
Li 11.509989404845214 11.339670853165366 8.178883196870043
Li 9.658047706472384 10.109626887888055 15.333381252964555
Li 10.052351006147857 13.902417756474065 12.02433838125409
Li 9.464006886072545 8.250581043098085 12.819700454554143
Li 11.532864806530561 13.982711587028923 9.600937960253008
Li 8.290916090069368 15.839653403711221 12.543397485271466
Li 11.74478830936271 11.352361981201689 11.148866003692834
Li 10.369363578965759 9.128970999864297 9.87914843041188
Li 10.717593916015637 16.543814017538832 10.487062347271998
Li 10.074788635264659 15.194319370631877 15.013928031717725
Li 11.26312040236053 12.627360504814199 14.245138674658
Li 10.016319764730543 13.556179307140443 7.1222387310544315
Li 8.359681370268513 12.87269929906488 14.517716760739926
Li 8.868016013877888 10.44233453262888 7.423075514168106
Li 6.9835476016045055 10.068192165630412 13.680833334237349
Li 8.458052212550326 14.77017883773895 9.585664709698367
Li 7.5380530445246885 9.834024065638632 10.605198835103499
Li 9.263419042651387 12.077411934607872 9.683381765266404
Li 7.200318984902036 12.824073182327044 11.747458927441842
Li 9.324771098873684 11.001293787357104 12.484339732703774
