50
Energy = -78.46450719 eV
Li 16.966530410252815 13.05947520773811 13.914807841082984
Li 14.815631339795882 12.060457373471714 15.956012595914505
Li 15.556300701262153 14.73138376360796 11.745417849238734
Li 14.024843998033 14.58802547850195 14.309115030757217
Li 16.850342889394227 14.550227583608907 9.029667215094392
Li 16.16013302164734 9.996433545566816 14.073913524700775
Li 16.762142684991744 11.748013778958759 11.032999646835723
Li 9.527946432267845 12.552637189956785 16.184677165764786
Li 12.053752605178945 10.884512754587618 17.20737799601648
Li 14.642152811678164 9.06548165120899 16.935484519136967
Li 14.727894913245816 12.862908365245554 9.455349990899945
Li 10.984486800107025 15.465127890687238 15.562611660118142
Li 14.55987542832669 12.10925480390758 12.891373536786089
Li 13.789133000716753 15.801852850079701 9.484593141302124
Li 13.263828603214293 10.002943096676546 14.748526532972724
Li 9.217794580208855 9.476859960951376 17.238047869144197
Li 12.530593819577206 16.443013689758857 12.581862907962961
Li 12.084420309454975 12.71997236327962 14.906830900223504
Li 7.288894934140831 10.616890954148705 15.100008270009297
Li 8.005391531765252 14.414086937386264 14.47751167417216
Li 16.504726447051915 11.91436731581864 7.568376946253338
Li 14.055220737536853 9.460093368053572 11.918565269834776
Li 14.219164391381168 7.419725785621829 14.242911254206671
Li 9.434719122290124 16.78473967743718 13.057463931321054
Li 11.727666939052941 8.002300035224192 16.05175353418793
Li 10.497514548531496 14.263243388411883 13.113024524389642
Li 11.733899359196016 11.38034193842601 12.650551769694532
Li 12.790653725428568 13.85001998010426 11.448920397923306
Li 10.210343969583292 10.248024323951046 14.764982341639342
Li 10.748186729055002 15.705462089588323 10.217724042542041
Li 15.100306543750678 9.751527515540147 9.225344733810541
Li 12.672826780754932 11.138438429375803 10.07545877708497
Li 8.926028469324901 7.888766502373905 14.465725503068567
Li 11.59487686657175 8.365378023307974 12.94932441850463
Li 12.034251282787473 13.631382018940482 8.44289879766037
Li 8.765086531906803 11.937618005687387 12.913557051628866
Li 11.628922921017997 16.012933931110894 7.15317454757686
Li 10.252114046951485 12.746352868294865 10.557622653679312
Li 14.322055472495405 14.217187764028669 6.857820757782738
Li 10.01877654365199 9.821821219166768 11.060441034391937
Li 8.109986263087732 14.455155421148772 11.278036896353228
Li 9.238059142469956 13.980440516587924 8.056726030496232
Li 13.390746182630593 11.25179487453576 7.214670771313573
Li 9.588722643190108 6.946041540515948 11.364672000393186
Li 11.963838956683684 8.42354680945756 9.583719763662158
Li 7.611371788005649 9.248936405609811 12.132740785322078
Li 11.392508195551851 13.215938990878513 5.819734426126908
Li 10.437826009198677 11.044466012546742 8.133863462032481
Li 7.826133702895319 11.544412843688502 9.909732395496084
Li 8.637021129222013 8.62905907314303 9.008736257930117
