55
Energy = -86.04585186 eV
Li 13.681500395673556 14.295995071770351 14.104044280841375
Li 8.629184107647077 9.972783605425743 12.768134717146225
Li 15.168791038122981 10.8728314676378 16.11649554060438
Li 9.16802590173407 12.245039678713864 15.173109168921266
Li 12.200465814152212 13.166598593644045 11.920325343235998
Li 15.047934769165645 13.712003672916758 16.260185824959997
Li 14.312930672342615 18.473564692058744 13.385939763070931
Li 13.345089217279094 16.112833343789855 12.144783043876005
Li 17.07739502846768 18.22634504951845 15.01140588741861
Li 14.259759367062872 11.647271888002683 13.344993014676433
Li 13.72566634022185 9.369989197255729 11.706978066846963
Li 12.374203638602333 14.730282438047155 16.964559458770914
Li 10.384601425526624 9.578092769350507 15.695073491290062
Li 15.242950205190699 13.758632875974959 11.49856284319481
Li 10.740117419574478 12.009251893414385 17.900030021274656
Li 13.251484561377762 9.13179883620172 14.651678173384877
Li 16.130765248901398 11.053348436362972 10.888471946336669
Li 17.85425002065203 10.382519831214864 16.155653112098292
Li 10.899949160014918 14.238777884344225 14.219806880878673
Li 8.3490739618032 14.515049865776831 9.773565578434212
Li 15.606964484237931 8.121525058839978 16.35547601541486
Li 11.982686112595779 16.827441873186746 14.647301940117258
Li 8.371398886602751 11.214801074341397 9.643819138341028
Li 14.751060961232625 16.602458857082922 15.698787557414011
Li 11.30736902807454 10.98916246089993 13.436431857022745
Li 10.71000897593451 12.878862830798912 9.529203914767685
Li 17.440964762301466 15.28663573096715 16.040268334133643
Li 16.818284343884656 12.74412809560281 14.141138717221493
Li 15.47259806965925 12.99953220788455 8.446816269569995
Li 9.406013140928085 12.867682496405322 7.1401968206125765
Li 16.181807600027238 15.893543164482912 13.383892153910047
Li 12.646988270748786 17.447919131440404 9.585002047223739
Li 10.957683415979984 15.407616672764135 8.071213765793022
Li 16.23993347197522 9.561555791760007 13.643079521648831
Li 9.267891958096579 17.44440218256564 9.983430637923114
Li 11.028743728897592 10.301727840423537 8.039576541707984
Li 10.800954313993486 15.484089486540483 11.13213246054251
Li 12.181119538068426 8.02877708461312 9.645879410514743
Li 13.919382836400867 15.664950501917048 7.0931766808279
Li 11.196743604713019 18.166482916802764 12.19456919294583
Li 9.202113642046207 8.243361312433704 10.037079432936048
Li 12.641755382982177 12.838937255372706 7.315020500667893
Li 10.877011796630521 10.267226437585348 10.853084768665637
Li 13.245893710973238 14.599296392237555 9.583802448038995
Li 14.430463005356478 9.910908461865112 8.317510999936696
Li 11.021275644552286 8.063237076696911 12.673807954236075
Li 13.385945824475506 11.623947959902617 10.039641354003662
Li 16.991237731519057 12.775748977293793 17.850427583701215
Li 9.260454816265662 12.86078329809215 12.13641774240489
Li 12.429087955946601 12.016385465202246 15.784448248930016
Li 15.273609107953456 15.367997166471309 18.470568451428136
Li 8.771639263729677 15.977113350060149 12.868522820027156
Li 13.828920899470605 12.487881840519773 18.512054426639146
Li 15.842188350037963 10.06195319050797 18.653821194916933
Li 12.901856479659234 9.715104674481209 17.60479234801709
