52
Energy = -77.48247582 eV
Li 17.53460881824842 14.410478462783685 12.088571336018234
Li 16.867142195384844 12.277763142676202 13.867775500944846
Li 16.876834570688516 11.904029532024516 10.344181528848285
Li 17.25574312796508 16.91227248208314 10.269827032754737
Li 15.237841936815029 14.70706289990453 14.157308884022557
Li 16.989456768250182 14.406284163692641 9.079781287264675
Li 16.29005428540442 9.945199695143751 12.296566843866565
Li 15.70446882883145 7.936798252384848 14.107592688117101
Li 16.57982569195714 10.168967797910103 15.954949616348872
Li 16.540703965023724 17.028625367332154 12.956655907760734
Li 15.311395400365686 12.810358079767408 16.431804276231784
Li 15.239027669112907 17.471404130084846 15.42191102874274
Li 14.82221535410566 15.354923808281745 11.22600913698682
Li 14.766806275051795 5.803177176884633 15.696695903143281
Li 13.649448456181496 8.810709786643667 12.056632001804667
Li 14.351816381525486 16.11947402616888 8.498626283077638
Li 14.417111747832061 12.452430731359698 12.11749993305364
Li 14.367100381470593 13.241893411537749 9.181749741713128
Li 13.286421261781781 10.893225471887767 17.32368169395866
Li 14.515606006514378 10.361259490095385 9.74562052883371
Li 12.401943095473383 16.885345677940364 10.520343128206692
Li 14.061788952650964 8.363034043542319 16.62522957224902
Li 13.673035630519342 17.537277692791356 12.972548463280871
Li 14.195380765085666 10.546222998723655 14.464056277071196
Li 12.464615408265361 14.842447474607814 12.929420456362779
Li 12.76973862498326 7.055395095598301 14.238378150498257
Li 11.813805806975815 11.057005455114327 12.996425761518173
Li 13.845943535448512 15.333721178296031 16.681399013049486
Li 12.342953969356516 17.500488087732563 15.488989671554995
Li 10.744805285593223 17.193645999926034 13.172869471189829
Li 12.764191349707504 12.99590725081834 15.0284415388657
Li 11.412550125631151 9.402488511251498 15.457437142358861
Li 12.400057279585408 11.5704583681833 8.03328029290127
Li 11.845342524804304 12.856178204673546 10.744677054997979
Li 12.282560253006523 13.413534758051744 17.96613389472989
Li 10.227898207144975 11.936277530177897 16.306589752958963
Li 11.805589244543857 14.575637334454461 8.376500330238166
Li 11.624351661441471 9.902962725140876 10.332261589544117
Li 9.088492078972896 10.34610032405371 13.891568041895502
Li 10.077871025660563 13.294459526162525 13.53128782647007
Li 10.185047407464621 15.241425539594527 11.043727102160075
Li 10.864515845543345 15.120280653208939 15.765526101906907
Li 10.78833589432149 8.303882914247808 12.639837945252344
Li 8.35585175279812 15.691353390772719 13.51596506469272
Li 10.231796671771475 12.697437351145188 6.4445487768735115
Li 8.222683888752412 13.924068419764506 15.894004949433405
Li 9.105839835252405 13.57944378275221 8.965202888969548
Li 9.599091248460327 10.743012309322765 8.537024274640373
Li 9.123195519931746 11.723014210588568 11.267682224524707
Li 8.778008158227005 8.924783518880327 10.740956430710058
Li 7.515027048243241 14.171434287963473 11.221814879814545
Li 7.21976561748241 12.500595639056863 13.555522871187613
