54
Energy = -84.88638881 eV
Li 17.899394161512205 15.457903787692294 10.801689189342346
Li 17.754476720565403 13.308441944868349 13.038077165659141
Li 16.840909918500575 16.0992616152281 13.823278326669044
Li 17.33911154763002 14.072298544783154 16.237359748873946
Li 16.65103544289601 11.211989511633671 15.198073888885022
Li 16.002324693736522 17.723624122626195 11.365134165193925
Li 16.287404684317853 13.025074827188574 9.753770574758741
Li 15.541704155020906 11.699924454461113 12.269283661690594
Li 15.505216332471802 9.082330493217631 13.64698021216084
Li 15.258372436098426 15.879107834834603 8.960153801074878
Li 15.325190339680896 14.898907958544287 11.730446852571701
Li 16.075837250540605 9.631796041417395 10.41932116640755
Li 15.22701019495773 13.584386071002193 14.436977827212937
Li 14.16989809528099 9.414462909075946 16.71979674502905
Li 14.19575787817111 17.956577840578618 13.911156148439318
Li 14.843936583525496 15.788099737333503 16.086448803652086
Li 14.780962403100988 12.476297504451695 17.057107410773405
Li 14.489291900784233 7.181346358887312 11.633896013802058
Li 14.03405939443729 13.367486274094889 7.418640321123126
Li 13.847775538379866 11.516472580603619 9.62904100306123
Li 13.462179834656462 11.047762243910327 14.657005753054992
Li 13.185356463421732 16.978113795265955 11.086003977362362
Li 13.020827764585073 12.856353264646675 12.431059712498207
Li 12.827434344684917 8.006267200760151 14.240510095922387
Li 13.273801775372489 9.676948532162431 11.723073888109226
Li 13.278991648626878 14.675230934124526 18.315889750841897
Li 13.017357869460387 15.490499884784303 13.587385360119894
Li 13.007687640261985 14.34278690651396 9.934510643644726
Li 10.739702386162877 14.7791885783127 11.846524024922452
Li 11.00979879568836 12.062905509262503 10.321701770204728
Li 11.923553884120285 10.99694166117094 7.620135049955911
Li 9.75824013347494 7.458081944147383 14.36359553687662
Li 11.029643152039295 9.925271292336694 15.764729618661754
Li 11.960236845851375 11.84451614053481 17.836655943497647
Li 12.262801788193745 13.711776546470322 15.759350823434085
Li 13.425716042111986 8.55986216655635 9.096178080079424
Li 10.642349033431726 9.601388477591557 12.825820973817764
Li 12.046640259063444 16.833278595953306 16.04303893093676
Li 10.610444677152454 16.455009092885714 9.652410548814446
Li 11.452930254572225 7.1203394916961615 11.636772043180546
Li 8.242326319597314 10.24563970096474 14.228373213588508
Li 10.953630383018341 13.79870003930144 8.059064756592544
Li 11.097300165428798 17.615325324787943 13.038296600134386
Li 10.399937119808083 14.69106143268106 17.66673919391694
Li 10.53621652037244 12.339174146408512 13.583279654064903
Li 8.905047740240725 11.34130598058221 8.4037563736879
Li 9.312491865788932 12.470194030412385 16.05669167430736
Li 8.450304674707448 8.253011049731063 11.662894006848184
Li 10.634362069547715 9.318215050057189 9.809012653821961
Li 9.932185239197988 15.245935654714529 14.63069413058714
Li 8.534292975030606 11.220219630298956 11.398741398787838
Li 8.461751939934949 16.376266074745168 12.024811662641875
Li 8.697168442452645 13.998769382786543 10.094708891439769
Li 7.996812955889479 13.491550646769399 13.239540582812188
