7
Energy = -6.88606843 eV
Li 8.795830674582936 6.866088805993674 8.915426184153949
Li 6.594563538872661 8.037294488434531 7.23896906844383
Li 9.433351607389422 9.001983028595165 6.951943683774087
Li 10.7434806683613 9.021334326114022 9.621263006030283
Li 7.982314363407991 9.532538329275036 9.30027107442757
Li 8.783725684253856 8.05180530603172 11.67267284150748
Li 9.794119391056949 11.616341643480844 8.426840069587795
