16
Energy = -21.97036602 eV
Li 9.614480810426839 12.20286604868193 9.97443161824068
Li 7.419351151610247 10.24898413770942 8.976092353665361
Li 7.3937577442449305 7.901932518172915 11.152040743414704
Li 10.667916185784657 11.215678752494615 12.428883972512708
Li 11.715317056881975 10.882905630098739 8.814928698568027
Li 8.687371617467859 7.175772494289449 8.527930552446588
Li 9.712507449661327 9.585593530267264 7.271634686737489
Li 11.727735487243649 7.808925076146179 8.608234138853645
Li 12.376183294411213 9.118722278258444 11.29074528202657
Li 9.707574172800665 9.214108465157683 10.318786322218271
Li 9.113875460737223 12.444234067549793 7.19788496296207
Li 12.896366530826178 12.349892742728613 10.924529910118606
Li 11.58255407197754 13.782886468700344 8.510292196525219
Li 10.404356669457846 6.614518327234945 11.021699891128725
Li 9.631547480999583 8.600058542946162 13.152367103398772
Li 7.7405330858548504 10.768550681837661 11.967727818139577
