12
Energy = -15.66372979 eV
Li 6.385936316177817 8.910783182084687 9.3652146672292
Li 10.822562380069238 7.03002960737755 10.664916717800917
Li 8.352357259902867 6.585534712069795 8.876111968593381
Li 10.9237689193845 7.7716209442625 7.695481129614569
Li 10.384585760638293 9.620075854367094 12.268132061504746
Li 9.308915694483577 9.287499604248426 9.547166598235782
Li 7.644899161823906 10.783627931384789 11.467537513480535
Li 8.209970510810608 8.927825786231692 6.907527898395046
Li 12.178086005324525 9.63205383525012 9.771368385918818
Li 7.774421576688291 11.504067810352652 8.492788897284484
Li 10.230218815848632 11.936317858873375 10.263408241458125
Li 10.559552518049506 10.785837792699478 7.455620839686697
