11
Energy = -13.46454813 eV
Li 11.197637169307072 6.079293115501228 10.930639081721258
Li 8.945872479199913 7.152927291728448 8.958600301383694
Li 11.494145483093781 8.384816472276755 9.113357492697713
Li 9.026391616050672 9.724496212850045 6.9887960477903865
Li 9.40626534351 8.350550164548856 11.48881312543413
Li 6.945567431753194 9.661430376201194 9.39854019693302
Li 9.447240698748333 10.108621595961377 9.455183920214084
Li 11.612384714625982 10.220569486850179 11.363950114426864
Li 7.986517192919526 12.323861604164321 8.282088810206533
Li 10.978432358263616 12.01276426955972 8.755335071151412
Li 8.862900454368328 11.884024352198432 11.168050779881051
