15
Energy = -19.73222436 eV
Li 12.488876415952008 12.608649182670952 9.987075015863804
Li 9.517891174214084 11.701155793643318 9.772832011547216
Li 11.872169045174969 10.995003219766426 15.12058735031801
Li 6.620721821712312 10.78331747560817 9.563132727548666
Li 8.027983862533123 10.487503229562533 12.09489629842581
Li 10.510936151938548 12.209250200805178 12.579473882852371
Li 9.30969373310811 9.045362335824814 9.760791806502933
Li 15.15047854312745 10.881312341480278 10.37350720060972
Li 10.76284831874248 9.529337649546543 12.692859835681364
Li 13.314100181521455 11.273155544684737 12.603239105085324
Li 12.257932852436905 9.963212027894718 10.114696040014154
Li 8.263390515343984 10.215524652125627 7.20496475889311
Li 8.931421067498647 10.88384112932508 14.843367006068767
Li 13.971927365308536 11.31624840587349 7.72532060377966
Li 11.128231338813597 10.718368070752563 7.546048274983079
