19
Energy = -23.32871359 eV
Li 11.113593033394775 15.096344794847147 9.749453921441436
Li 13.069901233174564 10.603819316716839 8.391654895180173
Li 10.054059899558357 10.520458533315367 14.775613449296712
Li 8.06774831242954 11.392797855808022 12.572915873081708
Li 14.42136680621097 12.316669659846903 12.125307836696548
Li 10.616946045608536 12.465627660322651 12.831754552657134
Li 12.763964547332963 10.931723998313347 13.753902770888892
Li 11.991890174090756 8.269829547382322 13.541501620053044
Li 12.853408376828094 9.717020987449262 11.181475800936708
Li 12.160908808964786 12.490679069360151 10.30396367757657
Li 12.524691859371158 14.471717647960336 12.22084663970842
Li 10.397938171194646 9.933377703841686 8.125896578793672
Li 11.002110052515231 7.523618751607313 10.83861164996298
Li 10.930844281846593 12.682383869816354 7.794969304712857
Li 9.292550214470076 13.007130167676598 10.261409967073137
Li 10.096124134902894 10.270625753210243 10.776538372473958
Li 9.337891155999332 8.663212399946776 12.859650162648549
Li 12.380023338642495 7.906056446762695 8.575537404631774
Li 9.672596516720473 15.083843983954377 12.211009340031046
