26
Energy = -38.13103972 eV
Li 7.941249712250244 10.040219154407456 13.056728440449836
Li 8.73829795742367 9.387889393003729 10.207913410909565
Li 10.733847609541742 10.271341734003292 12.310118019296645
Li 6.31539307789478 11.09263379298953 10.638911567544715
Li 6.897704721508846 13.031223032313108 13.065673656484076
Li 8.834682466155563 12.264028663284327 11.267819810001761
Li 9.804295595075674 7.550699742075245 12.366305909276504
Li 10.157240737627353 9.344921771772922 7.53995470054346
Li 7.099261942308539 14.110710631581519 10.176223834301087
Li 9.789007168669658 12.356519550687048 14.091027041333053
Li 9.220071510981224 14.869318912625662 12.250359117037886
Li 8.297174277777772 11.774198082907587 8.361342303502868
Li 9.776624280849038 6.72430086919727 9.292179479376923
Li 10.144939564676212 14.109110113275756 9.32646337908989
Li 12.961596323311467 11.188587628546202 13.928543731924563
Li 12.824288877638372 8.26891162173563 12.839311219581587
Li 11.685849131816905 13.007446610166905 11.758878199619748
Li 11.60424348084503 8.542116302920377 10.138292515059769
Li 13.397632083809322 10.645110749209302 11.038807528958074
Li 10.943256459579784 11.311094904081456 9.472073765512075
Li 15.553479417876101 9.901112214182634 12.582684561322795
Li 14.839725323082229 12.80711814359704 11.925734631807563
Li 13.312391817001124 12.920930644622844 9.118006962958592
Li 14.517723693364411 8.10991120689311 10.218258641818466
Li 13.183705230428213 9.978470218680615 8.093033243139251
Li 15.756452185747849 10.943048691220092 9.67142883108257
