23
Energy = -33.35417167 eV
Li 14.708242194498279 12.06561041389565 12.388239459229917
Li 13.536884664110529 10.437211703984918 10.077308960384986
Li 12.804315363444877 13.282058129098582 10.13959720616824
Li 13.304075150008606 8.986493098385033 12.508682206315774
Li 12.32882242542782 7.762655733916364 9.245596639118121
Li 12.792283516729329 14.461338186722147 12.962202079773068
Li 11.11723263364657 6.868163129539681 11.80903144131273
Li 10.475000564543457 9.36476923607211 13.686261805564058
Li 11.945427911985199 11.725958981102467 12.284156476017756
Li 11.72169281661204 10.875470839015541 7.819317325127087
Li 10.961159492031985 9.404782461641078 10.9537832397801
Li 10.011937565853598 11.646787813480502 9.765936710872111
Li 9.472295741128619 6.032832626758067 9.179513681188354
Li 10.228672329799615 13.950531714178709 11.553333092260997
Li 8.382706647108344 8.012578564124805 11.106212142261429
Li 10.4797164679866 12.65875988656516 14.37319888968202
Li 8.778942986288216 11.225029391057296 12.209979191502198
Li 10.431938418159021 13.769525096347856 8.202981603071013
Li 7.308621085592946 10.296304632653314 9.739939654021118
Li 9.519878931399964 8.795664410861175 8.586324694508033
Li 7.774586636548187 13.252223365510355 9.865621809250964
Li 6.901845894102752 7.7076024805681 8.269239997539795
Li 8.591035919168752 11.3393262103256 7.319866980100608
