27
Energy = -39.46449568 eV
Li 14.86725386888049 8.850383583235535 9.883674935018693
Li 14.358299982578592 12.281576969835111 8.449865006397522
Li 11.987983102038362 11.114283086196753 7.2349809704850205
Li 11.909200083961819 13.128890797002876 9.49816766496628
Li 14.51673460407785 11.621781537466264 11.390185899390488
Li 12.089178437730933 14.173103541883975 6.888400137786444
Li 13.019611800555339 14.154020410016331 12.084955029299458
Li 13.301549174011878 9.131210731528732 12.587948522827869
Li 12.458210576055182 10.301169796801643 9.88785361836516
Li 12.259660474014924 7.42054342460016 10.634182100893803
Li 14.639889240630099 6.582010136529585 12.116703215945561
Li 9.565093694331535 12.598765133111916 8.01714560534099
Li 13.564213047147604 11.899615559532048 14.358445763276553
Li 11.871932272803182 6.909578455562839 13.683968590574517
Li 11.82954284888357 11.645665495838614 12.300315367276093
Li 10.020008947314288 9.11420670296542 8.859650990186426
Li 10.629165045067014 13.065076470783543 14.506360507957544
Li 9.866603527342171 11.334691597670243 10.43981800414589
Li 10.029012010207135 15.307541995387306 9.144575206477349
Li 10.070195406531735 13.90587795916206 11.752651342531811
Li 11.014174319407935 10.037029314326642 14.583500332935998
Li 10.227412962932744 9.008203851145808 11.968475712193781
Li 7.525120084760048 9.940734143887118 10.625837738735974
Li 8.762864290964592 11.481594104250473 13.049810872262395
Li 7.7043856343362425 13.191990911834194 10.61526738558384
Li 8.549790688937998 11.567531512352009 15.980798983798167
Li 7.753051466577149 14.012079117908305 13.775939098616766
