28
Energy = -40.73635424 eV
Li 11.201067836169043 7.4733665962580975 7.749612076767512
Li 9.08714228884036 6.715203606576008 9.845630214405661
Li 8.749517596906554 9.220839535762558 8.157884214849185
Li 12.026558013832041 6.211693098781463 10.37792259930529
Li 11.34409738371521 10.536387450710045 7.525152256583957
Li 7.83818487941411 9.281490707077257 10.988022901893174
Li 13.625639145409414 8.615404584819146 9.143007087042166
Li 10.879806131859207 8.995232493129016 10.228657223290872
Li 8.666350581256523 11.841230621282518 6.732308405632527
Li 6.524095167431824 11.080635609865487 8.853242949158728
Li 9.706449853539919 10.24002853536256 12.821924949135951
Li 12.923249652278427 8.45587239482576 12.092046988190148
Li 9.553941110815448 11.729788528930882 9.878582173189493
Li 10.136933574031397 7.3486255514435435 12.602715155725162
Li 11.927911914863783 9.223992113089597 14.591076548506168
Li 12.84939756425553 11.380947956208965 9.728697172507125
Li 7.755715474988986 13.721217800596857 8.77156465324802
Li 10.780326470455098 13.63733093702764 8.00805197921636
Li 7.2096093543631055 12.367459394001243 11.538322469156943
Li 14.959337649071347 10.310232691630524 11.598618890044106
Li 12.226781326774757 11.368966964667491 12.443441194589498
Li 9.752310705679506 13.053523389232883 12.682284940798485
Li 11.74966027937362 13.774784329774334 10.707611284037464
Li 10.956924946741923 11.943930636585737 15.13763422052368
Li 14.072806832018033 11.534546528743002 14.383368637295934
Li 9.221315207547448 15.10951628510612 10.762335467239332
Li 14.491568977853246 13.214352001038355 11.65965869217447
Li 12.367339631294966 14.13135875832827 13.603500959053045
