21
Energy = -30.40857663 eV
Li 8.693704666473632 13.629992276440653 9.853765524238044
Li 9.210078052747216 14.761589253015742 12.799127563978177
Li 13.308662542520105 13.361034568454981 15.81319621857993
Li 11.391349774174808 12.48714834761366 8.802816562160967
Li 14.853726902829417 10.35525027507088 11.947789259172742
Li 10.58749069403511 12.76084922929242 11.594932403303016
Li 14.232848406194869 13.305824409840614 8.316369777750163
Li 9.857034939079405 9.367947067964495 13.030116217597833
Li 10.538805513317648 12.145755307995575 14.33605569474389
Li 12.763198541027748 9.266184367885757 14.166689873768656
Li 11.931549289172722 10.456822112848355 11.717327426552155
Li 13.191597459088996 11.942989306066748 13.560386753164948
Li 13.388419088436935 12.765490817213383 10.861555398767718
Li 15.287418601255265 13.551297031246571 13.066328794374723
Li 12.296720443222902 14.506026941252347 13.154613298393933
Li 11.91794845608441 7.906790327996008 11.148731810971876
Li 11.709211789501241 15.055844642932053 10.181797518221178
Li 9.75985574766974 10.289296530320009 10.08842098343284
Li 8.106185897235974 11.869272203866359 12.303045189905548
Li 13.198851586974444 10.278984420839889 9.235145417398726
Li 15.368973923299096 11.075149515094953 14.991035082835168
