36
Energy = -54.84626019 eV
Li 9.458383402753878 12.847992725717077 16.926395266491937
Li 12.311971893847739 14.263166655685083 16.183110773679285
Li 8.948226533211278 11.770301878363972 11.959982500842237
Li 9.735600016682813 8.796469745199285 11.69849889467012
Li 9.155987058705255 14.819667158959746 12.124569226479345
Li 8.716908832745684 10.310961590632324 9.150164019426219
Li 13.78120728075879 11.384358118877705 11.439743660441943
Li 11.11542538339872 11.07104601725544 7.363705325909439
Li 11.429342255809647 13.22756641412589 11.579424746467778
Li 12.05529638561985 11.251346476337227 16.049172675085913
Li 14.944910874661982 15.041534968655057 14.197503971531143
Li 14.263648751804762 10.095783959919576 14.288922418727708
Li 14.619025490983233 9.812052797815147 17.269943252726538
Li 17.61604402945696 13.685174234975472 14.78836886799451
Li 16.830475280081117 15.065932487018165 11.74418092816055
Li 12.881414161979974 8.633955810067919 11.439762373307728
Li 9.146964200662035 10.51474888873613 14.814351977854518
Li 9.809892935917132 13.32384493008473 9.325707486497395
Li 9.446964234359248 15.468457789854638 15.307576897283964
Li 15.888085217037048 12.690169245057055 9.835965986768135
Li 11.5146238951525 10.635220053756298 13.113510266133652
Li 10.277348082760119 13.0809987939441 14.311865710809146
Li 11.988944106650207 15.486520137201481 13.312065851379053
Li 11.870172676939987 15.732545931258857 10.194867485509423
Li 17.074347061884996 10.616457411234405 15.360465993249049
Li 7.527991661427585 13.189027314019384 14.414706189287054
Li 11.08456571398198 8.322375416963197 8.818232944385699
Li 14.159075464243816 14.355915284691937 11.412796418472732
Li 12.933994477778674 13.096345228963473 9.021045780917174
Li 13.730547910065013 10.12694924273105 8.771980741480807
Li 14.98636060288717 12.454174751354321 15.963758619920057
Li 13.14424289355677 12.860032562701486 13.814927292027614
Li 15.94472504887482 12.395824877056556 13.019275085756455
Li 11.242989215212177 10.712104250258518 10.111260721383472
Li 14.418945751616628 17.05109667475514 11.798669496082207
Li 14.919796681292276 15.641484963163878 9.076993334121244
