31
Energy = -46.81578794 eV
Li 12.32682483685328 9.85486259914967 10.892953828608862
Li 10.832253361141916 9.168071794533438 15.540136207244057
Li 9.699981194018541 10.293972724515108 9.513411205405777
Li 14.682385071639908 10.83451642782771 9.514487463302977
Li 14.836113071801197 9.986068400833215 12.636303216923569
Li 10.552464937347086 7.646159921143105 10.157178115516611
Li 12.047521602398538 9.382477268587706 8.012748506160648
Li 10.043201421965284 11.622325799523086 6.983154063081052
Li 12.269244913363805 10.67554047372473 13.752529650197186
Li 7.2944173211566 11.07794899296513 8.407185606881475
Li 9.30475487323079 13.322449144405889 9.374808125239701
Li 7.617692731345792 8.653727842806024 10.31784555678087
Li 9.014677032953465 8.589649498282515 7.525492236693216
Li 7.874516296556833 11.607598563915648 11.479575601832812
Li 11.579547632393766 14.536468087079593 7.576500431759855
Li 10.64451267268017 12.068609252131623 11.66221600818349
Li 9.612801395569983 12.026327256248955 14.458542446432068
Li 11.738413529680066 14.667766140038172 10.678517970271411
Li 14.338264640522697 14.086780350361245 9.447522176828814
Li 12.024084690963562 12.180572225332272 9.036454919822264
Li 9.237544473660742 14.372104560926196 12.610607638596102
Li 13.556900942746736 12.430070357644224 11.666930060720942
Li 12.416855908500875 7.901560280346257 13.189137742073067
Li 11.913402708434614 13.63641146617289 13.66867492004576
Li 9.798199287638312 9.424218177993788 12.558574126353095
Li 16.2365697405611 12.744150618987085 11.71216755693239
Li 14.320857081173537 15.02707508455817 12.52329945719399
Li 12.064440554916988 12.068364651917104 16.249006409999968
Li 10.426695855831847 14.794681462095786 15.685908032510408
Li 14.59111853827668 12.447862118716591 14.415570099479828
Li 13.885316416368033 9.498285936976078 15.619193178001018
