34
Energy = -51.62582807 eV
Li 9.684355294727812 15.999889181427205 10.056229365352127
Li 12.86455488040424 14.928337945362852 8.919606798941405
Li 12.299383467419748 16.86096958868346 11.507551367649791
Li 10.018853839337957 13.409932979035958 8.249427843091572
Li 11.496022733053243 14.238158114171126 11.121003946323649
Li 15.60609172591008 12.98383222730537 8.951343277975521
Li 12.769111269495154 11.927923239674218 8.065324227733075
Li 14.706188537160552 14.71723278608555 11.3691911457316
Li 10.88653684024326 11.665092990639407 10.148840795025222
Li 13.58759386213885 12.351016712915008 10.658738525415677
Li 12.902038016114178 14.726006809525842 13.740010226504056
Li 8.621135672835115 13.181555436428477 10.940586694165205
Li 14.614413802938564 9.894304993263342 9.860281506887993
Li 16.31362396660097 11.745408418619972 11.780966745263758
Li 16.044991275522573 13.998472391196897 14.048765411719723
Li 11.63288720298028 9.290828693714797 8.991358175394879
Li 9.855841856367293 15.175786688376649 13.13391539943156
Li 14.108568148582304 12.163216042031486 13.378477725940828
Li 16.069294059011245 11.012216903720017 14.957168771860538
Li 9.372139247517282 10.338227797679123 12.121681469531156
Li 10.854890032854266 13.191706330426522 15.546299020934033
Li 12.339533508338425 9.921175936503204 11.773014444489009
Li 8.695498862509195 10.52152081245617 9.067458277673166
Li 8.249182688156663 12.539689646919504 13.766351521401857
Li 13.968904824254246 13.002977365649516 16.030395046742576
Li 11.170876877727483 12.258394867647583 13.110954818246137
Li 14.789380976350987 9.157521980736455 12.876773906585605
Li 12.945105922852811 7.297286510134617 11.048582705482014
Li 9.659158990221888 10.288399283105377 14.933328650146759
Li 12.741698262528244 10.342890895337828 14.959885122466364
Li 6.773208314864063 10.741111272108856 11.60792159304483
Li 7.859438507929705 8.354015606920791 13.33276816368033
Li 11.064991473268977 8.063001779541105 13.424130011275272
Li 9.680143163075051 7.995537219373345 10.796786990699609
