45
Energy = -67.95900666 eV
Li 13.871364123540063 8.86556897527011 9.495660472531094
Li 11.22705026816145 13.059023278682856 8.428428481144842
Li 6.220873506447231 12.184196168798172 9.830441676485187
Li 13.62820859601751 16.876821151647714 11.318859255631883
Li 13.919185720176113 11.37933005855344 14.184730012026066
Li 8.818609750554586 8.73807961601677 9.612584272979886
Li 6.341144052084956 9.610728421649469 11.294651315259193
Li 8.773706491614254 16.755527395489636 11.421943818533123
Li 11.334130084260297 7.901331138886786 8.181397274083228
Li 11.196609416860184 15.79274890654041 9.927648756284336
Li 8.763486729880693 14.093705344535955 12.755503402624305
Li 13.709003898273233 8.728464949398806 6.533524963018128
Li 11.45165371131675 10.368061676363187 15.774236781470538
Li 11.284633814315832 13.242373353549286 11.290404887954162
Li 8.891377087052934 8.76761180110575 12.842212322694362
Li 8.71285411279552 11.231507498732505 8.186661180353319
Li 6.2402120522244955 14.882586619053654 11.394575513338955
Li 11.355626014688598 13.037245092976853 14.214143321242634
Li 16.37927557002875 9.851873627149267 11.080917294219681
Li 13.772438289072532 14.25619205469092 9.783045864429646
Li 16.358297377466048 12.398652544649675 12.568864219967054
Li 11.384071329633816 10.495397286872244 12.780814447650444
Li 8.74991929569909 11.400825609100671 11.219842837852788
Li 13.888600853225771 11.519702994570656 11.093605609519562
Li 11.25698950416064 15.776335452730592 12.795646949686814
Li 11.403493933486036 8.00756269876371 11.268272326481027
Li 8.688196751319259 14.129162177571013 9.88966719591059
Li 6.312639579474944 12.154676605006834 12.798744174929165
Li 13.962689815674112 8.815344290589328 15.727261637497678
Li 13.824735414648275 14.218295624451907 12.641177333521243
Li 11.303903399622849 10.45541685009295 9.65821114141131
Li 13.950700821318023 8.882714214974763 12.727573809946323
Li 16.24905605034699 15.132469313192209 11.178735184102061
Li 11.250669573195406 10.415142705397553 6.772976882055325
Li 13.800318964903438 11.35846329767926 8.068766306651092
Li 8.865289062616558 11.258445033983875 14.30927814592982
Li 8.856186887295701 8.618356408114003 6.639303142876354
Li 6.2876539653658305 9.503977791897979 8.232153084474264
Li 16.296677161024622 9.748721471878596 8.018859132459463
Li 16.317349920476186 12.430778882746392 9.610601396638431
Li 11.476135258117223 7.959861763579241 14.363511828736462
Li 16.47965364465038 9.764133912009877 14.153942924968245
Li 6.393573851667313 9.51301972375402 14.37583342175496
Li 9.020809926086336 8.688027710230077 15.838057062621203
Li 11.552120444418218 7.830308961887935 17.35656689222346
