45
Energy = -69.83859869 eV
Li 12.314921278219286 17.127195173828284 16.563438162477606
Li 8.993214489353157 12.239580612166975 11.806034293606515
Li 12.54516100296239 14.988566240267062 15.015942969257429
Li 8.645316717702036 9.462261618585064 12.701012213205344
Li 10.743432739835614 16.833248803123297 13.602946922226746
Li 7.590502206903221 14.519264912548444 12.867805129592105
Li 10.344214147429728 13.857749388915863 13.561293782374143
Li 9.712465992594352 15.28624275897828 15.974345521707884
Li 15.22709331005905 15.79055299491413 15.938137167359514
Li 9.960543141956943 15.233499257276447 11.121607938104763
Li 6.474214389171517 11.638204028100334 11.392386703995983
Li 8.014197953470026 11.92600154251798 14.402680325801237
Li 12.836498719775378 13.982396695448895 17.440761948061322
Li 13.79546351547717 17.268413073979307 13.534139161906515
Li 8.971273653754498 13.238429320723428 9.218969176383466
Li 9.049123539386656 10.37771702682053 9.825596535679125
Li 12.29068529374712 14.610157258993405 9.271897563585753
Li 10.607853400908866 12.492834784742922 15.988568556665575
Li 12.103890726256738 17.472084396594934 10.746982625128654
Li 12.575997863691304 15.087064804829966 12.109901870110425
Li 11.637501100324448 12.338025910129286 11.105537381751356
Li 13.14877383432618 12.722365112953119 13.737324088112542
Li 15.182079800513062 12.64431810966159 15.749209563033254
Li 14.88598064713267 15.97378682294628 10.669290359402343
Li 10.911747548802595 10.925496948450498 13.58179705630682
Li 14.455671875236737 13.0202690393534 11.103919387485782
Li 13.932383867074542 10.401364436471255 12.614950449807523
Li 11.728332979636303 11.683499597132657 8.480329527000427
Li 15.203068985959598 14.715190308238094 13.390113141200434
Li 9.799070846728126 9.5479841096982 15.743881256893845
Li 12.827979498813788 10.751633732886773 15.891661113800856
Li 11.569619414083022 9.452281977434795 11.113069464758432
Li 14.98791372400372 13.274605299856075 8.4804505980979
Li 17.294876072170187 14.267021012793647 11.4535050395105
Li 16.958123319834844 16.859460824298527 13.319327647515015
Li 16.29726465706603 11.998416656444244 13.187448232254003
Li 17.853484643266285 10.988721083249132 15.217908878418656
Li 12.158226190802289 8.40426198972574 13.915065729559753
Li 14.144852258623535 10.468638217072732 9.819995917367926
Li 15.198955088796543 9.330761173369341 14.761854024826135
Li 17.824314809166015 14.125279681384395 14.546265769903972
Li 14.401237191448562 7.868722457059988 11.801127152014923
Li 16.87007957323794 11.565763910797351 10.35185324754934
Li 19.061216426113106 11.949523158353205 12.614751035043737
Li 17.057345281377074 9.450368025592178 12.470054621510867
