48
Energy = -74.64814991 eV
Li 13.245669770228917 5.91023924819537 12.8320864376513
Li 14.61833282846827 8.459476801028897 11.185328339819904
Li 11.78226256129882 7.810649910722027 11.001323167138237
Li 15.48951001031777 7.709671129488346 14.047928157696754
Li 13.4009987845217 9.693575574866921 8.639102513647597
Li 12.974687613436789 6.9794099638679405 15.68890125597377
Li 10.536896649742973 7.245746672105614 13.806088150704307
Li 8.739247596472781 7.702459397582418 11.499975695676115
Li 12.992302279542564 8.684684314016492 13.487478367193676
Li 15.253108839339248 10.725611568885324 13.236621821350951
Li 15.850974829964054 11.21199797617462 10.488842994201597
Li 10.204867566610739 9.627583374508893 9.47812608840177
Li 11.138736615063095 9.581170970153083 15.692139655663881
Li 12.623846820896262 10.94761609033094 11.040514972565726
Li 14.211530668286004 9.907786251601948 15.985795737541634
Li 16.44912059447299 14.169676627283268 10.016169248110701
Li 14.085160527498841 12.746173023377356 8.957025258089214
Li 12.685097708348158 11.476867547316576 14.193020247100677
Li 12.551257082475448 12.41481623588329 17.04839627561949
Li 8.162617706886161 11.360910744576662 8.084634228935883
Li 8.193093069202694 9.516106587686814 14.174034257357892
Li 7.58859077051869 10.380027478894249 11.045703801119556
Li 10.3031279711971 10.06156189895403 12.60235157076836
Li 11.37247738225858 12.034299980438732 8.030411192890739
Li 14.12871142417681 13.350905100314042 12.089926745838188
Li 14.994211770339417 13.045199286612078 15.235121782818934
Li 10.984946432655665 13.079431682241388 12.634368444987317
Li 11.859512645825022 14.084802034576692 10.097625962772382
Li 9.989011534434207 12.208871230030974 15.254797249562035
Li 9.580979714584839 12.247355399930056 10.346865049758836
Li 12.758923877222633 15.077311671144635 7.6716463847368885
Li 8.161457468301414 12.621712418280017 13.015944277270492
Li 16.783839673863405 13.513513104069007 12.837443462869222
Li 7.038605986729925 13.283883443804331 10.203841220718152
Li 17.056380613395525 15.565090478507384 15.184775711315446
Li 9.616300931307396 14.454718701395 8.404051793700274
Li 14.622625130910604 15.723785174350981 13.786246764551683
Li 12.358164472160711 14.277113655103989 14.899589602750158
Li 14.154924745589556 15.831837587636988 10.4478449810587
Li 12.014045229463735 15.797106499567478 12.482386240484564
Li 16.639577968523295 16.635433122494096 12.238776121998187
Li 9.703969164568065 15.19578425603626 14.47292229179477
Li 11.416618364737468 16.95077294716435 9.832781660063734
Li 14.276142014964108 15.635558823361889 16.668819381450998
Li 9.300709559644536 15.08639547125307 11.406382806400597
Li 15.435835911106851 18.111408552650637 14.841356315840482
Li 12.338618273415472 17.311106075971136 14.904847711736041
Li 13.747580153896001 18.16446713631293 12.215081984232008
