40
Energy = -62.48988923 eV
Li 15.748968601063408 13.535168797310568 11.18481539832689
Li 16.30113641383569 10.3556300504649 11.162153583340578
Li 13.972878579843572 11.608864065694123 9.681448751161515
Li 16.568451802324518 12.024203381982696 13.911026521180839
Li 14.278671036164308 8.957012347599733 8.28845984320847
Li 14.246480435565143 11.576821779935694 12.65714964726604
Li 15.106254115491549 9.141726104054142 13.885302707328966
Li 11.227524791953762 12.727200564741764 9.065016728919067
Li 12.614465149235057 11.503621882407211 6.909284794019567
Li 11.70355583311536 11.243849388036022 11.446642010493047
Li 12.834146081342588 13.91538131523414 11.28229792913794
Li 13.594893772113629 8.962262336986885 11.27869429253449
Li 13.752364532515596 11.659513534870406 15.568756945194352
Li 12.171453758296586 9.68372237887737 13.847216293485038
Li 11.729163379069732 12.675675826717256 13.797431815578038
Li 11.704568881025768 9.747450782658756 9.081321958220821
Li 14.154257375328767 14.24570186207233 13.97080263666633
Li 11.510157467165703 8.429348689140141 6.749713739802785
Li 13.428031729873362 14.334534480182663 8.394019663742428
Li 12.054454166894816 6.967099049903935 9.568745800576396
Li 12.495494852184224 6.858085128293155 13.08688576243011
Li 9.549551158288297 11.03354389516838 7.3748202499789715
Li 9.111555668115809 8.317623478890788 8.94591170274442
Li 10.560893111271215 8.488613760540845 11.627521801823825
Li 10.60801224230992 14.10973421204751 6.791420420424959
Li 9.470071486984068 10.863775936182279 13.197913337854956
Li 9.248591888693639 10.857294449060003 10.28295445624349
Li 9.872604997576152 13.399904125246053 11.627852516126364
Li 10.671277587255641 15.49007918576326 9.79693154241186
Li 11.071091488160022 15.480692851109001 13.15336222202352
Li 11.70013351379442 14.117518864868021 16.069877407426734
Li 9.49694196027462 8.322544947261328 14.423658774453592
Li 10.361668483178619 11.148098249490031 15.88127775988391
Li 7.578489125078572 9.122451494967805 11.916256260129202
Li 8.372852374238136 13.464258870383972 9.144384458260882
Li 6.82346958818003 10.585072519714899 9.108578000234168
Li 8.855402997355853 13.496746099998367 14.337855474882232
Li 7.287026984199013 10.661503773402194 14.81215103892526
Li 8.072749223435967 15.44685305522213 11.79769142450309
Li 7.212605013314356 12.290683012970963 11.952663553222942
