42
Energy = -64.57452433 eV
Li 12.062243967084607 12.235817636426006 8.448607831978565
Li 11.028647794561012 9.516472965537824 8.30171348258455
Li 9.520882396778596 11.936622540483963 6.994843194695839
Li 11.295828290865805 14.615649009636384 7.2869773967182105
Li 7.878001224278436 9.63773647220403 8.424496006949905
Li 14.749986546112467 13.098060484637205 7.558807297989041
Li 14.16304395400157 10.384987206104054 8.908311800334493
Li 9.639580090311807 8.410722397039391 10.669606732316895
Li 8.710867549715438 14.234761181039017 8.928179114022809
Li 15.98481688211609 8.503628281179907 10.458535142131945
Li 16.55009032077817 11.800263084875587 10.285014124442563
Li 11.108506838820778 14.13805217562823 10.267394922696113
Li 12.799613390012743 8.352708703778138 10.630157299577334
Li 11.903266898473445 10.974456439613624 11.123340922733831
Li 13.467577007678752 15.441616390817476 9.19658228352224
Li 9.410167257419246 11.523999685234948 9.932757338190468
Li 10.581730577977817 16.794988369130742 9.31654382157492
Li 7.300613002110485 10.032585449739488 11.462277146080694
Li 14.025979804559716 12.951215171340792 10.329895793385514
Li 17.139018513654726 9.926754604657564 12.914656823948881
Li 14.603855264717435 8.047243351127902 13.325222486569862
Li 8.28689485562212 8.01291969939346 13.540790044735274
Li 9.176377437899417 15.667475239684372 11.869528375609779
Li 14.541581906718815 10.390250480936022 11.911354259916518
Li 11.460114409073029 8.011094322314989 13.271396605026121
Li 9.81323911966333 10.24419391897729 12.825846457878153
Li 7.410508477074538 13.06310039814001 11.60523887498821
Li 12.72360965722084 13.272170243935124 12.709235485056032
Li 12.536301389333914 10.644288277661905 14.146742653363713
Li 12.214234582280172 16.179864917780655 11.861299327319184
Li 14.981712145019841 15.103168346995838 12.047746150824509
Li 9.88998339527844 13.003772206194819 12.64930033615907
Li 7.789397997127277 11.275023677531967 14.28521472552282
Li 15.53008231797565 12.487286880053754 13.216623008145001
Li 15.058650131596226 10.342809241372711 15.289193305203879
Li 12.923651519426492 8.247810283962055 15.900571659228989
Li 10.114821831674089 9.488914966119168 15.622286685074382
Li 10.53304322531829 12.443582532908843 15.306080392116575
Li 8.199350026746785 14.342153512351311 14.542012162298978
Li 13.543906061185895 13.378084847212762 15.38738384289309
Li 11.13294338556485 15.182736116682316 14.404101343987614
Li 12.547734540768115 10.984276818155399 17.10274335485998
