45
Energy = -70.17823757 eV
Li 12.96684565057273 12.910134439216458 7.188167874776511
Li 13.844661503213173 15.85804705674697 7.523617345025582
Li 10.584700332551934 15.113878599305128 7.702847334689477
Li 13.346071806691647 11.247947531073411 9.711289115428192
Li 15.260663968663447 13.366375220677346 8.944177671182363
Li 10.765482179171418 12.301712063689632 9.165466817691545
Li 11.866392722108472 10.0109305848212 7.520599300550963
Li 13.625435485299002 8.242076426033945 9.552429406180694
Li 15.040120902254207 10.511859540992242 7.675006834211102
Li 8.599710073789943 10.265241306051182 8.699783260965487
Li 15.649777118892702 10.118885121362913 11.038856287339126
Li 12.445357403112627 14.626078627451776 9.601644452940178
Li 14.897357664550608 15.92991328145584 10.626989105270745
Li 12.235158609590993 17.306362317048887 9.59004663535673
Li 9.658350205462964 15.842776323003301 10.675416545207598
Li 13.308018277721764 9.088183976580478 12.294434280114839
Li 8.144606346201357 13.284211689434152 9.636173263801561
Li 13.847963959440227 13.38658616442603 11.531988318018707
Li 11.03188425152383 9.391310192508818 10.273195560935525
Li 11.926689504968174 11.367533724926718 12.127296839557019
Li 14.801383105499584 6.881814941525819 12.091913791793164
Li 15.229997164699624 8.971344344897295 14.374286855005481
Li 16.633279614381372 13.237493080013556 11.649480352876772
Li 9.06149029705066 11.082724150231941 11.351991238554124
Li 10.607366012255943 13.599195950693465 11.731260368330384
Li 12.305261043744284 15.87660033518882 12.52100640642693
Li 14.73376172347079 11.645790305642539 13.415512622667968
Li 12.451473968819318 13.426775130940683 14.165628991082764
Li 7.72270335818868 13.195615500640766 12.705236278951174
Li 12.298660235999481 7.464219512866136 14.566273357915586
Li 11.448259854459115 6.803919675905474 11.736464697697134
Li 6.4073445320029085 10.862854415428876 10.894335419110803
Li 14.943090572119127 14.814485763313783 13.80841746671395
Li 10.444246649060194 9.096729919481907 13.171432405329641
Li 12.545511289589346 10.507599112256395 14.907739616680287
Li 9.949299242079496 11.828087344094815 14.067072568336183
Li 9.880063135353835 14.778008966396598 14.337923033129792
Li 12.60586585345197 15.543082353897905 15.860931168746934
Li 8.407779476033538 8.226543375015103 11.315088510564593
Li 7.964072459961704 12.373927423073969 15.839406848899964
Li 9.178803324634934 6.911571049500008 14.18085524041763
Li 14.263689448378424 12.753821874999842 16.195217842250877
Li 7.686657244546944 9.951615076626034 13.74602035124769
Li 9.832342105391948 9.541439290061211 15.961336933218059
Li 11.049686822360933 12.751828837851365 16.554775439014666
