47
Energy = -73.17649857 eV
Li 6.980730909327184 13.002207655657195 11.431531932522295
Li 12.704472127214522 17.584635445114486 13.341959257840124
Li 8.413628617385497 15.155291512791862 12.988748485259025
Li 12.918277700710147 15.610768798092979 15.707277951459005
Li 10.010312645848476 13.551340817936508 10.873397680082155
Li 11.226545273252668 15.366660610895632 12.692610153626644
Li 10.129558182381215 16.872182243780276 14.8938595490758
Li 9.8790882078245 17.676173072698013 11.868199663925877
Li 8.567774123648816 15.518051385837516 9.833329641498828
Li 15.53177694967233 16.598543116607065 14.162563235622866
Li 8.179277639533224 10.23905777381798 10.745259409186732
Li 13.098460458948052 12.34673198151687 15.484565840188592
Li 14.301016018541503 16.20430167979773 11.20887309099026
Li 7.501414562111762 12.802673531393244 15.01539806104991
Li 10.231317278480292 10.810094553139118 15.254242605014166
Li 13.781338412823136 14.539624190691297 13.407051894385887
Li 8.601476560567477 12.445557289939567 8.711151851148793
Li 15.957996289555311 13.43398140474934 15.095634894656033
Li 10.45663462809312 13.846665918861994 14.936648019087231
Li 7.816456605716889 9.667618327207661 13.787132213170166
Li 9.08128962771983 12.163885560714684 12.965282448149113
Li 13.087031024462242 13.510844614894378 10.70663845190488
Li 11.659860095938221 16.042198108538372 9.939835539109449
Li 10.142860043992748 8.354379510309956 9.49535390431624
Li 10.371978968906285 9.725010847893003 12.449770957071749
Li 11.880782771597334 12.252947745462604 12.8325353986811
Li 10.73450614317938 10.519687959034695 7.304746164924593
Li 9.089046838097014 7.205075945358091 11.890882780487274
Li 11.367147310718432 13.558941508007477 8.175021903903945
Li 16.365532320444462 14.289266010949659 12.212096116240708
Li 14.419240148949434 14.503390019707131 8.508645150876696
Li 15.577979081735675 12.176267557525481 10.400509188209638
Li 10.959599239226959 11.065017897112554 10.002689629779663
Li 13.374359439962598 10.233969571607886 10.990570387890951
Li 10.64058625873067 7.69632410435618 14.465247638013016
Li 14.742810946174194 11.851891292512605 13.073504843606436
Li 15.461564274750057 10.162673070727367 15.253476238572583
Li 12.835507138809579 9.680032966444527 13.928952843908139
Li 12.070180205507109 7.730995987607911 11.699508862917952
Li 11.447682759251144 5.593344223186662 10.088469110937984
Li 15.387469673745592 8.974768675829347 12.471398137957845
Li 12.855458845921119 8.343450200365572 8.811221303535826
Li 13.496147065747442 11.430677265882613 8.309496764819585
Li 17.387148019849423 11.35673110503818 12.916823743978561
Li 15.67036735710388 9.367733885518868 9.498256299012459
Li 14.417634245511577 6.685072933105474 10.725489243707477
Li 13.751436681792173 6.907268795836044 13.88263188079843
