4
Energy = -3.66151731 eV
Li 6.152289697476972 7.76694637048505 7.787122249395115
Li 5.383107321882084 5.0557469829187 6.126797666477351
Li 7.921299451452063 5.626521647445439 7.256809729011451
Li 6.412991886615021 7.429721815669566 4.996289348456763
