48
Energy = -74.916523 eV
Li 16.644788738374345 11.165001895671551 8.5713707032952
Li 16.91343272144672 11.024970588500857 11.505141833043934
Li 13.80572443472001 9.577706377694609 8.130256977926711
Li 15.461065993189328 8.664859597444533 10.537017292882057
Li 17.946182432096446 13.72278707972067 11.342939592263669
Li 15.776409772229334 16.130110532835257 11.969799076065103
Li 16.22030571068018 11.456235852497144 14.54664714189759
Li 15.517873643571905 14.03427766744887 9.547315204344327
Li 17.111383591338523 14.191737757893947 14.289634193459872
Li 12.355652274578874 9.267235387644325 10.975105404580999
Li 14.383464359101135 9.485893564447764 15.621102336820963
Li 14.469872073464112 10.203948194165644 12.719514761462287
Li 16.805601927445615 8.727530877338586 13.481831375356514
Li 10.224358465484555 13.68343623311508 10.966401674952108
Li 11.28910601370184 11.452476432786206 9.132401173507608
Li 14.940848761150352 12.95385882760534 16.772217965324838
Li 14.299491985397173 11.507112948004877 9.993778874774152
Li 12.59284326251665 17.29103460466844 12.67627594067447
Li 13.295593536323612 14.932545844997405 11.50616213630733
Li 13.602692893419972 7.570373501828386 13.257191332383526
Li 13.97813470615749 12.462538498638793 7.2310000222483035
Li 18.833159315528096 11.581327396688621 13.560271485603336
Li 15.324595891981362 13.195561578071139 12.377348136585779
Li 13.820230638859178 16.729824117992717 9.456694191669067
Li 14.195704576029467 15.09241131496225 14.460832503952357
Li 11.662870359954699 7.850372145798442 15.840542713158724
Li 13.404549614632817 12.338207762310955 14.58437295249325
Li 10.088467925146288 10.944675461322236 12.076469119201663
Li 10.18919216642044 8.048933254803728 12.985802842587313
Li 11.933394198194692 9.87996727814561 14.042283586641624
Li 10.842287788115852 16.28237012500407 10.281208780672104
Li 12.023800030378489 11.006184586752726 16.760444687402227
Li 12.517805500227075 13.998797992161478 9.144230295312553
Li 7.536075588672232 10.480175288405597 12.95702432898657
Li 11.941893697273716 14.152592483618363 16.38521134874002
Li 12.506615125086237 12.223901210395583 11.995260640739374
Li 9.268108066808843 9.81247014128845 15.333084803354184
Li 9.640612154814887 14.051148526001523 8.24060325023074
Li 8.091651493348099 12.005837580625368 10.138604280903888
Li 8.260837082829811 13.43532461993333 12.931851822202802
Li 10.288439123905222 12.33412214942127 14.60137142818957
Li 11.339861493974778 14.607586572793211 13.480093452816108
Li 9.21655949474958 16.29092505634206 12.804259652289515
Li 6.991196314535371 12.482928249169062 15.172803201005541
Li 5.748473903174557 12.827251559513115 12.136392027207618
Li 8.951754080873405 14.83844018666235 15.45440236178714
Li 7.6013588505257985 15.01742014759334 10.598149961587335
Li 6.396525713684567 15.30312987514731 13.746766635453792
