42
Energy = -64.4852675 eV
Li 15.987973565152583 9.731491969754202 13.203738948289436
Li 14.498654044582352 8.631757678055022 10.783925391342333
Li 13.743117993076376 7.06229081146813 13.47786169389862
Li 14.02899052471212 11.215388462048638 11.564093809908833
Li 13.215887523849858 9.09110607241055 16.1387596898126
Li 14.557817174845326 10.77664139090264 8.385410656029016
Li 16.59371700561786 11.782637170238333 10.42269252724238
Li 14.470354900876258 11.558901919143228 14.94146738652975
Li 13.113780360334212 9.602515443146137 13.38571218352808
Li 12.030448119307865 10.623567214288926 9.555792187738637
Li 12.930624071291842 11.859220477847387 17.59300326342023
Li 15.738731085380106 13.697208663987315 7.850858632825127
Li 15.573495691992242 13.236976271640883 12.911444040453338
Li 10.864152884718703 10.775522136928496 12.251726791811045
Li 11.583668187055997 8.115314415176018 11.313866591491832
Li 10.337932928396317 10.177658390499237 17.177620663149916
Li 10.792574028918246 8.487404547268584 14.400987184409509
Li 14.196945203312348 13.391834127467762 10.090399112417286
Li 12.744842100538115 8.042474435428225 8.410876864875908
Li 13.29976468458616 14.199531813874087 15.444563563328598
Li 16.312991097627798 15.099922974458007 10.501194878071074
Li 11.857804060621898 10.3449539928986 6.7034045708525625
Li 11.613593749859199 11.539596392598906 15.093280684401016
Li 8.647314248262337 9.033090630706015 12.03429229784261
Li 12.706836122678489 13.174611019194781 7.603726778257203
Li 9.817755704409882 9.065724027514065 8.873508512841688
Li 13.460067901853451 15.822346556404542 9.184196139733897
Li 12.472096739132498 13.104155096112866 12.90014590906909
Li 11.298011493402829 13.330898927008436 10.250928352051195
Li 13.697350524056667 15.496277898688378 12.308259285510092
Li 10.37131635484001 13.267028802183722 16.835332162790436
Li 9.817582354640459 12.275107847285087 7.894731915394286
Li 10.556000919332973 15.277437746608475 8.349915793920607
Li 8.844774554263076 10.943960372879339 14.51621954777222
Li 8.89420626425646 11.429127849268061 10.479187433258772
Li 9.519036297461884 13.266278070778931 12.831783385939055
Li 10.652933528844045 15.14257672088865 14.462841841796502
Li 10.787387102646324 15.779841849899306 11.451318865635296
Li 8.417028901326319 14.222386473207663 10.212756062130413
Li 7.903057223506061 13.62145474971937 15.241653564556831
Li 6.934919090771759 12.406885515136231 12.519165758293997
Li 7.934741804741794 15.554461319040064 12.899665991057262
