46
Energy = -70.74688359 eV
Li 6.49718806894508 11.893207561419073 10.312628794080007
Li 11.165850321974654 10.868116800154523 6.11999024529791
Li 10.45909062521955 8.368700632660477 7.874790326282622
Li 9.232291839132415 11.1260392116579 8.65116772581028
Li 6.780540595477157 9.872998150746538 12.707897094066713
Li 7.631774844865625 9.003125295514778 9.941402380465862
Li 7.686232794405233 13.916283251744634 12.67465677166634
Li 11.305002847292593 13.31147466134584 8.009730218971068
Li 8.839363010793075 13.92341939822066 9.73110769539123
Li 10.376418108510402 9.184307031107135 10.711836609549778
Li 13.487597760072086 9.0252850410094 7.026419258787827
Li 14.101017720324414 12.071374689108367 7.213924706434303
Li 8.826708772673985 11.401112081326444 11.62362980951268
Li 12.98706875031949 8.015591988387575 9.955127168104333
Li 12.223555608666437 15.504405019928123 9.95419009636838
Li 12.057560392963328 10.60190327212135 8.741314902283523
Li 8.158637818568009 9.017601612981919 15.378703637198194
Li 8.001323113764236 11.786829318390891 14.625368453855208
Li 8.959617515143057 7.685481212741174 12.808848592980471
Li 10.155042894337399 15.460932649704148 11.916507123140507
Li 11.184308170607215 12.78648109575818 10.981222285993045
Li 13.642762297014732 12.890463470293183 9.873295433373746
Li 12.96986813096413 17.38392747780782 12.373740321413692
Li 12.160928480563795 7.830056340913706 12.92287899280934
Li 10.382526947500502 10.004156751653351 13.7153936480517
Li 11.033338852893587 16.02704308099407 14.49951097205197
Li 15.177069236852558 15.19465795820103 10.671019654101986
Li 14.916769044469374 10.313182974898742 9.647055726835685
Li 10.39084450123334 13.115521066982256 13.75116485067103
Li 12.608626931946747 10.472426318132124 11.631594641477413
Li 13.110953110539684 14.657651306717197 12.808331280024166
Li 10.844442243509748 7.865792870497717 15.615463531033186
Li 9.119848290713088 14.297686241850947 15.910944041781455
Li 16.5961662075714 12.806863877901268 9.485044588075077
Li 15.139969903330737 12.288365970494246 12.082662310153973
Li 13.71461138149127 16.513813549428416 15.405719035506145
Li 10.625236136995863 11.218592191975159 16.197404212921928
Li 15.722180603135797 16.27526556543676 13.238457321598453
Li 13.300579846564908 9.64166926377867 15.178087366020746
Li 12.991594849418995 11.98208414893585 13.92608762815072
Li 14.87383088800934 9.160064144703714 12.520184032222085
Li 12.257158634243638 13.837610596270164 15.99458785188839
Li 17.382662981493283 13.676781573048219 12.59909230418142
Li 17.417383861402488 10.702819108374145 11.648885442599488
Li 15.135730922364697 13.85328650526893 14.797052744128337
Li 16.101442722962314 11.088843813377068 14.466753575833465
