4
Energy = -3.51341353 eV
Li 8.133028211736953 8.743791804188708 10.286810853160587
Li 9.97597042974185 9.362262194402579 7.815161403607574
Li 9.254407580743077 11.381241286339453 9.7847467448454
Li 8.84181264654195 6.717923583833086 8.318499867150399
