4
Energy = -1.88420414 eV
Li 8.901278860807315 6.412478666626307 7.0382545403814465
Li 6.263531098816285 8.088108300466253 7.087626483105672
Li 8.722783805156395 8.95674795628616 8.676489136625472
Li 10.072886446797629 10.503145288198779 11.158110051465028
