55
Energy = -85.98835646 eV
Li 12.027401787844193 12.02717578 12.02717578
Li 12.026616014073335 12.02717578 15.038552475727858
Li 12.027038751749147 12.02717578 18.075444654438165
Li 14.10307941872922 10.518502312131938 13.52150295513178
Li 14.123268499909454 10.503870059388461 16.524937651627635
Li 6.9205502214610455 12.02717578 14.958461768917589
Li 16.306822651659484 12.02717578 14.964945009331561
Li 6.901832638836472 12.02717578 12.02717578
Li 16.320362241661794 12.02717578 12.02717578
Li 12.026616014073335 12.02717578 9.01579908427214
Li 12.027038751749147 12.02717578 5.978906905561834
Li 14.10307941872922 13.535849247868063 13.52150295513178
Li 11.23429472761912 14.468480453142924 13.521861131157596
Li 9.46042774557776 12.02717578 13.52276974234581
Li 11.23429472761912 9.585871106857079 13.521861131157596
Li 14.10307941872922 13.535849247868063 10.53284860486822
Li 14.10307941872922 10.518502312131938 10.53284860486822
Li 11.23429472761912 9.585871106857079 10.532490428842404
Li 9.46042774557776 12.02717578 10.531581817654189
Li 11.23429472761912 14.468480453142924 10.532490428842404
Li 14.123268499909454 13.550481500611543 16.524937651627635
Li 11.22679083087746 14.491535280787701 16.52440511124764
Li 9.4365054202592 12.02717578 16.523929532170296
Li 11.22679083087746 9.5628162792123 16.52440511124764
Li 14.123268499909454 13.550481500611543 7.529413908372365
Li 14.123268499909454 10.503870059388461 7.529413908372365
Li 11.22679083087746 9.5628162792123 7.52994644875236
Li 9.4365054202592 12.02717578 7.530422027829707
Li 11.22679083087746 14.491535280787701 7.52994644875236
Li 10.449742801437086 7.170409338807251 14.958189482351063
Li 16.158515729684503 9.025194241618545 14.959159527655778
Li 16.158515729684503 15.029157318381458 14.959159527655778
Li 10.449742801437086 16.88394222119275 14.958189482351063
Li 6.9205502214610455 12.02717578 9.095889791082413
Li 10.449742801437086 16.88394222119275 9.096162077648938
Li 16.158515729684503 15.029157318381458 9.095192032344224
Li 16.158515729684503 9.025194241618545 9.095192032344224
Li 10.449742801437086 7.170409338807251 9.096162077648938
Li 13.349410590930603 16.097599377047874 14.96467511896199
Li 8.56504878811411 14.54221942808656 14.964764893382975
Li 8.56504878811411 9.51213213191344 14.964764893382975
Li 13.349410590930603 7.956752182952125 14.96467511896199
Li 16.306822651659484 12.02717578 9.089406550668437
Li 13.349410590930603 7.956752182952125 9.089676441038007
Li 8.56504878811411 9.51213213191344 9.089586666617027
Li 8.56504878811411 14.54221942808656 9.089586666617027
Li 13.349410590930603 16.097599377047874 9.089676441038007
Li 10.444367949277945 7.152892775410563 12.02717578
Li 16.173386460441325 9.014274919122974 12.02717578
Li 16.173386460441325 15.040076640877025 12.02717578
Li 10.444367949277945 16.90145878458944 12.02717578
Li 13.353063330186872 16.11093697692176 12.02717578
Li 8.553454298902302 14.550641537868719 12.02717578
Li 8.553454298902302 9.50371002213128 12.02717578
Li 13.353063330186872 7.9434145830782406 12.02717578
