52
Energy = -81.21404093 eV
Li 14.189575981868087 9.254570996584132 16.373251070025862
Li 11.371386116632507 7.9791932919984125 16.132093143049087
Li 10.579080309939423 8.517900453233924 12.993642370018637
Li 13.380049808793766 7.8967174154275614 13.789479020687343
Li 11.743864383472284 10.979334511513564 17.431780719791817
Li 12.778300657980777 7.591718512518643 10.628948492295956
Li 9.38155011146895 10.096914727729056 15.429938239228214
Li 10.042990201974195 11.703890486591424 12.923400560904069
Li 8.876286589356765 12.084180441827373 17.637062265499303
Li 15.91014254395288 11.659636752107923 16.803588307660274
Li 17.044831884264198 9.421549913731967 14.762150221796094
Li 14.903752788268385 10.893478078079713 14.166564733758495
Li 7.651970718635329 12.335890166694575 14.372274875384736
Li 12.762036118906998 10.132301056880493 11.616954041636337
Li 12.087492782022155 10.323109888293617 14.660549052912453
Li 13.431283082175769 12.859736293008195 15.886904129750635
Li 15.401395290833399 8.926154982034745 12.080861400853546
Li 11.169018412574612 14.28443919411565 17.800009223116877
Li 9.935482105278378 10.084763403935169 10.405565383466884
Li 12.301495550887257 10.075285079229237 8.620694031745408
Li 10.396515137319462 13.032716541223703 15.425263710947211
Li 12.894383875014665 12.594533699569633 13.09010544220814
Li 8.316334531279281 14.64081744140351 16.303561935526947
Li 15.94468551809584 14.777427706578282 16.37109489427729
Li 17.1237108047678 12.607551377668615 14.229859598683488
Li 17.62406366556423 10.891675184654357 11.729645127878603
Li 15.059709675957212 9.779423593336324 9.323282489290627
Li 13.131820085829453 15.713233394731411 15.805103552175224
Li 8.791837991367217 14.866773867212077 13.133899389965572
Li 10.402322889616674 16.432123767379792 15.336066924256626
Li 13.720225162024626 12.43441005710921 9.343589114489902
Li 10.503435891301406 12.444963290125386 8.17643098933115
Li 8.523169228212552 12.890430494877533 10.751909475000051
Li 17.687463684558725 15.596605447778078 13.915887204417112
Li 15.156410939071298 11.964364962659042 11.58578232402595
Li 11.46709552530419 14.80649244941102 13.303715167841485
Li 11.381502356603855 12.619222708350604 10.668664273407435
Li 14.05212649029031 12.117981295384237 6.800589929968278
Li 15.05212961164862 14.519959466222101 13.714194379836533
Li 16.948166155240326 14.076642367718557 11.3742285233644
Li 15.392126054703127 17.503946658249145 14.706074842931539
Li 12.53684017549555 18.652236942340014 15.109087606497035
Li 10.615652312877987 15.302703392594992 10.560535798319856
Li 13.593037038531701 14.698064624582704 11.116526730227747
Li 10.720646073122728 17.709498984424762 12.547934100629401
Li 16.571528195986925 12.266387734127363 8.861625554448912
Li 12.471826909676192 14.716170347285116 8.240502206540244
Li 15.726392102331134 16.84074391833331 11.644811598528245
Li 15.305347894398729 15.055859129638018 8.864144240093951
Li 13.05371854411688 17.29803754623972 10.15058849389365
Li 13.227507494903955 16.860009963443197 13.10326105700615
Li 13.937509238277416 19.38349327503004 12.449973960174802
