53
Energy = -83.37191438 eV
Li 10.638228218866454 7.684179770687585 9.182727240388822
Li 9.285844797764154 9.302761894071113 6.800531380991991
Li 7.680504215216434 8.93838190885422 9.676758106604167
Li 12.31531531619184 9.909283855709146 7.708286476825025
Li 12.551156874705852 7.115293048130913 11.890707681599558
Li 12.297175660890943 9.709086802784563 10.697729128322168
Li 10.014682099526711 8.866412270761778 11.790438087913548
Li 14.357318247455785 11.3626675005247 9.502047345424335
Li 14.972851871504737 9.431606352726368 11.695496593097026
Li 12.585490826948295 9.14737606243819 13.98165788719173
Li 9.81672661798242 10.49176214689023 9.194847757333953
Li 10.55314591779714 12.245390274428326 6.95322480999505
Li 7.625971702057315 11.816467222039151 7.74660492676835
Li 10.036907924366222 7.613810380664467 14.342387049304156
Li 7.154715674326016 11.816165386830983 10.767117976675102
Li 13.541357502457862 12.83989631456708 7.184302880390767
Li 7.6313054482544 9.732280445855373 12.959349303722544
Li 15.531314446525869 12.3836260756832 11.842580216045745
Li 15.571193749022344 14.092211991343186 9.39974388248987
Li 11.873132212552045 12.409907998010423 9.625070942034059
Li 14.94544798097472 10.894760521244372 14.301414833686973
Li 12.605103371203061 11.788467955693417 12.559852155023027
Li 15.517401110916872 8.148657880766741 14.382989923536527
Li 9.78121962402273 11.845885702831373 11.774225925295587
Li 17.19313315861507 11.167937348718576 9.80295000440527
Li 10.129342367850791 10.571462402384073 14.299389623131198
Li 17.546284945367105 10.601593712006089 12.929049182286606
Li 11.838368649549327 15.007943124776142 8.556238136331109
Li 6.726567534551172 14.583329090150677 9.134054625334109
Li 8.02240680115476 12.614300984738676 14.089530331823381
Li 11.080431810303988 9.48027999280379 16.8269890469351
Li 17.968194408196204 13.54042448372755 11.566537394632709
Li 9.241194311121502 13.548780744593778 9.366085628134266
Li 13.44762651818805 14.207538707986464 11.183919116941201
Li 10.864719720269353 14.693031325526103 11.552407227994014
Li 9.011206093038368 14.894102706114706 7.0170558900840705
Li 14.13046799021003 9.660467425561674 16.791460989315322
Li 17.033594446309657 10.484084471103948 15.994204412033008
Li 9.937500682916065 12.485742949151998 16.758194340580214
Li 12.427983909431763 11.719992277496564 15.6811908860458
Li 14.028876203323732 13.66177928168485 14.179796772294885
Li 8.020073367743935 14.495133167983429 11.87113536040966
Li 16.895343361799295 13.269950493376227 14.424126130753823
Li 9.313315300139047 16.41941219570344 9.902798719969722
Li 12.448309377595239 16.96495195509265 10.95612801034148
Li 15.62628925457442 15.463252971949561 12.507039978554214
Li 12.740956685803667 16.005822895309528 13.76031533596498
Li 10.788178437537512 13.666200730081107 14.129543938618546
Li 12.505186296429706 11.878942218652252 18.427422565462674
Li 14.966239898366425 12.739720823714476 16.789838982487986
Li 9.772083614409551 16.539222172448575 13.332366212263667
Li 12.412670345956377 14.530228324666044 16.580985626349747
Li 15.285328784996821 15.689351487670582 15.682764719915657
