5
Energy = -5.07358075 eV
Li 6.6823635119235965 9.882285507328673 8.498244675309241
Li 10.453598056541745 7.25316056189111 8.63999132785363
Li 7.727245040547967 7.412988147683795 9.53934703818036
Li 9.440329149699824 9.860048366129359 9.31728413078208
Li 8.542726074470774 8.437779250151205 6.85139466105859
