54
Energy = -85.21774844 eV
Li 7.932499904848575 15.33281767969175 14.151229688652071
Li 7.3342401575341185 12.234569393144534 14.1246729270547
Li 7.775845232195679 9.164489167897637 13.66223146895824
Li 8.27491387552522 13.703478007702984 16.839082660115334
Li 7.67042725827597 11.132759786653278 11.122933325633682
Li 10.649005652116589 15.67693822182576 13.088433782107654
Li 10.478104983132297 15.854437397647498 16.053387358275906
Li 9.308045084866157 10.76083551799054 16.134707991364053
Li 9.140551111201509 13.549370127608693 11.873670199825975
Li 6.494111989162171 13.994900936606275 11.640649280137021
Li 12.452001653820632 9.860565348419007 12.20498373619882
Li 9.852023418495229 8.72031997728041 11.320040668294588
Li 9.953313550884769 13.34304546195468 14.695561017831839
Li 11.425296507271545 13.01857493492172 17.20712854737604
Li 10.860225761575778 8.607243985605745 14.431150631802504
Li 12.742120870480655 14.278051469659069 14.842448059785676
Li 10.796025352847586 11.628846446886248 10.154762124948201
Li 9.748297662582809 10.92623146554033 13.031680899552617
Li 12.997276998646058 9.993977868520808 16.864043146530733
Li 8.377539536739025 13.669279308762265 9.208432955945495
Li 11.82612203239831 11.280410073930412 14.883427892276002
Li 13.233920695624606 15.451954952819014 12.084426194344266
Li 12.750711474919436 17.26043411850741 14.407353424040254
Li 14.315838539223202 11.181238239592666 10.55332187639951
Li 12.356325154275916 7.020585821071373 12.12226788698248
Li 8.599204433767921 16.364766804357778 11.204601271355617
Li 12.066302781280939 12.876161466642353 12.376356808841203
Li 9.624061414960785 18.05161730537889 13.948464069331655
Li 12.561436185938952 8.854809027266862 9.547363413297875
Li 12.905687958542561 11.518302411882212 7.931534736042207
Li 14.515799033635652 12.768604335557239 16.584630971681836
Li 14.090273663311816 8.695902031281534 14.186317849391072
Li 14.986636077337147 8.214936672204006 11.281641553909555
Li 13.624635381916383 16.63406296458703 9.52242477470814
Li 15.36181440729547 13.600833049371987 12.18022891683196
Li 11.071391008347366 14.945833605332242 9.992300575378977
Li 15.661007578473587 16.710896388462015 12.09218331811166
Li 13.605309356657056 13.677511787013652 9.765910533051542
Li 11.525854374403371 17.838882413553545 11.514962087505822
Li 17.2285758590624 8.035831747680966 13.514014095027184
Li 13.376898979899941 15.650714412093587 17.198534933376735
Li 14.27004067610965 11.705015396616341 14.005437516861974
Li 16.188850917627317 10.380531385365215 12.620222959848789
Li 15.479353586176892 9.666024554723272 8.638714420682367
Li 15.315075649779423 15.28375691621934 14.699492898395674
Li 16.27407541543691 10.214537413714531 15.582661974035263
Li 18.032455119156833 14.473451940063727 12.210894872761674
Li 15.619606820472981 12.59758447408056 7.962309786101063
Li 17.841416327808563 9.142113293576223 10.652024562393866
Li 16.126443653922156 14.96191915908776 9.678975243018014
Li 16.94761098817765 12.836828935871493 14.4850868810393
Li 13.295719292279745 14.59861879257485 7.243062711137332
Li 17.21196136764369 12.079144511758578 10.487903130720976
Li 18.7571381051115 10.931243415320354 13.084104248885359
