52
Energy = -81.23757824 eV
Li 18.599776786683737 13.841187825146639 14.810053420981024
Li 15.937195591452173 15.266556386386599 15.89912957595107
Li 16.73098003006612 12.266624067334833 16.806832856989626
Li 18.168424851165646 12.563186001687423 11.826256381235208
Li 18.21242857994648 10.825948871617324 14.425097250536444
Li 14.252915413853707 14.995526187470405 13.739255195052936
Li 13.854321492584385 10.479927406735515 17.9579952870124
Li 13.906973925365426 12.894357037184013 16.048628852282818
Li 16.819712578724776 15.446152021442229 12.705258044342644
Li 16.243429672586593 12.77612680235169 14.010651301467597
Li 15.277488805837987 10.062349612132929 15.278156642233837
Li 13.440834800350508 17.639614829387607 15.134683224916385
Li 11.95754161700153 15.108770615460989 15.574623712428416
Li 15.405460874056 13.125470139795302 11.296617578058862
Li 10.987135569607652 9.06533456541539 17.700659854256777
Li 11.17253874144992 12.347265200338823 17.372442398809383
Li 14.679900369428283 18.031374704911396 12.439345616782889
Li 16.02365931692053 10.2968408911401 12.134894265862606
Li 13.372028646978519 7.717695822470813 16.15735942928633
Li 12.666091367212587 13.723156513061834 12.097385300530673
Li 13.691198770916202 11.653165366890498 13.527203657271818
Li 15.651704394916683 11.058131314227628 9.090832817853528
Li 14.302984982587043 15.751488738685087 10.579972513557339
Li 13.375725255869265 8.736084629832698 13.102482132237935
Li 11.868351318267772 19.384060809491377 12.921864371627183
Li 13.48754942575931 10.978830268509798 10.85750515830588
Li 13.369105077631973 13.220451342252609 9.07651669559551
Li 10.77252555853548 8.104096765586137 14.577338343800056
Li 11.423765103676558 15.310823093950782 10.129307386417798
Li 13.709334070024603 8.26715414974505 9.874230744299004
Li 12.221456355273583 16.698407790147854 12.689533171718125
Li 12.315369766615929 10.259764240757185 15.682419447605199
Li 12.375800540546175 18.10148763194619 10.080226065795246
Li 11.433618366035933 6.798503248161523 11.776264617103312
Li 10.15398319651981 17.206068238003134 14.562616516634463
Li 11.272763434307624 9.307583511349625 10.712124263409226
Li 10.861576637969076 12.306170896922607 10.699471364507092
Li 11.224538166901082 12.735179705434208 14.517780486405032
Li 12.812823851507066 15.91242424251968 7.741732910505543
Li 11.074821597146649 10.529266779490674 13.018833429389698
Li 9.683188587754058 17.34421442470733 11.4146568937734
Li 8.972416896749008 14.052824677315055 15.480090531859648
Li 10.585600154338675 13.48609473557863 8.002734762672297
Li 9.902417964717669 16.62306805714348 8.320701518742956
Li 12.112379235697361 10.522584898023778 8.286614975160942
Li 8.916972810928213 8.804576506809388 12.038864695610938
Li 10.097234478354826 14.73113389353148 12.843025225727843
Li 8.669327206429491 14.276883885421421 10.252925477875642
Li 10.54354509957297 7.644577777285883 8.836716457807938
Li 9.354241703947636 10.738001132723017 15.436824882742462
Li 8.713253474773223 12.039524133696142 12.613875337957046
Li 9.060453202867649 10.700556054352269 9.44989461527111
