6
Energy = -5.12246716 eV
Li 12.642234289290421 8.95314949906182 9.06195023544255
Li 7.744394938906771 11.547005493428678 11.270844891802549
Li 7.498380670682197 9.381261446129175 9.235243680850648
Li 9.931884218170433 7.970373031932837 8.237421226505328
Li 10.188774333563728 10.200661011666389 10.198413915889786
Li 7.230375614978382 7.183593583372902 7.232170115100811
