7
Energy = -8.4800343 eV
Li 8.349497435348088 7.335434000592642 7.343610593921595
Li 5.760156035423774 8.476094125355013 8.1314528478991
Li 7.7701825276066705 10.099483730607801 6.534771015668522
Li 10.55248195115214 9.259272716455795 7.415151960642039
Li 10.266509989920088 7.170687472114302 9.588210931570316
Li 7.310784432445525 6.643275620661796 9.991167841353782
Li 8.303334628103713 9.328699451607736 9.308582161128498
