7
Energy = -8.31835456 eV
Li 12.15813660148829 10.717389631678744 9.938576025714612
Li 9.657703142477073 10.006885445628084 11.449643858224622
Li 10.276138588164644 8.72919219890588 9.014501142612167
Li 8.999294328327197 7.101726578050055 11.035924631787069
Li 9.455073795008932 11.430771621856554 8.853673286142543
Li 8.70501049010797 9.472509538043953 6.70541208339399
Li 7.541174550547532 9.24624126534697 9.489812242643014
