8
Energy = -9.90117435 eV
Li 11.820532353438434 9.654176074447403 9.038078424838588
Li 10.086616458339348 7.9912374334151455 11.327764619172417
Li 9.871702998442297 11.066219419123167 11.019640042111824
Li 7.116303757840011 9.692692489316656 10.379481809640488
Li 8.162143934612534 6.948093438089241 8.978624969492833
Li 8.761170912483387 11.478316074816368 8.168895085552048
Li 9.331593171996982 9.232375072187835 9.231984543420618
Li 9.696113934757383 8.768111538611958 6.724873107068713
