9
Energy = -10.85930456 eV
Li 14.663941316707158 14.83789171128269 10.054585234408394
Li 12.882564245832459 12.479421776706118 9.29512490165831
Li 10.72817592970777 9.720618794391319 9.606180695008577
Li 10.928378912803298 11.435458616286912 13.858873015494284
Li 12.781868285417952 10.596464212333826 11.58247714174875
Li 12.856943419132529 13.402562894093066 12.09154267869277
Li 10.52348439119083 12.013034366809684 11.133865813438875
Li 8.435211430602031 10.253893523993172 12.002415572928877
Li 10.760631193154488 8.736753331104374 12.518720139078622
