 running on   32 total cores
 distrk:  each k-point on   32 cores,    1 groups
 distr:  one band on    8 cores,    4 groups
 using from now: INCAR     
 vasp.5.3.5 31Mar14 (build Feb 01 2018 12:10:03) gamma-only                     
  
 POSCAR found type information on POSCAR  Ag
 POSCAR found :  1 types and      13 ions
 scaLAPACK will be used
 LDA part: xc-table for Pade appr. of Perdew
 POSCAR, INCAR and KPOINTS ok, starting setup
 WARNING: small aliasing (wrap around) errors must be expected
 FFT: planning ...
 WAVECAR not read
 entering main loop
       N       E                     dE             d eps       ncg     rms          rms(c)
DAV:   1     0.128108019922E+04    0.12811E+04   -0.22237E+04   368   0.556E+02
DAV:   2     0.464784125446E+03   -0.81630E+03   -0.71414E+03   680   0.108E+02
DAV:   3     0.246121323554E+02   -0.44017E+03   -0.40995E+03   528   0.925E+01
DAV:   4    -0.223008041977E+02   -0.46913E+02   -0.43903E+02   432   0.335E+01
DAV:   5    -0.234055488450E+02   -0.11047E+01   -0.10990E+01   408   0.601E+00    0.207E+01
DAV:   6    -0.632766221221E+01    0.17078E+02   -0.53086E+01   376   0.158E+01    0.100E+01
DAV:   7    -0.747993338594E+01   -0.11523E+01   -0.27524E+00   400   0.614E+00    0.525E+00
DAV:   8    -0.947772189557E+01   -0.19978E+01   -0.12656E+00   392   0.316E+00    0.359E+00
DAV:   9    -0.841579896885E+01    0.10619E+01   -0.38152E-01   400   0.288E+00    0.217E+00
DAV:  10    -0.109414983998E+02   -0.25257E+01   -0.69719E-01   400   0.218E+00    0.160E+00
DAV:  11    -0.155874140078E+02   -0.46459E+01   -0.18153E+00   384   0.255E+00    0.102E+00
DAV:  12    -0.183351711455E+02   -0.27478E+01   -0.82115E-01   368   0.159E+00    0.724E-01
DAV:  13    -0.207243155123E+02   -0.23891E+01   -0.66894E-01   380   0.124E+00    0.472E-01
DAV:  14    -0.220017029411E+02   -0.12774E+01   -0.23269E-01   368   0.875E-01    0.256E-01
DAV:  15    -0.225285273080E+02   -0.52682E+00   -0.57472E-02   372   0.417E-01    0.181E-01
DAV:  16    -0.227348217529E+02   -0.20629E+00   -0.82141E-03   400   0.233E-01    0.910E-02
DAV:  17    -0.228899622808E+02   -0.15514E+00   -0.36321E-03   392   0.173E-01    0.567E-02
DAV:  18    -0.229260994966E+02   -0.36137E-01   -0.16093E-03   356   0.810E-02    0.269E-02
DAV:  19    -0.229419259133E+02   -0.15826E-01   -0.82596E-04   276   0.408E-02    0.183E-02
DAV:  20    -0.229442770906E+02   -0.23512E-02   -0.39962E-04   268   0.362E-02    0.121E-02
DAV:  21    -0.229450428088E+02   -0.76572E-03   -0.15061E-04   288   0.194E-02    0.693E-03
DAV:  22    -0.229468015937E+02   -0.17588E-02   -0.12970E-04   264   0.136E-02    0.428E-03
DAV:  23    -0.229477965645E+02   -0.99497E-03   -0.43179E-05   284   0.904E-03    0.340E-03
DAV:  24    -0.229480678209E+02   -0.27126E-03   -0.10176E-05   248   0.636E-03    0.152E-03
DAV:  25    -0.229480867555E+02   -0.18935E-04   -0.59947E-06   248   0.445E-03
   1 F= -.22948087E+02 E0= -.22948087E+02  d E =-.229481E+02  mag=     2.9996
 curvature:   0.00 expect dE= 0.000E+00 dE for cont linesearch  0.000E+00
 trial: gam= 0.00000 g(F)=  0.405E-01 g(S)=  0.000E+00 ort = 0.000E+00 (trialstep = 0.100E+01)
 search vector abs. value=  0.405E-01
 bond charge predicted
       N       E                     dE             d eps       ncg     rms          rms(c)
DAV:   1    -0.229855444148E+02   -0.37477E-01   -0.27379E+00   380   0.464E+00    0.164E-01
DAV:   2    -0.229867829736E+02   -0.12386E-02   -0.13055E-02   400   0.457E-01    0.122E-01
DAV:   3    -0.229867520155E+02    0.30958E-04   -0.28859E-04   316   0.749E-02
   2 F= -.22986752E+02 E0= -.22986752E+02  d E =-.386653E-01  mag=     2.9998
 ZBRENT: can't locate minimum, use default step
 trial-energy change:   -0.038665  1 .order   -0.038349   -0.040475   -0.036224
 step:   4.0000(harm=  9.5194)  dis= 0.03386  next Energy=   -23.140737 (dE=-0.193E+00)
 bond charge predicted
       N       E                     dE             d eps       ncg     rms          rms(c)
DAV:   1    -0.230727440911E+02   -0.85961E-01   -0.24720E+01   368   0.140E+01    0.194E+00
DAV:   2    -0.223733289409E+02    0.69942E+00   -0.94984E-01   376   0.244E+00    0.198E+00
DAV:   3    -0.228029080849E+02   -0.42958E+00   -0.13639E-01   372   0.119E+00    0.749E-01
DAV:   4    -0.229627743566E+02   -0.15987E+00   -0.34342E-02   384   0.478E-01    0.538E-01
DAV:   5    -0.230676999986E+02   -0.10493E+00   -0.21465E-02   388   0.342E-01    0.166E+00
DAV:   6    -0.230401780226E+02    0.27522E-01   -0.90873E-03   376   0.286E-01    0.147E+00
DAV:   7    -0.230069118854E+02    0.33266E-01   -0.51004E-03   400   0.209E-01    0.132E+00
DAV:   8    -0.230015616818E+02    0.53502E-02   -0.24860E-04   304   0.509E-02    0.129E+00
DAV:   9    -0.230046121604E+02   -0.30505E-02   -0.13095E-04   252   0.425E-02    0.132E+00
DAV:  10    -0.229959898639E+02    0.86223E-02   -0.61091E-03   388   0.301E-01    0.110E+00
DAV:  11    -0.229879799145E+02    0.80099E-02   -0.78320E-03   408   0.307E-01    0.859E-01
DAV:  12    -0.229966493700E+02   -0.86695E-02   -0.21863E-03   392   0.155E-01    0.731E-01
DAV:  13    -0.230895491290E+02   -0.92900E-01   -0.10676E-02   380   0.263E-01    0.520E-01
DAV:  14    -0.231098432372E+02   -0.20294E-01   -0.48366E-03   404   0.226E-01    0.338E-01
DAV:  15    -0.231173334591E+02   -0.74902E-02   -0.66864E-03   400   0.288E-01    0.120E-01
DAV:  16    -0.231182851551E+02   -0.95170E-03   -0.28646E-04   308   0.688E-02    0.133E-01
DAV:  17    -0.231197875369E+02   -0.15024E-02   -0.23155E-04   268   0.350E-02    0.105E-01
DAV:  18    -0.231221476793E+02   -0.23601E-02   -0.43728E-04   280   0.606E-02    0.135E-01
DAV:  19    -0.231256391550E+02   -0.34915E-02   -0.17771E-03   376   0.535E-02    0.152E-01
DAV:  20    -0.231265666242E+02   -0.92747E-03   -0.57327E-04   288   0.405E-02    0.138E-01
DAV:  21    -0.231265565537E+02    0.10071E-04   -0.16342E-05   244   0.111E-02
   3 F= -.23126557E+02 E0= -.23126557E+02  d E =-.178470E+00  mag=     1.1075
 curvature:  -2.76 expect dE=-0.807E-01 dE for cont linesearch -0.501E-01
 ZBRENT: increasing intervall
 opt :  10.0000  next Energy=   -23.234417 (dE=-0.286E+00)
 bond charge predicted
       N       E                     dE             d eps       ncg     rms          rms(c)
DAV:   1    -0.231951321556E+02   -0.68566E-01   -0.99322E+01   368   0.281E+01    0.791E-01
DAV:   2    -0.232362859756E+02   -0.41154E-01   -0.49140E-01   396   0.287E+00    0.636E-01
DAV:   3    -0.232339851130E+02    0.23009E-02   -0.12724E-02   392   0.671E-01    0.405E-01
DAV:   4    -0.232308359004E+02    0.31492E-02   -0.43757E-03   392   0.227E-01    0.154E-01
DAV:   5    -0.232309085670E+02   -0.72667E-04   -0.99164E-04   400   0.103E-01
   4 F= -.23230909E+02 E0= -.23230909E+02  d E =-.282822E+00  mag=     1.0387
 curvature:  -5.94 expect dE=-0.902E-01 dE for cont linesearch -0.144E-01
 ZBRENT: increasing intervall
 opt :  22.0000  next Energy=   -23.143073 (dE=-0.195E+00)
 bond charge predicted
       N       E                     dE             d eps       ncg     rms          rms(c)
DAV:   1    -0.229910136275E+02    0.23982E+00   -0.40605E+02   368   0.576E+01    0.146E+00
DAV:   2    -0.231730792540E+02   -0.18207E+00   -0.20141E+00   396   0.586E+00    0.115E+00
DAV:   3    -0.231733997084E+02   -0.32045E-03   -0.42165E-02   396   0.103E+00    0.762E-01
DAV:   4    -0.231721184663E+02    0.12812E-02   -0.86466E-03   396   0.378E-01    0.358E-01
DAV:   5    -0.231735940909E+02   -0.14756E-02   -0.25572E-03   388   0.216E-01    0.734E-02
DAV:   6    -0.231741195533E+02   -0.52546E-03   -0.19854E-04   292   0.473E-02    0.431E-02
DAV:   7    -0.231749041709E+02   -0.78462E-03   -0.19449E-04   260   0.400E-02    0.162E-02
DAV:   8    -0.231755260443E+02   -0.62187E-03   -0.31454E-05   272   0.186E-02    0.863E-03
DAV:   9    -0.231761771846E+02   -0.65114E-03   -0.21955E-05   264   0.103E-02    0.522E-03
DAV:  10    -0.231766249845E+02   -0.44780E-03   -0.11416E-05   264   0.585E-03    0.354E-03
DAV:  11    -0.231773374165E+02   -0.71243E-03   -0.42571E-05   264   0.847E-03    0.242E-03
DAV:  12    -0.231775255512E+02   -0.18813E-03   -0.74814E-06   280   0.414E-03    0.169E-03
DAV:  13    -0.231776056427E+02   -0.80092E-04   -0.32424E-06   256   0.242E-03
   5 F= -.23177606E+02 E0= -.23177606E+02  d E =-.229519E+00  mag=     0.9997
 curvature:  36.34 expect dE= 0.112E+01 dE for cont linesearch  0.349E+00
 ZBRENT: bracketing found
 ZBRENT: interpolating
 opt :  14.0102  next Energy=   -23.250740 (dE=-0.303E+00)
 bond charge predicted
       N       E                     dE             d eps       ncg     rms          rms(c)
DAV:   1    -0.231793575448E+02   -0.18320E-02   -0.17700E+02   368   0.376E+01    0.105E+00
DAV:   2    -0.232597919742E+02   -0.80434E-01   -0.91727E-01   380   0.389E+00    0.684E-01
DAV:   3    -0.232589265280E+02    0.86545E-03   -0.23707E-02   396   0.861E-01    0.409E-01
DAV:   4    -0.232579575953E+02    0.96893E-03   -0.42127E-03   392   0.261E-01    0.167E-01
DAV:   5    -0.232580682076E+02   -0.11061E-03   -0.74351E-04   396   0.951E-02    0.453E-02
DAV:   6    -0.232581823287E+02   -0.11412E-03   -0.10098E-04   280   0.352E-02    0.236E-02
DAV:   7    -0.232583561154E+02   -0.17379E-03   -0.99052E-05   260   0.296E-02    0.899E-03
DAV:   8    -0.232584999342E+02   -0.14382E-03   -0.13455E-05   280   0.131E-02    0.517E-03
DAV:   9    -0.232586486790E+02   -0.14874E-03   -0.11790E-05   256   0.636E-03    0.331E-03
DAV:  10    -0.232587873585E+02   -0.13868E-03   -0.81601E-06   260   0.479E-03    0.220E-03
DAV:  11    -0.232589658851E+02   -0.17853E-03   -0.14947E-05   252   0.633E-03    0.128E-03
DAV:  12    -0.232590459535E+02   -0.80068E-04   -0.45911E-06   272   0.322E-03
   6 F= -.23259046E+02 E0= -.23259046E+02  d E =-.310959E+00  mag=     1.0000
 curvature:  -2.07 expect dE=-0.298E-01 dE for cont linesearch -0.120E-04
 trial: gam= 0.36828 g(F)=  0.144E-01 g(S)=  0.000E+00 ort =-0.484E-03 (trialstep = 0.360E+01)
 search vector abs. value=  0.196E-01
 bond charge predicted
       N       E                     dE             d eps       ncg     rms          rms(c)
DAV:   1    -0.232980770101E+02   -0.39111E-01   -0.17134E+01   368   0.117E+01    0.221E-01
DAV:   2    -0.233059707939E+02   -0.78938E-02   -0.85167E-02   392   0.118E+00    0.177E-01
DAV:   3    -0.233057256948E+02    0.24510E-03   -0.18627E-03   404   0.194E-01    0.113E-01
DAV:   4    -0.233050506381E+02    0.67506E-03   -0.61099E-04   324   0.670E-02    0.605E-02
DAV:   5    -0.233044700207E+02    0.58062E-03   -0.67218E-04   292   0.570E-02    0.207E-02
DAV:   6    -0.233046119523E+02   -0.14193E-03   -0.56083E-05   264   0.181E-02    0.151E-02
DAV:   7    -0.233049179086E+02   -0.30596E-03   -0.88590E-05   256   0.190E-02    0.971E-03
DAV:   8    -0.233052167456E+02   -0.29884E-03   -0.71301E-05   260   0.146E-02    0.717E-03
DAV:   9    -0.233056650963E+02   -0.44835E-03   -0.12464E-04   260   0.157E-02    0.463E-03
DAV:  10    -0.233059624992E+02   -0.29740E-03   -0.35930E-05   264   0.846E-03    0.331E-03
DAV:  11    -0.233062694096E+02   -0.30691E-03   -0.37426E-05   252   0.828E-03    0.163E-03
DAV:  12    -0.233064597108E+02   -0.19030E-03   -0.81481E-06   272   0.429E-03    0.101E-03
DAV:  13    -0.233065737559E+02   -0.11405E-03   -0.31211E-06   252   0.259E-03    0.682E-04
DAV:  14    -0.233066409057E+02   -0.67150E-04   -0.10721E-06   260   0.152E-03
   7 F= -.23306641E+02 E0= -.23306641E+02  d E =-.475950E-01  mag=     1.0000
 ZBRENT: can't locate minimum, use default step
 trial-energy change:   -0.047595  1 .order   -0.047401   -0.051305   -0.043497
 step:  14.4082(harm= 23.6676)  dis= 0.05273  next Energy=   -23.427600 (dE=-0.169E+00)
 bond charge predicted
       N       E                     dE             d eps       ncg     rms          rms(c)
DAV:   1    -0.233192655177E+02   -0.12692E-01   -0.15523E+02   368   0.354E+01    0.702E-01
DAV:   2    -0.233934148308E+02   -0.74149E-01   -0.76897E-01   380   0.354E+00    0.518E-01
DAV:   3    -0.233928615378E+02    0.55329E-03   -0.14079E-02   408   0.518E-01    0.330E-01
DAV:   4    -0.233912438930E+02    0.16176E-02   -0.32694E-03   396   0.198E-01    0.156E-01
DAV:   5    -0.233909766902E+02    0.26720E-03   -0.10772E-03   392   0.111E-01    0.422E-02
DAV:   6    -0.233912304792E+02   -0.25379E-03   -0.10552E-04   260   0.305E-02    0.247E-02
DAV:   7    -0.233915695983E+02   -0.33912E-03   -0.72834E-05   260   0.243E-02    0.879E-03
DAV:   8    -0.233918926927E+02   -0.32309E-03   -0.16428E-05   260   0.105E-02    0.423E-03
DAV:   9    -0.233922369376E+02   -0.34424E-03   -0.12957E-05   256   0.643E-03    0.273E-03
DAV:  10    -0.233924768955E+02   -0.23996E-03   -0.51958E-06   272   0.353E-03    0.187E-03
DAV:  11    -0.233928455337E+02   -0.36864E-03   -0.15903E-05   268   0.459E-03    0.101E-03
DAV:  12    -0.233929515086E+02   -0.10597E-03   -0.19778E-06   280   0.213E-03    0.721E-04
DAV:  13    -0.233930104314E+02   -0.58923E-04   -0.92932E-07   252   0.128E-03
   8 F= -.23393010E+02 E0= -.23393010E+02  d E =-.133964E+00  mag=     1.0000
 curvature: -12.79 expect dE=-0.967E-01 dE for cont linesearch -0.907E-02
 ZBRENT: extrapolating
 opt :  19.2254  next Energy=   -23.401979 (dE=-0.143E+00)
 bond charge predicted
       N       E                     dE             d eps       ncg     rms          rms(c)
DAV:   1    -0.233872157972E+02    0.57357E-02   -0.30645E+01   368   0.157E+01    0.304E-01
DAV:   2    -0.234018140707E+02   -0.14598E-01   -0.14985E-01   388   0.155E+00    0.236E-01
DAV:   3    -0.234017569419E+02    0.57129E-04   -0.27027E-03   404   0.221E-01    0.152E-01
DAV:   4    -0.234015240871E+02    0.23285E-03   -0.77817E-04   404   0.961E-02    0.650E-02
DAV:   5    -0.234015398585E+02   -0.15771E-04   -0.14186E-04   252   0.466E-02
   9 F= -.23401540E+02 E0= -.23401540E+02  d E =-.142494E+00  mag=     1.0000
 curvature: -12.65 expect dE=-0.114E+00 dE for cont linesearch -0.142E-05
 trial: gam= 0.32749 g(F)=  0.899E-02 g(S)=  0.000E+00 ort =-0.469E-04 (trialstep = 0.673E+01)
 search vector abs. value=  0.111E-01
 bond charge predicted
       N       E                     dE             d eps       ncg     rms          rms(c)
DAV:   1    -0.234292864595E+02   -0.27762E-01   -0.33911E+01   368   0.164E+01    0.398E-01
DAV:   2    -0.234451779115E+02   -0.15891E-01   -0.16568E-01   396   0.159E+00    0.282E-01
DAV:   3    -0.234450365657E+02    0.14135E-03   -0.30134E-03   396   0.205E-01    0.170E-01
DAV:   4    -0.234448563522E+02    0.18021E-03   -0.88651E-04   404   0.113E-01    0.482E-02
DAV:   5    -0.234448908840E+02   -0.34532E-04   -0.45121E-05   256   0.374E-02
  10 F= -.23444891E+02 E0= -.23444891E+02  d E =-.433510E-01  mag=     1.0000
 trial-energy change:   -0.043351  1 .order   -0.043939   -0.060388   -0.027490
 step:  13.9572(harm= 12.3478)  dis= 0.05168  next Energy=   -23.458935 (dE=-0.574E-01)
 bond charge predicted
       N       E                     dE             d eps       ncg     rms          rms(c)
DAV:   1    -0.234372303567E+02    0.76260E-02   -0.39176E+01   368   0.177E+01    0.429E-01
DAV:   2    -0.234556251673E+02   -0.18395E-01   -0.19201E-01   392   0.172E+00    0.295E-01
DAV:   3    -0.234554605375E+02    0.16463E-03   -0.35072E-03   388   0.222E-01    0.177E-01
DAV:   4    -0.234552917469E+02    0.16879E-03   -0.98940E-04   396   0.121E-01    0.507E-02
DAV:   5    -0.234553486448E+02   -0.56898E-04   -0.52894E-05   244   0.402E-02
  11 F= -.23455349E+02 E0= -.23455349E+02  d E =-.538088E-01  mag=     1.0000
 curvature:  -6.98 expect dE=-0.124E-01 dE for cont linesearch -0.664E-03
 trial: gam= 0.27139 g(F)=  0.178E-02 g(S)=  0.000E+00 ort =-0.103E-02 (trialstep = 0.817E+01)
 search vector abs. value=  0.204E-02
 bond charge predicted
       N       E                     dE             d eps       ncg     rms          rms(c)
DAV:   1    -0.234614761996E+02   -0.61845E-02   -0.91577E+00   368   0.856E+00    0.156E-01
DAV:   2    -0.234658639449E+02   -0.43877E-02   -0.44304E-02   396   0.834E-01    0.130E-01
DAV:   3    -0.234658700854E+02   -0.61405E-05   -0.72574E-04   416   0.104E-01
  12 F= -.23465870E+02 E0= -.23465870E+02  d E =-.105214E-01  mag=     1.0000
 trial-energy change:   -0.010521  1 .order   -0.010332   -0.012280   -0.008384
 step:  25.7604(harm= 25.7604)  dis= 0.04376  next Energy=   -23.474702 (dE=-0.194E-01)
 bond charge predicted
       N       E                     dE             d eps       ncg     rms          rms(c)
DAV:   1    -0.234558656815E+02    0.99983E-02   -0.42555E+01   368   0.185E+01    0.359E-01
DAV:   2    -0.234758534932E+02   -0.19988E-01   -0.20556E-01   404   0.180E+00    0.298E-01
DAV:   3    -0.234756076034E+02    0.24589E-03   -0.33710E-03   408   0.224E-01    0.197E-01
DAV:   4    -0.234751894102E+02    0.41819E-03   -0.13471E-03   396   0.122E-01    0.778E-02
DAV:   5    -0.234752900070E+02   -0.10060E-03   -0.17500E-04   280   0.529E-02    0.234E-02
DAV:   6    -0.234754301052E+02   -0.14010E-03   -0.28221E-05   260   0.170E-02    0.150E-02
DAV:   7    -0.234755945500E+02   -0.16444E-03   -0.25725E-05   252   0.136E-02    0.493E-03
DAV:   8    -0.234757109011E+02   -0.11635E-03   -0.60930E-06   268   0.658E-03    0.203E-03
DAV:   9    -0.234758022267E+02   -0.91326E-04   -0.35584E-06   240   0.337E-03
  13 F= -.23475802E+02 E0= -.23475802E+02  d E =-.204536E-01  mag=     1.0000
 curvature: -17.48 expect dE=-0.260E-01 dE for cont linesearch -0.554E-04
 trial: gam= 0.56650 g(F)=  0.149E-02 g(S)=  0.000E+00 ort = 0.804E-04 (trialstep = 0.107E+02)
 search vector abs. value=  0.223E-02
 bond charge predicted
       N       E                     dE             d eps       ncg     rms          rms(c)
DAV:   1    -0.234800314445E+02   -0.43205E-02   -0.17157E+01   368   0.117E+01    0.234E-01
DAV:   2    -0.234877045576E+02   -0.76731E-02   -0.79312E-02   388   0.110E+00    0.180E-01
DAV:   3    -0.234875377577E+02    0.16680E-03   -0.13107E-03   396   0.136E-01    0.119E-01
DAV:   4    -0.234873066887E+02    0.23107E-03   -0.58049E-04   384   0.758E-02    0.360E-02
DAV:   5    -0.234873730419E+02   -0.66353E-04   -0.33695E-05   248   0.236E-02
  14 F= -.23487373E+02 E0= -.23487373E+02  d E =-.115708E-01  mag=     1.0000
 trial-energy change:   -0.011571  1 .order   -0.011853   -0.016358   -0.007347
 step:  19.3927(harm= 19.3927)  dis= 0.04551  next Energy=   -23.490651 (dE=-0.148E-01)
 bond charge predicted
       N       E                     dE             d eps       ncg     rms          rms(c)
DAV:   1    -0.234852736137E+02    0.20331E-02   -0.11395E+01   368   0.952E+00    0.188E-01
DAV:   2    -0.234903415658E+02   -0.50680E-02   -0.52898E-02   384   0.899E-01    0.142E-01
DAV:   3    -0.234902439735E+02    0.97592E-04   -0.86713E-04   396   0.111E-01
  15 F= -.23490244E+02 E0= -.23490244E+02  d E =-.144417E-01  mag=     1.0000
 curvature: -14.13 expect dE=-0.789E-02 dE for cont linesearch -0.682E-05
 trial: gam= 0.48020 g(F)=  0.558E-03 g(S)=  0.000E+00 ort =-0.328E-04 (trialstep = 0.124E+02)
 search vector abs. value=  0.104E-02
 bond charge predicted
       N       E                     dE             d eps       ncg     rms          rms(c)
DAV:   1    -0.234912123929E+02   -0.87083E-03   -0.10795E+01   368   0.930E+00    0.127E-01
DAV:   2    -0.234961522834E+02   -0.49399E-02   -0.51848E-02   380   0.897E-01    0.110E-01
DAV:   3    -0.234960597253E+02    0.92558E-04   -0.83136E-04   404   0.112E-01
  16 F= -.23496060E+02 E0= -.23496060E+02  d E =-.581575E-02  mag=     1.0000
 ZBRENT: can't locate minimum, use default step
 trial-energy change:   -0.005816  1 .order   -0.006054   -0.006740   -0.005368
 step:  49.6973(harm= 61.0037)  dis= 0.04955  next Energy=   -23.506792 (dE=-0.165E-01)
 bond charge predicted
       N       E                     dE             d eps       ncg     rms          rms(c)
DAV:   1    -0.234597154565E+02    0.36437E-01   -0.97510E+01   368   0.280E+01    0.434E-01
DAV:   2    -0.235051591596E+02   -0.45444E-01   -0.46928E-01   380   0.270E+00    0.341E-01
DAV:   3    -0.235043357155E+02    0.82344E-03   -0.74216E-03   400   0.333E-01    0.240E-01
DAV:   4    -0.235033520427E+02    0.98367E-03   -0.26147E-03   380   0.161E-01    0.106E-01
DAV:   5    -0.235038469197E+02   -0.49488E-03   -0.93424E-04   388   0.949E-02    0.389E-02
DAV:   6    -0.235043082614E+02   -0.46134E-03   -0.54565E-05   260   0.212E-02    0.250E-02
DAV:   7    -0.235048995882E+02   -0.59133E-03   -0.76342E-05   256   0.222E-02    0.738E-03
DAV:   8    -0.235052104556E+02   -0.31087E-03   -0.18172E-05   284   0.952E-03    0.370E-03
DAV:   9    -0.235053572613E+02   -0.14681E-03   -0.49203E-06   244   0.446E-03    0.275E-03
DAV:  10    -0.235055210775E+02   -0.16382E-03   -0.13267E-05   268   0.462E-03    0.153E-03
DAV:  11    -0.235055963346E+02   -0.75257E-04   -0.89758E-06   260   0.329E-03
  17 F= -.23505596E+02 E0= -.23505596E+02  d E =-.153524E-01  mag=     1.0000
 curvature: -55.37 expect dE=-0.472E-01 dE for cont linesearch -0.734E-04
 trial: gam= 1.39342 g(F)=  0.852E-03 g(S)=  0.000E+00 ort = 0.372E-04 (trialstep = 0.695E+01)
 search vector abs. value=  0.298E-02
 bond charge predicted
       N       E                     dE             d eps       ncg     rms          rms(c)
DAV:   1    -0.235069853373E+02   -0.14643E-02   -0.96491E+00   368   0.876E+00    0.115E-01
DAV:   2    -0.235115568444E+02   -0.45715E-02   -0.45830E-02   380   0.847E-01    0.108E-01
DAV:   3    -0.235115207804E+02    0.36064E-04   -0.72354E-04   404   0.104E-01
  18 F= -.23511521E+02 E0= -.23511521E+02  d E =-.592445E-02  mag=     1.0000
 ZBRENT: can't locate minimum, use default step
 trial-energy change:   -0.005924  1 .order   -0.005861   -0.006283   -0.005439
 step:  27.8106(harm= 51.7891)  dis= 0.03978  next Energy=   -23.528995 (dE=-0.234E-01)
 bond charge predicted
       N       E                     dE             d eps       ncg     rms          rms(c)
DAV:   1    -0.234827025123E+02    0.28854E-01   -0.87340E+01   368   0.265E+01    0.364E-01
DAV:   2    -0.235234300495E+02   -0.40728E-01   -0.41166E-01   388   0.255E+00    0.348E-01
DAV:   3    -0.235230583449E+02    0.37170E-03   -0.63973E-03   400   0.305E-01    0.259E-01
DAV:   4    -0.235219025087E+02    0.11558E-02   -0.21015E-03   384   0.148E-01    0.140E-01
DAV:   5    -0.235219252935E+02   -0.22785E-04   -0.14907E-03   384   0.116E-01    0.475E-02
DAV:   6    -0.235221299587E+02   -0.20467E-03   -0.47815E-05   252   0.210E-02    0.301E-02
DAV:   7    -0.235223844674E+02   -0.25451E-03   -0.59698E-05   256   0.219E-02    0.920E-03
DAV:   8    -0.235225585473E+02   -0.17408E-03   -0.13365E-05   272   0.111E-02    0.294E-03
DAV:   9    -0.235226700285E+02   -0.11148E-03   -0.52743E-06   244   0.531E-03    0.241E-03
DAV:  10    -0.235227437672E+02   -0.73739E-04   -0.19426E-06   252   0.278E-03
  19 F= -.23522744E+02 E0= -.23522744E+02  d E =-.171474E-01  mag=     1.0000
 curvature: -60.91 expect dE=-0.445E-01 dE for cont linesearch -0.199E-02
 ZBRENT: increasing intervall
 opt :  69.5266  next Energy=   -23.516148 (dE=-0.106E-01)
 bond charge predicted
       N       E                     dE             d eps       ncg     rms          rms(c)
DAV:   1    -0.233440588727E+02    0.17861E+00   -0.35520E+02   368   0.540E+01    0.838E-01
DAV:   2    -0.235148109339E+02   -0.17075E+00   -0.17101E+00   384   0.524E+00    0.696E-01
DAV:   3    -0.235135331803E+02    0.12778E-02   -0.26718E-02   412   0.629E-01    0.487E-01
DAV:   4    -0.235098379152E+02    0.36953E-02   -0.60066E-03   392   0.245E-01    0.288E-01
DAV:   5    -0.235093950761E+02    0.44284E-03   -0.49013E-03   384   0.205E-01    0.841E-02
DAV:   6    -0.235096753487E+02   -0.28027E-03   -0.11034E-04   268   0.336E-02    0.525E-02
DAV:   7    -0.235100170180E+02   -0.34167E-03   -0.82030E-05   260   0.263E-02    0.188E-02
DAV:   8    -0.235102583719E+02   -0.24135E-03   -0.20532E-05   272   0.147E-02    0.590E-03
DAV:   9    -0.235104567663E+02   -0.19839E-03   -0.86799E-06   244   0.710E-03    0.283E-03
DAV:  10    -0.235105741884E+02   -0.11742E-03   -0.31242E-06   260   0.360E-03    0.184E-03
DAV:  11    -0.235107324857E+02   -0.15830E-03   -0.68830E-06   252   0.371E-03    0.149E-03
DAV:  12    -0.235108082312E+02   -0.75746E-04   -0.44359E-06   260   0.271E-03
  20 F= -.23510808E+02 E0= -.23510808E+02  d E =-.521190E-02  mag=     1.0000
 curvature: 201.59 expect dE= 0.875E+00 dE for cont linesearch  0.581E-01
 ZBRENT: bracketing found
 ZBRENT: interpolating
 opt :  38.3235  next Energy=   -23.524384 (dE=-0.188E-01)
 bond charge predicted
       N       E                     dE             d eps       ncg     rms          rms(c)
DAV:   1    -0.234313010453E+02    0.79431E-01   -0.19681E+02   368   0.399E+01    0.634E-01
DAV:   2    -0.235270500602E+02   -0.95749E-01   -0.96426E-01   396   0.390E+00    0.470E-01
DAV:   3    -0.235260598379E+02    0.99022E-03   -0.15206E-02   400   0.476E-01    0.321E-01
DAV:   4    -0.235239852153E+02    0.20746E-02   -0.40084E-03   396   0.199E-01    0.163E-01
DAV:   5    -0.235238917645E+02    0.93451E-04   -0.19779E-03   400   0.135E-01    0.502E-02
DAV:   6    -0.235240311882E+02   -0.13942E-03   -0.81566E-05   260   0.278E-02    0.325E-02
DAV:   7    -0.235242400232E+02   -0.20883E-03   -0.51242E-05   264   0.210E-02    0.110E-02
DAV:   8    -0.235243987639E+02   -0.15874E-03   -0.11101E-05   264   0.983E-03    0.337E-03
DAV:   9    -0.235245055228E+02   -0.10676E-03   -0.33678E-06   272   0.489E-03    0.197E-03
DAV:  10    -0.235245800930E+02   -0.74570E-04   -0.17201E-06   260   0.270E-03
  21 F= -.23524580E+02 E0= -.23524580E+02  d E =-.189838E-01  mag=     1.0000
 curvature:  -5.69 expect dE=-0.673E-02 dE for cont linesearch -0.233E-05
 trial: gam= 1.22402 g(F)=  0.118E-02 g(S)=  0.000E+00 ort = 0.349E-04 (trialstep = 0.687E+01)
 search vector abs. value=  0.573E-02
 bond charge predicted
       N       E                     dE             d eps       ncg     rms          rms(c)
DAV:   1    -0.235234955647E+02    0.10100E-02   -0.18190E+01   368   0.120E+01    0.159E-01
DAV:   2    -0.235320338695E+02   -0.85383E-02   -0.85741E-02   404   0.116E+00    0.151E-01
DAV:   3    -0.235319889722E+02    0.44897E-04   -0.13251E-03   408   0.140E-01    0.112E-01
DAV:   4    -0.235317849060E+02    0.20407E-03   -0.39690E-04   388   0.622E-02    0.613E-02
DAV:   5    -0.235317615238E+02    0.23382E-04   -0.29539E-04   332   0.527E-02
  22 F= -.23531762E+02 E0= -.23531762E+02  d E =-.718143E-02  mag=     1.0000
 ZBRENT: can't locate minimum, use default step
 trial-energy change:   -0.007181  1 .order   -0.007375   -0.008422   -0.006328
 step:  27.4970(harm= 27.6464)  dis= 0.05829  next Energy=   -23.541516 (dE=-0.169E-01)
 bond charge predicted
       N       E                     dE             d eps       ncg     rms          rms(c)
DAV:   1    -0.234618033522E+02    0.69982E-01   -0.16560E+02   368   0.365E+01    0.508E-01
DAV:   2    -0.235406288452E+02   -0.78825E-01   -0.79100E-01   380   0.353E+00    0.469E-01
DAV:   3    -0.235401365532E+02    0.49229E-03   -0.12252E-02   400   0.423E-01    0.339E-01
DAV:   4    -0.235383068685E+02    0.18297E-02   -0.30568E-03   392   0.171E-01    0.197E-01
DAV:   5    -0.235380951693E+02    0.21170E-03   -0.25551E-03   392   0.148E-01    0.627E-02
DAV:   6    -0.235381812632E+02   -0.86094E-04   -0.58384E-05   256   0.243E-02
  23 F= -.23538181E+02 E0= -.23538181E+02  d E =-.136012E-01  mag=     1.0000
 curvature: -64.63 expect dE=-0.511E-01 dE for cont linesearch -0.100E-03
 trial: gam= 0.59971 g(F)=  0.791E-03 g(S)=  0.000E+00 ort =-0.944E-04 (trialstep = 0.110E+02)
 search vector abs. value=  0.274E-02
 bond charge predicted
       N       E                     dE             d eps       ncg     rms          rms(c)
DAV:   1    -0.235342484073E+02    0.38468E-02   -0.22241E+01   368   0.132E+01    0.159E-01
DAV:   2    -0.235450174455E+02   -0.10769E-01   -0.10610E-01   392   0.127E+00    0.135E-01
DAV:   3    -0.235449872148E+02    0.30231E-04   -0.15406E-03   396   0.145E-01    0.103E-01
DAV:   4    -0.235448247128E+02    0.16250E-03   -0.44193E-04   368   0.637E-02    0.507E-02
DAV:   5    -0.235449078004E+02   -0.83088E-04   -0.32426E-04   372   0.540E-02
  24 F= -.23544908E+02 E0= -.23544908E+02  d E =-.672654E-02  mag=     1.0000
 trial-energy change:   -0.006727  1 .order   -0.006887   -0.008072   -0.005702
 step:  37.4597(harm= 37.4597)  dis= 0.05048  next Energy=   -23.551927 (dE=-0.137E-01)
 bond charge predicted
       N       E                     dE             d eps       ncg     rms          rms(c)
DAV:   1    -0.234880200775E+02    0.56805E-01   -0.12981E+02   368   0.321E+01    0.454E-01
DAV:   2    -0.235520250743E+02   -0.64005E-01   -0.62811E-01   384   0.311E+00    0.336E-01
DAV:   3    -0.235515703240E+02    0.45475E-03   -0.93401E-03   396   0.359E-01    0.246E-01
DAV:   4    -0.235503540241E+02    0.12163E-02   -0.25691E-03   388   0.152E-01    0.117E-01
DAV:   5    -0.235503616016E+02   -0.75775E-05   -0.13622E-03   400   0.108E-01    0.368E-02
DAV:   6    -0.235504113458E+02   -0.49744E-04   -0.42091E-05   256   0.206E-02
  25 F= -.23550411E+02 E0= -.23550411E+02  d E =-.122301E-01  mag=     1.0000
 curvature: -69.86 expect dE=-0.604E-01 dE for cont linesearch -0.223E-04
 trial: gam= 1.01184 g(F)=  0.865E-03 g(S)=  0.000E+00 ort =-0.295E-04 (trialstep = 0.124E+02)
 search vector abs. value=  0.361E-02
 bond charge predicted
       N       E                     dE             d eps       ncg     rms          rms(c)
DAV:   1    -0.235407367454E+02    0.96249E-02   -0.37026E+01   368   0.171E+01    0.199E-01
DAV:   2    -0.235590525632E+02   -0.18316E-01   -0.17745E-01   396   0.166E+00    0.188E-01
DAV:   3    -0.235590713869E+02   -0.18824E-04   -0.26065E-03   400   0.189E-01    0.144E-01
DAV:   4    -0.235586902456E+02    0.38114E-03   -0.69336E-04   404   0.815E-02    0.810E-02
DAV:   5    -0.235586992596E+02   -0.90141E-05   -0.69725E-04   396   0.768E-02
  26 F= -.23558699E+02 E0= -.23558699E+02  d E =-.828791E-02  mag=     1.0000
 trial-energy change:   -0.008288  1 .order   -0.008828   -0.010325   -0.007331
 step:  42.6290(harm= 42.6290)  dis= 0.08353  next Energy=   -23.568217 (dE=-0.178E-01)
 bond charge predicted
       N       E                     dE             d eps       ncg     rms          rms(c)
DAV:   1    -0.234524492090E+02    0.10624E+00   -0.22469E+02   368   0.426E+01    0.600E-01
DAV:   2    -0.235628941198E+02   -0.11044E+00   -0.10897E+00   396   0.414E+00    0.494E-01
DAV:   3    -0.235621387224E+02    0.75540E-03   -0.16461E-02   408   0.486E-01    0.349E-01
DAV:   4    -0.235598304762E+02    0.23082E-02   -0.37935E-03   396   0.188E-01    0.199E-01
DAV:   5    -0.235595846210E+02    0.24586E-03   -0.31989E-03   392   0.163E-01    0.611E-02
DAV:   6    -0.235596464333E+02   -0.61812E-04   -0.61105E-05   264   0.262E-02
  27 F= -.23559646E+02 E0= -.23559646E+02  d E =-.923509E-02  mag=     1.0000
 curvature: -92.06 expect dE=-0.111E+00 dE for cont linesearch -0.348E-02
 ZBRENT: interpolating
 opt :  31.0121  next Energy=   -23.561792 (dE=-0.114E-01)
 bond charge predicted
       N       E                     dE             d eps       ncg     rms          rms(c)
DAV:   1    -0.235476896711E+02    0.11895E-01   -0.32740E+01   368   0.161E+01    0.186E-01
DAV:   2    -0.235634195574E+02   -0.15730E-01   -0.15557E-01   392   0.155E+00    0.176E-01
DAV:   3    -0.235633386417E+02    0.80916E-04   -0.23015E-03   408   0.178E-01    0.136E-01
DAV:   4    -0.235629871192E+02    0.35152E-03   -0.61613E-04   392   0.762E-02    0.758E-02
DAV:   5    -0.235629860462E+02    0.10730E-05   -0.62671E-04   404   0.732E-02
  28 F= -.23562986E+02 E0= -.23562986E+02  d E =-.125747E-01  mag=     1.0000
 curvature: -56.73 expect dE=-0.344E-01 dE for cont linesearch -0.350E-03
 trial: gam= 0.69292 g(F)=  0.606E-03 g(S)=  0.000E+00 ort =-0.149E-03 (trialstep = 0.161E+02)
 search vector abs. value=  0.213E-02
 bond charge predicted
       N       E                     dE             d eps       ncg     rms          rms(c)
DAV:   1    -0.235518458077E+02    0.11141E-01   -0.37086E+01   368   0.172E+01    0.217E-01
DAV:   2    -0.235695116524E+02   -0.17666E-01   -0.17599E-01   396   0.165E+00    0.205E-01
DAV:   3    -0.235693791515E+02    0.13250E-03   -0.26233E-03   396   0.191E-01    0.155E-01
DAV:   4    -0.235689053982E+02    0.47375E-03   -0.87944E-04   388   0.901E-02    0.818E-02
DAV:   5    -0.235688904225E+02    0.14976E-04   -0.58923E-04   388   0.714E-02
  29 F= -.23568890E+02 E0= -.23568890E+02  d E =-.590438E-02  mag=     1.0000
 trial-energy change:   -0.005904  1 .order   -0.005914   -0.008086   -0.003743
 step:  29.9543(harm= 29.9543)  dis= 0.04356  next Energy=   -23.570513 (dE=-0.753E-02)
 bond charge predicted
       N       E                     dE             d eps       ncg     rms          rms(c)
DAV:   1    -0.235561732082E+02    0.12732E-01   -0.27490E+01   368   0.148E+01    0.199E-01
DAV:   2    -0.235693361409E+02   -0.13163E-01   -0.13191E-01   388   0.142E+00    0.172E-01
DAV:   3    -0.235692622780E+02    0.73863E-04   -0.19716E-03   388   0.165E-01    0.124E-01
DAV:   4    -0.235690038525E+02    0.25843E-03   -0.62233E-04   388   0.771E-02    0.624E-02
DAV:   5    -0.235690234593E+02   -0.19607E-04   -0.30651E-04   308   0.543E-02
  30 F= -.23569023E+02 E0= -.23569023E+02  d E =-.603741E-02  mag=     1.0000
 curvature: -63.53 expect dE=-0.296E-01 dE for cont linesearch -0.355E-03
 trial: gam= 0.76909 g(F)=  0.466E-03 g(S)=  0.000E+00 ort =-0.109E-03 (trialstep = 0.189E+02)
 search vector abs. value=  0.156E-02
 bond charge predicted
       N       E                     dE             d eps       ncg     rms          rms(c)
DAV:   1    -0.235552106677E+02    0.13793E-01   -0.37179E+01   368   0.172E+01    0.206E-01
DAV:   2    -0.235731416510E+02   -0.17931E-01   -0.17626E-01   396   0.164E+00    0.168E-01
DAV:   3    -0.235730329596E+02    0.10869E-03   -0.25625E-03   400   0.183E-01    0.128E-01
DAV:   4    -0.235726683488E+02    0.36461E-03   -0.75860E-04   396   0.835E-02    0.586E-02
DAV:   5    -0.235726758858E+02   -0.75370E-05   -0.42334E-04   392   0.602E-02
  31 F= -.23572676E+02 E0= -.23572676E+02  d E =-.365243E-02  mag=     1.0000
 trial-energy change:   -0.003652  1 .order   -0.004412   -0.007197   -0.001627
 step:  24.3716(harm= 24.3716)  dis= 0.03750  next Energy=   -23.573673 (dE=-0.465E-02)
 bond charge predicted
       N       E                     dE             d eps       ncg     rms          rms(c)
DAV:   1    -0.235711756287E+02    0.14927E-02   -0.31608E+00   368   0.501E+00    0.637E-02
DAV:   2    -0.235726945324E+02   -0.15189E-02   -0.15106E-02   400   0.478E-01    0.479E-02
DAV:   3    -0.235726936957E+02    0.83674E-06   -0.19402E-04   240   0.533E-02
  32 F= -.23572694E+02 E0= -.23572694E+02  d E =-.367024E-02  mag=     1.0000
 curvature: -49.77 expect dE=-0.172E-01 dE for cont linesearch -0.144E-02
 ZBRENT: interpolating
 opt :  20.4525  next Energy=   -23.572744 (dE=-0.372E-02)
 bond charge predicted
       N       E                     dE             d eps       ncg     rms          rms(c)
DAV:   1    -0.235720028001E+02    0.69173E-03   -0.15911E+00   368   0.355E+00    0.368E-02
DAV:   2    -0.235728070166E+02   -0.80422E-03   -0.76635E-03   400   0.341E-01    0.317E-02
DAV:   3    -0.235728125175E+02   -0.55009E-05   -0.10036E-04   240   0.389E-02
  33 F= -.23572813E+02 E0= -.23572813E+02  d E =-.378906E-02  mag=     1.0000
 curvature:  -2.36 expect dE=-0.702E-03 dE for cont linesearch -0.272E-04
 trial: gam= 0.12226 g(F)=  0.297E-03 g(S)=  0.000E+00 ort = 0.134E-03 (trialstep = 0.192E+02)
 search vector abs. value=  0.353E-03
 bond charge predicted
       N       E                     dE             d eps       ncg     rms          rms(c)
DAV:   1    -0.235730223999E+02   -0.21538E-03   -0.87101E+00   368   0.835E+00    0.125E-01
DAV:   2    -0.235771241397E+02   -0.41017E-02   -0.41657E-02   388   0.812E-01    0.111E-01
DAV:   3    -0.235771054139E+02    0.18726E-04   -0.69391E-04   400   0.105E-01
  34 F= -.23577105E+02 E0= -.23577105E+02  d E =-.429290E-02  mag=     1.0000
 trial-energy change:   -0.004293  1 .order   -0.004427   -0.006016   -0.002837
 step:  36.3002(harm= 36.3002)  dis= 0.02368  next Energy=   -23.578506 (dE=-0.569E-02)
 bond charge predicted
       N       E                     dE             d eps       ncg     rms          rms(c)
DAV:   1    -0.235755012381E+02    0.16229E-02   -0.69602E+00   368   0.747E+00    0.135E-01
DAV:   2    -0.235786599085E+02   -0.31587E-02   -0.32470E-02   396   0.716E-01    0.120E-01
DAV:   3    -0.235786055020E+02    0.54407E-04   -0.53260E-04   408   0.896E-02
  35 F= -.23578606E+02 E0= -.23578606E+02  d E =-.579298E-02  mag=     1.0000
 curvature: -20.45 expect dE=-0.779E-02 dE for cont linesearch -0.559E-04
 trial: gam= 1.17554 g(F)=  0.381E-03 g(S)=  0.000E+00 ort = 0.311E-04 (trialstep = 0.848E+01)
 search vector abs. value=  0.942E-03
 bond charge predicted
       N       E                     dE             d eps       ncg     rms          rms(c)
DAV:   1    -0.235795519761E+02   -0.89207E-03   -0.45433E+00   368   0.604E+00    0.762E-02
DAV:   2    -0.235816229731E+02   -0.20710E-02   -0.21019E-02   396   0.577E-01    0.790E-02
DAV:   3    -0.235816159856E+02    0.69875E-05   -0.33204E-04   352   0.714E-02
  36 F= -.23581616E+02 E0= -.23581616E+02  d E =-.301048E-02  mag=     1.0000
 trial-energy change:   -0.003010  1 .order   -0.002987   -0.003539   -0.002435
 step:  27.1837(harm= 27.1837)  dis= 0.02886  next Energy=   -23.584280 (dE=-0.567E-02)
 bond charge predicted
       N       E                     dE             d eps       ncg     rms          rms(c)
DAV:   1    -0.235752781067E+02    0.63449E-02   -0.22132E+01   368   0.133E+01    0.184E-01
DAV:   2    -0.235854283553E+02   -0.10150E-01   -0.10236E-01   392   0.128E+00    0.183E-01
DAV:   3    -0.235853556314E+02    0.72724E-04   -0.16445E-03   400   0.159E-01    0.134E-01
DAV:   4    -0.235850678902E+02    0.28774E-03   -0.57322E-04   396   0.754E-02    0.764E-02
DAV:   5    -0.235850836455E+02   -0.15755E-04   -0.38920E-04   376   0.616E-02
  37 F= -.23585084E+02 E0= -.23585084E+02  d E =-.647814E-02  mag=     1.0000
 curvature: -30.68 expect dE=-0.436E-02 dE for cont linesearch -0.280E-03
 trial: gam= 0.00000 g(F)=  0.142E-03 g(S)=  0.000E+00 ort = 0.928E-04 (trialstep = 0.122E+02)
 search vector abs. value=  0.142E-03
 bond charge predicted
       N       E                     dE             d eps       ncg     rms          rms(c)
DAV:   1    -0.235856395828E+02   -0.57169E-03   -0.14264E+00   376   0.338E+00    0.623E-02
DAV:   2    -0.235863204188E+02   -0.68084E-03   -0.67500E-03   400   0.321E-01    0.464E-02
DAV:   3    -0.235863398368E+02   -0.19418E-04   -0.99978E-05   256   0.403E-02
  38 F= -.23586340E+02 E0= -.23586340E+02  d E =-.125619E-02  mag=     1.0000
 trial-energy change:   -0.001256  1 .order   -0.000960   -0.001738   -0.000183
 step:  13.6589(harm= 13.6589)  dis= 0.00612  next Energy=   -23.586055 (dE=-0.971E-03)
 bond charge predicted
       N       E                     dE             d eps       ncg     rms          rms(c)
DAV:   1    -0.235864411769E+02   -0.12076E-03   -0.20757E-02   400   0.410E-01    0.154E-02
DAV:   2    -0.235864690860E+02   -0.27909E-04   -0.83216E-05   248   0.376E-02
  39 F= -.23586469E+02 E0= -.23586469E+02  d E =-.138544E-02  mag=     1.0000
 curvature:  -6.83 expect dE=-0.269E-03 dE for cont linesearch -0.432E-04
 trial: gam= 0.06575 g(F)=  0.394E-04 g(S)=  0.000E+00 ort = 0.300E-04 (trialstep = 0.125E+02)
 search vector abs. value=  0.439E-04
 reached required accuracy - stopping structural energy minimisation
Application 90924258 resources: utime ~12289s, stime ~168s, Rss ~65312, inblocks ~82055, outblocks ~152701
