   13   13 1000    2
  0.5911044E+03  0.1973343E-08  0.1973343E-08  0.1973343E-08  0.1000000E-15
  1.000000000000000E-004
  CAR 
 unknown system                          
    143      1     92
 
  0.0000000E+00  0.0000000E+00  0.0000000E+00  0.1000000E+01
    1       -9.410422     -9.394909
    2       -9.135762     -9.122258
    3       -9.073616     -9.037031
    4       -8.999457     -8.983894
    5       -8.963162     -8.947003
    6       -8.919657     -8.901278
    7       -8.760023     -8.721467
    8       -8.635788     -8.608475
    9       -8.598331     -8.576191
   10       -8.574029     -8.551900
   11       -8.548571     -8.521812
   12       -8.513291     -8.498051
   13       -8.511251     -8.491236
   14       -8.463320     -8.441147
   15       -8.434382     -8.407120
   16       -8.391410     -8.363784
   17       -8.320844     -8.294864
   18       -8.249165     -8.225821
   19       -8.211494     -8.191559
   20       -8.183940     -8.166183
   21       -8.094453     -8.074919
   22       -8.041417     -8.024244
   23       -8.029053     -8.004738
   24       -7.978884     -7.958413
   25       -7.953045     -7.926180
   26       -7.874067     -7.856242
   27       -7.860787     -7.838720
   28       -7.773883     -7.756702
   29       -7.749387     -7.732712
   30       -7.685753     -7.670257
   31       -7.652085     -7.635024
   32       -7.549960     -7.535236
   33       -7.486574     -7.470391
   34       -7.449462     -7.429338
   35       -7.437066     -7.421042
   36       -7.330310     -7.311869
   37       -7.294107     -7.274708
   38       -7.268136     -7.250906
   39       -7.240535     -7.222488
   40       -7.222868     -7.206997
   41       -7.180780     -7.162490
   42       -7.140740     -7.120151
   43       -7.104558     -7.082924
   44       -7.075581     -7.058891
   45       -7.069090     -7.047911
   46       -7.051140     -7.034477
   47       -7.011317     -6.996987
   48       -6.998263     -6.982599
   49       -6.960718     -6.941726
   50       -6.938880     -6.918625
   51       -6.899848     -6.885160
   52       -6.878647     -6.861068
   53       -6.858317     -6.837492
   54       -6.833980     -6.814420
   55       -6.826711     -6.811692
   56       -6.785773     -6.767008
   57       -6.763018     -6.741669
   58       -6.752557     -6.735378
   59       -6.725401     -6.704229
   60       -6.719028     -6.699015
   61       -6.692272     -6.673451
   62       -6.658640     -6.641594
   63       -6.648156     -6.625890
   64       -6.580154     -6.562292
   65       -6.446136     -6.430279
   66       -6.407500     -6.393492
   67       -6.179306     -6.134776
   68       -5.858167     -5.816738
   69       -5.247054     -5.155162
   70       -4.336702     -4.289164
   71       -4.012298     -3.961477
   72       -3.645178     -3.439952
   73       -3.313942     -3.268199
   74       -3.053421     -2.972524
   75       -2.588809     -2.531327
   76       -2.310397     -2.239203
   77       -2.052593     -1.996608
   78       -1.708911     -1.654374
   79       -1.358697     -1.248873
   80       -1.329304     -1.223671
   81       -1.183105     -1.129526
   82       -1.065075     -0.935306
   83       -0.758813     -0.678342
   84       -0.565325     -0.500407
   85       -0.463540     -0.422157
   86       -0.089694     -0.027127
   87       -0.032814      0.049579
   88        0.215279      0.263889
   89        0.256099      0.308794
   90        0.360122      0.431712
   91        0.422624      0.479872
   92        0.537062      0.592651
