 vasp.5.3.5 31Mar14 (build Feb 01 2018 12:10:03) gamma-only                     
  
 executed on             LinuxIFC date 2019.04.21  02:05:21
 running on   32 total cores
 distrk:  each k-point on   32 cores,    1 groups
 distr:  one band on NCORES_PER_BAND=   8 cores,    4 groups


--------------------------------------------------------------------------------------------------------


 INCAR:
 POTCAR:    PAW_PBE Ni 02Aug2007                  
 POTCAR:    PAW_PBE Ni 02Aug2007                  
   VRHFIN =Ni:                                                                  
   LEXCH  = PE                                                                  
   EATOM  =  1077.6739 eV,   79.2068 Ry                                         
                                                                                
   TITEL  = PAW_PBE Ni 02Aug2007                                                
   LULTRA =        F    use ultrasoft PP ?                                      
   IUNSCR =        1    unscreen: 0-lin 1-nonlin 2-no                           
   RPACOR =    2.000    partial core radius                                     
   POMASS =   58.690; ZVAL   =   10.000    mass and valenz                      
   RCORE  =    2.300    outmost cutoff radius                                   
   RWIGS  =    2.430; RWIGS  =    1.286    wigner-seitz radius (au A)           
   ENMAX  =  269.532; ENMIN  =  202.149 eV                                      
   RCLOC  =    1.201    cutoff for local pot                                    
   LCOR   =        T    correct aug charges                                     
   LPAW   =        T    paw PP                                                  
   EAUG   =  544.565                                                            
   DEXC   =    0.000                                                            
   RMAX   =    2.357    core radius for proj-oper                               
   RAUG   =    1.300    factor for augmentation sphere                          
   RDEP   =    2.390    radius for radial grids                                 
   RDEPT  =    1.838    core radius for aug-charge                              
                                                                                
   Atomic configuration                                                         
    9 entries                                                                   
     n  l   j            E        occ.                                          
     1  0  0.50     -8206.4253   2.0000                                         
     2  0  0.50      -976.1748   2.0000                                         
     2  1  1.50      -839.0571   6.0000                                         
     3  0  0.50      -105.9991   2.0000                                         
     3  1  1.50       -66.4603   6.0000                                         
     3  2  2.50        -4.6458   9.0000                                         
     4  0  0.50        -4.4926   1.0000                                         
     4  1  1.50        -4.0817   0.0000                                         
     4  3  2.50        -1.3606   0.0000                                         
   Description                                                                  
     l       E           TYP  RCUT    TYP  RCUT                                 
     2     -4.6457903     23  2.300                                             
     2     -6.0063729     23  2.300                                             
     0     -4.4925590     23  2.300                                             
     0      5.0102601     23  2.300                                             
     1     -2.7211652     23  2.300                                             
     1     16.5183231     23  2.300                                             
  local pseudopotential read in
  partial core-charges read in
  partial kinetic energy density read in
  atomic valenz-charges read in
  non local Contribution for L=           2  read in
    real space projection operators read in
  non local Contribution for L=           2  read in
    real space projection operators read in
  non local Contribution for L=           0  read in
    real space projection operators read in
  non local Contribution for L=           0  read in
    real space projection operators read in
  non local Contribution for L=           1  read in
    real space projection operators read in
  non local Contribution for L=           1  read in
    real space projection operators read in
    PAW grid and wavefunctions read in
 
   number of l-projection  operators is LMAX  =           6
   number of lm-projection operators is LMMAX =          18
 
  PAW_PBE Ni 02Aug2007                  :
 energy of atom  1       EATOM=-1077.6739
 kinetic energy error for atom=    0.0382 (will be added to EATOM!!)
 
 
 POSCAR: Pt13, -57.35718158 <s> Ni </s>          
  positions in direct lattice
  velocities in cartesian coordinates
 exchange correlation table for  LEXCH =        8
   RHO(1)=    0.500       N(1)  =     2000
   RHO(2)=  100.500       N(2)  =     4000
 


--------------------------------------------------------------------------------------------------------


 ion  position               nearest neighbor table
   1  0.356  0.624  0.369-   2 2.64   4 2.64   7 3.03
   2  0.327  0.552  0.488-   1 2.64   8 2.75   3 2.89   7 3.03
   3  0.384  0.483  0.616-   9 2.73   2 2.89   8 2.90   5 3.05
   4  0.486  0.571  0.343-   1 2.64  11 2.74   6 2.89   7 3.03
   5  0.473  0.470  0.477-  10 2.90   7 2.98   3 3.05   6 3.06
   6  0.617  0.512  0.406-  13 2.73   4 2.89  11 2.89   5 3.06
   7  0.365  0.461  0.357-   8 2.93  11 2.94   5 2.98   1 3.03   4 3.03   2 3.03
   8  0.319  0.404  0.497-   2 2.75   9 2.77   3 2.90   7 2.93
   9  0.420  0.342  0.590-  12 2.60   3 2.73   8 2.77  10 2.98
  10  0.450  0.321  0.432-   5 2.90   9 2.98  13 2.99  12 3.09
  11  0.516  0.427  0.321-   4 2.74  13 2.78   6 2.89   7 2.94
  12  0.557  0.349  0.557-   9 2.60  13 2.60  10 3.09
  13  0.605  0.365  0.426-  12 2.60   6 2.73  11 2.78  10 2.99
 
  LATTYP: Found a simple cubic cell.
 ALAT       =    18.4470149909
  
  Lattice vectors:
  
 A1 = (  18.4470149909,   0.0000000000,   0.0000000000)
 A2 = (   0.0000000000,  18.4470149909,   0.0000000000)
 A3 = (   0.0000000000,   0.0000000000,  18.4470149909)


Analysis of symmetry for initial positions (statically):
=====================================================================
 Subroutine PRICEL returns:
 Original cell was already a primitive cell.
 

 Routine SETGRP: Setting up the symmetry group for a 
 simple cubic supercell.


 Subroutine GETGRP returns: Found  1 space group operations
 (whereof  1 operations were pure point group operations)
 out of a pool of 48 trial point group operations.


The static configuration has the point symmetry C_1 .


Analysis of symmetry for dynamics (positions and initial velocities):
=====================================================================
 Subroutine PRICEL returns:
 Original cell was already a primitive cell.
 

 Routine SETGRP: Setting up the symmetry group for a 
 simple cubic supercell.


 Subroutine GETGRP returns: Found  1 space group operations
 (whereof  1 operations were pure point group operations)
 out of a pool of 48 trial point group operations.


The dynamic configuration has the point symmetry C_1 .


Analysis of magnetic symmetry:
=====================================================================
 Subroutine PRICEL returns:
 Original cell was already a primitive cell.
 

 Subroutine MAGSYM returns: Found  1 space group operations
 (whereof  1 operations were pure point group operations)
 out of a pool of  1 trial space group operations
 (whereof  1 operations were pure point group operations)
 and found also     1 'primitive' translations


The magnetic configuration has the point symmetry C_1 .
 
 
 KPOINTS: Gamma-point only                        
  k-points in reciprocal lattice
Space group operators:
 irot       det(A)        alpha          n_x          n_y          n_z        tau_x        tau_y        tau_z
    1     1.000000     0.000000     1.000000     0.000000     0.000000     0.000000     0.000000     0.000000


--------------------------------------------------------------------------------------------------------




 Dimension of arrays:
   k-points           NKPTS =      1   k-points in BZ     NKDIM =      1   number of bands    NBANDS=     88
   number of dos      NEDOS =    301   number of ions     NIONS =     13
   non local maximal  LDIM  =      6   non local SUM 2l+1 LMDIM =     18
   total plane-waves  NPLWV = 512000
   max r-space proj   IRMAX =      1   max aug-charges    IRDMAX=   2843
   dimension x,y,z NGX =    80 NGY =   80 NGZ =   80
   dimension x,y,z NGXF=   160 NGYF=  160 NGZF=  160
   support grid    NGXF=   160 NGYF=  160 NGZF=  160
   ions per type =              13
 NGX,Y,Z   is equivalent  to a cutoff of   7.21,  7.21,  7.21 a.u.
 NGXF,Y,Z  is equivalent  to a cutoff of  14.42, 14.42, 14.42 a.u.


 I would recommend the setting:
   dimension x,y,z NGX =    74 NGY =   74 NGZ =   74
 SYSTEM =  unknown system                          
 POSCAR =  Pt13, -57.35718158 <s> Ni </s>          

 Startparameter for this run:
   NWRITE =      2    write-flag & timer
   PREC   = normal    normal or accurate (medium, high low for compatibility)
   ISTART =      0    job   : 0-new  1-cont  2-samecut
   ICHARG =      2    charge: 1-file 2-atom 10-const
   ISPIN  =      2    spin polarized calculation?
   LNONCOLLINEAR =      F non collinear calculations
   LSORBIT =      F    spin-orbit coupling
   INIWAV =      1    electr: 0-lowe 1-rand  2-diag
   LASPH  =      F    aspherical Exc in radial PAW
   METAGGA=      F    non-selfconsistent MetaGGA calc.

 Electronic Relaxation 1
   ENCUT  =  269.5 eV  19.81 Ry    4.45 a.u.  24.69 24.69 24.69*2*pi/ulx,y,z
   ENINI  =  269.5     initial cutoff
   ENAUG  =  544.6 eV  augmentation charge cutoff
   NELM   =     60;   NELMIN=  2; NELMDL=  0     # of ELM steps 
   EDIFF  = 0.1E-03   stopping-criterion for ELM
   LREAL  =      F    real-space projection
   NLSPLINE    = F    spline interpolate recip. space projectors
   LCOMPAT=      F    compatible to vasp.4.4
   GGA_COMPAT  = T    GGA compatible to vasp.4.4-vasp.4.6
   LMAXPAW     = -100 max onsite density
   LMAXMIX     =    2 max onsite mixed and CHGCAR
   VOSKOWN=      0    Vosko Wilk Nusair interpolation
   ROPT   =    0.00000
 Ionic relaxation
   EDIFFG = 0.1E-02   stopping-criterion for IOM
   NSW    =   1000    number of steps for IOM
   NBLOCK =      1;   KBLOCK =   1000    inner block; outer block 
   IBRION =      2    ionic relax: 0-MD 1-quasi-New 2-CG
   NFREE  =      1    steps in history (QN), initial steepest desc. (CG)
   ISIF   =      2    stress and relaxation
   IWAVPR =     11    prediction:  0-non 1-charg 2-wave 3-comb
   ISYM   =      2    0-nonsym 1-usesym 2-fastsym
   LCORR  =      T    Harris-Foulkes like correction to forces

   POTIM  = 0.1000    time-step for ionic-motion
   TEIN   =    0.0    initial temperature
   TEBEG  =    0.0;   TEEND  =   0.0 temperature during run
   SMASS  =  -3.00    Nose mass-parameter (am)
   estimated Nose-frequenzy (Omega)   =  0.10E-29 period in steps =****** mass=  -0.778E-26a.u.
   SCALEE = 1.0000    scale energy and forces
   NPACO  =    256;   APACO  = 16.0  distance and # of slots for P.C.
   PSTRESS=    0.0 pullay stress

  Mass of Ions in am
   POMASS =  58.69
  Ionic Valenz
   ZVAL   =  10.00
  Atomic Wigner-Seitz radii
   RWIGS  =  -1.00
  virtual crystal weights 
   VCA    =   1.00
   NELECT =     130.0000    total number of electrons
   NUPDOWN=      -1.0000    fix difference up-down

 DOS related values:
   EMIN   =  10.00;   EMAX   =-10.00  energy-range for DOS
   EFERMI =   0.00
   ISMEAR =     0;   SIGMA  =   0.00  broadening in eV -4-tet -1-fermi 0-gaus

 Electronic relaxation 2 (details)
   IALGO  =     38    algorithm
   LDIAG  =      T    sub-space diagonalisation (order eigenvalues)
   LSUBROT=      F    optimize rotation matrix (better conditioning)
   TURBO    =      0    0=normal 1=particle mesh
   IRESTART =      0    0=no restart 2=restart with 2 vectors
   NREBOOT  =      0    no. of reboots
   NMIN     =      0    reboot dimension
   EREF     =   0.00    reference energy to select bands
   IMIX   =      4    mixing-type and parameters
     AMIX     =   0.40;   BMIX     =  1.00
     AMIX_MAG =   1.60;   BMIX_MAG =  1.00
     AMIN     =   0.10
     WC   =   100.;   INIMIX=   1;  MIXPRE=   1;  MAXMIX= -45

 Intra band minimization:
   WEIMIN = 0.0010     energy-eigenvalue tresh-hold
   EBREAK =  0.28E-06  absolut break condition
   DEPER  =   0.30     relativ break condition  

   TIME   =   0.40     timestep for ELM

  volume/ion in A,a.u.               =     482.88      3258.60
  Fermi-wavevector in a.u.,A,eV,Ry     =   0.449569  0.849563  2.749907  0.202112
  Thomas-Fermi vector in A             =   1.429724
 
 Write flags
   LWAVE  =      F    write WAVECAR
   LCHARG =      F    write CHGCAR
   LVTOT  =      F    write LOCPOT, total local potential
   LVHAR  =      F    write LOCPOT, Hartree potential only
   LELF   =      F    write electronic localiz. function (ELF)
   LORBIT =      0    0 simple, 1 ext, 2 COOP (PROOUT)


 Dipole corrections
   LMONO  =      F    monopole corrections only (constant potential shift)
   LDIPOL =      F    correct potential (dipole corrections)
   IDIPOL =      0    1-x, 2-y, 3-z, 4-all directions 
   EPSILON=  1.0000000 bulk dielectric constant

 Exchange correlation treatment:
   GGA     =    PE    GGA type
   LEXCH   =     8    internal setting for exchange type
   VOSKOWN=      0    Vosko Wilk Nusair interpolation
   LHFCALC =     F    Hartree Fock is set to
   LHFONE  =     F    Hartree Fock one center treatment
   AEXX    =    0.0000 exact exchange contribution

 Linear response parameters
   LEPSILON=     F    determine dielectric tensor
   LRPA    =     F    only Hartree local field effects (RPA)
   LNABLA  =     F    use nabla operator in PAW spheres
   LVEL    =     F    velocity operator in full k-point grid
   LINTERFAST=   F  fast interpolation
   KINTER  =     0    interpolate to denser k-point grid
   CSHIFT  =0.1000    complex shift for real part using Kramers Kronig
   OMEGAMAX=  -1.0    maximum frequency
   DEG_THRESHOLD= 0.2000000E-02 threshold for treating states as degnerate
   RTIME   =    0.100 relaxation time in fs

 Orbital magnetization related:
   ORBITALMAG=     F  switch on orbital magnetization
   LCHIMAG   =     F  perturbation theory with respect to B field
   DQ        =  0.001000  dq finite difference perturbation B field



--------------------------------------------------------------------------------------------------------


 conjugate gradient relaxation of ions
 charge density and potential will be updated during run
 spin polarized calculation
 Variant of blocked Davidson
 Davidson routine will perform the subspace rotation
 perform sub-space diagonalisation
    after iterative eigenvector-optimisation
 modified Broyden-mixing scheme, WC =      100.0
 initial mixing is a Kerker type mixing with AMIX =  0.4000 and BMIX =      1.0000
 Hartree-type preconditioning will be used
 using additional bands           23
 reciprocal scheme for non local part
 use partial core corrections
 calculate Harris-corrections to forces 
   (improved forces if not selfconsistent)
 use gradient corrections 
 use of overlap-Matrix (Vanderbilt PP)
 Gauss-broadening in eV      SIGMA  =   0.00


--------------------------------------------------------------------------------------------------------


  energy-cutoff  :      269.53
  volume of cell :     6277.38
      direct lattice vectors                 reciprocal lattice vectors
    18.447014991  0.000000000  0.000000000     0.054209312  0.000000000  0.000000000
     0.000000000 18.447014991  0.000000000     0.000000000  0.054209312  0.000000000
     0.000000000  0.000000000 18.447014991     0.000000000  0.000000000  0.054209312

  length of vectors
    18.447014991 18.447014991 18.447014991     0.054209312  0.054209312  0.054209312


 
 k-points in units of 2pi/SCALE and weight: Gamma-point only                        
   0.00000000  0.00000000  0.00000000       1.000
 
 k-points in reciprocal lattice and weights: Gamma-point only                        
   0.00000000  0.00000000  0.00000000       1.000
 
 position of ions in fractional coordinates (direct lattice) 
   0.35619406  0.62440471  0.36856966
   0.32657249  0.55198138  0.48818615
   0.38440106  0.48272491  0.61648639
   0.48629759  0.57083619  0.34304218
   0.47250727  0.46962168  0.47698501
   0.61650999  0.51165182  0.40649861
   0.36483305  0.46078862  0.35670794
   0.31874556  0.40366814  0.49748410
   0.42013085  0.34159282  0.58956586
   0.45001056  0.32091254  0.43214481
   0.51638696  0.42686922  0.32073620
   0.55727416  0.34892728  0.55745513
   0.60545549  0.36542676  0.42586745
 
 position of ions in cartesian coordinates  (Angst):
   6.57071723 11.51840306  6.79901002
   6.02428755 10.18240883  9.00557727
   7.09105215  8.90483371 11.37233373
   8.97073899 10.53022374  6.32810428
   8.71634866  8.66311817  8.79894956
  11.37276896  9.43844877  7.49868596
   6.73008066  8.50017461  6.58019664
   5.87990412  7.44647224  9.17709662
   7.75016015  6.30136794 10.87573020
   8.30135155  5.91987844  7.97178180
   9.52579799  7.87446298  5.91662542
  10.28004483  6.43666673 10.28338318
  11.16884650  6.74103299  7.85598323
 


--------------------------------------------------------------------------------------------------------


 use parallel FFT for wavefunctions z direction half grid
 k-point  1 :   0.0000 0.0000 0.0000  plane waves:   31467

 maximum and minimum number of plane-waves per node :      3939     3927

 maximum number of plane-waves:     31467
 maximum index in each direction: 
   IXMAX=   24   IYMAX=   24   IZMAX=   24
   IXMIN=  -24   IYMIN=  -24   IZMIN=    0

 WARNING: aliasing errors must be expected set NGX to  98 to avoid them
 WARNING: aliasing errors must be expected set NGY to  98 to avoid them
 WARNING: aliasing errors must be expected set NGZ to  98 to avoid them
 aliasing errors are usually negligible using standard VASP settings
 and one can safely disregard these warnings

 parallel 3D FFT for wavefunctions:
    minimum data exchange during FFTs selected (reduces bandwidth)
 parallel 3D FFT for charge:
    minimum data exchange during FFTs selected (reduces bandwidth)


 total amount of memory used by VASP on root node    54405. kBytes
========================================================================

   base      :      30000. kBytes
   nonl-proj :       1382. kBytes
   fftplans  :       5764. kBytes
   grid      :      14451. kBytes
   one-center:         31. kBytes
   wavefun   :       2777. kBytes
 
     INWAV:  cpu time    0.00: real time    0.00
 Broyden mixing: mesh for mixing (old mesh)
   NGX = 49   NGY = 49   NGZ = 49
  (NGX  =160   NGY  =160   NGZ  =160)
  gives a total of 117649 points

 initial charge density was supplied:
 charge density of overlapping atoms calculated
 number of electron     130.0000000 magnetization      13.0000000
 keeping initial charge density in first step


--------------------------------------------------------------------------------------------------------


 Maximum index for augmentation-charges          222 (set IRDMAX)


--------------------------------------------------------------------------------------------------------


 First call to EWALD:  gamma=   0.096
 Maximum number of real-space cells 3x 3x 3
 Maximum number of reciprocal cells 3x 3x 3

 FEWALD executed in parallel
    FEWALD:  cpu time    0.00: real time    0.00


----------------------------------------- Iteration    1(   1)  ---------------------------------------


    POTLOK:  cpu time    0.24: real time    0.24
    SETDIJ:  cpu time    0.01: real time    0.01
     EDDAV:  cpu time    0.86: real time    0.86
       DOS:  cpu time    0.00: real time    0.00
    --------------------------------------------
      LOOP:  cpu time    1.10: real time    1.73

 eigenvalue-minimisations  :   352
 total energy-change (2. order) : 0.6407148E+03  (-0.2307052E+04)
 number of electron     130.0000000 magnetization      13.0000000
 augmentation part      130.0000000 magnetization      13.0000000

 Free energy of the ion-electron system (eV)
  ---------------------------------------------------
  alpha Z        PSCENC =        13.73009296
  Ewald energy   TEWEN  =     11314.30668468
  -Hartree energ DENC   =    -24247.72317785
  -exchange      EXHF   =         0.00000000
  -V(xc)+E(xc)   XCENC  =       389.30610103
  PAW double counting   =     12516.83125684   -13385.71925957
  entropy T*S    EENTRO =         0.00000000
  eigenvalues    EBANDS =        30.71960907
  atomic energy  EATOM  =     14009.26346605
  ---------------------------------------------------
  free energy    TOTEN  =       640.71477320 eV

  energy without entropy =      640.71477320  energy(sigma->0) =      640.71477320


--------------------------------------------------------------------------------------------------------




----------------------------------------- Iteration    1(   2)  ---------------------------------------


     EDDAV:  cpu time    1.07: real time    1.07
       DOS:  cpu time    0.00: real time    0.00
    --------------------------------------------
      LOOP:  cpu time    1.07: real time    1.08

 eigenvalue-minimisations  :   472
 total energy-change (2. order) :-0.5852441E+03  (-0.5318265E+03)
 number of electron     130.0000000 magnetization      13.0000000
 augmentation part      130.0000000 magnetization      13.0000000

 Free energy of the ion-electron system (eV)
  ---------------------------------------------------
  alpha Z        PSCENC =        13.73009296
  Ewald energy   TEWEN  =     11314.30668468
  -Hartree energ DENC   =    -24247.72317785
  -exchange      EXHF   =         0.00000000
  -V(xc)+E(xc)   XCENC  =       389.30610103
  PAW double counting   =     12516.83125684   -13385.71925957
  entropy T*S    EENTRO =         0.00000000
  eigenvalues    EBANDS =      -554.52450562
  atomic energy  EATOM  =     14009.26346605
  ---------------------------------------------------
  free energy    TOTEN  =        55.47065851 eV

  energy without entropy =       55.47065851  energy(sigma->0) =       55.47065851


--------------------------------------------------------------------------------------------------------




----------------------------------------- Iteration    1(   3)  ---------------------------------------


     EDDAV:  cpu time    1.00: real time    1.00
       DOS:  cpu time    0.00: real time    0.00
    --------------------------------------------
      LOOP:  cpu time    1.00: real time    1.01

 eigenvalue-minimisations  :   432
 total energy-change (2. order) :-0.9100012E+02  (-0.8259867E+02)
 number of electron     130.0000000 magnetization      13.0000000
 augmentation part      130.0000000 magnetization      13.0000000

 Free energy of the ion-electron system (eV)
  ---------------------------------------------------
  alpha Z        PSCENC =        13.73009296
  Ewald energy   TEWEN  =     11314.30668468
  -Hartree energ DENC   =    -24247.72317785
  -exchange      EXHF   =         0.00000000
  -V(xc)+E(xc)   XCENC  =       389.30610103
  PAW double counting   =     12516.83125684   -13385.71925957
  entropy T*S    EENTRO =         0.00000000
  eigenvalues    EBANDS =      -645.52462827
  atomic energy  EATOM  =     14009.26346605
  ---------------------------------------------------
  free energy    TOTEN  =       -35.52946414 eV

  energy without entropy =      -35.52946414  energy(sigma->0) =      -35.52946414


--------------------------------------------------------------------------------------------------------




----------------------------------------- Iteration    1(   4)  ---------------------------------------


     EDDAV:  cpu time    0.95: real time    0.95
       DOS:  cpu time    0.00: real time    0.00
    --------------------------------------------
      LOOP:  cpu time    0.96: real time    1.84

 eigenvalue-minimisations  :   408
 total energy-change (2. order) :-0.5965730E+01  (-0.5241869E+01)
 number of electron     130.0000000 magnetization      13.0000000
 augmentation part      130.0000000 magnetization      13.0000000

 Free energy of the ion-electron system (eV)
  ---------------------------------------------------
  alpha Z        PSCENC =        13.73009296
  Ewald energy   TEWEN  =     11314.30668468
  -Hartree energ DENC   =    -24247.72317785
  -exchange      EXHF   =         0.00000000
  -V(xc)+E(xc)   XCENC  =       389.30610103
  PAW double counting   =     12516.83125684   -13385.71925957
  entropy T*S    EENTRO =        -0.00000000
  eigenvalues    EBANDS =      -651.49035861
  atomic energy  EATOM  =     14009.26346605
  ---------------------------------------------------
  free energy    TOTEN  =       -41.49519448 eV

  energy without entropy =      -41.49519448  energy(sigma->0) =      -41.49519448


--------------------------------------------------------------------------------------------------------




----------------------------------------- Iteration    1(   5)  ---------------------------------------


     EDDAV:  cpu time    0.97: real time    0.97
       DOS:  cpu time    0.00: real time    0.00
    CHARGE:  cpu time    0.06: real time    0.06
    MIXING:  cpu time    0.01: real time    0.01
    --------------------------------------------
      LOOP:  cpu time    1.04: real time    1.04

 eigenvalue-minimisations  :   416
 total energy-change (2. order) :-0.1201074E+00  (-0.1191324E+00)
 number of electron     130.0000000 magnetization      12.8336748
 augmentation part       78.4298520 magnetization      10.3442024

 Broyden mixing:
  rms(total) = 0.16777E+01    rms(broyden)= 0.16658E+01
  rms(prec ) = 0.18497E+01
  weight for this iteration     100.00

 Free energy of the ion-electron system (eV)
  ---------------------------------------------------
  alpha Z        PSCENC =        13.73009296
  Ewald energy   TEWEN  =     11314.30668468
  -Hartree energ DENC   =    -24247.72317785
  -exchange      EXHF   =         0.00000000
  -V(xc)+E(xc)   XCENC  =       389.30610103
  PAW double counting   =     12516.83125684   -13385.71925957
  entropy T*S    EENTRO =        -0.00000000
  eigenvalues    EBANDS =      -651.61046598
  atomic energy  EATOM  =     14009.26346605
  ---------------------------------------------------
  free energy    TOTEN  =       -41.61530185 eV

  energy without entropy =      -41.61530185  energy(sigma->0) =      -41.61530185


--------------------------------------------------------------------------------------------------------




----------------------------------------- Iteration    1(   6)  ---------------------------------------


    POTLOK:  cpu time    0.23: real time    0.23
    SETDIJ:  cpu time    0.01: real time    0.01
     EDDAV:  cpu time    0.91: real time    0.91
       DOS:  cpu time    0.00: real time    0.00
    CHARGE:  cpu time    0.05: real time    0.05
    MIXING:  cpu time    0.01: real time    0.01
    --------------------------------------------
      LOOP:  cpu time    1.21: real time    1.22

 eigenvalue-minimisations  :   384
 total energy-change (2. order) :-0.1005202E+02  (-0.6337444E+01)
 number of electron     129.9999984 magnetization      12.7078550
 augmentation part       84.0018380 magnetization      11.5304434

 Broyden mixing:
  rms(total) = 0.73017E+01    rms(broyden)= 0.72976E+01
  rms(prec ) = 0.83400E+01
  weight for this iteration     100.00

 eigenvalues of (default mixing * dielectric matrix)
  average eigenvalue GAMMA=   0.1297
  0.1297

 Free energy of the ion-electron system (eV)
  ---------------------------------------------------
  alpha Z        PSCENC =        13.73009296
  Ewald energy   TEWEN  =     11314.30668468
  -Hartree energ DENC   =    -24097.57065182
  -exchange      EXHF   =         0.00000000
  -V(xc)+E(xc)   XCENC  =       381.86212032
  PAW double counting   =     12419.97228769   -13254.50617856
  entropy T*S    EENTRO =         0.00000000
  eigenvalues    EBANDS =      -838.72513886
  atomic energy  EATOM  =     14009.26346605
  ---------------------------------------------------
  free energy    TOTEN  =       -51.66731754 eV

  energy without entropy =      -51.66731754  energy(sigma->0) =      -51.66731754


--------------------------------------------------------------------------------------------------------




----------------------------------------- Iteration    1(   7)  ---------------------------------------


    POTLOK:  cpu time    0.23: real time    0.23
    SETDIJ:  cpu time    0.00: real time    0.01
     EDDAV:  cpu time    0.88: real time    0.88
       DOS:  cpu time    0.00: real time    0.00
    CHARGE:  cpu time    0.05: real time    0.05
    MIXING:  cpu time    0.01: real time    0.01
    --------------------------------------------
      LOOP:  cpu time    1.18: real time    1.19

 eigenvalue-minimisations  :   368
 total energy-change (2. order) : 0.7344305E+01  (-0.9010246E+01)
 number of electron     129.9999997 magnetization      12.6105360
 augmentation part       85.3613034 magnetization      10.7375416

 Broyden mixing:
  rms(total) = 0.42625E+01    rms(broyden)= 0.42539E+01
  rms(prec ) = 0.46394E+01
  weight for this iteration     100.00

 eigenvalues of (default mixing * dielectric matrix)
  average eigenvalue GAMMA=   0.1325
  0.0783  0.1868

 Free energy of the ion-electron system (eV)
  ---------------------------------------------------
  alpha Z        PSCENC =        13.73009296
  Ewald energy   TEWEN  =     11314.30668468
  -Hartree energ DENC   =    -24109.90531227
  -exchange      EXHF   =         0.00000000
  -V(xc)+E(xc)   XCENC  =       382.73782794
  PAW double counting   =     12453.27611894   -13292.17669157
  entropy T*S    EENTRO =        -0.00000000
  eigenvalues    EBANDS =      -815.55519898
  atomic energy  EATOM  =     14009.26346605
  ---------------------------------------------------
  free energy    TOTEN  =       -44.32301225 eV

  energy without entropy =      -44.32301225  energy(sigma->0) =      -44.32301225


--------------------------------------------------------------------------------------------------------




----------------------------------------- Iteration    1(   8)  ---------------------------------------


    POTLOK:  cpu time    0.23: real time    0.23
    SETDIJ:  cpu time    0.01: real time    0.01
     EDDAV:  cpu time    0.96: real time    0.96
       DOS:  cpu time    0.00: real time    0.00
    CHARGE:  cpu time    0.05: real time    0.05
    MIXING:  cpu time    0.01: real time    0.01
    --------------------------------------------
      LOOP:  cpu time    1.26: real time    1.28

 eigenvalue-minimisations  :   408
 total energy-change (2. order) : 0.1472098E+01  (-0.1838991E+01)
 number of electron     130.0000004 magnetization      12.5163352
 augmentation part       83.8828971 magnetization       9.7430424

 Broyden mixing:
  rms(total) = 0.36654E+01    rms(broyden)= 0.36578E+01
  rms(prec ) = 0.40151E+01
  weight for this iteration     100.00

 eigenvalues of (default mixing * dielectric matrix)
  average eigenvalue GAMMA=   0.1851
  0.3618  0.0968  0.0968

 Free energy of the ion-electron system (eV)
  ---------------------------------------------------
  alpha Z        PSCENC =        13.73009296
  Ewald energy   TEWEN  =     11314.30668468
  -Hartree energ DENC   =    -24144.46185993
  -exchange      EXHF   =         0.00000000
  -V(xc)+E(xc)   XCENC  =       383.52033026
  PAW double counting   =     12520.17798007   -13367.76253062
  entropy T*S    EENTRO =         0.00000000
  eigenvalues    EBANDS =      -771.62507814
  atomic energy  EATOM  =     14009.26346605
  ---------------------------------------------------
  free energy    TOTEN  =       -42.85091468 eV

  energy without entropy =      -42.85091468  energy(sigma->0) =      -42.85091468


--------------------------------------------------------------------------------------------------------




----------------------------------------- Iteration    1(   9)  ---------------------------------------


    POTLOK:  cpu time    0.23: real time    0.23
    SETDIJ:  cpu time    0.01: real time    0.01
     EDDAV:  cpu time    0.97: real time    0.97
       DOS:  cpu time    0.00: real time    0.00
    CHARGE:  cpu time    0.06: real time    0.06
    MIXING:  cpu time    0.01: real time    0.01
    --------------------------------------------
      LOOP:  cpu time    1.27: real time    2.63

 eigenvalue-minimisations  :   416
 total energy-change (2. order) :-0.4246669E+00  (-0.1669825E+01)
 number of electron     130.0000014 magnetization      12.4636981
 augmentation part       83.0494481 magnetization      10.5102283

 Broyden mixing:
  rms(total) = 0.53272E+01    rms(broyden)= 0.53208E+01
  rms(prec ) = 0.62142E+01
  weight for this iteration     100.00

 eigenvalues of (default mixing * dielectric matrix)
  average eigenvalue GAMMA=   0.1618
  0.3740  0.1020  0.1020  0.0694

 Free energy of the ion-electron system (eV)
  ---------------------------------------------------
  alpha Z        PSCENC =        13.73009296
  Ewald energy   TEWEN  =     11314.30668468
  -Hartree energ DENC   =    -24181.65736534
  -exchange      EXHF   =         0.00000000
  -V(xc)+E(xc)   XCENC  =       384.56347075
  PAW double counting   =     12600.51265165   -13458.61118426
  entropy T*S    EENTRO =         0.00000000
  eigenvalues    EBANDS =      -725.38339808
  atomic energy  EATOM  =     14009.26346605
  ---------------------------------------------------
  free energy    TOTEN  =       -43.27558159 eV

  energy without entropy =      -43.27558159  energy(sigma->0) =      -43.27558159


--------------------------------------------------------------------------------------------------------




----------------------------------------- Iteration    1(  10)  ---------------------------------------


    POTLOK:  cpu time    0.23: real time    0.23
    SETDIJ:  cpu time    0.00: real time    0.01
     EDDAV:  cpu time    1.00: real time    1.00
       DOS:  cpu time    0.00: real time    0.00
    CHARGE:  cpu time    0.06: real time    0.05
    MIXING:  cpu time    0.00: real time    0.01
    --------------------------------------------
      LOOP:  cpu time    1.30: real time    1.30

 eigenvalue-minimisations  :   432
 total energy-change (2. order) : 0.4938564E+01  (-0.2477341E+01)
 number of electron     130.0000005 magnetization      12.4528937
 augmentation part       82.7313573 magnetization       9.5789492

 Broyden mixing:
  rms(total) = 0.30584E+01    rms(broyden)= 0.30505E+01
  rms(prec ) = 0.33743E+01
  weight for this iteration     100.00

 eigenvalues of (default mixing * dielectric matrix)
  average eigenvalue GAMMA=   0.1414
  0.3785  0.1074  0.1074  0.0804  0.0335

 Free energy of the ion-electron system (eV)
  ---------------------------------------------------
  alpha Z        PSCENC =        13.73009296
  Ewald energy   TEWEN  =     11314.30668468
  -Hartree energ DENC   =    -24188.84889251
  -exchange      EXHF   =         0.00000000
  -V(xc)+E(xc)   XCENC  =       385.05486718
  PAW double counting   =     12614.61771766   -13474.47202254
  entropy T*S    EENTRO =         0.00000000
  eigenvalues    EBANDS =      -711.98893105
  atomic energy  EATOM  =     14009.26346605
  ---------------------------------------------------
  free energy    TOTEN  =       -38.33701756 eV

  energy without entropy =      -38.33701756  energy(sigma->0) =      -38.33701756


--------------------------------------------------------------------------------------------------------




----------------------------------------- Iteration    1(  11)  ---------------------------------------


    POTLOK:  cpu time    0.23: real time    0.23
    SETDIJ:  cpu time    0.01: real time    0.01
     EDDAV:  cpu time    1.07: real time    1.07
       DOS:  cpu time    0.00: real time    0.00
    CHARGE:  cpu time    0.06: real time    0.05
    MIXING:  cpu time    0.00: real time    0.01
    --------------------------------------------
      LOOP:  cpu time    1.37: real time    1.37

 eigenvalue-minimisations  :   472
 total energy-change (2. order) : 0.5232100E+00  (-0.6961651E+00)
 number of electron     130.0000001 magnetization      12.4084275
 augmentation part       82.6784276 magnetization       9.5450333

 Broyden mixing:
  rms(total) = 0.25624E+01    rms(broyden)= 0.25535E+01
  rms(prec ) = 0.28465E+01
  weight for this iteration     100.00

 eigenvalues of (default mixing * dielectric matrix)
  average eigenvalue GAMMA=   0.1411
  0.3302  0.1896  0.1409  0.0930  0.0464  0.0464

 Free energy of the ion-electron system (eV)
  ---------------------------------------------------
  alpha Z        PSCENC =        13.73009296
  Ewald energy   TEWEN  =     11314.30668468
  -Hartree energ DENC   =    -24192.30770456
  -exchange      EXHF   =         0.00000000
  -V(xc)+E(xc)   XCENC  =       384.94542520
  PAW double counting   =     12623.31281098   -13484.08771640
  entropy T*S    EENTRO =         0.00000000
  eigenvalues    EBANDS =      -706.97686649
  atomic energy  EATOM  =     14009.26346605
  ---------------------------------------------------
  free energy    TOTEN  =       -37.81380758 eV

  energy without entropy =      -37.81380758  energy(sigma->0) =      -37.81380758


--------------------------------------------------------------------------------------------------------




----------------------------------------- Iteration    1(  12)  ---------------------------------------


    POTLOK:  cpu time    0.23: real time    0.23
    SETDIJ:  cpu time    0.01: real time    0.01
     EDDAV:  cpu time    0.97: real time    0.97
       DOS:  cpu time    0.00: real time    0.00
    CHARGE:  cpu time    0.06: real time    0.05
    MIXING:  cpu time    0.01: real time    0.01
    --------------------------------------------
      LOOP:  cpu time    1.27: real time    1.27

 eigenvalue-minimisations  :   416
 total energy-change (2. order) :-0.1197897E+01  (-0.7603996E+00)
 number of electron     129.9999992 magnetization      12.3431193
 augmentation part       82.4971007 magnetization       9.4364018

 Broyden mixing:
  rms(total) = 0.38808E+01    rms(broyden)= 0.38766E+01
  rms(prec ) = 0.42879E+01
  weight for this iteration     100.00

 eigenvalues of (default mixing * dielectric matrix)
  average eigenvalue GAMMA=   0.1714
  0.4236  0.4236  0.1015  0.1015  0.0544  0.0544  0.0404

 Free energy of the ion-electron system (eV)
  ---------------------------------------------------
  alpha Z        PSCENC =        13.73009296
  Ewald energy   TEWEN  =     11314.30668468
  -Hartree energ DENC   =    -24198.90455523
  -exchange      EXHF   =         0.00000000
  -V(xc)+E(xc)   XCENC  =       384.96867208
  PAW double counting   =     12640.57819963   -13503.06110594
  entropy T*S    EENTRO =         0.00000000
  eigenvalues    EBANDS =      -699.89315917
  atomic energy  EATOM  =     14009.26346605
  ---------------------------------------------------
  free energy    TOTEN  =       -39.01170495 eV

  energy without entropy =      -39.01170495  energy(sigma->0) =      -39.01170495


--------------------------------------------------------------------------------------------------------




----------------------------------------- Iteration    1(  13)  ---------------------------------------


    POTLOK:  cpu time    0.23: real time    0.23
    SETDIJ:  cpu time    0.01: real time    0.01
     EDDAV:  cpu time    1.05: real time    1.05
       DOS:  cpu time    0.00: real time    0.00
    CHARGE:  cpu time    0.05: real time    0.05
    MIXING:  cpu time    0.01: real time    0.01
    --------------------------------------------
      LOOP:  cpu time    1.36: real time    1.37

 eigenvalue-minimisations  :   464
 total energy-change (2. order) :-0.7341103E+00  (-0.1118428E+01)
 number of electron     130.0000002 magnetization      12.2795966
 augmentation part       82.3902728 magnetization       9.3012810

 Broyden mixing:
  rms(total) = 0.50976E+01    rms(broyden)= 0.50938E+01
  rms(prec ) = 0.56387E+01
  weight for this iteration     100.00

 eigenvalues of (default mixing * dielectric matrix)
  average eigenvalue GAMMA=   0.1926
  0.5699  0.5699  0.0990  0.0990  0.0626  0.0626  0.0388  0.0388

 Free energy of the ion-electron system (eV)
  ---------------------------------------------------
  alpha Z        PSCENC =        13.73009296
  Ewald energy   TEWEN  =     11314.30668468
  -Hartree energ DENC   =    -24206.12719534
  -exchange      EXHF   =         0.00000000
  -V(xc)+E(xc)   XCENC  =       385.25216656
  PAW double counting   =     12662.01221709   -13526.40656622
  entropy T*S    EENTRO =         0.00000000
  eigenvalues    EBANDS =      -691.77668107
  atomic energy  EATOM  =     14009.26346605
  ---------------------------------------------------
  free energy    TOTEN  =       -39.74581529 eV

  energy without entropy =      -39.74581529  energy(sigma->0) =      -39.74581529


--------------------------------------------------------------------------------------------------------




----------------------------------------- Iteration    1(  14)  ---------------------------------------


    POTLOK:  cpu time    0.23: real time    0.23
    SETDIJ:  cpu time    0.01: real time    0.01
     EDDAV:  cpu time    1.07: real time    1.07
       DOS:  cpu time    0.00: real time    0.00
    CHARGE:  cpu time    0.05: real time    0.05
    MIXING:  cpu time    0.01: real time    0.01
    --------------------------------------------
      LOOP:  cpu time    1.37: real time    1.48

 eigenvalue-minimisations  :   472
 total energy-change (2. order) : 0.1633054E+01  (-0.1355588E+01)
 number of electron     129.9999998 magnetization      12.2465270
 augmentation part       82.1473569 magnetization       9.5049507

 Broyden mixing:
  rms(total) = 0.35827E+01    rms(broyden)= 0.35765E+01
  rms(prec ) = 0.39374E+01
  weight for this iteration     100.00

 eigenvalues of (default mixing * dielectric matrix)
  average eigenvalue GAMMA=   0.1900
  0.6201  0.6201  0.0942  0.0942  0.0804  0.0804  0.0441  0.0441  0.0326

 Free energy of the ion-electron system (eV)
  ---------------------------------------------------
  alpha Z        PSCENC =        13.73009296
  Ewald energy   TEWEN  =     11314.30668468
  -Hartree energ DENC   =    -24212.06117412
  -exchange      EXHF   =         0.00000000
  -V(xc)+E(xc)   XCENC  =       385.43225733
  PAW double counting   =     12681.45908823   -13547.57412218
  entropy T*S    EENTRO =        -0.00000000
  eigenvalues    EBANDS =      -682.66905450
  atomic energy  EATOM  =     14009.26346605
  ---------------------------------------------------
  free energy    TOTEN  =       -38.11276155 eV

  energy without entropy =      -38.11276155  energy(sigma->0) =      -38.11276155


--------------------------------------------------------------------------------------------------------




----------------------------------------- Iteration    1(  15)  ---------------------------------------


    POTLOK:  cpu time    0.23: real time    0.23
    SETDIJ:  cpu time    0.00: real time    0.01
     EDDAV:  cpu time    1.04: real time    1.04
       DOS:  cpu time    0.00: real time    0.00
    CHARGE:  cpu time    0.06: real time    0.05
    MIXING:  cpu time    0.01: real time    0.01
    --------------------------------------------
      LOOP:  cpu time    1.34: real time    1.35

 eigenvalue-minimisations  :   456
 total energy-change (2. order) : 0.9876781E+00  (-0.3051416E+00)
 number of electron     129.9999998 magnetization      12.2317535
 augmentation part       82.2094606 magnetization       9.4723793

 Broyden mixing:
  rms(total) = 0.30794E+01    rms(broyden)= 0.30753E+01
  rms(prec ) = 0.33819E+01
  weight for this iteration     100.00

 eigenvalues of (default mixing * dielectric matrix)
  average eigenvalue GAMMA=   0.1835
  0.6273  0.6273  0.1183  0.1183  0.1095  0.0628  0.0513  0.0513  0.0342  0.0342

 Free energy of the ion-electron system (eV)
  ---------------------------------------------------
  alpha Z        PSCENC =        13.73009296
  Ewald energy   TEWEN  =     11314.30668468
  -Hartree energ DENC   =    -24214.26748247
  -exchange      EXHF   =         0.00000000
  -V(xc)+E(xc)   XCENC  =       385.49134386
  PAW double counting   =     12691.28967277   -13558.34475402
  entropy T*S    EENTRO =         0.00000000
  eigenvalues    EBANDS =      -678.59410731
  atomic energy  EATOM  =     14009.26346605
  ---------------------------------------------------
  free energy    TOTEN  =       -37.12508349 eV

  energy without entropy =      -37.12508349  energy(sigma->0) =      -37.12508349


--------------------------------------------------------------------------------------------------------




----------------------------------------- Iteration    1(  16)  ---------------------------------------


    POTLOK:  cpu time    0.23: real time    0.23
    SETDIJ:  cpu time    0.01: real time    0.01
     EDDAV:  cpu time    0.95: real time    0.96
       DOS:  cpu time    0.00: real time    0.00
    CHARGE:  cpu time    0.05: real time    0.05
    MIXING:  cpu time    0.01: real time    0.01
    --------------------------------------------
      LOOP:  cpu time    1.26: real time    2.65

 eigenvalue-minimisations  :   408
 total energy-change (2. order) : 0.1287629E+00  (-0.2942613E+00)
 number of electron     129.9999993 magnetization      12.2141802
 augmentation part       82.2593585 magnetization       9.4402463

 Broyden mixing:
  rms(total) = 0.25782E+01    rms(broyden)= 0.25724E+01
  rms(prec ) = 0.28320E+01
  weight for this iteration     100.00

 eigenvalues of (default mixing * dielectric matrix)
  average eigenvalue GAMMA=   0.1827
  0.6308  0.6308  0.2222  0.1196  0.1196  0.0676  0.0565  0.0565  0.0381  0.0381
  0.0304

 Free energy of the ion-electron system (eV)
  ---------------------------------------------------
  alpha Z        PSCENC =        13.73009296
  Ewald energy   TEWEN  =     11314.30668468
  -Hartree energ DENC   =    -24215.87226748
  -exchange      EXHF   =         0.00000000
  -V(xc)+E(xc)   XCENC  =       385.37512664
  PAW double counting   =     12696.77548233   -13564.43925988
  entropy T*S    EENTRO =         0.00000000
  eigenvalues    EBANDS =      -676.13564590
  atomic energy  EATOM  =     14009.26346605
  ---------------------------------------------------
  free energy    TOTEN  =       -36.99632060 eV

  energy without entropy =      -36.99632060  energy(sigma->0) =      -36.99632060


--------------------------------------------------------------------------------------------------------




----------------------------------------- Iteration    1(  17)  ---------------------------------------


    POTLOK:  cpu time    0.23: real time    0.23
    SETDIJ:  cpu time    0.00: real time    0.01
     EDDAV:  cpu time    1.01: real time    1.01
       DOS:  cpu time    0.00: real time    0.00
    CHARGE:  cpu time    0.05: real time    0.05
    MIXING:  cpu time    0.01: real time    0.01
    --------------------------------------------
      LOOP:  cpu time    1.31: real time    1.33

 eigenvalue-minimisations  :   440
 total energy-change (2. order) : 0.1269751E+00  (-0.1683770E+00)
 number of electron     130.0000004 magnetization      12.2053491
 augmentation part       82.1989156 magnetization       9.4881641

 Broyden mixing:
  rms(total) = 0.24568E+01    rms(broyden)= 0.24500E+01
  rms(prec ) = 0.27048E+01
  weight for this iteration     100.00

 eigenvalues of (default mixing * dielectric matrix)
  average eigenvalue GAMMA=   0.1851
  0.6436  0.6436  0.3829  0.1087  0.1087  0.0723  0.0586  0.0586  0.0416  0.0416
  0.0304  0.0304

 Free energy of the ion-electron system (eV)
  ---------------------------------------------------
  alpha Z        PSCENC =        13.73009296
  Ewald energy   TEWEN  =     11314.30668468
  -Hartree energ DENC   =    -24218.37861614
  -exchange      EXHF   =         0.00000000
  -V(xc)+E(xc)   XCENC  =       385.47738971
  PAW double counting   =     12702.44281466   -13570.77013153
  entropy T*S    EENTRO =        -0.00000000
  eigenvalues    EBANDS =      -672.94104590
  atomic energy  EATOM  =     14009.26346605
  ---------------------------------------------------
  free energy    TOTEN  =       -36.86934550 eV

  energy without entropy =      -36.86934550  energy(sigma->0) =      -36.86934550


--------------------------------------------------------------------------------------------------------




----------------------------------------- Iteration    1(  18)  ---------------------------------------


    POTLOK:  cpu time    0.23: real time    0.23
    SETDIJ:  cpu time    0.01: real time    0.01
     EDDAV:  cpu time    0.92: real time    0.93
       DOS:  cpu time    0.00: real time    0.00
    CHARGE:  cpu time    0.06: real time    0.05
    MIXING:  cpu time    0.01: real time    0.01
    --------------------------------------------
      LOOP:  cpu time    1.23: real time    1.26

 eigenvalue-minimisations  :   392
 total energy-change (2. order) : 0.3730575E+00  (-0.1423336E+00)
 number of electron     129.9999999 magnetization      12.1796781
 augmentation part       82.1791396 magnetization       9.4890638

 Broyden mixing:
  rms(total) = 0.10882E+01    rms(broyden)= 0.10803E+01
  rms(prec ) = 0.11975E+01
  weight for this iteration     100.00

 eigenvalues of (default mixing * dielectric matrix)
  average eigenvalue GAMMA=   0.1852
  0.5897  0.5897  0.3388  0.3388  0.1075  0.1075  0.0654  0.0654  0.0507  0.0507
  0.0368  0.0368  0.0299

 Free energy of the ion-electron system (eV)
  ---------------------------------------------------
  alpha Z        PSCENC =        13.73009296
  Ewald energy   TEWEN  =     11314.30668468
  -Hartree energ DENC   =    -24219.86613036
  -exchange      EXHF   =         0.00000000
  -V(xc)+E(xc)   XCENC  =       385.46103006
  PAW double counting   =     12706.36812879   -13575.15692515
  entropy T*S    EENTRO =         0.00000000
  eigenvalues    EBANDS =      -670.60263499
  atomic energy  EATOM  =     14009.26346605
  ---------------------------------------------------
  free energy    TOTEN  =       -36.49628795 eV

  energy without entropy =      -36.49628795  energy(sigma->0) =      -36.49628795


--------------------------------------------------------------------------------------------------------




----------------------------------------- Iteration    1(  19)  ---------------------------------------


    POTLOK:  cpu time    0.23: real time    0.23
    SETDIJ:  cpu time    0.00: real time    0.01
     EDDAV:  cpu time    1.03: real time    1.03
       DOS:  cpu time    0.00: real time    0.00
    CHARGE:  cpu time    0.05: real time    0.05
    MIXING:  cpu time    0.01: real time    0.01
    --------------------------------------------
      LOOP:  cpu time    1.33: real time    1.35

 eigenvalue-minimisations  :   448
 total energy-change (2. order) :-0.4310960E+00  (-0.1103837E+00)
 number of electron     129.9999999 magnetization      12.1674372
 augmentation part       82.0096865 magnetization       9.5931065

 Broyden mixing:
  rms(total) = 0.17656E+01    rms(broyden)= 0.17604E+01
  rms(prec ) = 0.19433E+01
  weight for this iteration     100.00

 eigenvalues of (default mixing * dielectric matrix)
  average eigenvalue GAMMA=   0.1795
  0.5052  0.5052  0.4549  0.4549  0.1077  0.1077  0.0662  0.0662  0.0516  0.0516
  0.0393  0.0393  0.0306  0.0320

 Free energy of the ion-electron system (eV)
  ---------------------------------------------------
  alpha Z        PSCENC =        13.73009296
  Ewald energy   TEWEN  =     11314.30668468
  -Hartree energ DENC   =    -24224.20046853
  -exchange      EXHF   =         0.00000000
  -V(xc)+E(xc)   XCENC  =       385.42177009
  PAW double counting   =     12712.77203287   -13582.09108769
  entropy T*S    EENTRO =         0.00000000
  eigenvalues    EBANDS =      -666.12987434
  atomic energy  EATOM  =     14009.26346605
  ---------------------------------------------------
  free energy    TOTEN  =       -36.92738391 eV

  energy without entropy =      -36.92738391  energy(sigma->0) =      -36.92738391


--------------------------------------------------------------------------------------------------------




----------------------------------------- Iteration    1(  20)  ---------------------------------------


    POTLOK:  cpu time    0.23: real time    0.23
    SETDIJ:  cpu time    0.01: real time    0.01
     EDDAV:  cpu time    0.91: real time    0.91
       DOS:  cpu time    0.00: real time    0.00
    CHARGE:  cpu time    0.06: real time    0.05
    MIXING:  cpu time    0.01: real time    0.01
    --------------------------------------------
      LOOP:  cpu time    1.22: real time    1.22

 eigenvalue-minimisations  :   384
 total energy-change (2. order) : 0.3131870E+00  (-0.7202542E-01)
 number of electron     130.0000000 magnetization      12.1684514
 augmentation part       82.0518869 magnetization       9.5525022

 Broyden mixing:
  rms(total) = 0.86187E+00    rms(broyden)= 0.85587E+00
  rms(prec ) = 0.94360E+00
  weight for this iteration     100.00

 eigenvalues of (default mixing * dielectric matrix)
  average eigenvalue GAMMA=   0.1713
  0.4956  0.4956  0.4743  0.4743  0.1079  0.1079  0.0650  0.0650  0.0516  0.0516
  0.0398  0.0398  0.0302  0.0331  0.0378

 Free energy of the ion-electron system (eV)
  ---------------------------------------------------
  alpha Z        PSCENC =        13.73009296
  Ewald energy   TEWEN  =     11314.30668468
  -Hartree energ DENC   =    -24225.91642850
  -exchange      EXHF   =         0.00000000
  -V(xc)+E(xc)   XCENC  =       385.53435681
  PAW double counting   =     12715.96102642   -13585.55889706
  entropy T*S    EENTRO =         0.00000000
  eigenvalues    EBANDS =      -663.93449828
  atomic energy  EATOM  =     14009.26346605
  ---------------------------------------------------
  free energy    TOTEN  =       -36.61419691 eV

  energy without entropy =      -36.61419691  energy(sigma->0) =      -36.61419691


--------------------------------------------------------------------------------------------------------




----------------------------------------- Iteration    1(  21)  ---------------------------------------


    POTLOK:  cpu time    0.23: real time    0.23
    SETDIJ:  cpu time    0.01: real time    0.01
     EDDAV:  cpu time    0.90: real time    0.90
       DOS:  cpu time    0.00: real time    0.00
    CHARGE:  cpu time    0.06: real time    0.05
    MIXING:  cpu time    0.01: real time    0.01
    --------------------------------------------
      LOOP:  cpu time    1.20: real time    2.72

 eigenvalue-minimisations  :   376
 total energy-change (2. order) :-0.2202850E-01  (-0.6664373E-02)
 number of electron     129.9999999 magnetization      12.1683741
 augmentation part       82.0311895 magnetization       9.5698122

 Broyden mixing:
  rms(total) = 0.83512E+00    rms(broyden)= 0.83444E+00
  rms(prec ) = 0.91840E+00
  weight for this iteration     100.00

 eigenvalues of (default mixing * dielectric matrix)
  average eigenvalue GAMMA=   0.1722
  0.5036  0.5036  0.4340  0.4340  0.1446  0.1446  0.1079  0.1079  0.0633  0.0633
  0.0517  0.0517  0.0301  0.0341  0.0405  0.0405

 Free energy of the ion-electron system (eV)
  ---------------------------------------------------
  alpha Z        PSCENC =        13.73009296
  Ewald energy   TEWEN  =     11314.30668468
  -Hartree energ DENC   =    -24225.94562240
  -exchange      EXHF   =         0.00000000
  -V(xc)+E(xc)   XCENC  =       385.52992062
  PAW double counting   =     12715.82579586   -13585.37692407
  entropy T*S    EENTRO =         0.00000000
  eigenvalues    EBANDS =      -663.96963912
  atomic energy  EATOM  =     14009.26346605
  ---------------------------------------------------
  free energy    TOTEN  =       -36.63622541 eV

  energy without entropy =      -36.63622541  energy(sigma->0) =      -36.63622541


--------------------------------------------------------------------------------------------------------




----------------------------------------- Iteration    1(  22)  ---------------------------------------


    POTLOK:  cpu time    0.23: real time    0.23
    SETDIJ:  cpu time    0.00: real time    0.01
     EDDAV:  cpu time    0.96: real time    0.96
       DOS:  cpu time    0.00: real time    0.00
    CHARGE:  cpu time    0.05: real time    0.05
    MIXING:  cpu time    0.01: real time    0.01
    --------------------------------------------
      LOOP:  cpu time    1.26: real time    1.28

 eigenvalue-minimisations  :   408
 total energy-change (2. order) : 0.1024537E-01  (-0.5255942E-02)
 number of electron     130.0000001 magnetization      12.1421024
 augmentation part       82.0272314 magnetization       9.5573844

 Broyden mixing:
  rms(total) = 0.82679E+00    rms(broyden)= 0.82595E+00
  rms(prec ) = 0.91413E+00
  weight for this iteration     100.00

 eigenvalues of (default mixing * dielectric matrix)
  average eigenvalue GAMMA=   0.2105
  0.7339  0.4424  0.4424  0.4763  0.4763  0.3654  0.1088  0.1088  0.0626  0.0626
  0.0523  0.0523  0.0453  0.0453  0.0388  0.0344  0.0301

 Free energy of the ion-electron system (eV)
  ---------------------------------------------------
  alpha Z        PSCENC =        13.73009296
  Ewald energy   TEWEN  =     11314.30668468
  -Hartree energ DENC   =    -24226.23182427
  -exchange      EXHF   =         0.00000000
  -V(xc)+E(xc)   XCENC  =       385.55602517
  PAW double counting   =     12716.07792781   -13585.61328980
  entropy T*S    EENTRO =         0.00000000
  eigenvalues    EBANDS =      -663.71506264
  atomic energy  EATOM  =     14009.26346605
  ---------------------------------------------------
  free energy    TOTEN  =       -36.62598005 eV

  energy without entropy =      -36.62598005  energy(sigma->0) =      -36.62598005


--------------------------------------------------------------------------------------------------------




----------------------------------------- Iteration    1(  23)  ---------------------------------------


    POTLOK:  cpu time    0.23: real time    0.23
    SETDIJ:  cpu time    0.01: real time    0.01
     EDDAV:  cpu time    1.06: real time    1.05
       DOS:  cpu time    0.00: real time    0.00
    CHARGE:  cpu time    0.05: real time    0.05
    MIXING:  cpu time    0.01: real time    0.01
    --------------------------------------------
      LOOP:  cpu time    1.36: real time    1.36

 eigenvalue-minimisations  :   464
 total energy-change (2. order) :-0.1549121E+00  (-0.1672902E-01)
 number of electron     130.0000003 magnetization      12.1318745
 augmentation part       82.0317451 magnetization       9.5735090

 Broyden mixing:
  rms(total) = 0.84746E+00    rms(broyden)= 0.84448E+00
  rms(prec ) = 0.92825E+00
  weight for this iteration     100.00

 eigenvalues of (default mixing * dielectric matrix)
  average eigenvalue GAMMA=   0.2157
  0.8020  0.5050  0.5050  0.4965  0.4965  0.3439  0.1088  0.1088  0.0870  0.0618
  0.0618  0.0521  0.0521  0.0559  0.0301  0.0344  0.0425  0.0390

 Free energy of the ion-electron system (eV)
  ---------------------------------------------------
  alpha Z        PSCENC =        13.73009296
  Ewald energy   TEWEN  =     11314.30668468
  -Hartree energ DENC   =    -24227.11846269
  -exchange      EXHF   =         0.00000000
  -V(xc)+E(xc)   XCENC  =       385.46470582
  PAW double counting   =     12718.67726983   -13588.18178331
  entropy T*S    EENTRO =         0.00000000
  eigenvalues    EBANDS =      -662.92286548
  atomic energy  EATOM  =     14009.26346605
  ---------------------------------------------------
  free energy    TOTEN  =       -36.78089215 eV

  energy without entropy =      -36.78089215  energy(sigma->0) =      -36.78089215


--------------------------------------------------------------------------------------------------------




----------------------------------------- Iteration    1(  24)  ---------------------------------------


    POTLOK:  cpu time    0.23: real time    0.23
    SETDIJ:  cpu time    0.00: real time    0.01
     EDDAV:  cpu time    0.97: real time    0.97
       DOS:  cpu time    0.00: real time    0.00
    CHARGE:  cpu time    0.05: real time    0.05
    MIXING:  cpu time    0.02: real time    0.01
    --------------------------------------------
      LOOP:  cpu time    1.28: real time    1.29

 eigenvalue-minimisations  :   416
 total energy-change (2. order) : 0.2933213E-01  (-0.2095114E-01)
 number of electron     130.0000000 magnetization      12.1192398
 augmentation part       82.0626800 magnetization       9.5565892

 Broyden mixing:
  rms(total) = 0.85520E+00    rms(broyden)= 0.85155E+00
  rms(prec ) = 0.94230E+00
  weight for this iteration     100.00

 eigenvalues of (default mixing * dielectric matrix)
  average eigenvalue GAMMA=   0.2442
  0.7938  0.7037  0.7037  0.5025  0.5025  0.3677  0.3677  0.1089  0.1089  0.0623
  0.0623  0.0522  0.0522  0.0574  0.0481  0.0433  0.0389  0.0301  0.0344

 Free energy of the ion-electron system (eV)
  ---------------------------------------------------
  alpha Z        PSCENC =        13.73009296
  Ewald energy   TEWEN  =     11314.30668468
  -Hartree energ DENC   =    -24227.35661590
  -exchange      EXHF   =         0.00000000
  -V(xc)+E(xc)   XCENC  =       385.47772934
  PAW double counting   =     12719.56100264   -13589.08181925
  entropy T*S    EENTRO =         0.00000000
  eigenvalues    EBANDS =      -662.65210054
  atomic energy  EATOM  =     14009.26346605
  ---------------------------------------------------
  free energy    TOTEN  =       -36.75156002 eV

  energy without entropy =      -36.75156002  energy(sigma->0) =      -36.75156002


--------------------------------------------------------------------------------------------------------




----------------------------------------- Iteration    1(  25)  ---------------------------------------


    POTLOK:  cpu time    0.23: real time    0.23
    SETDIJ:  cpu time    0.01: real time    0.01
     EDDAV:  cpu time    1.01: real time    1.01
       DOS:  cpu time    0.00: real time    0.00
    CHARGE:  cpu time    0.06: real time    0.05
    MIXING:  cpu time    0.01: real time    0.01
    --------------------------------------------
      LOOP:  cpu time    1.32: real time    1.43

 eigenvalue-minimisations  :   440
 total energy-change (2. order) :-0.3915321E-01  (-0.7884595E-02)
 number of electron     130.0000000 magnetization      12.1149995
 augmentation part       82.0713623 magnetization       9.5690244

 Broyden mixing:
  rms(total) = 0.61429E+00    rms(broyden)= 0.61301E+00
  rms(prec ) = 0.66957E+00
  weight for this iteration     100.00

 eigenvalues of (default mixing * dielectric matrix)
  average eigenvalue GAMMA=   0.2792
  0.9339  0.9339  0.8208  0.4875  0.4875  0.4253  0.4253  0.3711  0.1089  0.1089
  0.0623  0.0623  0.0522  0.0522  0.0571  0.0491  0.0432  0.0301  0.0389  0.0344

 Free energy of the ion-electron system (eV)
  ---------------------------------------------------
  alpha Z        PSCENC =        13.73009296
  Ewald energy   TEWEN  =     11314.30668468
  -Hartree energ DENC   =    -24228.68546862
  -exchange      EXHF   =         0.00000000
  -V(xc)+E(xc)   XCENC  =       385.45273909
  PAW double counting   =     12720.48695327   -13590.01656585
  entropy T*S    EENTRO =         0.00000000
  eigenvalues    EBANDS =      -661.32861480
  atomic energy  EATOM  =     14009.26346605
  ---------------------------------------------------
  free energy    TOTEN  =       -36.79071323 eV

  energy without entropy =      -36.79071323  energy(sigma->0) =      -36.79071323


--------------------------------------------------------------------------------------------------------




----------------------------------------- Iteration    1(  26)  ---------------------------------------


    POTLOK:  cpu time    0.23: real time    0.23
    SETDIJ:  cpu time    0.00: real time    0.01
     EDDAV:  cpu time    1.11: real time    1.11
       DOS:  cpu time    0.00: real time    0.00
    CHARGE:  cpu time    0.06: real time    0.05
    MIXING:  cpu time    0.01: real time    0.01
    --------------------------------------------
      LOOP:  cpu time    1.42: real time    1.42

 eigenvalue-minimisations  :   496
 total energy-change (2. order) :-0.1584359E+00  (-0.8960123E-02)
 number of electron     129.9999999 magnetization      12.1225000
 augmentation part       82.0651721 magnetization       9.6270236

 Broyden mixing:
  rms(total) = 0.51964E+00    rms(broyden)= 0.51642E+00
  rms(prec ) = 0.55749E+00
  weight for this iteration     100.00

 eigenvalues of (default mixing * dielectric matrix)
  average eigenvalue GAMMA=   0.3051
  1.0757  1.0757  0.8768  0.4902  0.4902  0.4689  0.4689  0.4115  0.3505  0.1089
  0.1089  0.0623  0.0623  0.0522  0.0522  0.0572  0.0490  0.0432  0.0301  0.0389
  0.0344

 Free energy of the ion-electron system (eV)
  ---------------------------------------------------
  alpha Z        PSCENC =        13.73009296
  Ewald energy   TEWEN  =     11314.30668468
  -Hartree energ DENC   =    -24230.66684659
  -exchange      EXHF   =         0.00000000
  -V(xc)+E(xc)   XCENC  =       385.41323784
  PAW double counting   =     12720.86770187   -13590.32725788
  entropy T*S    EENTRO =         0.00000000
  eigenvalues    EBANDS =      -659.53622803
  atomic energy  EATOM  =     14009.26346605
  ---------------------------------------------------
  free energy    TOTEN  =       -36.94914910 eV

  energy without entropy =      -36.94914910  energy(sigma->0) =      -36.94914910


--------------------------------------------------------------------------------------------------------




----------------------------------------- Iteration    1(  27)  ---------------------------------------


    POTLOK:  cpu time    0.23: real time    0.23
    SETDIJ:  cpu time    0.01: real time    0.01
     EDDAV:  cpu time    1.11: real time    1.11
       DOS:  cpu time    0.00: real time    0.00
    CHARGE:  cpu time    0.06: real time    0.05
    MIXING:  cpu time    0.02: real time    0.02
    --------------------------------------------
      LOOP:  cpu time    1.42: real time    2.18

 eigenvalue-minimisations  :   496
 total energy-change (2. order) :-0.1082310E+00  (-0.5581000E-02)
 number of electron     129.9999999 magnetization      12.1293039
 augmentation part       82.0780212 magnetization       9.6608457

 Broyden mixing:
  rms(total) = 0.59631E+00    rms(broyden)= 0.59439E+00
  rms(prec ) = 0.65468E+00
  weight for this iteration     100.00

 eigenvalues of (default mixing * dielectric matrix)
  average eigenvalue GAMMA=   0.3088
  1.1147  1.1147  0.8756  0.4981  0.4981  0.4643  0.4643  0.3725  0.3454  0.3454
  0.1089  0.1089  0.0623  0.0623  0.0522  0.0522  0.0572  0.0490  0.0432  0.0301
  0.0389  0.0344

 Free energy of the ion-electron system (eV)
  ---------------------------------------------------
  alpha Z        PSCENC =        13.73009296
  Ewald energy   TEWEN  =     11314.30668468
  -Hartree energ DENC   =    -24231.69822706
  -exchange      EXHF   =         0.00000000
  -V(xc)+E(xc)   XCENC  =       385.38968591
  PAW double counting   =     12721.08580869   -13590.52432932
  entropy T*S    EENTRO =         0.00000000
  eigenvalues    EBANDS =      -658.61056198
  atomic energy  EATOM  =     14009.26346605
  ---------------------------------------------------
  free energy    TOTEN  =       -37.05738006 eV

  energy without entropy =      -37.05738006  energy(sigma->0) =      -37.05738006


--------------------------------------------------------------------------------------------------------




----------------------------------------- Iteration    1(  28)  ---------------------------------------


    POTLOK:  cpu time    0.23: real time    0.23
    SETDIJ:  cpu time    0.01: real time    0.01
     EDDAV:  cpu time    1.01: real time    1.01
       DOS:  cpu time    0.00: real time    0.00
    CHARGE:  cpu time    0.05: real time    0.05
    MIXING:  cpu time    0.02: real time    0.02
    --------------------------------------------
      LOOP:  cpu time    1.32: real time    1.32

 eigenvalue-minimisations  :   440
 total energy-change (2. order) :-0.1182620E-01  (-0.2275438E-02)
 number of electron     129.9999999 magnetization      12.1267712
 augmentation part       82.0791297 magnetization       9.6670247

 Broyden mixing:
  rms(total) = 0.62379E+00    rms(broyden)= 0.62313E+00
  rms(prec ) = 0.69042E+00
  weight for this iteration     100.00

 eigenvalues of (default mixing * dielectric matrix)
  average eigenvalue GAMMA=   0.3167
  1.1286  1.1286  0.8756  0.5223  0.5223  0.4865  0.4865  0.4089  0.4089  0.3649
  0.2522  0.1089  0.1089  0.0623  0.0623  0.0522  0.0522  0.0572  0.0490  0.0432
  0.0301  0.0389  0.0344

 Free energy of the ion-electron system (eV)
  ---------------------------------------------------
  alpha Z        PSCENC =        13.73009296
  Ewald energy   TEWEN  =     11314.30668468
  -Hartree energ DENC   =    -24232.10631510
  -exchange      EXHF   =         0.00000000
  -V(xc)+E(xc)   XCENC  =       385.39562825
  PAW double counting   =     12721.24650837   -13590.70814453
  entropy T*S    EENTRO =         0.00000000
  eigenvalues    EBANDS =      -658.19712694
  atomic energy  EATOM  =     14009.26346605
  ---------------------------------------------------
  free energy    TOTEN  =       -37.06920626 eV

  energy without entropy =      -37.06920626  energy(sigma->0) =      -37.06920626


--------------------------------------------------------------------------------------------------------




----------------------------------------- Iteration    1(  29)  ---------------------------------------


    POTLOK:  cpu time    0.23: real time    0.23
    SETDIJ:  cpu time    0.01: real time    0.01
     EDDAV:  cpu time    0.91: real time    0.91
       DOS:  cpu time    0.00: real time    0.00
    CHARGE:  cpu time    0.06: real time    0.05
    MIXING:  cpu time    0.02: real time    0.02
    --------------------------------------------
      LOOP:  cpu time    1.22: real time    1.41

 eigenvalue-minimisations  :   384
 total energy-change (2. order) : 0.1863254E-01  (-0.4556612E-03)
 number of electron     129.9999999 magnetization      12.1668510
 augmentation part       82.0838825 magnetization       9.7076798

 Broyden mixing:
  rms(total) = 0.62995E+00    rms(broyden)= 0.62989E+00
  rms(prec ) = 0.69777E+00
  weight for this iteration     100.00

 eigenvalues of (default mixing * dielectric matrix)
  average eigenvalue GAMMA=   0.3853
  1.3518  1.3518  0.8815  0.7672  0.7672  0.5412  0.5412  0.5190  0.5190  0.4742
  0.4742  0.3596  0.1089  0.1089  0.0623  0.0623  0.0522  0.0522  0.0572  0.0490
  0.0432  0.0301  0.0389  0.0344

 Free energy of the ion-electron system (eV)
  ---------------------------------------------------
  alpha Z        PSCENC =        13.73009296
  Ewald energy   TEWEN  =     11314.30668468
  -Hartree energ DENC   =    -24232.08376579
  -exchange      EXHF   =         0.00000000
  -V(xc)+E(xc)   XCENC  =       385.40328592
  PAW double counting   =     12721.18733244   -13590.63129855
  entropy T*S    EENTRO =         0.00000000
  eigenvalues    EBANDS =      -658.22637143
  atomic energy  EATOM  =     14009.26346605
  ---------------------------------------------------
  free energy    TOTEN  =       -37.05057372 eV

  energy without entropy =      -37.05057372  energy(sigma->0) =      -37.05057372


--------------------------------------------------------------------------------------------------------




----------------------------------------- Iteration    1(  30)  ---------------------------------------


    POTLOK:  cpu time    0.23: real time    0.23
    SETDIJ:  cpu time    0.01: real time    0.01
     EDDAV:  cpu time    1.00: real time    1.00
       DOS:  cpu time    0.00: real time    0.00
    CHARGE:  cpu time    0.06: real time    0.05
    MIXING:  cpu time    0.02: real time    0.02
    --------------------------------------------
      LOOP:  cpu time    1.31: real time    1.34

 eigenvalue-minimisations  :   432
 total energy-change (2. order) :-0.2126170E-01  (-0.4972049E-02)
 number of electron     129.9999999 magnetization      12.2186003
 augmentation part       82.0851633 magnetization       9.7855494

 Broyden mixing:
  rms(total) = 0.53178E+00    rms(broyden)= 0.53045E+00
  rms(prec ) = 0.59031E+00
  weight for this iteration     100.00

 eigenvalues of (default mixing * dielectric matrix)
  average eigenvalue GAMMA=   0.4306
  1.6750  1.6750  0.9079  0.9079  0.8612  0.5711  0.5711  0.5646  0.5646  0.4824
  0.4824  0.4453  0.3576  0.1089  0.1089  0.0623  0.0623  0.0522  0.0522  0.0572
  0.0490  0.0432  0.0301  0.0389  0.0344

 Free energy of the ion-electron system (eV)
  ---------------------------------------------------
  alpha Z        PSCENC =        13.73009296
  Ewald energy   TEWEN  =     11314.30668468
  -Hartree energ DENC   =    -24232.93816753
  -exchange      EXHF   =         0.00000000
  -V(xc)+E(xc)   XCENC  =       385.41181214
  PAW double counting   =     12721.08836443   -13590.49013530
  entropy T*S    EENTRO =         0.00000000
  eigenvalues    EBANDS =      -657.44395285
  atomic energy  EATOM  =     14009.26346605
  ---------------------------------------------------
  free energy    TOTEN  =       -37.07183542 eV

  energy without entropy =      -37.07183542  energy(sigma->0) =      -37.07183542


--------------------------------------------------------------------------------------------------------




----------------------------------------- Iteration    1(  31)  ---------------------------------------


    POTLOK:  cpu time    0.23: real time    0.23
    SETDIJ:  cpu time    0.01: real time    0.01
     EDDAV:  cpu time    1.08: real time    1.08
       DOS:  cpu time    0.00: real time    0.00
    CHARGE:  cpu time    0.06: real time    0.05
    MIXING:  cpu time    0.02: real time    0.02
    --------------------------------------------
      LOOP:  cpu time    1.40: real time    1.40

 eigenvalue-minimisations  :   480
 total energy-change (2. order) :-0.7465107E-01  (-0.1457652E-01)
 number of electron     129.9999998 magnetization      12.2191751
 augmentation part       82.0914537 magnetization       9.8545581

 Broyden mixing:
  rms(total) = 0.57696E+00    rms(broyden)= 0.57414E+00
  rms(prec ) = 0.63384E+00
  weight for this iteration     100.00

 eigenvalues of (default mixing * dielectric matrix)
  average eigenvalue GAMMA=   0.4348
  1.5379  1.5379  1.0219  1.0219  0.7308  0.5915  0.5915  0.5739  0.5739  0.5282
  0.5282  0.5039  0.5039  0.3595  0.1089  0.1089  0.0623  0.0623  0.0522  0.0522
  0.0572  0.0490  0.0432  0.0301  0.0389  0.0344

 Free energy of the ion-electron system (eV)
  ---------------------------------------------------
  alpha Z        PSCENC =        13.73009296
  Ewald energy   TEWEN  =     11314.30668468
  -Hartree energ DENC   =    -24236.00862383
  -exchange      EXHF   =         0.00000000
  -V(xc)+E(xc)   XCENC  =       385.49357787
  PAW double counting   =     12720.41901489   -13589.64096968
  entropy T*S    EENTRO =         0.00000000
  eigenvalues    EBANDS =      -654.70972944
  atomic energy  EATOM  =     14009.26346605
  ---------------------------------------------------
  free energy    TOTEN  =       -37.14648650 eV

  energy without entropy =      -37.14648650  energy(sigma->0) =      -37.14648650


--------------------------------------------------------------------------------------------------------




----------------------------------------- Iteration    1(  32)  ---------------------------------------


    POTLOK:  cpu time    0.23: real time    0.23
    SETDIJ:  cpu time    0.01: real time    0.01
     EDDAV:  cpu time    1.05: real time    1.05
       DOS:  cpu time    0.00: real time    0.00
    CHARGE:  cpu time    0.05: real time    0.05
    MIXING:  cpu time    0.02: real time    0.02
    --------------------------------------------
      LOOP:  cpu time    1.36: real time    1.38

 eigenvalue-minimisations  :   464
 total energy-change (2. order) :-0.5911467E-01  (-0.8592874E-02)
 number of electron     129.9999999 magnetization      12.1923381
 augmentation part       82.1150956 magnetization       9.8916277

 Broyden mixing:
  rms(total) = 0.55897E+00    rms(broyden)= 0.55758E+00
  rms(prec ) = 0.60808E+00
  weight for this iteration     100.00

 eigenvalues of (default mixing * dielectric matrix)
  average eigenvalue GAMMA=   0.4496
  1.3979  1.3979  1.0739  1.0739  0.7590  0.7590  0.7460  0.5806  0.5806  0.5685
  0.5685  0.5371  0.5371  0.5000  0.3586  0.1089  0.1089  0.0623  0.0623  0.0522
  0.0522  0.0572  0.0490  0.0432  0.0301  0.0389  0.0344

 Free energy of the ion-electron system (eV)
  ---------------------------------------------------
  alpha Z        PSCENC =        13.73009296
  Ewald energy   TEWEN  =     11314.30668468
  -Hartree energ DENC   =    -24237.95275364
  -exchange      EXHF   =         0.00000000
  -V(xc)+E(xc)   XCENC  =       385.50111887
  PAW double counting   =     12719.68324752   -13588.69480604
  entropy T*S    EENTRO =         0.00000000
  eigenvalues    EBANDS =      -653.04265155
  atomic energy  EATOM  =     14009.26346605
  ---------------------------------------------------
  free energy    TOTEN  =       -37.20560116 eV

  energy without entropy =      -37.20560116  energy(sigma->0) =      -37.20560116


--------------------------------------------------------------------------------------------------------




----------------------------------------- Iteration    1(  33)  ---------------------------------------


    POTLOK:  cpu time    0.23: real time    0.23
    SETDIJ:  cpu time    0.01: real time    0.01
     EDDAV:  cpu time    1.04: real time    1.04
       DOS:  cpu time    0.00: real time    0.00
    CHARGE:  cpu time    0.06: real time    0.05
    MIXING:  cpu time    0.02: real time    0.02
    --------------------------------------------
      LOOP:  cpu time    1.35: real time    1.39

 eigenvalue-minimisations  :   456
 total energy-change (2. order) :-0.3465993E-01  (-0.5902246E-02)
 number of electron     130.0000001 magnetization      12.1605382
 augmentation part       82.1192127 magnetization       9.8964393

 Broyden mixing:
  rms(total) = 0.42294E+00    rms(broyden)= 0.42157E+00
  rms(prec ) = 0.45944E+00
  weight for this iteration     100.00

 eigenvalues of (default mixing * dielectric matrix)
  average eigenvalue GAMMA=   0.4663
  1.3519  1.3519  1.1299  1.1299  0.8623  0.8623  0.5829  0.5829  0.6905  0.6905
  0.6314  0.5435  0.5435  0.5216  0.5216  0.3590  0.1089  0.1089  0.0623  0.0623
  0.0522  0.0522  0.0572  0.0490  0.0432  0.0301  0.0389  0.0344

 Free energy of the ion-electron system (eV)
  ---------------------------------------------------
  alpha Z        PSCENC =        13.73009296
  Ewald energy   TEWEN  =     11314.30668468
  -Hartree energ DENC   =    -24240.02549053
  -exchange      EXHF   =         0.00000000
  -V(xc)+E(xc)   XCENC  =       385.49108624
  PAW double counting   =     12720.53983725   -13589.61988702
  entropy T*S    EENTRO =        -0.00000000
  eigenvalues    EBANDS =      -650.92605073
  atomic energy  EATOM  =     14009.26346605
[...]
     55      -4.8419      1.00000
     56      -4.8290      1.00000
     57      -4.8095      1.00000
     58      -4.7786      1.00000
     59      -4.7537      1.00000
     60      -4.7385      1.00000
     61      -4.6844      1.00000
     62      -4.6668      1.00000
     63      -4.6631      1.00000
     64      -4.6368      1.00000
     65      -4.6084      1.00000
     66      -4.5819      1.00000
     67      -4.5719      1.00000
     68      -4.4718      1.00000
     69      -4.4701      1.00000
     70      -4.1459      1.00000
     71      -3.9376      1.00000
     72      -3.3457      0.00000
     73      -3.1203      0.00000
     74      -2.8905      0.00000
     75      -2.2176      0.00000
     76      -2.0083      0.00000
     77      -1.8758      0.00000
     78      -1.4068      0.00000
     79      -1.2935      0.00000
     80      -1.0509      0.00000
     81      -0.9231      0.00000
     82      -0.6342      0.00000
     83      -0.3988      0.00000
     84      -0.3593      0.00000
     85      -0.0973      0.00000
     86       0.0604      0.00000
     87       0.2381      0.00000
     88       0.4940      0.00000

 spin component 2

 k-point     1 :       0.0000    0.0000    0.0000
  band No.  band energies     occupation 
      1     -10.2910      1.00000
      2      -8.4117      1.00000
      3      -8.2803      1.00000
      4      -7.5910      1.00000
      5      -7.5056      1.00000
      6      -7.3708      1.00000
      7      -6.9750      1.00000
      8      -6.7707      1.00000
      9      -6.6900      1.00000
     10      -6.4509      1.00000
     11      -6.3628      1.00000
     12      -6.2967      1.00000
     13      -6.1654      1.00000
     14      -6.1436      1.00000
     15      -6.0818      1.00000
     16      -5.9833      1.00000
     17      -5.9732      1.00000
     18      -5.8305      1.00000
     19      -5.8203      1.00000
     20      -5.7665      1.00000
     21      -5.7048      1.00000
     22      -5.6292      1.00000
     23      -5.5997      1.00000
     24      -5.5628      1.00000
     25      -5.4273      1.00000
     26      -5.3356      1.00000
     27      -5.2654      1.00000
     28      -5.2083      1.00000
     29      -5.1869      1.00000
     30      -5.1327      1.00000
     31      -5.0434      1.00000
     32      -5.0256      1.00000
     33      -4.8880      1.00000
     34      -4.8436      1.00000
     35      -4.7980      1.00000
     36      -4.6752      1.00000
     37      -4.6311      1.00000
     38      -4.6074      1.00000
     39      -4.5817      1.00000
     40      -4.5335      1.00000
     41      -4.4807      1.00000
     42      -4.4386      1.00000
     43      -4.4044      1.00000
     44      -4.3761      1.00000
     45      -4.3537      1.00000
     46      -4.2797      1.00000
     47      -4.2382      1.00000
     48      -4.2181      1.00000
     49      -4.2113      1.00000
     50      -4.1377      1.00000
     51      -4.1279      1.00000
     52      -4.1004      1.00000
     53      -4.0768      1.00000
     54      -4.0397      1.00000
     55      -3.9863      1.00000
     56      -3.9713      1.00000
     57      -3.9477      1.00000
     58      -3.9170      1.00000
     59      -3.8663      1.00000
     60      -3.7726      0.00000
     61      -3.7336      0.00000
     62      -3.6935      0.00000
     63      -3.6594      0.00000
     64      -3.6522      0.00000
     65      -3.6119      0.00000
     66      -3.5942      0.00000
     67      -3.5494      0.00000
     68      -3.5266      0.00000
     69      -3.4754      0.00000
     70      -3.3633      0.00000
     71      -3.2857      0.00000
     72      -2.9371      0.00000
     73      -2.7134      0.00000
     74      -2.5291      0.00000
     75      -1.7836      0.00000
     76      -1.7233      0.00000
     77      -1.4677      0.00000
     78      -1.1725      0.00000
     79      -1.0533      0.00000
     80      -0.7570      0.00000
     81      -0.6493      0.00000
     82      -0.4501      0.00000
     83      -0.1811      0.00000
     84      -0.0504      0.00000
     85       0.1696      0.00000
     86       0.2680      0.00000
     87       0.3218      0.00000
     88       0.5489      0.00000


--------------------------------------------------------------------------------------------------------


 soft charge-density along one line, spin component           1
         0         1         2         3         4         5         6         7         8         9
 total charge-density along one line
 
 soft charge-density along one line, spin component           2
         0         1         2         3         4         5         6         7         8         9
 total charge-density along one line
 
 pseudopotential strength for first ion, spin component:           1
 -9.577  -0.029  -0.088  -0.006  -0.005  -9.880  -0.028  -0.085
 -0.029  -9.606   0.103   0.004  -0.034  -0.028  -9.907   0.099
 -0.088   0.103  -9.786  -0.043  -0.020  -0.085   0.099 -10.079
 -0.006   0.004  -0.043  -9.591  -0.057  -0.005   0.004  -0.041
 -0.005  -0.034  -0.020  -0.057  -9.832  -0.005  -0.033  -0.019
 -9.880  -0.028  -0.085  -0.005  -0.005 -10.126  -0.027  -0.081
 -0.028  -9.907   0.099   0.004  -0.033  -0.027 -10.153   0.095
 -0.085   0.099 -10.079  -0.041  -0.019  -0.081   0.095 -10.318
 -0.005   0.004  -0.041  -9.893  -0.054  -0.005   0.004  -0.040
 -0.005  -0.033  -0.019  -0.054 -10.124  -0.004  -0.031  -0.018
 -0.010  -0.008  -0.001   0.011  -0.002  -0.010  -0.008  -0.001
 -0.016  -0.013  -0.002   0.019  -0.004  -0.017  -0.013  -0.002
 -0.002  -0.003  -0.001   0.001   0.001  -0.002  -0.003  -0.001
  0.001   0.003   0.005  -0.003   0.000   0.001   0.003   0.004
  0.005   0.001  -0.002  -0.003   0.003   0.005   0.001  -0.002
  0.002   0.000   0.002   0.002   0.006   0.002   0.000   0.002
  0.002  -0.001   0.011   0.001   0.000   0.002  -0.001   0.010
  0.002   0.002  -0.005   0.001   0.008   0.002   0.002  -0.005
 pseudopotential strength for first ion, spin component:           2
 -9.012  -0.035  -0.024   0.052   0.005  -9.342  -0.034  -0.023
 -0.035  -8.996  -0.019   0.055  -0.030  -0.034  -9.327  -0.019
 -0.024  -0.019  -8.904  -0.007  -0.006  -0.023  -0.019  -9.237
  0.052   0.055  -0.007  -8.978  -0.025   0.050   0.053  -0.007
  0.005  -0.030  -0.006  -0.025  -8.901   0.005  -0.029  -0.006
 -9.342  -0.034  -0.023   0.050   0.005  -9.615  -0.033  -0.022
 -0.034  -9.327  -0.019   0.053  -0.029  -0.033  -9.600  -0.018
 -0.023  -0.019  -9.237  -0.007  -0.006  -0.022  -0.018  -9.514
  0.050   0.053  -0.007  -9.309  -0.024   0.048   0.051  -0.007
  0.005  -0.029  -0.006  -0.024  -9.235   0.004  -0.028  -0.005
 -0.008  -0.007  -0.001   0.005  -0.002  -0.008  -0.007  -0.001
 -0.014  -0.012  -0.002   0.009  -0.004  -0.014  -0.012  -0.002
 -0.009  -0.008  -0.006  -0.001  -0.010  -0.008  -0.007  -0.006
 -0.001   0.011  -0.008  -0.009   0.000  -0.001   0.010  -0.008
  0.010  -0.001   0.005  -0.007  -0.008   0.010  -0.001   0.004
 -0.007  -0.006  -0.005  -0.001  -0.010  -0.007  -0.006  -0.005
 -0.001   0.009  -0.007  -0.007   0.000  -0.001   0.009  -0.007
  0.009  -0.001   0.004  -0.005  -0.007   0.008  -0.001   0.004
 total augmentation occupancy for first ion, spin component:           1
  2.688   0.129  -0.005  -0.189   0.008  -0.743  -0.120  -0.139   0.168  -0.004   0.403  -0.062  -0.097   0.033   0.128  -0.009
  0.129   2.607   0.207  -0.193   0.117  -0.122  -0.703  -0.002   0.177  -0.158   0.388  -0.057  -0.108   0.110   0.025  -0.008
 -0.005   0.207   1.865  -0.021  -0.018  -0.132  -0.006  -0.408  -0.022   0.001   0.071  -0.014  -0.028  -0.006   0.031  -0.009
 -0.189  -0.193  -0.021   2.492  -0.017   0.168   0.180  -0.027  -0.588  -0.049  -0.209   0.040   0.040  -0.073  -0.063  -0.005
  0.008   0.117  -0.018  -0.017   1.796  -0.005  -0.151   0.004  -0.042  -0.419   0.068  -0.016  -0.035   0.032  -0.011  -0.016
 -0.743  -0.122  -0.132   0.168  -0.005   0.688   0.121   0.222  -0.178  -0.005  -0.366   0.059   0.143  -0.024  -0.171  -0.016
 -0.120  -0.703  -0.006   0.180  -0.151   0.121   0.663  -0.108  -0.191   0.187  -0.348   0.054   0.133  -0.172  -0.020  -0.015
 -0.139  -0.002  -0.408  -0.027   0.004   0.222  -0.108   0.611   0.045  -0.004  -0.062   0.013   0.080   0.127  -0.094  -0.008
  0.168   0.177  -0.022  -0.588  -0.042  -0.178  -0.191   0.045   0.536   0.081   0.177  -0.032  -0.028   0.110   0.099   0.005
 -0.004  -0.158   0.001  -0.049  -0.419  -0.005   0.187  -0.004   0.081   0.662  -0.045   0.013   0.143  -0.024   0.116  -0.014
  0.403   0.388   0.071  -0.209   0.068  -0.366  -0.348  -0.062   0.177  -0.045   1.874  -0.118  -0.247   0.188   0.210   0.038
 -0.062  -0.057  -0.014   0.040  -0.016   0.059   0.054   0.013  -0.032   0.013  -0.118   0.017   0.030  -0.021  -0.023  -0.004
 -0.097  -0.108  -0.028   0.040  -0.035   0.143   0.133   0.080  -0.028   0.143  -0.247   0.030   0.101  -0.027  -0.026  -0.013
  0.033   0.110  -0.006  -0.073   0.032  -0.024  -0.172   0.127   0.110  -0.024   0.188  -0.021  -0.027   0.093   0.008   0.004
  0.128   0.025   0.031  -0.063  -0.011  -0.171  -0.020  -0.094   0.099   0.116   0.210  -0.023  -0.026   0.008   0.097   0.004
 -0.009  -0.008  -0.009  -0.005  -0.016  -0.016  -0.015  -0.008   0.005  -0.014   0.038  -0.004  -0.013   0.004   0.004   0.003
 -0.006   0.011  -0.016  -0.016  -0.002   0.005   0.018  -0.012  -0.010   0.002  -0.028   0.003   0.004  -0.011  -0.002  -0.001
  0.011  -0.006   0.006  -0.013  -0.016   0.018   0.005   0.010  -0.010  -0.011  -0.032   0.003   0.004  -0.002  -0.012  -0.001
 total augmentation occupancy for first ion, spin component:           2
  0.383  -0.008   0.151   0.144   0.007  -0.160   0.002  -0.055  -0.063  -0.001  -0.038  -0.003  -0.016  -0.012   0.004  -0.006
 -0.008   0.489  -0.285   0.122   0.023   0.004  -0.205   0.113  -0.052  -0.007  -0.044  -0.005  -0.008   0.022  -0.012  -0.004
  0.151  -0.285   1.104   0.089  -0.001  -0.063   0.118  -0.451  -0.038   0.013  -0.016  -0.002  -0.014  -0.055   0.035  -0.006
  0.144   0.122   0.089   0.478   0.074  -0.064  -0.055  -0.034  -0.197  -0.023   0.026   0.004  -0.015  -0.009  -0.004  -0.002
  0.007   0.023  -0.001   0.074   1.204   0.002  -0.015   0.009  -0.029  -0.486  -0.038  -0.008  -0.042   0.008  -0.042  -0.012
 -0.160   0.004  -0.063  -0.064   0.002   0.008  -0.001   0.014   0.025  -0.001   0.023  -0.003   0.001   0.003   0.004   0.003
  0.002  -0.205   0.118  -0.055  -0.015  -0.001   0.025  -0.034   0.023   0.003   0.023  -0.002   0.001  -0.000   0.004   0.002
 -0.055   0.113  -0.451  -0.034   0.009   0.014  -0.034   0.096   0.010  -0.010   0.011  -0.000  -0.003   0.008  -0.009   0.003
 -0.063  -0.052  -0.038  -0.197  -0.029   0.025   0.023   0.010   0.022   0.002  -0.018   0.001   0.003  -0.002  -0.004   0.001
 -0.001  -0.007   0.013  -0.023  -0.486  -0.001   0.003  -0.010   0.002   0.102   0.021   0.001   0.001  -0.008   0.004   0.005
 -0.038  -0.044  -0.016   0.026  -0.038   0.023   0.023   0.011  -0.018   0.021  -0.036   0.044   0.037  -0.022  -0.022  -0.002
 -0.003  -0.005  -0.002   0.004  -0.008  -0.003  -0.002  -0.000   0.001   0.001   0.044  -0.002  -0.003   0.003   0.003   0.001
 -0.016  -0.008  -0.014  -0.015  -0.042   0.001   0.001  -0.003   0.003   0.001   0.037  -0.003  -0.003  -0.000   0.001   0.001
 -0.012   0.022  -0.055  -0.009   0.008   0.003  -0.000   0.008  -0.002  -0.008  -0.022   0.003  -0.000   0.001  -0.006  -0.000
  0.004  -0.012   0.035  -0.004  -0.042   0.004   0.004  -0.009  -0.004   0.004  -0.022   0.003   0.001  -0.006   0.001  -0.000
 -0.006  -0.004  -0.006  -0.002  -0.012   0.003   0.002   0.003   0.001   0.005  -0.002   0.001   0.001  -0.000  -0.000   0.000
 -0.002   0.007  -0.012  -0.005  -0.000   0.001  -0.004   0.005   0.003   0.000   0.001  -0.001  -0.000   0.001   0.000   0.000
  0.005  -0.002   0.006  -0.004  -0.009  -0.003   0.001  -0.002   0.002   0.004   0.001  -0.001  -0.000   0.000   0.001   0.000


------------------------ aborting loop because EDIFF is reached ----------------------------------------


    CHARGE:  cpu time    0.05: real time    0.05
    FORLOC:  cpu time    0.01: real time    0.01
    FORNL :  cpu time    0.36: real time    0.36
    STRESS:  cpu time    0.46: real time    0.46
    FORCOR:  cpu time    0.23: real time    0.23
    FORHAR:  cpu time    0.03: real time    0.03
    MIXING:  cpu time    0.01: real time    0.01
    OFIELD:  cpu time    0.00: real time    0.00

  FORCE on cell =-STRESS in cart. coord.  units (eV):
  Direction    XX          YY          ZZ          XY          YZ          ZX
  --------------------------------------------------------------------------------------
  Alpha Z    13.73009    13.73009    13.73009
  Ewald    6460.89611  5928.40977  5708.08392 -1970.07949 -2739.51629  -748.11454
  Hartree 10687.53645 10214.36989 10041.17437 -1719.02530 -2396.96213  -662.98739
  E(xc)    -712.17134  -712.01699  -712.40140    -0.51003    -0.67205    -0.07368
  Local  -19623.55184-18606.62452-18228.53181  3685.20974  5129.19497  1409.97375
  n-local  -132.98547  -132.93977  -133.64391    -2.76107    -3.13334     0.52522
  augment  2293.64879  2284.72891  2296.74846     4.21100     6.65549     0.23302
  Kinetic  1009.50848  1006.85438  1011.47911     3.02863     4.46307     0.33621
  Fock        0.00000     0.00000     0.00000     0.00000     0.00000     0.00000
  -------------------------------------------------------------------------------------
  Total      -3.38872    -3.48824    -3.36117     0.07349     0.02970    -0.10739
  in kB      -0.86490    -0.89030    -0.85787     0.01876     0.00758    -0.02741
  external pressure =       -0.87 kB  Pullay stress =        0.00 kB


 VOLUME and BASIS-vectors are now :
 -----------------------------------------------------------------------------
  energy-cutoff  :      269.53
  volume of cell :     6277.38
      direct lattice vectors                 reciprocal lattice vectors
    18.447014991  0.000000000  0.000000000     0.054209312  0.000000000  0.000000000
     0.000000000 18.447014991  0.000000000     0.000000000  0.054209312  0.000000000
     0.000000000  0.000000000 18.447014991     0.000000000  0.000000000  0.054209312

  length of vectors
    18.447014991 18.447014991 18.447014991     0.054209312  0.054209312  0.054209312


 FORCES acting on ions
    electron-ion (+dipol)            ewald-force                    non-local-force                 convergence-correction
 -----------------------------------------------------------------------------------------------
   0.616E+03 -.805E+03 0.547E+03   -.611E+03 0.800E+03 -.543E+03   -.489E+01 0.535E+01 -.434E+01   -.225E-01 0.412E-01 -.635E-02
   0.668E+03 -.854E+03 -.466E+03   -.667E+03 0.850E+03 0.464E+03   -.143E+01 0.405E+01 0.251E+01   0.180E-01 -.401E-02 0.503E-01
   0.182E+03 -.386E+03 -.117E+04   -.182E+03 0.383E+03 0.116E+04   0.132E+00 0.299E+01 0.672E+01   0.385E-01 -.310E-01 -.639E-02
   -.364E+03 -.960E+03 0.568E+03   0.363E+03 0.956E+03 -.568E+03   0.135E+01 0.402E+01 -.872E+00   0.541E-01 -.633E-02 0.270E-01
   -.294E+03 -.428E+03 -.345E+03   0.294E+03 0.429E+03 0.346E+03   -.439E+00 -.169E+01 -.818E+00   0.664E-01 -.525E-01 0.526E-01
   -.111E+04 -.555E+03 0.638E+02   0.110E+04 0.551E+03 -.656E+02   0.684E+01 0.347E+01 0.179E+01   0.184E-01 -.484E-01 0.350E-01
   0.771E+03 0.205E+03 0.859E+03   -.769E+03 -.203E+03 -.856E+03   -.246E+01 -.182E+01 -.311E+01   0.166E-01 -.371E-01 0.189E-01
   0.114E+04 0.384E+03 -.205E+03   -.114E+04 -.383E+03 0.204E+03   -.400E+01 -.171E+01 0.902E+00   0.334E-01 -.396E-01 0.438E-01
   0.315E+03 0.917E+03 -.765E+03   -.313E+03 -.912E+03 0.761E+03   -.207E+01 -.568E+01 0.339E+01   0.315E-01 0.190E-02 -.387E-02
   0.187E+03 0.112E+04 0.384E+03   -.186E+03 -.111E+04 -.383E+03   -.303E+00 -.321E+01 -.579E+00   0.561E-01 -.121E-01 0.413E-01
   -.352E+03 0.287E+03 0.115E+04   0.351E+03 -.286E+03 -.115E+04   0.140E+01 -.157E+01 -.420E+01   0.647E-01 -.485E-01 0.415E-01
   -.784E+03 0.365E+03 -.846E+03   0.781E+03 -.365E+03 0.842E+03   0.353E+01 0.477E+00 0.350E+01   0.354E-02 -.328E-02 -.281E-01
   -.976E+03 0.713E+03 0.220E+03   0.971E+03 -.709E+03 -.218E+03   0.502E+01 -.418E+01 -.177E+01   0.144E-02 0.201E-02 0.249E-01
 -----------------------------------------------------------------------------------------------
   -.307E+01 -.268E+00 -.344E+01   0.568E-12 0.455E-12 -.426E-12   0.268E+01 0.489E+00 0.314E+01   0.380E+00 -.238E+00 0.291E+00
 
 
 POSITION                                       TOTAL-FORCE (eV/Angst)
 -----------------------------------------------------------------------------------
      6.52605     10.84233      6.68672         0.004262     -0.003576      0.001919
      6.78075     10.01129      8.80039         0.004068     -0.015839      0.006756
      7.73802      8.56613     10.75144        -0.002634     -0.005473     -0.014261
      8.71930     10.24699      6.92973         0.004142      0.005414     -0.002368
      8.68479      8.69971      8.68517        -0.022065     -0.002199      0.015156
     10.73426      9.13041      7.82539         0.018297      0.003626      0.001104
      6.98967      8.58191      6.89849         0.007245     -0.007870      0.002393
      6.47941      7.68864      9.03870         0.006081     -0.003900      0.007864
      7.71372      6.24449     10.38273        -0.011344      0.015151     -0.009003
      8.30042      6.51592      8.07354        -0.001355      0.010601      0.007271
      9.27039      7.98749      6.48271        -0.002790     -0.006658     -0.005364
      9.75880      7.16322      9.98254        -0.001763      0.006330      0.005224
     10.68653      6.77896      7.92592        -0.002145      0.004394     -0.016690
 -----------------------------------------------------------------------------------
    total drift:                               -0.010350     -0.016111     -0.009303


--------------------------------------------------------------------------------------------------------



  FREE ENERGIE OF THE ION-ELECTRON SYSTEM (eV)
  ---------------------------------------------------
  free  energy   TOTEN  =       -49.22312556 eV

  energy  without entropy=      -49.22312556  energy(sigma->0) =      -49.22312556
 
 d Force =-0.6256471E-06[-0.135E-05, 0.101E-06]  d Energy = 0.1769955E-03-0.178E-03
 d Force = 0.1126424E+00[ 0.113E+00, 0.113E+00]  d Ewald  = 0.1126424E+00-0.360E-09


--------------------------------------------------------------------------------------------------------


    POTLOK:  cpu time    0.24: real time    0.24


--------------------------------------------------------------------------------------------------------




--------------------------------------------------------------------------------------------------------


  
 reached required accuracy - stopping structural energy minimisation
     LOOP+:  cpu time    6.58: real time    6.75
    4ORBIT:  cpu time    0.00: real time    0.00

 total amount of memory used by VASP on root node    54405. kBytes
========================================================================

   base      :      30000. kBytes
   nonl-proj :       1382. kBytes
   fftplans  :       5764. kBytes
   grid      :      14451. kBytes
   one-center:         31. kBytes
   wavefun   :       2777. kBytes
 
  
  
 General timing and accounting informations for this job:
 ========================================================
  
                  Total CPU time used (sec):     1053.966
                            User time (sec):     1038.849
                          System time (sec):       15.117
                         Elapsed time (sec):     1204.380
  
                   Maximum memory used (kb):       64160.
                   Average memory used (kb):           0.
  
                          Minor page faults:      2496164
                          Major page faults:            0
                 Voluntary context switches:        19685
