  18  18   0   0
  0.4493932E+03  0.2007396E-08  0.2007396E-08  0.2007396E-08  0.1000000E-15
  1.000000000000000E-004
  CAR 
 unknown system                          
      1.31583635     -9.58920762  301     -3.80044678      1.00000000
     -9.589  0.0000E+00  0.0000E+00  0.0000E+00  0.0000E+00
     -9.553  0.0000E+00  0.0000E+00  0.0000E+00  0.0000E+00
     -9.517  0.0000E+00  0.0000E+00  0.0000E+00  0.0000E+00
     -9.480  0.0000E+00  0.0000E+00  0.0000E+00  0.0000E+00
     -9.444  0.0000E+00  0.0000E+00  0.0000E+00  0.0000E+00
     -9.407  0.0000E+00  0.0000E+00  0.0000E+00  0.0000E+00
     -9.371  0.0000E+00  0.0000E+00  0.0000E+00  0.0000E+00
     -9.335  0.0000E+00  0.0000E+00  0.0000E+00  0.0000E+00
     -9.298  0.0000E+00  0.0000E+00  0.0000E+00  0.0000E+00
     -9.262  0.0000E+00  0.0000E+00  0.0000E+00  0.0000E+00
     -9.226  0.0000E+00  0.0000E+00  0.0000E+00  0.0000E+00
     -9.189  0.0000E+00  0.0000E+00  0.0000E+00  0.0000E+00
     -9.153  0.0000E+00  0.0000E+00  0.0000E+00  0.0000E+00
     -9.117  0.0000E+00  0.0000E+00  0.0000E+00  0.0000E+00
     -9.080  0.0000E+00  0.0000E+00  0.1000E-02  0.1000E-02
     -9.044  0.0000E+00  0.0000E+00  0.1000E-02  0.1000E-02
     -9.008  0.0000E+00  0.0000E+00  0.1000E-02  0.1000E-02
     -8.971  0.0000E+00  0.0000E+00  0.1000E-02  0.1000E-02
     -8.935  0.0000E+00  0.0000E+00  0.1000E-02  0.1000E-02
     -8.899  0.0000E+00  0.0000E+00  0.2000E-02  0.2000E-02
     -8.862  0.0000E+00  0.0000E+00  0.2000E-02  0.2000E-02
     -8.826  0.0000E+00  0.0000E+00  0.3000E-02  0.3000E-02
     -8.790  0.0000E+00  0.0000E+00  0.4000E-02  0.4000E-02
     -8.753  0.0000E+00  0.0000E+00  0.6000E-02  0.6000E-02
     -8.717  0.0000E+00  0.0000E+00  0.7000E-02  0.7000E-02
     -8.680  0.0000E+00  0.0000E+00  0.7000E-02  0.7000E-02
     -8.644  0.0000E+00  0.0000E+00  0.9000E-02  0.9000E-02
     -8.608  0.0000E+00  0.0000E+00  0.9000E-02  0.9000E-02
     -8.571  0.0000E+00  0.0000E+00  0.1100E-01  0.1100E-01
     -8.535  0.0000E+00  0.0000E+00  0.1300E-01  0.1300E-01
     -8.499  0.0000E+00  0.0000E+00  0.1300E-01  0.1300E-01
     -8.462  0.0000E+00  0.0000E+00  0.1400E-01  0.1400E-01
     -8.426  0.0000E+00  0.0000E+00  0.1600E-01  0.1600E-01
     -8.390  0.0000E+00  0.0000E+00  0.1700E-01  0.1700E-01
     -8.353  0.0000E+00  0.0000E+00  0.1800E-01  0.1800E-01
     -8.317  0.0000E+00  0.0000E+00  0.1900E-01  0.1900E-01
     -8.281  0.0000E+00  0.0000E+00  0.1900E-01  0.1900E-01
     -8.244  0.0000E+00  0.0000E+00  0.2000E-01  0.2000E-01
     -8.208  0.0000E+00  0.0000E+00  0.2200E-01  0.2200E-01
     -8.172  0.0000E+00  0.0000E+00  0.2400E-01  0.2400E-01
     -8.135  0.0000E+00  0.0000E+00  0.2500E-01  0.2500E-01
     -8.099  0.0000E+00  0.0000E+00  0.2500E-01  0.2500E-01
     -8.063  0.0000E+00  0.0000E+00  0.2700E-01  0.2700E-01
     -8.026  0.0000E+00  0.0000E+00  0.2800E-01  0.2800E-01
     -7.990  0.0000E+00  0.0000E+00  0.2900E-01  0.2900E-01
     -7.953  0.0000E+00  0.0000E+00  0.3000E-01  0.3000E-01
     -7.917  0.0000E+00  0.0000E+00  0.3200E-01  0.3200E-01
     -7.881  0.0000E+00  0.0000E+00  0.3300E-01  0.3300E-01
     -7.844  0.0000E+00  0.0000E+00  0.3400E-01  0.3400E-01
     -7.808  0.0000E+00  0.0000E+00  0.3400E-01  0.3400E-01
     -7.772  0.0000E+00  0.0000E+00  0.3500E-01  0.3500E-01
     -7.735  0.0000E+00  0.0000E+00  0.3600E-01  0.3600E-01
     -7.699  0.0000E+00  0.0000E+00  0.3700E-01  0.3700E-01
     -7.663  0.0000E+00  0.0000E+00  0.3800E-01  0.3800E-01
     -7.626  0.0000E+00  0.0000E+00  0.3900E-01  0.3900E-01
     -7.590  0.0000E+00  0.0000E+00  0.4100E-01  0.4100E-01
     -7.554  0.0000E+00  0.0000E+00  0.4200E-01  0.4200E-01
     -7.517  0.0000E+00  0.0000E+00  0.4300E-01  0.4300E-01
     -7.481  0.0000E+00  0.0000E+00  0.4300E-01  0.4300E-01
     -7.445  0.0000E+00  0.0000E+00  0.4400E-01  0.4400E-01
     -7.408  0.0000E+00  0.0000E+00  0.4400E-01  0.4400E-01
     -7.372  0.0000E+00  0.0000E+00  0.4500E-01  0.4500E-01
     -7.335  0.0000E+00  0.0000E+00  0.4600E-01  0.4600E-01
     -7.299  0.0000E+00  0.0000E+00  0.4700E-01  0.4700E-01
     -7.263  0.0000E+00  0.0000E+00  0.4900E-01  0.4900E-01
     -7.226  0.0000E+00  0.0000E+00  0.5100E-01  0.5100E-01
     -7.190  0.0000E+00  0.0000E+00  0.5200E-01  0.5200E-01
     -7.154  0.0000E+00  0.0000E+00  0.5200E-01  0.5200E-01
     -7.117  0.0000E+00  0.0000E+00  0.5400E-01  0.5400E-01
     -7.081  0.0000E+00  0.0000E+00  0.5600E-01  0.5600E-01
     -7.045  0.0000E+00  0.0000E+00  0.5800E-01  0.5800E-01
     -7.008  0.0000E+00  0.0000E+00  0.6000E-01  0.6000E-01
     -6.972  0.0000E+00  0.0000E+00  0.6100E-01  0.6100E-01
     -6.936  0.0000E+00  0.0000E+00  0.6400E-01  0.6400E-01
     -6.899  0.0000E+00  0.0000E+00  0.6500E-01  0.6500E-01
     -6.863  0.0000E+00  0.0000E+00  0.6600E-01  0.6600E-01
     -6.827  0.2751E-01  0.2751E-01  0.6900E-01  0.6900E-01
     -6.790  0.0000E+00  0.0000E+00  0.7000E-01  0.7000E-01
     -6.754  0.0000E+00  0.0000E+00  0.7200E-01  0.7200E-01
     -6.718  0.0000E+00  0.0000E+00  0.7300E-01  0.7300E-01
     -6.681  0.0000E+00  0.0000E+00  0.7500E-01  0.7500E-01
     -6.645  0.0000E+00  0.0000E+00  0.7700E-01  0.7700E-01
     -6.608  0.0000E+00  0.0000E+00  0.7900E-01  0.7900E-01
     -6.572  0.0000E+00  0.0000E+00  0.8100E-01  0.8100E-01
     -6.536  0.0000E+00  0.0000E+00  0.8200E-01  0.8200E-01
     -6.499  0.0000E+00  0.0000E+00  0.8300E-01  0.8300E-01
     -6.463  0.0000E+00  0.0000E+00  0.8400E-01  0.8400E-01
     -6.427  0.0000E+00  0.0000E+00  0.8500E-01  0.8500E-01
     -6.390  0.0000E+00  0.0000E+00  0.8700E-01  0.8700E-01
     -6.354  0.0000E+00  0.0000E+00  0.8700E-01  0.8700E-01
     -6.318  0.0000E+00  0.0000E+00  0.8800E-01  0.8800E-01
     -6.281  0.0000E+00  0.0000E+00  0.8800E-01  0.8800E-01
     -6.245  0.2751E-01  0.2751E-01  0.9100E-01  0.9100E-01
     -6.209  0.0000E+00  0.0000E+00  0.9200E-01  0.9200E-01
     -6.172  0.0000E+00  0.0000E+00  0.9300E-01  0.9300E-01
     -6.136  0.0000E+00  0.0000E+00  0.9300E-01  0.9300E-01
     -6.100  0.0000E+00  0.0000E+00  0.9300E-01  0.9300E-01
     -6.063  0.0000E+00  0.0000E+00  0.9300E-01  0.9300E-01
     -6.027  0.0000E+00  0.0000E+00  0.9300E-01  0.9300E-01
     -5.991  0.0000E+00  0.0000E+00  0.9300E-01  0.9300E-01
     -5.954  0.0000E+00  0.0000E+00  0.9300E-01  0.9300E-01
     -5.918  0.0000E+00  0.0000E+00  0.9300E-01  0.9300E-01
     -5.881  0.0000E+00  0.0000E+00  0.9300E-01  0.9300E-01
     -5.845  0.0000E+00  0.0000E+00  0.9300E-01  0.9300E-01
     -5.809  0.0000E+00  0.0000E+00  0.9300E-01  0.9300E-01
     -5.772  0.0000E+00  0.0000E+00  0.9300E-01  0.9300E-01
     -5.736  0.0000E+00  0.0000E+00  0.9300E-01  0.9300E-01
     -5.700  0.0000E+00  0.0000E+00  0.9300E-01  0.9300E-01
     -5.663  0.0000E+00  0.0000E+00  0.9300E-01  0.9300E-01
     -5.627  0.0000E+00  0.0000E+00  0.9400E-01  0.9400E-01
     -5.591  0.0000E+00  0.0000E+00  0.9400E-01  0.9400E-01
     -5.554  0.0000E+00  0.0000E+00  0.9400E-01  0.9400E-01
     -5.518  0.0000E+00  0.0000E+00  0.9400E-01  0.9400E-01
     -5.482  0.0000E+00  0.0000E+00  0.9400E-01  0.9400E-01
     -5.445  0.0000E+00  0.0000E+00  0.9400E-01  0.9400E-01
     -5.409  0.0000E+00  0.0000E+00  0.9400E-01  0.9400E-01
     -5.373  0.0000E+00  0.0000E+00  0.9400E-01  0.9400E-01
     -5.336  0.0000E+00  0.0000E+00  0.9400E-01  0.9400E-01
     -5.300  0.0000E+00  0.0000E+00  0.9400E-01  0.9400E-01
     -5.264  0.0000E+00  0.0000E+00  0.9400E-01  0.9400E-01
     -5.227  0.0000E+00  0.0000E+00  0.9400E-01  0.9400E-01
     -5.191  0.0000E+00  0.0000E+00  0.9400E-01  0.9400E-01
     -5.154  0.0000E+00  0.0000E+00  0.9400E-01  0.9400E-01
     -5.118  0.0000E+00  0.0000E+00  0.9400E-01  0.9400E-01
     -5.082  0.0000E+00  0.0000E+00  0.9400E-01  0.9400E-01
     -5.045  0.0000E+00  0.0000E+00  0.9500E-01  0.9500E-01
     -5.009  0.0000E+00  0.0000E+00  0.9500E-01  0.9500E-01
     -4.973  0.0000E+00  0.0000E+00  0.9500E-01  0.9500E-01
     -4.936  0.0000E+00  0.0000E+00  0.9500E-01  0.9500E-01
     -4.900  0.0000E+00  0.0000E+00  0.9500E-01  0.9500E-01
     -4.864  0.0000E+00  0.0000E+00  0.9500E-01  0.9500E-01
     -4.827  0.0000E+00  0.0000E+00  0.9500E-01  0.9500E-01
     -4.791  0.0000E+00  0.0000E+00  0.9500E-01  0.9500E-01
     -4.755  0.0000E+00  0.0000E+00  0.9600E-01  0.9600E-01
     -4.718  0.0000E+00  0.0000E+00  0.9600E-01  0.9600E-01
     -4.682  0.0000E+00  0.0000E+00  0.9600E-01  0.9600E-01
     -4.646  0.0000E+00  0.0000E+00  0.9600E-01  0.9600E-01
     -4.609  0.0000E+00  0.0000E+00  0.9600E-01  0.9600E-01
     -4.573  0.0000E+00  0.0000E+00  0.9600E-01  0.9600E-01
     -4.537  0.0000E+00  0.0000E+00  0.9600E-01  0.9600E-01
     -4.500  0.0000E+00  0.0000E+00  0.9700E-01  0.9700E-01
     -4.464  0.0000E+00  0.0000E+00  0.9700E-01  0.9700E-01
     -4.427  0.0000E+00  0.0000E+00  0.9700E-01  0.9700E-01
     -4.391  0.0000E+00  0.0000E+00  0.9700E-01  0.9700E-01
     -4.355  0.0000E+00  0.0000E+00  0.9700E-01  0.9700E-01
     -4.318  0.0000E+00  0.0000E+00  0.9700E-01  0.9700E-01
     -4.282  0.0000E+00  0.0000E+00  0.9700E-01  0.9700E-01
     -4.246  0.0000E+00  0.0000E+00  0.9700E-01  0.9700E-01
     -4.209  0.0000E+00  0.0000E+00  0.9700E-01  0.9700E-01
     -4.173  0.0000E+00  0.0000E+00  0.9700E-01  0.9700E-01
     -4.137  0.0000E+00  0.0000E+00  0.9700E-01  0.9700E-01
     -4.100  0.0000E+00  0.0000E+00  0.9700E-01  0.9700E-01
     -4.064  0.0000E+00  0.0000E+00  0.9700E-01  0.9700E-01
     -4.028  0.0000E+00  0.0000E+00  0.9800E-01  0.9800E-01
     -3.991  0.0000E+00  0.0000E+00  0.9800E-01  0.9800E-01
     -3.955  0.0000E+00  0.0000E+00  0.9800E-01  0.9800E-01
     -3.919  0.0000E+00  0.0000E+00  0.9800E-01  0.9800E-01
     -3.882  0.0000E+00  0.0000E+00  0.9800E-01  0.9800E-01
     -3.846  0.0000E+00  0.0000E+00  0.9800E-01  0.9800E-01
     -3.810  0.0000E+00  0.0000E+00  0.9900E-01  0.9900E-01
     -3.773  0.0000E+00  0.0000E+00  0.9900E-01  0.9900E-01
     -3.737  0.0000E+00  0.0000E+00  0.9900E-01  0.9900E-01
     -3.700  0.0000E+00  0.0000E+00  0.9900E-01  0.9900E-01
     -3.664  0.0000E+00  0.0000E+00  0.9900E-01  0.9900E-01
     -3.628  0.0000E+00  0.0000E+00  0.9900E-01  0.9900E-01
     -3.591  0.0000E+00  0.0000E+00  0.9900E-01  0.9900E-01
     -3.555  0.0000E+00  0.0000E+00  0.9900E-01  0.9900E-01
     -3.519  0.0000E+00  0.0000E+00  0.9900E-01  0.9900E-01
     -3.482  0.0000E+00  0.0000E+00  0.9900E-01  0.9900E-01
     -3.446  0.0000E+00  0.0000E+00  0.9900E-01  0.9900E-01
     -3.410  0.0000E+00  0.0000E+00  0.9900E-01  0.9900E-01
     -3.373  0.0000E+00  0.0000E+00  0.9900E-01  0.9900E-01
     -3.337  0.0000E+00  0.0000E+00  0.9900E-01  0.9900E-01
     -3.301  0.0000E+00  0.0000E+00  0.9900E-01  0.9900E-01
     -3.264  0.0000E+00  0.0000E+00  0.9900E-01  0.9900E-01
     -3.228  0.0000E+00  0.0000E+00  0.9900E-01  0.9900E-01
     -3.192  0.0000E+00  0.0000E+00  0.9900E-01  0.9900E-01
     -3.155  0.0000E+00  0.0000E+00  0.9900E-01  0.9900E-01
     -3.119  0.0000E+00  0.0000E+00  0.9900E-01  0.9900E-01
     -3.083  0.0000E+00  0.0000E+00  0.1000E+00  0.1000E+00
     -3.046  0.0000E+00  0.0000E+00  0.1000E+00  0.1000E+00
     -3.010  0.0000E+00  0.0000E+00  0.1000E+00  0.1000E+00
     -2.973  0.0000E+00  0.0000E+00  0.1010E+00  0.1010E+00
     -2.937  0.0000E+00  0.0000E+00  0.1010E+00  0.1010E+00
     -2.901  0.0000E+00  0.0000E+00  0.1010E+00  0.1010E+00
     -2.864  0.0000E+00  0.0000E+00  0.1010E+00  0.1010E+00
     -2.828  0.0000E+00  0.0000E+00  0.1010E+00  0.1010E+00
     -2.792  0.0000E+00  0.0000E+00  0.1010E+00  0.1010E+00
     -2.755  0.0000E+00  0.0000E+00  0.1010E+00  0.1010E+00
     -2.719  0.0000E+00  0.0000E+00  0.1010E+00  0.1010E+00
     -2.683  0.0000E+00  0.0000E+00  0.1020E+00  0.1020E+00
     -2.646  0.0000E+00  0.0000E+00  0.1020E+00  0.1020E+00
     -2.610  0.0000E+00  0.0000E+00  0.1020E+00  0.1020E+00
     -2.574  0.0000E+00  0.0000E+00  0.1020E+00  0.1020E+00
     -2.537  0.0000E+00  0.0000E+00  0.1030E+00  0.1030E+00
     -2.501  0.0000E+00  0.0000E+00  0.1030E+00  0.1030E+00
     -2.465  0.0000E+00  0.0000E+00  0.1030E+00  0.1030E+00
     -2.428  0.0000E+00  0.0000E+00  0.1030E+00  0.1030E+00
     -2.392  0.0000E+00  0.0000E+00  0.1040E+00  0.1040E+00
     -2.356  0.0000E+00  0.0000E+00  0.1040E+00  0.1040E+00
     -2.319  0.0000E+00  0.0000E+00  0.1040E+00  0.1040E+00
     -2.283  0.0000E+00  0.0000E+00  0.1040E+00  0.1040E+00
     -2.246  0.0000E+00  0.0000E+00  0.1040E+00  0.1040E+00
     -2.210  0.0000E+00  0.0000E+00  0.1040E+00  0.1040E+00
     -2.174  0.0000E+00  0.0000E+00  0.1040E+00  0.1040E+00
     -2.137  0.0000E+00  0.0000E+00  0.1040E+00  0.1040E+00
     -2.101  0.0000E+00  0.0000E+00  0.1050E+00  0.1050E+00
     -2.065  0.0000E+00  0.0000E+00  0.1050E+00  0.1050E+00
     -2.028  0.0000E+00  0.0000E+00  0.1050E+00  0.1050E+00
     -1.992  0.0000E+00  0.0000E+00  0.1050E+00  0.1050E+00
     -1.956  0.0000E+00  0.0000E+00  0.1060E+00  0.1060E+00
     -1.919  0.0000E+00  0.0000E+00  0.1060E+00  0.1060E+00
     -1.883  0.0000E+00  0.0000E+00  0.1060E+00  0.1060E+00
     -1.847  0.0000E+00  0.0000E+00  0.1060E+00  0.1060E+00
     -1.810  0.0000E+00  0.0000E+00  0.1060E+00  0.1060E+00
     -1.774  0.0000E+00  0.0000E+00  0.1060E+00  0.1060E+00
     -1.738  0.0000E+00  0.0000E+00  0.1070E+00  0.1070E+00
     -1.701  0.0000E+00  0.0000E+00  0.1070E+00  0.1070E+00
     -1.665  0.0000E+00  0.0000E+00  0.1070E+00  0.1070E+00
     -1.629  0.0000E+00  0.0000E+00  0.1070E+00  0.1070E+00
     -1.592  0.0000E+00  0.0000E+00  0.1070E+00  0.1070E+00
     -1.556  0.0000E+00  0.0000E+00  0.1070E+00  0.1070E+00
     -1.519  0.0000E+00  0.0000E+00  0.1070E+00  0.1070E+00
     -1.483  0.0000E+00  0.0000E+00  0.1070E+00  0.1070E+00
     -1.447  0.0000E+00  0.0000E+00  0.1070E+00  0.1070E+00
     -1.410  0.0000E+00  0.0000E+00  0.1070E+00  0.1070E+00
     -1.374  0.0000E+00  0.0000E+00  0.1080E+00  0.1080E+00
     -1.338  0.0000E+00  0.0000E+00  0.1080E+00  0.1080E+00
     -1.301  0.0000E+00  0.0000E+00  0.1080E+00  0.1080E+00
     -1.265  0.0000E+00  0.0000E+00  0.1090E+00  0.1090E+00
     -1.229  0.0000E+00  0.0000E+00  0.1090E+00  0.1090E+00
     -1.192  0.0000E+00  0.0000E+00  0.1090E+00  0.1090E+00
     -1.156  0.0000E+00  0.0000E+00  0.1090E+00  0.1090E+00
     -1.120  0.0000E+00  0.0000E+00  0.1090E+00  0.1090E+00
     -1.083  0.0000E+00  0.0000E+00  0.1090E+00  0.1090E+00
     -1.047  0.0000E+00  0.0000E+00  0.1100E+00  0.1100E+00
     -1.011  0.0000E+00  0.0000E+00  0.1100E+00  0.1100E+00
     -0.974  0.0000E+00  0.0000E+00  0.1100E+00  0.1100E+00
     -0.938  0.0000E+00  0.0000E+00  0.1100E+00  0.1100E+00
     -0.902  0.0000E+00  0.0000E+00  0.1100E+00  0.1100E+00
     -0.865  0.0000E+00  0.0000E+00  0.1110E+00  0.1110E+00
     -0.829  0.0000E+00  0.0000E+00  0.1110E+00  0.1110E+00
     -0.792  0.0000E+00  0.0000E+00  0.1120E+00  0.1120E+00
     -0.756  0.0000E+00  0.0000E+00  0.1120E+00  0.1120E+00
     -0.720  0.0000E+00  0.0000E+00  0.1120E+00  0.1120E+00
     -0.683  0.0000E+00  0.0000E+00  0.1130E+00  0.1130E+00
     -0.647  0.0000E+00  0.0000E+00  0.1130E+00  0.1130E+00
     -0.611  0.0000E+00  0.0000E+00  0.1130E+00  0.1130E+00
     -0.574  0.0000E+00  0.0000E+00  0.1140E+00  0.1140E+00
     -0.538  0.0000E+00  0.0000E+00  0.1140E+00  0.1140E+00
     -0.502  0.0000E+00  0.0000E+00  0.1150E+00  0.1150E+00
     -0.465  0.0000E+00  0.0000E+00  0.1150E+00  0.1150E+00
     -0.429  0.0000E+00  0.0000E+00  0.1150E+00  0.1150E+00
     -0.393  0.0000E+00  0.0000E+00  0.1160E+00  0.1160E+00
     -0.356  0.0000E+00  0.0000E+00  0.1160E+00  0.1160E+00
     -0.320  0.0000E+00  0.0000E+00  0.1160E+00  0.1160E+00
     -0.284  0.0000E+00  0.0000E+00  0.1160E+00  0.1160E+00
     -0.247  0.0000E+00  0.0000E+00  0.1170E+00  0.1170E+00
     -0.211  0.0000E+00  0.0000E+00  0.1170E+00  0.1170E+00
     -0.175  0.0000E+00  0.0000E+00  0.1170E+00  0.1170E+00
     -0.138  0.0000E+00  0.0000E+00  0.1170E+00  0.1170E+00
     -0.102  0.0000E+00  0.0000E+00  0.1170E+00  0.1170E+00
     -0.065  0.0000E+00  0.0000E+00  0.1170E+00  0.1170E+00
     -0.029  0.0000E+00  0.0000E+00  0.1170E+00  0.1170E+00
      0.007  0.0000E+00  0.0000E+00  0.1170E+00  0.1170E+00
      0.044  0.0000E+00  0.0000E+00  0.1170E+00  0.1170E+00
      0.080  0.0000E+00  0.0000E+00  0.1180E+00  0.1180E+00
      0.116  0.0000E+00  0.0000E+00  0.1180E+00  0.1180E+00
      0.153  0.0000E+00  0.0000E+00  0.1180E+00  0.1180E+00
      0.189  0.0000E+00  0.0000E+00  0.1180E+00  0.1180E+00
      0.225  0.0000E+00  0.0000E+00  0.1180E+00  0.1180E+00
      0.262  0.0000E+00  0.0000E+00  0.1180E+00  0.1180E+00
      0.298  0.0000E+00  0.0000E+00  0.1180E+00  0.1180E+00
      0.334  0.0000E+00  0.0000E+00  0.1190E+00  0.1190E+00
      0.371  0.0000E+00  0.0000E+00  0.1190E+00  0.1190E+00
      0.407  0.0000E+00  0.0000E+00  0.1200E+00  0.1200E+00
      0.443  0.0000E+00  0.0000E+00  0.1200E+00  0.1200E+00
      0.480  0.0000E+00  0.0000E+00  0.1200E+00  0.1200E+00
      0.516  0.0000E+00  0.0000E+00  0.1200E+00  0.1200E+00
      0.552  0.0000E+00  0.0000E+00  0.1210E+00  0.1210E+00
      0.589  0.0000E+00  0.0000E+00  0.1210E+00  0.1210E+00
      0.625  0.0000E+00  0.0000E+00  0.1220E+00  0.1220E+00
      0.662  0.8498E-14  0.7413E-14  0.1230E+00  0.1230E+00
      0.698  0.0000E+00  0.0000E+00  0.1250E+00  0.1250E+00
      0.734  0.0000E+00  0.0000E+00  0.1270E+00  0.1270E+00
      0.771  0.0000E+00  0.0000E+00  0.1270E+00  0.1270E+00
      0.807  0.0000E+00  0.0000E+00  0.1270E+00  0.1270E+00
      0.843  0.0000E+00  0.0000E+00  0.1280E+00  0.1280E+00
      0.880  0.0000E+00  0.0000E+00  0.1280E+00  0.1280E+00
      0.916  0.0000E+00  0.0000E+00  0.1280E+00  0.1280E+00
      0.952  0.0000E+00  0.0000E+00  0.1280E+00  0.1280E+00
      0.989  0.0000E+00  0.0000E+00  0.1280E+00  0.1280E+00
      1.025  0.0000E+00  0.0000E+00  0.1280E+00  0.1280E+00
      1.061  0.0000E+00  0.0000E+00  0.1280E+00  0.1280E+00
      1.098  0.0000E+00  0.0000E+00  0.1280E+00  0.1280E+00
      1.134  0.0000E+00  0.0000E+00  0.1280E+00  0.1280E+00
      1.170  0.0000E+00  0.0000E+00  0.1280E+00  0.1280E+00
      1.207  0.0000E+00  0.0000E+00  0.1280E+00  0.1280E+00
      1.243  0.0000E+00  0.0000E+00  0.1280E+00  0.1280E+00
      1.279  0.0000E+00  0.0000E+00  0.1280E+00  0.1280E+00
      1.316  0.0000E+00  0.0000E+00  0.1280E+00  0.1280E+00
