unknown system                          
           1
    20.073957    0.000000    0.000000
     0.000000   20.073957    0.000000
     0.000000    0.000000   20.073957
   Ag
  18
Direct configuration=     1
   0.62645030  0.68711455  0.45967980
   0.65958444  0.55246699  0.47034641
   0.56668060  0.45588359  0.40209900
   0.53172895  0.58535458  0.43350793
   0.49846833  0.70142162  0.50687702
   0.67591550  0.42387839  0.48126238
   0.58184505  0.60915090  0.57281730
   0.44084419  0.49191498  0.44119679
   0.55683095  0.47898026  0.53744268
   0.44718784  0.58098101  0.56425854
   0.59553203  0.33971885  0.54111827
   0.39615346  0.63201276  0.44494912
   0.48032513  0.36858567  0.47997852
   0.52127221  0.52313978  0.66198605
   0.32659324  0.52956720  0.50540161
   0.52614997  0.38762623  0.64399090
   0.42379860  0.45212791  0.58599069
   0.34569233  0.39743399  0.47849065
Direct configuration=     2
   0.62643396  0.68702435  0.45966514
   0.65961986  0.55268070  0.47029584
   0.56682010  0.45578365  0.40206627
   0.53182252  0.58571917  0.43344396
   0.49845039  0.70143510  0.50698878
   0.67609770  0.42372808  0.48111577
   0.58198878  0.60932626  0.57288937
   0.44046709  0.49190987  0.44105088
   0.55698951  0.47877676  0.53753021
   0.44705074  0.58128370  0.56422355
   0.59561015  0.33957717  0.54120402
   0.39618470  0.63188011  0.44485217
   0.48030585  0.36852473  0.47995033
   0.52128403  0.52315526  0.66201035
   0.32660408  0.52958220  0.50552189
   0.52617066  0.38754811  0.64410764
   0.42346585  0.45198379  0.58603524
   0.34568716  0.39744026  0.47844225
Direct configuration=     3
   0.62638496  0.68675374  0.45962114
   0.65972611  0.55332185  0.47014414
   0.56723860  0.45548380  0.40196810
   0.53210324  0.58681292  0.43325203
   0.49839657  0.70147553  0.50732406
   0.67664428  0.42327718  0.48067596
   0.58241997  0.60985232  0.57310556
   0.43933580  0.49189455  0.44061314
   0.55746522  0.47816628  0.53779278
   0.44663941  0.58219175  0.56411857
   0.59584450  0.33915214  0.54146127
   0.39627842  0.63148215  0.44456132
   0.48024801  0.36834191  0.47986577
   0.52131948  0.52320170  0.66208325
   0.32663659  0.52962721  0.50588275
   0.52623272  0.38731375  0.64445787
   0.42246758  0.45155143  0.58616889
   0.34567166  0.39745908  0.47829708
Direct configuration=     4
   0.62628695  0.68621252  0.45953314
   0.65993863  0.55460415  0.46984074
   0.56807561  0.45488412  0.40177175
   0.53266467  0.58900043  0.43286817
   0.49828893  0.70155639  0.50799462
   0.67773745  0.42237536  0.47979633
   0.58328234  0.61090445  0.57353796
   0.43707322  0.49186390  0.43973765
   0.55841662  0.47694530  0.53831793
   0.44581676  0.58400784  0.56390861
   0.59631320  0.33830206  0.54197577
   0.39646587  0.63068623  0.44397962
   0.48013232  0.36797627  0.47969663
   0.52139039  0.52329457  0.66222904
   0.32670160  0.52971724  0.50660445
   0.52635684  0.38684502  0.64515833
   0.42047105  0.45068670  0.58643619
   0.34564066  0.39749672  0.47800672
Direct configuration=     5
   0.62609092  0.68513008  0.45935714
   0.66036366  0.55716875  0.46923393
   0.56974963  0.45368474  0.40137905
   0.53378755  0.59337545  0.43210046
   0.49807366  0.70171810  0.50933574
   0.67992378  0.42057172  0.47803707
   0.58500708  0.61300871  0.57440274
   0.43254805  0.49180261  0.43798668
   0.56031943  0.47450336  0.53936823
   0.44417146  0.58764004  0.56348870
   0.59725061  0.33660191  0.54300478
   0.39684077  0.62909440  0.44281623
   0.47990094  0.36724498  0.47935836
   0.52153222  0.52348032  0.66252063
   0.32683164  0.52989729  0.50804787
   0.52660507  0.38590757  0.64655925
   0.41647799  0.44895725  0.58697079
   0.34557866  0.39757200  0.47742601
Direct configuration=     6
   0.62621410  0.68581027  0.45946774
   0.66009657  0.55555717  0.46961524
   0.56869769  0.45443842  0.40162582
   0.53308194  0.59062622  0.43258288
   0.49820893  0.70161648  0.50849299
   0.67854990  0.42170511  0.47914257
   0.58392326  0.61168641  0.57385932
   0.43539163  0.49184113  0.43908698
   0.55912372  0.47603786  0.53870823
   0.44520535  0.58535759  0.56375257
   0.59666155  0.33767027  0.54235816
   0.39660519  0.63009469  0.44354730
   0.48004634  0.36770452  0.47957093
   0.52144310  0.52336360  0.66233740
   0.32674993  0.52978415  0.50714084
   0.52644908  0.38649666  0.64567892
   0.41898720  0.45004403  0.58663485
   0.34561762  0.39752470  0.47779092
Direct configuration=     7
   0.62635318  0.68607972  0.45939677
   0.66023220  0.55537200  0.46950219
   0.56876345  0.45456287  0.40198009
   0.53274374  0.59063920  0.43224207
   0.49807075  0.70191603  0.50905209
   0.67899922  0.42150956  0.47851337
   0.58417597  0.61183491  0.57424117
   0.43546700  0.49219268  0.43823943
   0.55966830  0.47558999  0.53900376
   0.44502986  0.58569473  0.56412667
   0.59701603  0.33732980  0.54266607
   0.39669253  0.62958670  0.44287541
   0.48012914  0.36780663  0.47950431
   0.52128082  0.52347387  0.66175860
   0.32646785  0.52991194  0.50791238
   0.52629080  0.38641598  0.64589426
   0.41830113  0.45004537  0.58691724
   0.34537115  0.39739731  0.47756777
Direct configuration=     8
   0.62677040  0.68688806  0.45918388
   0.66063909  0.55481648  0.46916304
   0.56896075  0.45493621  0.40304289
   0.53172915  0.59067811  0.43121962
   0.49765621  0.70281469  0.51072939
   0.68034715  0.42092291  0.47662576
   0.58493408  0.61228039  0.57538674
   0.43569313  0.49324735  0.43569678
   0.56130202  0.47424638  0.53989038
   0.44450338  0.58670613  0.56524897
   0.59807945  0.33630837  0.54358981
   0.39695457  0.62806272  0.44085976
   0.48037752  0.36811298  0.47930445
   0.52079398  0.52380469  0.66002221
   0.32562160  0.53029532  0.51022699
   0.52581596  0.38617395  0.64654026
   0.41624292  0.45004939  0.58776442
   0.34463173  0.39701514  0.47689830
Direct configuration=     9
   0.62692300  0.68718370  0.45910602
   0.66078791  0.55461330  0.46903900
   0.56903292  0.45507276  0.40343160
   0.53135806  0.59069235  0.43084567
   0.49750459  0.70314337  0.51134286
   0.68084015  0.42070834  0.47593538
   0.58521135  0.61244332  0.57580572
   0.43577583  0.49363309  0.43476682
   0.56189955  0.47375496  0.54021465
   0.44431083  0.58707605  0.56565944
   0.59846840  0.33593479  0.54392766
   0.39705041  0.62750533  0.44012254
   0.48046837  0.36822503  0.47923136
   0.52061593  0.52392569  0.65938714
   0.32531209  0.53043554  0.51107356
   0.52564229  0.38608542  0.64677653
   0.41549014  0.45005087  0.58807427
   0.34436129  0.39687537  0.47665345
Direct configuration=    10
   0.62660478  0.68710696  0.45927150
   0.66029528  0.55429134  0.46905120
   0.56879464  0.45552619  0.40395405
   0.53157826  0.59064489  0.43081332
   0.49757584  0.70297686  0.51180880
   0.68094161  0.42036571  0.47541637
   0.58525098  0.61223711  0.57555593
   0.43559548  0.49332404  0.43435443
   0.56275666  0.47342251  0.54048400
   0.44400958  0.58706824  0.56584160
   0.59885582  0.33615239  0.54420172
   0.39708214  0.62694383  0.43957126
   0.48065053  0.36901040  0.47937824
   0.52026581  0.52384840  0.65883308
   0.32574008  0.53027465  0.51177614
   0.52514574  0.38624171  0.64653274
   0.41539315  0.45049247  0.58824621
   0.34451672  0.39743157  0.47630306
Direct configuration=    11
   0.62565013  0.68687674  0.45976795
   0.65881739  0.55332545  0.46908780
   0.56807983  0.45688649  0.40552138
   0.53223884  0.59050254  0.43071630
   0.49778960  0.70247733  0.51320662
   0.68124600  0.41933780  0.47385934
   0.58536988  0.61161848  0.57480655
   0.43505441  0.49239690  0.43311727
   0.56532800  0.47242517  0.54129206
   0.44310583  0.58704482  0.56638808
   0.60001809  0.33680520  0.54502391
   0.39717732  0.62525931  0.43791743
   0.48119701  0.37136650  0.47981888
   0.51921546  0.52361655  0.65717092
   0.32702403  0.52979197  0.51388388
   0.52365610  0.38671055  0.64580139
   0.41510219  0.45181729  0.58876202
   0.34498300  0.39910019  0.47525188
Direct configuration=    12
   0.62547475  0.68683445  0.45985916
   0.65854587  0.55314800  0.46909452
   0.56794850  0.45713640  0.40580933
   0.53236020  0.59047639  0.43069847
   0.49782887  0.70238556  0.51346343
   0.68130192  0.41914896  0.47357329
   0.58539173  0.61150483  0.57466888
   0.43495501  0.49222656  0.43288998
   0.56580040  0.47224194  0.54144051
   0.44293980  0.58704052  0.56648847
   0.60023162  0.33692513  0.54517496
   0.39719481  0.62494983  0.43761359
   0.48129741  0.37179936  0.47989983
   0.51902249  0.52357395  0.65686555
   0.32725991  0.52970329  0.51427111
   0.52338243  0.38679668  0.64566703
   0.41504873  0.45206068  0.58885679
   0.34506867  0.39940674  0.47505876
Direct configuration=    13
   0.62512358  0.68667086  0.46017374
   0.65853150  0.55274131  0.46911986
   0.56751239  0.45766464  0.40551458
   0.53168243  0.59057856  0.43073099
   0.49764308  0.70158518  0.51383017
   0.68146874  0.41838579  0.47275596
   0.58509283  0.61080351  0.57422700
   0.43481005  0.49263368  0.43206684
   0.56769368  0.47201097  0.54244650
   0.44229826  0.58793419  0.56600692
   0.60067116  0.33732538  0.54571874
   0.39743122  0.62414701  0.43723231
   0.48200000  0.37273444  0.48087164
   0.51868296  0.52355355  0.65712837
   0.32766715  0.52990931  0.51485109
   0.52251462  0.38660862  0.64509843
   0.41510590  0.45224598  0.58909311
   0.34512355  0.39982630  0.47452743
Direct configuration=    14
   0.62465658  0.68645331  0.46059208
   0.65851237  0.55220049  0.46915355
   0.56693242  0.45836712  0.40512262
   0.53078111  0.59071444  0.43077424
   0.49739601  0.70052081  0.51431787
   0.68169059  0.41737091  0.47166903
   0.58469536  0.60987087  0.57363938
   0.43461727  0.49317508  0.43097219
   0.57021144  0.47170382  0.54378431
   0.44144513  0.58912263  0.56536653
   0.60125568  0.33785764  0.54644187
   0.39774561  0.62307938  0.43672527
   0.48293434  0.37397794  0.48216398
   0.51823145  0.52352641  0.65747787
   0.32820871  0.53018328  0.51562236
   0.52136057  0.38635852  0.64434229
   0.41518194  0.45249240  0.58940738
   0.34519652  0.40038423  0.47382085
Direct configuration=    15
   0.62452844  0.68613114  0.46082340
   0.65877489  0.55198293  0.46889570
   0.56677064  0.45875217  0.40466077
   0.53060267  0.59087150  0.43072471
   0.49717744  0.70043813  0.51429180
   0.68163843  0.41674448  0.47070885
   0.58433713  0.60914617  0.57353012
   0.43438945  0.49302781  0.43006717
   0.57234888  0.47169734  0.54491170
   0.44111147  0.58943336  0.56572616
   0.60183249  0.33776610  0.54703613
   0.39732588  0.62322623  0.43628900
   0.48349470  0.37488458  0.48349108
   0.51761772  0.52374502  0.65772170
   0.32802231  0.53036856  0.51569167
   0.52058313  0.38589047  0.64395744
   0.41506375  0.45263630  0.58940772
   0.34543369  0.40061698  0.47345854
Direct configuration=    16
   0.62414403  0.68516462  0.46151736
   0.65956245  0.55133028  0.46812214
   0.56628531  0.45990731  0.40327522
   0.53006735  0.59134268  0.43057612
   0.49652171  0.70019009  0.51421360
   0.68148195  0.41486521  0.46782832
   0.58326245  0.60697208  0.57320236
   0.43370599  0.49258599  0.42735212
   0.57876119  0.47167792  0.54829389
   0.44011052  0.59036556  0.56680503
   0.60356290  0.33749147  0.54881893
   0.39606667  0.62366675  0.43498019
   0.48517579  0.37760452  0.48747240
   0.51577652  0.52440087  0.65845317
   0.32746309  0.53092440  0.51589960
   0.51825080  0.38448634  0.64280288
   0.41470921  0.45306798  0.58940876
   0.34614517  0.40131521  0.47237159
Direct configuration=    17
   0.62449019  0.68467625  0.46194506
   0.65994164  0.55129628  0.46704714
   0.56651781  0.46019437  0.40374035
   0.53010049  0.59106465  0.43038453
   0.49641939  0.70101931  0.51377564
   0.68063724  0.41448361  0.46602659
   0.58306454  0.60738619  0.57316120
   0.43356821  0.49272012  0.42637393
   0.58142415  0.47091400  0.55000121
   0.43947808  0.59015388  0.56768428
   0.60471583  0.33667823  0.54947714
   0.39534752  0.62409644  0.43522018
   0.48577767  0.37902092  0.48933330
   0.51470445  0.52370326  0.65837321
   0.32709147  0.53103525  0.51483259
   0.51745571  0.38421188  0.64228870
   0.41359586  0.45359491  0.58905400
   0.34672286  0.40110973  0.47267459
Direct configuration=    18
   0.62515839  0.68373355  0.46277067
   0.66067359  0.55123064  0.46497202
   0.56696663  0.46074849  0.40463822
   0.53016447  0.59052794  0.43001470
   0.49622188  0.70261998  0.51293025
   0.67900668  0.41374700  0.46254866
   0.58268252  0.60818557  0.57308175
   0.43330224  0.49297904  0.42448571
   0.58656453  0.46943938  0.55329691
   0.43825726  0.58974526  0.56938153
   0.60694137  0.33510842  0.55074772
   0.39395931  0.62492588  0.43568344
   0.48693950  0.38175503  0.49292545
   0.51263500  0.52235664  0.65821886
   0.32637411  0.53124924  0.51277291
   0.51592092  0.38368209  0.64129616
   0.41144672  0.45461204  0.58836921
   0.34783798  0.40071309  0.47325949
Direct configuration=    19
   0.62546357  0.68348812  0.46310200
   0.66072100  0.55113249  0.46421193
   0.56658991  0.46088844  0.40512835
   0.52994371  0.59072943  0.43006115
   0.49606035  0.70263097  0.51260181
   0.67844717  0.41317281  0.46123297
   0.58217621  0.60817522  0.57307242
   0.43319125  0.49320159  0.42394544
   0.58896581  0.46935333  0.55485683
   0.43789926  0.59052852  0.56949289
   0.60791796  0.33443895  0.55116350
   0.39390637  0.62514920  0.43637051
   0.48761742  0.38291492  0.49424391
   0.51230471  0.52156939  0.65778467
   0.32593111  0.53136686  0.51135465
   0.51523261  0.38352262  0.64058229
   0.41023587  0.45475225  0.58850464
   0.34844881  0.40034416  0.47368370
Direct configuration=    20
   0.62618724  0.68290615  0.46388767
   0.66083343  0.55089975  0.46240953
   0.56569657  0.46122030  0.40629059
   0.52942021  0.59120723  0.43017128
   0.49567729  0.70265704  0.51182299
   0.67712042  0.41181125  0.45811309
   0.58097561  0.60815066  0.57305030
   0.43292806  0.49372931  0.42266430
   0.59465995  0.46914929  0.55855585
   0.43705034  0.59238586  0.56975696
   0.61023375  0.33285144  0.55214943
   0.39378084  0.62567876  0.43799974
   0.48922496  0.38566538  0.49737036
   0.51152151  0.51970261  0.65675510
   0.32488063  0.53164578  0.50799155
   0.51360040  0.38314446  0.63888950
   0.40736460  0.45508473  0.58882581
   0.34989728  0.39946930  0.47468963
Direct configuration=    21
   0.62618492  0.68301733  0.46401694
   0.66029912  0.55039076  0.46246084
   0.56445582  0.46141864  0.40636286
   0.52926812  0.59189284  0.43036445
   0.49573309  0.70218505  0.51173653
   0.67736533  0.41104737  0.45822133
   0.58035141  0.60733287  0.57295240
   0.43257843  0.49362519  0.42292508
   0.59652962  0.46944054  0.55932318
   0.43679454  0.59289479  0.56946996
   0.61028117  0.33336589  0.55207125
   0.39451955  0.62612029  0.43837334
   0.48989671  0.38625716  0.49759294
   0.51180344  0.51964186  0.65568259
   0.32461860  0.53131052  0.50715693
   0.51350494  0.38288752  0.63819698
   0.40638570  0.45541108  0.58974038
   0.35048259  0.39911956  0.47474566
Direct configuration=    22
   0.62618165  0.68317408  0.46419918
   0.65954588  0.54967321  0.46253317
   0.56270667  0.46169826  0.40646475
   0.52905371  0.59285937  0.43063677
   0.49581175  0.70151966  0.51161464
   0.67771058  0.40997050  0.45837393
   0.57947146  0.60618000  0.57281438
   0.43208553  0.49347841  0.42329271
   0.59916538  0.46985113  0.56040493
   0.43643392  0.59361226  0.56906535
   0.61034804  0.33409113  0.55196105
   0.39556095  0.62674275  0.43890004
   0.49084371  0.38709143  0.49790672
   0.51220089  0.51955622  0.65417062
   0.32424919  0.53083789  0.50598034
   0.51337035  0.38252531  0.63722070
   0.40500570  0.45587115  0.59102970
   0.35130774  0.39862652  0.47482466
Direct configuration=    23
   0.62627581  0.68320330  0.46445704
   0.65874688  0.54905762  0.46270580
   0.56295427  0.46170015  0.40648895
   0.52917600  0.59287210  0.43039717
   0.49627379  0.70192772  0.51199788
   0.67734557  0.40990156  0.45849805
   0.57941119  0.60596261  0.57217640
   0.43153307  0.49394449  0.42388055
   0.60102087  0.46963249  0.56098906
   0.43550467  0.59308924  0.56914419
   0.61012558  0.33472009  0.55170359
   0.39596921  0.62717792  0.43876595
   0.49093256  0.38757262  0.49790611
   0.51218137  0.51932387  0.65301642
   0.32423568  0.53033138  0.50528507
   0.51334173  0.38264486  0.63683420
   0.40409175  0.45635758  0.59217383
   0.35193309  0.39793968  0.47497341
Direct configuration=    24
   0.62640398  0.68324307  0.46480808
   0.65765918  0.54821960  0.46294080
   0.56329133  0.46170272  0.40652189
   0.52934247  0.59288943  0.43007100
   0.49690279  0.70248322  0.51251961
   0.67684868  0.40980770  0.45866701
   0.57932915  0.60566668  0.57130789
   0.43078100  0.49457898  0.42468078
   0.60354681  0.46933485  0.56178425
   0.43423965  0.59237723  0.56925152
   0.60982275  0.33557630  0.55135309
   0.39652499  0.62777034  0.43858341
   0.49105351  0.38822767  0.49790528
   0.51215479  0.51900756  0.65144518
   0.32421730  0.52964184  0.50433857
   0.51330278  0.38280762  0.63630804
   0.40284756  0.45701979  0.59373135
   0.35278440  0.39700467  0.47517592
Direct configuration=    25
   0.62634941  0.68322613  0.46465862
   0.65812229  0.54857641  0.46284074
   0.56314782  0.46170162  0.40650786
   0.52927159  0.59288205  0.43020988
   0.49663498  0.70224670  0.51229747
   0.67706024  0.40984766  0.45859507
   0.57936408  0.60579268  0.57167768
   0.43110121  0.49430883  0.42434006
   0.60247132  0.46946158  0.56144567
   0.43477827  0.59268039  0.56920582
   0.60995169  0.33521174  0.55150233
   0.39628835  0.62751811  0.43866113
   0.49100201  0.38794876  0.49790563
   0.51216610  0.51914224  0.65211417
   0.32422512  0.52993543  0.50474157
   0.51331936  0.38273832  0.63653207
   0.40337730  0.45673784  0.59306819
   0.35242193  0.39740278  0.47508970
Direct configuration=    26
   0.62665756  0.68306845  0.46470364
   0.65808909  0.54886069  0.46279182
   0.56328244  0.46159666  0.40615671
   0.52933083  0.59263969  0.42964177
   0.49688677  0.70243091  0.51312008
   0.67713814  0.40995449  0.45820039
   0.57944243  0.60595028  0.57103512
   0.43170418  0.49481626  0.42459436
   0.60336158  0.46943506  0.56263878
   0.43402572  0.59247004  0.56899877
   0.60966528  0.33469351  0.55129011
   0.39619438  0.62791495  0.43842231
   0.49049743  0.38853324  0.49785188
   0.51225593  0.51887004  0.65160563
   0.32396199  0.52960043  0.50435663
   0.51310870  0.38313140  0.63665188
   0.40257588  0.45671857  0.59385177
   0.35287476  0.39667461  0.47548200
Direct configuration=    27
   0.62685204  0.68296894  0.46473206
   0.65806813  0.54904010  0.46276095
   0.56336741  0.46153041  0.40593508
   0.52936822  0.59248673  0.42928323
   0.49704568  0.70254717  0.51363925
   0.67718730  0.41002191  0.45795130
   0.57949187  0.60604974  0.57062959
   0.43208472  0.49513651  0.42475485
   0.60392344  0.46941833  0.56339178
   0.43355078  0.59233729  0.56886810
   0.60948453  0.33436644  0.55115619
   0.39613507  0.62816541  0.43827158
   0.49017898  0.38890211  0.49781795
   0.51231262  0.51869825  0.65128468
   0.32379592  0.52938900  0.50411369
   0.51297574  0.38337948  0.63672750
   0.40207009  0.45670642  0.59434629
   0.35316056  0.39621505  0.47572958
Direct configuration=    28
   0.62704679  0.68297851  0.46439659
   0.65842405  0.54910070  0.46274659
   0.56366124  0.46123175  0.40530852
   0.52956460  0.59311159  0.42867936
   0.49707724  0.70213341  0.51443396
   0.67718731  0.41027204  0.45773816
   0.57923681  0.60577210  0.57042519
   0.43240456  0.49519157  0.42507122
   0.60504558  0.46909295  0.56434000
   0.43322587  0.59230244  0.56845398
   0.60877779  0.33399236  0.55068371
   0.39591748  0.62842289  0.43822557
   0.49014381  0.38952857  0.49825042
   0.51212019  0.51923518  0.65103122
   0.32361884  0.52895225  0.50359177
   0.51276959  0.38346421  0.63681910
   0.40124295  0.45645228  0.59512592
   0.35358840  0.39612449  0.47607240
Direct configuration=    29
   0.62717610  0.68298487  0.46417385
   0.65866036  0.54914093  0.46273705
   0.56385633  0.46103345  0.40489251
   0.52969499  0.59352647  0.42827840
   0.49709819  0.70185868  0.51496161
   0.67718732  0.41043811  0.45759664
   0.57906746  0.60558775  0.57028948
   0.43261692  0.49522813  0.42528127
   0.60579064  0.46887692  0.56496957
   0.43301015  0.59227930  0.56817902
   0.60830854  0.33374400  0.55037001
   0.39577301  0.62859384  0.43819502
   0.49012046  0.38994452  0.49853756
   0.51199243  0.51959168  0.65086293
   0.32350126  0.52866226  0.50324524
   0.51263271  0.38352046  0.63687991
   0.40069376  0.45628355  0.59564355
   0.35387247  0.39606436  0.47630002
Direct configuration=    30
   0.62707737  0.68316583  0.46394554
   0.65854985  0.54873956  0.46292670
   0.56368569  0.46147326  0.40447548
   0.52983101  0.59382143  0.42771655
   0.49706939  0.70149562  0.51512245
   0.67718497  0.41044063  0.45791373
   0.57913929  0.60489568  0.57009564
   0.43298398  0.49536274  0.42534918
   0.60681348  0.46871292  0.56548069
   0.43269994  0.59178733  0.56773908
   0.60761761  0.33383152  0.54968819
   0.39567354  0.62834357  0.43830264
   0.49087125  0.39061476  0.49921731
   0.51140904  0.51983619  0.65084369
   0.32353387  0.52850862  0.50289271
   0.51257165  0.38373344  0.63696971
   0.40042880  0.45630648  0.59635791
   0.35391235  0.39628970  0.47635645
Direct configuration=    31
   0.62703565  0.68324230  0.46384906
   0.65850315  0.54856994  0.46300684
   0.56361359  0.46165912  0.40429925
   0.52988850  0.59394608  0.42747912
   0.49705722  0.70134219  0.51519042
   0.67718398  0.41044169  0.45804773
   0.57916965  0.60460322  0.57001372
   0.43313910  0.49541963  0.42537787
   0.60724572  0.46864361  0.56569668
   0.43256885  0.59157944  0.56755317
   0.60732563  0.33386851  0.54940007
   0.39563151  0.62823781  0.43834812
   0.49118852  0.39089799  0.49950455
   0.51116251  0.51993951  0.65083555
   0.32354764  0.52844370  0.50274374
   0.51254585  0.38382344  0.63700766
   0.40031684  0.45631618  0.59665978
   0.35392920  0.39638493  0.47638030
Direct configuration=    32
   0.62683414  0.68299313  0.46408803
   0.65820270  0.54882366  0.46302086
   0.56391666  0.46171628  0.40437580
   0.52986553  0.59396297  0.42749847
   0.49712882  0.70115251  0.51486174
   0.67701033  0.41031894  0.45796882
   0.57927851  0.60463873  0.56973971
   0.43292692  0.49526520  0.42527280
   0.60692734  0.46896474  0.56628407
   0.43263002  0.59142183  0.56755824
   0.60761519  0.33355564  0.54956004
   0.39566899  0.62827705  0.43809830
   0.49073580  0.39151470  0.49906275
   0.51147723  0.51947310  0.65092937
   0.32344372  0.52848928  0.50300496
   0.51285187  0.38391414  0.63740474
   0.40023528  0.45637067  0.59632261
   0.35430406  0.39650670  0.47634234
Direct configuration=    33
   0.62690032  0.68307496  0.46400955
   0.65830138  0.54874033  0.46301625
   0.56381713  0.46169751  0.40435066
   0.52987307  0.59395742  0.42749212
   0.49710530  0.70121481  0.51496969
   0.67706736  0.41035925  0.45799474
   0.57924276  0.60462707  0.56982970
   0.43299661  0.49531592  0.42530731
   0.60703190  0.46885928  0.56609116
   0.43260993  0.59147359  0.56755658
   0.60752009  0.33365839  0.54950750
   0.39565668  0.62826416  0.43818035
   0.49088449  0.39131216  0.49920785
   0.51137387  0.51962628  0.65089856
   0.32347785  0.52847431  0.50291917
   0.51275136  0.38388435  0.63727433
   0.40026207  0.45635277  0.59643335
   0.35418094  0.39646671  0.47635481
Direct configuration=    34
   0.62683912  0.68309467  0.46412187
   0.65811537  0.54868291  0.46308837
   0.56392313  0.46191395  0.40430325
   0.52970071  0.59386831  0.42732199
   0.49703799  0.70102426  0.51467751
   0.67685360  0.41028727  0.45816653
   0.57922234  0.60450910  0.56979758
   0.43294079  0.49548928  0.42502940
   0.60710338  0.46877341  0.56640679
   0.43273785  0.59123573  0.56752952
   0.60748764  0.33373212  0.54954691
   0.39566012  0.62815274  0.43798734
   0.49104619  0.39176896  0.49925290
   0.51139811  0.51948676  0.65101400
   0.32337916  0.52859817  0.50308109
   0.51300840  0.38386028  0.63744118
   0.40033701  0.45639215  0.59635257
   0.35426221  0.39648921  0.47627486
Direct configuration=    35
   0.62683754  0.68309517  0.46412475
   0.65811059  0.54868144  0.46309022
   0.56392585  0.46191950  0.40430203
   0.52969629  0.59386603  0.42731762
   0.49703627  0.70101937  0.51467001
   0.67684811  0.41028542  0.45817094
   0.57922181  0.60450608  0.56979675
   0.43293936  0.49549373  0.42502227
   0.60710522  0.46877120  0.56641490
   0.43274113  0.59122962  0.56752883
   0.60748681  0.33373401  0.54954792
   0.39566021  0.62814988  0.43798239
   0.49105034  0.39178069  0.49925405
   0.51139873  0.51948318  0.65101697
   0.32337663  0.52860135  0.50308524
   0.51301499  0.38385967  0.63744546
   0.40033894  0.45639317  0.59635050
   0.35426429  0.39648978  0.47627281
Direct configuration=    36
   0.62681750  0.68310079  0.46410901
   0.65808186  0.54860029  0.46319806
   0.56384185  0.46202329  0.40411318
   0.52974853  0.59396253  0.42714800
   0.49690886  0.70088746  0.51452994
   0.67675165  0.41027861  0.45835159
   0.57912513  0.60438210  0.56988008
   0.43280842  0.49549469  0.42481109
   0.60738337  0.46869487  0.56654571
   0.43284656  0.59114673  0.56741072
   0.60735495  0.33373833  0.54955092
   0.39553501  0.62810654  0.43792924
   0.49131524  0.39205738  0.49945511
   0.51133574  0.51956309  0.65114509
   0.32340372  0.52862119  0.50309615
   0.51303887  0.38378385  0.63750591
   0.40045902  0.45631497  0.59641208
   0.35429683  0.39660256  0.47620177
Direct configuration=    37
   0.62681361  0.68310188  0.46410595
   0.65807628  0.54858451  0.46321902
   0.56382552  0.46204347  0.40407648
   0.52975868  0.59398128  0.42711503
   0.49688410  0.70086182  0.51450271
   0.67673290  0.41027729  0.45838670
   0.57910633  0.60435800  0.56989628
   0.43278297  0.49549488  0.42477004
   0.60743744  0.46868003  0.56657113
   0.43286706  0.59113062  0.56738777
   0.60732931  0.33373918  0.54955150
   0.39551068  0.62809812  0.43791891
   0.49136673  0.39211117  0.49949419
   0.51132349  0.51957862  0.65116999
   0.32340899  0.52862505  0.50309827
   0.51304351  0.38376911  0.63751766
   0.40048236  0.45629977  0.59642405
   0.35430316  0.39662448  0.47618797
Direct configuration=    38
   0.62678926  0.68304047  0.46415953
   0.65802280  0.54858485  0.46330260
   0.56379574  0.46211461  0.40387968
   0.52971046  0.59401153  0.42692678
   0.49682578  0.70077164  0.51437737
   0.67660528  0.41028335  0.45844142
   0.57907243  0.60433518  0.56985115
   0.43279844  0.49553430  0.42454314
   0.60761536  0.46873984  0.56695204
   0.43289427  0.59099961  0.56725192
   0.60727416  0.33355899  0.54958723
   0.39540685  0.62807193  0.43784211
   0.49142240  0.39251915  0.49953715
   0.51135618  0.51948681  0.65127302
   0.32344905  0.52860269  0.50315649
   0.51306770  0.38379303  0.63769154
   0.40051305  0.45623139  0.59644161
   0.35443390  0.39667992  0.47617889
Direct configuration=    39
   0.62677515  0.68300490  0.46419056
   0.65799183  0.54858504  0.46335101
   0.56377850  0.46215581  0.40376571
   0.52968253  0.59402905  0.42681775
   0.49679201  0.70071942  0.51430477
   0.67653136  0.41028686  0.45847312
   0.57905280  0.60432195  0.56982502
   0.43280740  0.49555714  0.42441173
   0.60771840  0.46877448  0.56717264
   0.43291002  0.59092374  0.56717324
   0.60724221  0.33345463  0.54960792
   0.39534672  0.62805677  0.43779762
   0.49145464  0.39275543  0.49956202
   0.51137511  0.51943364  0.65133270
   0.32347226  0.52858973  0.50319021
   0.51308172  0.38380688  0.63779224
   0.40053082  0.45619178  0.59645178
   0.35450962  0.39671203  0.47617363
Direct configuration=    40
   0.62678611  0.68301846  0.46417939
   0.65790769  0.54847618  0.46336777
   0.56391976  0.46218515  0.40364126
   0.52968575  0.59407792  0.42673196
   0.49675418  0.70070149  0.51426457
   0.67630730  0.41032011  0.45857528
   0.57894791  0.60428204  0.56987259
   0.43268490  0.49564431  0.42427195
   0.60795222  0.46854307  0.56731964
   0.43301067  0.59082100  0.56719127
   0.60708360  0.33368980  0.54962078
   0.39529870  0.62805289  0.43773887
   0.49168473  0.39288320  0.49971009
   0.51130855  0.51958234  0.65129489
   0.32350210  0.52854048  0.50317136
   0.51315830  0.38371316  0.63776008
   0.40050696  0.45615114  0.59653642
   0.35455367  0.39667653  0.47614547
Direct configuration=    41
   0.62678190  0.68301326  0.46418367
   0.65793997  0.54851794  0.46336134
   0.56386557  0.46217390  0.40368900
   0.52968451  0.59405918  0.42676487
   0.49676869  0.70070837  0.51427999
   0.67639326  0.41030735  0.45853609
   0.57898815  0.60429735  0.56985434
   0.43273190  0.49561087  0.42432557
   0.60786253  0.46863184  0.56726325
   0.43297206  0.59086041  0.56718435
   0.60714445  0.33359958  0.54961585
   0.39531712  0.62805438  0.43776141
   0.49159647  0.39283419  0.49965329
   0.51133408  0.51952530  0.65130940
   0.32349065  0.52855938  0.50317859
   0.51312892  0.38374911  0.63777242
   0.40051611  0.45616673  0.59650395
   0.35453677  0.39669015  0.47615628
