<?xml version="1.0" encoding="ISO-8859-1"?>
<modeling>
 <generator>
  <i name="program" type="string">vasp </i>
  <i name="version" type="string">5.3.5  </i>
  <i name="subversion" type="string">31Mar14 (build Feb 01 2018 12:10:03) gamma-only                       parallel </i>
  <i name="platform" type="string">LinuxIFC </i>
  <i name="date" type="string">2019 03 25 </i>
  <i name="time" type="string">11:36:57 </i>
 </generator>
 <incar>
  <i type="string" name="PREC">normal</i>
  <i type="int" name="ISPIN">     2</i>
  <i type="int" name="IBRION">     2</i>
  <i type="int" name="NSW">  1000</i>
  <i type="int" name="ISIF">     2</i>
  <i name="POTIM">      0.10000000</i>
  <i type="logical" name="LPLANE"> T  </i>
  <i type="int" name="ISMEAR">     0</i>
  <i name="SIGMA">      0.00010000</i>
  <i type="logical" name="LWAVE"> F  </i>
  <i type="logical" name="LCHARG"> F  </i>
  <i type="logical" name="LVTOT"> F  </i>
  <i type="string" name="GGA"> PE</i>
 </incar>
 <kpoints>
  <varray name="kpointlist" >
   <v>       0.00000000       0.00000000       0.00000000 </v>
  </varray>
  <varray name="weights" >
   <v>       1.00000000 </v>
  </varray>
 </kpoints>
 <parameters>
  <separator name="general" >
   <i type="string" name="SYSTEM">unknown system</i>
   <i type="logical" name="LCOMPAT"> F  </i>
  </separator>
  <separator name="electronic" >
   <i type="string" name="PREC">normal</i>
   <i name="ENMAX">    249.84400000</i>
   <i name="ENAUG">    412.49600000</i>
   <i name="EDIFF">      0.00010000</i>
   <i type="int" name="IALGO">    38</i>
   <i type="int" name="IWAVPR">    11</i>
   <i type="int" name="NBANDS">   384</i>
   <i name="NELECT">    594.00000000</i>
   <i type="int" name="TURBO">     0</i>
   <i type="int" name="IRESTART">     0</i>
   <i type="int" name="NREBOOT">     0</i>
   <i type="int" name="NMIN">     0</i>
   <i name="EREF">      0.00000000</i>
   <separator name="electronic smearing" >
    <i type="int" name="ISMEAR">     0</i>
    <i name="SIGMA">      0.00010000</i>
    <i name="KSPACING">      0.50000000</i>
    <i type="logical" name="KGAMMA"> T  </i>
   </separator>
   <separator name="electronic projectors" >
    <i type="logical" name="LREAL"> F  </i>
    <v name="ROPT">      0.00000000</v>
    <i type="int" name="LMAXPAW">  -100</i>
    <i type="int" name="LMAXMIX">     2</i>
    <i type="logical" name="NLSPLINE"> F  </i>
   </separator>
   <separator name="electronic startup" >
    <i type="int" name="ISTART">     0</i>
    <i type="int" name="ICHARG">     2</i>
    <i type="int" name="INIWAV">     1</i>
   </separator>
   <separator name="electronic spin" >
    <i type="int" name="ISPIN">     2</i>
    <i type="logical" name="LNONCOLLINEAR"> F  </i>
    <v name="MAGMOM">      1.00000000      1.00000000      1.00000000      1.00000000      1.00000000      1.00000000      1.00000000      1.00000000      1.00000000      1.00000000      1.00000000      1.00000000      1.00000000      1.00000000      1.00000000      1.00000000      1.00000000      1.00000000      1.00000000      1.00000000
      1.00000000      1.00000000      1.00000000      1.00000000      1.00000000      1.00000000      1.00000000      1.00000000      1.00000000      1.00000000      1.00000000      1.00000000      1.00000000      1.00000000      1.00000000      1.00000000      1.00000000      1.00000000      1.00000000      1.00000000
      1.00000000      1.00000000      1.00000000      1.00000000      1.00000000      1.00000000      1.00000000      1.00000000      1.00000000      1.00000000      1.00000000      1.00000000      1.00000000      1.00000000</v>
    <i name="NUPDOWN">     -1.00000000</i>
    <i type="logical" name="LSORBIT"> F  </i>
    <v name="SAXIS">      0.00000000      0.00000000      1.00000000</v>
    <i type="logical" name="LSPIRAL"> F  </i>
    <v name="QSPIRAL">      0.00000000      0.00000000      0.00000000</v>
    <i type="logical" name="LZEROZ"> F  </i>
   </separator>
   <separator name="electronic exchange-correlation" >
    <i type="logical" name="LASPH"> F  </i>
    <i type="logical" name="LMETAGGA"> F  </i>
   </separator>
   <separator name="electronic convergence" >
    <i type="int" name="NELM">    60</i>
    <i type="int" name="NELMDL">    -5</i>
    <i type="int" name="NELMIN">     2</i>
    <i name="ENINI">    249.84400000</i>
    <separator name="electronic convergence detail" >
     <i type="logical" name="LDIAG"> T  </i>
     <i type="logical" name="LSUBROT"> F  </i>
     <i name="WEIMIN">      0.00100000</i>
     <i name="EBREAK">      0.00000007</i>
     <i name="DEPER">      0.30000000</i>
     <i type="int" name="NRMM">     4</i>
     <i name="TIME">      0.40000000</i>
    </separator>
   </separator>
   <separator name="electronic mixer" >
    <i name="AMIX">      0.40000000</i>
    <i name="BMIX">      1.00000000</i>
    <i name="AMIN">      0.10000000</i>
    <i name="AMIX_MAG">      1.60000000</i>
    <i name="BMIX_MAG">      1.00000000</i>
    <separator name="electronic mixer details" >
     <i type="int" name="IMIX">     4</i>
     <i type="int" name="MAXMIX">   -45</i>
     <i name="WC">    100.00000000</i>
     <i type="int" name="INIMIX">     1</i>
     <i type="int" name="MIXPRE">     1</i>
     <i type="int" name="MREMOVE">     5</i>
    </separator>
   </separator>
   <separator name="electronic dipolcorrection" >
    <i type="logical" name="LDIPOL"> F  </i>
    <i type="logical" name="LMONO"> F  </i>
    <i type="int" name="IDIPOL">     0</i>
    <i name="EPSILON">      1.00000000</i>
    <v name="DIPOL">   -100.00000000   -100.00000000   -100.00000000</v>
    <i name="EFIELD">      0.00000000</i>
   </separator>
  </separator>
  <separator name="grids" >
   <i type="int" name="NGX">    90</i>
   <i type="int" name="NGY">    90</i>
   <i type="int" name="NGZ">    90</i>
   <i type="int" name="NGXF">   180</i>
   <i type="int" name="NGYF">   180</i>
   <i type="int" name="NGZF">   180</i>
   <i type="logical" name="ADDGRID"> F  </i>
  </separator>
  <separator name="ionic" >
   <i type="int" name="NSW">  1000</i>
   <i type="int" name="IBRION">     2</i>
   <i type="int" name="ISIF">     2</i>
   <i name="PSTRESS">      0.00000000</i>
   <i name="EDIFFG">      0.00100000</i>
   <i type="int" name="NFREE">     1</i>
   <i name="POTIM">      0.10000000</i>
   <i name="SMASS">     -3.00000000</i>
   <i name="SCALEE">      1.00000000</i>
  </separator>
  <separator name="ionic md" >
   <i name="TEBEG">      0.00010000</i>
   <i name="TEEND">      0.00010000</i>
   <i type="int" name="NBLOCK">     1</i>
   <i type="int" name="KBLOCK">  1000</i>
   <i type="int" name="NPACO">   256</i>
   <i name="APACO">     16.00000000</i>
  </separator>
  <separator name="symmetry" >
   <i type="int" name="ISYM">     2</i>
   <i name="SYMPREC">      0.00001000</i>
  </separator>
  <separator name="dos" >
   <i type="logical" name="LORBIT"> F  </i>
   <v name="RWIGS">     -1.00000000</v>
   <i type="int" name="NEDOS">   301</i>
   <i name="EMIN">     10.00000000</i>
   <i name="EMAX">    -10.00000000</i>
   <i name="EFERMI">      0.00000000</i>
  </separator>
  <separator name="writing" >
   <i type="int" name="NWRITE">     2</i>
   <i type="logical" name="LWAVE"> F  </i>
   <i type="logical" name="LCHARG"> F  </i>
   <i type="logical" name="LPARD"> F  </i>
   <i type="logical" name="LVTOT"> F  </i>
   <i type="logical" name="LVHAR"> F  </i>
   <i type="logical" name="LELF"> F  </i>
   <i type="logical" name="LOPTICS"> F  </i>
   <v name="STM">      0.00000000      0.00000000      0.00000000      0.00000000      0.00000000      0.00000000      0.00000000</v>
  </separator>
  <separator name="performance" >
   <i type="int" name="NPAR">     4</i>
   <i type="int" name="NSIM">     4</i>
   <i type="int" name="NBLK">    -1</i>
   <i type="logical" name="LPLANE"> T  </i>
   <i type="logical" name="LSCALAPACK"> T  </i>
   <i type="logical" name="LSCAAWARE"> F  </i>
   <i type="logical" name="LSCALU"> F  </i>
   <i type="logical" name="LASYNC"> F  </i>
   <i type="logical" name="LORBITALREAL"> F  </i>
  </separator>
  <separator name="miscellaneous" >
   <i type="int" name="IDIOT">     3</i>
   <i type="logical" name="LMUSIC"> F  </i>
   <v name="POMASS">    107.86800000</v>
   <v name="DARWINR">      0.00000000</v>
   <v name="DARWINV">      1.00000000</v>
   <i type="logical" name="LCORR"> T  </i>
  </separator>
  <i type="logical" name="GGA_COMPAT"> T  </i>
  <i type="logical" name="LBERRY"> F  </i>
  <i type="int" name="ICORELEVEL">     0</i>
  <i type="logical" name="LDAU"> F  </i>
  <i type="int" name="I_CONSTRAINED_M">     0</i>
  <separator name="electronic exchange-correlation" >
   <i type="string" name="GGA">PE</i>
   <i type="int" name="VOSKOWN">     0</i>
   <i type="logical" name="LHFCALC"> F  </i>
   <i type="string" name="PRECFOCK"></i>
   <i type="logical" name="LSYMGRAD"> F  </i>
   <i type="logical" name="LHFONE"> F  </i>
   <i type="logical" name="LRHFCALC"> F  </i>
   <i type="logical" name="LTHOMAS"> F  </i>
   <i type="logical" name="LMODELHF"> F  </i>
   <i name="ENCUT4O">     -1.00000000</i>
   <i type="int" name="EXXOEP">     0</i>
   <i type="int" name="FOURORBIT">     0</i>
   <i name="AEXX">      0.00000000</i>
   <i name="HFALPHA">      0.00000000</i>
   <i name="MCALPHA">      0.00000000</i>
   <i name="ALDAX">      1.00000000</i>
   <i name="AGGAX">      1.00000000</i>
   <i name="ALDAC">      1.00000000</i>
   <i name="AGGAC">      1.00000000</i>
   <i type="int" name="NKREDX">     1</i>
   <i type="int" name="NKREDY">     1</i>
   <i type="int" name="NKREDZ">     1</i>
   <i type="logical" name="SHIFTRED"> F  </i>
   <i type="logical" name="ODDONLY"> F  </i>
   <i type="logical" name="EVENONLY"> F  </i>
   <i type="int" name="LMAXFOCK">     0</i>
   <i type="int" name="NMAXFOCKAE">     0</i>
   <i type="logical" name="LFOCKAEDFT"> F  </i>
   <i name="HFSCREEN">      0.00000000</i>
   <i name="HFSCREENC">      0.00000000</i>
   <i type="int" name="NBANDSGWLOW">     0</i>
  </separator>
  <separator name="vdW DFT" >
   <i type="logical" name="LUSE_VDW"> F  </i>
   <i name="Zab_VDW">     -0.84910000</i>
   <i name="PARAM1">      0.12340000</i>
   <i name="PARAM2">      1.00000000</i>
   <i name="PARAM3">      0.00000000</i>
  </separator>
  <separator name="model GW" >
   <i type="int" name="MODEL_GW">     0</i>
   <i name="MODEL_EPS0">    136.58032264</i>
   <i name="MODEL_ALPHA">      1.00000000</i>
  </separator>
  <separator name="linear response parameters" >
   <i type="logical" name="LEPSILON"> F  </i>
   <i type="logical" name="LRPA"> F  </i>
   <i type="logical" name="LNABLA"> F  </i>
   <i type="logical" name="LVEL"> F  </i>
   <i type="int" name="KINTER">     0</i>
   <i name="CSHIFT">      0.10000000</i>
   <i name="OMEGAMAX">     -1.00000000</i>
   <i name="DEG_THRESHOLD">      0.00200000</i>
  </separator>
  <separator name="orbital magnetization" >
   <i type="logical" name="NUCIND"> F  </i>
   <v name="MAGPOS">      0.00000000      0.00000000      0.00000000</v>
   <i type="logical" name="LNICSALL"> T  </i>
   <i type="logical" name="ORBITALMAG"> F  </i>
   <i type="logical" name="LMAGBLOCH"> F  </i>
   <i type="logical" name="LCHIMAG"> F  </i>
   <i type="logical" name="LGAUGE"> T  </i>
   <i type="int" name="MAGATOM">     0</i>
   <v name="MAGDIPOL">      0.00000000      0.00000000      0.00000000</v>
   <v name="AVECCONST">      0.00000000      0.00000000      0.00000000</v>
  </separator>
  <separator name="response functions" >
   <i type="logical" name="LADDER"> F  </i>
   <i type="logical" name="LFXC"> F  </i>
   <i type="logical" name="LHARTREE"> T  </i>
   <i type="int" name="IBSE">     0</i>
   <i type="logical" name="LTCTE"> F  </i>
   <i type="logical" name="LTETE"> F  </i>
   <i type="logical" name="LTRIPLET"> F  </i>
   <i type="logical" name="LFXCEPS"> F  </i>
   <i type="logical" name="LFXHEG"> F  </i>
   <i type="logical" name="L2ORDER"> F  </i>
   <i type="logical" name="LUSEW"> F  </i>
   <i name="ENCUTGW">     -2.00000000</i>
   <i name="ENCUTGWSOFT">     -2.00000000</i>
   <i name="ENCUTLF">     -1.00000000</i>
   <i type="int" name="LMAXMP2">    -1</i>
   <i name="SCISSOR">      0.00000000</i>
   <i type="int" name="NOMEGA">     0</i>
   <i type="int" name="NOMEGAR">     0</i>
   <i type="int" name="NBANDSGW">    -1</i>
   <i type="int" name="NBANDSO">    -1</i>
   <i type="int" name="NBANDSV">    -1</i>
   <i type="int" name="NELM">     1</i>
   <i type="int" name="DIM">     3</i>
   <i type="int" name="ANTIRES">     0</i>
   <i name="OMEGAMAX">    -30.00000000</i>
   <i name="OMEGAMIN">    -30.00000000</i>
   <i name="OMEGATL">   -200.00000000</i>
   <i type="int" name="OMEGAGRID">     0</i>
   <i name="CSHIFT">     -0.10000000</i>
   <i type="logical" name="SELFENERGY"> F  </i>
   <i type="logical" name="LSPECTRAL"> F  </i>
   <i type="logical" name="ODDONLYGW"> F  </i>
   <i type="logical" name="EVENONLYGW"> F  </i>
   <i type="int" name="NKREDLFX">     1</i>
   <i type="int" name="NKREDLFY">     1</i>
   <i type="int" name="NKREDLFZ">     1</i>
   <i type="int" name="MAXMEM">  1800</i>
   <i type="int" name="TELESCOPE">     0</i>
   <i type="int" name="TAUPAR">     1</i>
  </separator>
  <separator name="External order field" >
   <i name="OFIELD_KAPPA">      0.00000000</i>
   <v name="OFIELD_K">      0.00000000      0.00000000      0.00000000</v>
   <i name="OFIELD_Q6_NEAR">      0.00000000</i>
   <i name="OFIELD_Q6_FAR">      0.00000000</i>
   <i name="OFIELD_A">      0.00000000</i>
  </separator>
 </parameters>
 <atominfo>
  <atoms>      54 </atoms>
  <types>       1 </types>
  <array name="atoms" >
   <dimension dim="1">ion</dimension>
   <field type="string">element</field>
   <field type="int">atomtype</field>
   <set>
    <rc><c>Ag</c><c>   1</c></rc>
    <rc><c>Ag</c><c>   1</c></rc>
    <rc><c>Ag</c><c>   1</c></rc>
    <rc><c>Ag</c><c>   1</c></rc>
    <rc><c>Ag</c><c>   1</c></rc>
    <rc><c>Ag</c><c>   1</c></rc>
    <rc><c>Ag</c><c>   1</c></rc>
    <rc><c>Ag</c><c>   1</c></rc>
    <rc><c>Ag</c><c>   1</c></rc>
    <rc><c>Ag</c><c>   1</c></rc>
    <rc><c>Ag</c><c>   1</c></rc>
    <rc><c>Ag</c><c>   1</c></rc>
    <rc><c>Ag</c><c>   1</c></rc>
    <rc><c>Ag</c><c>   1</c></rc>
    <rc><c>Ag</c><c>   1</c></rc>
    <rc><c>Ag</c><c>   1</c></rc>
    <rc><c>Ag</c><c>   1</c></rc>
    <rc><c>Ag</c><c>   1</c></rc>
    <rc><c>Ag</c><c>   1</c></rc>
    <rc><c>Ag</c><c>   1</c></rc>
    <rc><c>Ag</c><c>   1</c></rc>
    <rc><c>Ag</c><c>   1</c></rc>
    <rc><c>Ag</c><c>   1</c></rc>
    <rc><c>Ag</c><c>   1</c></rc>
    <rc><c>Ag</c><c>   1</c></rc>
    <rc><c>Ag</c><c>   1</c></rc>
    <rc><c>Ag</c><c>   1</c></rc>
    <rc><c>Ag</c><c>   1</c></rc>
    <rc><c>Ag</c><c>   1</c></rc>
    <rc><c>Ag</c><c>   1</c></rc>
    <rc><c>Ag</c><c>   1</c></rc>
    <rc><c>Ag</c><c>   1</c></rc>
    <rc><c>Ag</c><c>   1</c></rc>
    <rc><c>Ag</c><c>   1</c></rc>
    <rc><c>Ag</c><c>   1</c></rc>
    <rc><c>Ag</c><c>   1</c></rc>
    <rc><c>Ag</c><c>   1</c></rc>
    <rc><c>Ag</c><c>   1</c></rc>
    <rc><c>Ag</c><c>   1</c></rc>
    <rc><c>Ag</c><c>   1</c></rc>
    <rc><c>Ag</c><c>   1</c></rc>
    <rc><c>Ag</c><c>   1</c></rc>
    <rc><c>Ag</c><c>   1</c></rc>
    <rc><c>Ag</c><c>   1</c></rc>
    <rc><c>Ag</c><c>   1</c></rc>
    <rc><c>Ag</c><c>   1</c></rc>
    <rc><c>Ag</c><c>   1</c></rc>
    <rc><c>Ag</c><c>   1</c></rc>
    <rc><c>Ag</c><c>   1</c></rc>
    <rc><c>Ag</c><c>   1</c></rc>
    <rc><c>Ag</c><c>   1</c></rc>
    <rc><c>Ag</c><c>   1</c></rc>
    <rc><c>Ag</c><c>   1</c></rc>
    <rc><c>Ag</c><c>   1</c></rc>
   </set>
  </array>
  <array name="atomtypes" >
   <dimension dim="1">type</dimension>
   <field type="int">atomspertype</field>
   <field type="string">element</field>
   <field>mass</field>
   <field>valence</field>
   <field type="string">pseudopotential</field>
   <set>
    <rc><c>  54</c><c>Ag</c><c>    107.86800000</c><c>     11.00000000</c><c>  PAW_PBE Ag 02Apr2005                  </c></rc>
   </set>
  </array>
 </atominfo>
 <structure name="initialpos" >
  <crystal>
   <varray name="basis" >
    <v>      23.07864010       0.00000000       0.00000000 </v>
    <v>       0.00000000      23.07864010       0.00000000 </v>
    <v>       0.00000000       0.00000000      23.07864010 </v>
   </varray>
   <i name="volume">  12292.22903789 </i>
   <varray name="rec_basis" >
    <v>       0.04333011       0.00000000       0.00000000 </v>
    <v>       0.00000000       0.04333011       0.00000000 </v>
    <v>       0.00000000       0.00000000       0.04333011 </v>
   </varray>
  </crystal>
  <varray name="positions" >
   <v>       0.51374074       0.58105839       0.71027065 </v>
   <v>       0.42737503       0.47267333       0.70415172 </v>
   <v>       0.54779294       0.46837873       0.68155352 </v>
   <v>       0.63063185       0.55044412       0.65877811 </v>
   <v>       0.49681882       0.37238609       0.70276463 </v>
   <v>       0.58040627       0.65506097       0.63506747 </v>
   <v>       0.69070119       0.62900657       0.59969642 </v>
   <v>       0.38055604       0.55867995       0.64807503 </v>
   <v>       0.32514812       0.44999918       0.63034740 </v>
   <v>       0.38555988       0.36434983       0.67952904 </v>
   <v>       0.65332235       0.43734291       0.63090241 </v>
   <v>       0.46273242       0.66991945       0.63300766 </v>
   <v>       0.49255543       0.55619220       0.60808828 </v>
   <v>       0.45849800       0.41854749       0.60225206 </v>
   <v>       0.63615883       0.70486756       0.53180249 </v>
   <v>       0.70925455       0.52020435       0.56592295 </v>
   <v>       0.29576714       0.54648814       0.56880982 </v>
   <v>       0.56267469       0.36936891       0.59121202 </v>
   <v>       0.62043412       0.58452020       0.51542942 </v>
   <v>       0.53691138       0.74500478       0.58046210 </v>
   <v>       0.71845445       0.62045822       0.48341811 </v>
   <v>       0.36092944       0.35301926       0.56701944 </v>
   <v>       0.46023024       0.30256848       0.62296313 </v>
   <v>       0.39334289       0.49397633       0.54263974 </v>
   <v>       0.30067478       0.44660049       0.50295513 </v>
   <v>       0.39066205       0.61891804       0.54713749 </v>
   <v>       0.57137095       0.48756191       0.56993888 </v>
   <v>       0.47739682       0.32225857       0.51720223 </v>
   <v>       0.51875228       0.64518377       0.52151060 </v>
   <v>       0.43663610       0.72820969       0.53263861 </v>
   <v>       0.64079844       0.43025376       0.50678298 </v>
   <v>       0.62705089       0.67209368       0.42676482 </v>
   <v>       0.51070116       0.42834417       0.49170618 </v>
   <v>       0.57142115       0.51815139       0.43546292 </v>
   <v>       0.70115396       0.50443966       0.45162179 </v>
   <v>       0.57819800       0.34882180       0.43939571 </v>
   <v>       0.33890874       0.56281241       0.46205844 </v>
   <v>       0.43241108       0.66143875       0.43903995 </v>
   <v>       0.40060635       0.38634802       0.46230598 </v>
   <v>       0.52904070       0.73749528       0.45994952 </v>
   <v>       0.46720952       0.54438395       0.47220087 </v>
   <v>       0.47064186       0.31424727       0.38908429 </v>
   <v>       0.53080378       0.62842241       0.39673813 </v>
   <v>       0.62106575       0.44227558       0.36854388 </v>
   <v>       0.65920259       0.57110675       0.38317850 </v>
   <v>       0.49557047       0.43313993       0.37063716 </v>
   <v>       0.38347974       0.47996164       0.40602178 </v>
   <v>       0.56904267       0.34026764       0.33150248 </v>
   <v>       0.44534251       0.56113931       0.35717890 </v>
   <v>       0.38734310       0.38350492       0.34365064 </v>
   <v>       0.54740980       0.53129475       0.31668093 </v>
   <v>       0.47302860       0.35802679       0.27818212 </v>
   <v>       0.55636011       0.43341262       0.26613207 </v>
   <v>       0.44233272       0.47077811       0.27616702 </v>
  </varray>
 </structure>
 <calculation>
  <scstep>
   <time name="dav">    6.86    6.86</time>
   <time name="total">    7.09   12.14</time>
   <energy>
    <i name="alphaZ">    201.77671939 </i>
    <i name="ewald"> 174496.49654041 </i>
    <i name="hartreedc">-228357.79187939 </i>
    <i name="XCdc">   -576.10713631 </i>
    <i name="pawpsdc">  54182.09761576 </i>
    <i name="pawaedc"> -51692.28887946 </i>
    <i name="eentropy">     -0.00000000 </i>
    <i name="bandstr">    616.94118002 </i>
    <i name="atom">  56008.72602466 </i>
    <i name="e_fr_energy">   4879.85018507 </i>
    <i name="e_wo_entrp">   4879.85018507 </i>
    <i name="e_0_energy">   4879.85018507 </i>
   </energy>
  </scstep>
  <scstep>
   <time name="dav">    9.83    9.84</time>
   <time name="total">    9.83    9.85</time>
   <energy>
    <i name="e_fr_energy">    643.00520375 </i>
    <i name="e_wo_entrp">    643.00521175 </i>
    <i name="e_0_energy">    643.00520775 </i>
   </energy>
  </scstep>
  <scstep>
   <time name="dav">    7.94    7.95</time>
   <time name="total">    7.95    9.18</time>
   <energy>
    <i name="e_fr_energy">    -91.31626877 </i>
    <i name="e_wo_entrp">    -91.31626877 </i>
    <i name="e_0_energy">    -91.31626877 </i>
   </energy>
  </scstep>
  <scstep>
   <time name="dav">    7.29    7.30</time>
   <time name="total">    7.30    7.33</time>
   <energy>
    <i name="e_fr_energy">   -115.16513677 </i>
    <i name="e_wo_entrp">   -115.16513677 </i>
    <i name="e_0_energy">   -115.16513677 </i>
   </energy>
  </scstep>
  <scstep>
   <time name="dav">    7.46    7.47</time>
   <time name="total">    7.62    7.64</time>
   <energy>
    <i name="e_fr_energy">   -115.53277834 </i>
    <i name="e_wo_entrp">   -115.53277834 </i>
    <i name="e_0_energy">   -115.53277834 </i>
   </energy>
  </scstep>
  <scstep>
   <time name="dav">    6.93    6.94</time>
   <time name="total">    7.32    7.35</time>
   <energy>
    <i name="e_fr_energy">    -54.83699285 </i>
    <i name="e_wo_entrp">    -54.83699285 </i>
    <i name="e_0_energy">    -54.83699285 </i>
   </energy>
  </scstep>
  <scstep>
   <time name="dav">    7.18    7.19</time>
   <time name="total">    7.57    7.60</time>
   <energy>
    <i name="e_fr_energy">    -41.45238807 </i>
    <i name="e_wo_entrp">    -41.45238807 </i>
    <i name="e_0_energy">    -41.45238807 </i>
   </energy>
  </scstep>
  <scstep>
   <time name="dav">    7.24    7.25</time>
   <time name="total">    7.63    7.64</time>
   <energy>
    <i name="e_fr_energy">    -35.74836916 </i>
    <i name="e_wo_entrp">    -35.74836916 </i>
    <i name="e_0_energy">    -35.74836916 </i>
   </energy>
  </scstep>
  <scstep>
   <time name="dav">    7.30    7.31</time>
   <time name="total">    7.69    7.70</time>
   <energy>
    <i name="e_fr_energy">    -40.05823444 </i>
    <i name="e_wo_entrp">    -40.05823444 </i>
    <i name="e_0_energy">    -40.05823444 </i>
   </energy>
  </scstep>
  <scstep>
   <time name="dav">    7.13    7.14</time>
   <time name="total">    7.51    7.57</time>
   <energy>
    <i name="e_fr_energy">    -47.59794715 </i>
    <i name="e_wo_entrp">    -47.59794715 </i>
    <i name="e_0_energy">    -47.59794715 </i>
   </energy>
  </scstep>
  <scstep>
   <time name="dav">    7.04    7.05</time>
   <time name="total">    7.43    8.38</time>
   <energy>
    <i name="e_fr_energy">    -65.36893264 </i>
    <i name="e_wo_entrp">    -65.36893264 </i>
    <i name="e_0_energy">    -65.36893264 </i>
   </energy>
  </scstep>
  <scstep>
   <time name="dav">    7.05    7.06</time>
   <time name="total">    7.44    7.45</time>
   <energy>
    <i name="e_fr_energy">    -80.66847150 </i>
    <i name="e_wo_entrp">    -80.66847150 </i>
    <i name="e_0_energy">    -80.66847150 </i>
   </energy>
  </scstep>
  <scstep>
   <time name="dav">    7.20    7.20</time>
   <time name="total">    7.59    7.60</time>
   <energy>
    <i name="e_fr_energy">    -88.69612097 </i>
    <i name="e_wo_entrp">    -88.69612097 </i>
    <i name="e_0_energy">    -88.69612097 </i>
   </energy>
  </scstep>
  <scstep>
   <time name="dav">    7.10    7.12</time>
   <time name="total">    7.50    7.53</time>
   <energy>
    <i name="e_fr_energy">    -93.55436171 </i>
    <i name="e_wo_entrp">    -93.55436171 </i>
    <i name="e_0_energy">    -93.55436171 </i>
   </energy>
  </scstep>
  <scstep>
   <time name="dav">    7.10    7.11</time>
   <time name="total">    7.49    7.53</time>
   <energy>
    <i name="e_fr_energy">   -100.63807799 </i>
    <i name="e_wo_entrp">   -100.63807702 </i>
    <i name="e_0_energy">   -100.63807750 </i>
   </energy>
  </scstep>
  <scstep>
   <time name="dav">    7.23    7.24</time>
   <time name="total">    7.62    7.75</time>
   <energy>
    <i name="e_fr_energy">   -103.33284767 </i>
    <i name="e_wo_entrp">   -103.33284767 </i>
    <i name="e_0_energy">   -103.33284767 </i>
   </energy>
  </scstep>
  <scstep>
   <time name="dav">    7.00    7.02</time>
   <time name="total">    7.39    7.44</time>
   <energy>
    <i name="e_fr_energy">   -106.63138492 </i>
    <i name="e_wo_entrp">   -106.63138492 </i>
    <i name="e_0_energy">   -106.63138492 </i>
   </energy>
  </scstep>
  <scstep>
   <time name="dav">    7.03    7.04</time>
   <time name="total">    7.41    7.47</time>
   <energy>
    <i name="e_fr_energy">   -109.39149923 </i>
    <i name="e_wo_entrp">   -109.39149923 </i>
    <i name="e_0_energy">   -109.39149923 </i>
   </energy>
  </scstep>
  <scstep>
   <time name="dav">    7.15    7.16</time>
   <time name="total">    7.54    7.82</time>
   <energy>
    <i name="e_fr_energy">   -110.97822013 </i>
    <i name="e_wo_entrp">   -110.97822013 </i>
    <i name="e_0_energy">   -110.97822013 </i>
   </energy>
  </scstep>
  <scstep>
   <time name="dav">    7.08    7.10</time>
   <time name="total">    7.48    8.11</time>
   <energy>
    <i name="e_fr_energy">   -112.00714897 </i>
    <i name="e_wo_entrp">   -112.00714897 </i>
    <i name="e_0_energy">   -112.00714897 </i>
   </energy>
  </scstep>
  <scstep>
   <time name="dav">    7.47    7.48</time>
   <time name="total">    7.86    8.74</time>
   <energy>
    <i name="e_fr_energy">   -112.01366667 </i>
    <i name="e_wo_entrp">   -112.01366667 </i>
    <i name="e_0_energy">   -112.01366667 </i>
   </energy>
  </scstep>
  <scstep>
   <time name="dav">    5.41    5.42</time>
   <time name="total">    5.80    6.78</time>
   <energy>
    <i name="e_fr_energy">   -112.01182210 </i>
    <i name="e_wo_entrp">   -112.01182210 </i>
    <i name="e_0_energy">   -112.01182210 </i>
   </energy>
  </scstep>
  <scstep>
   <time name="dav">    7.13    7.14</time>
   <time name="total">    7.52    7.65</time>
   <energy>
    <i name="e_fr_energy">   -112.06742183 </i>
    <i name="e_wo_entrp">   -112.06742183 </i>
    <i name="e_0_energy">   -112.06742183 </i>
   </energy>
  </scstep>
  <scstep>
   <time name="dav">    7.04    7.05</time>
   <time name="total">    7.43    7.44</time>
   <energy>
    <i name="e_fr_energy">   -112.22152073 </i>
    <i name="e_wo_entrp">   -112.22152073 </i>
    <i name="e_0_energy">   -112.22152073 </i>
   </energy>
  </scstep>
  <scstep>
   <time name="dav">    7.21    7.22</time>
   <time name="total">    7.60    8.94</time>
   <energy>
    <i name="e_fr_energy">   -112.37056160 </i>
    <i name="e_wo_entrp">   -112.37056160 </i>
    <i name="e_0_energy">   -112.37056160 </i>
   </energy>
  </scstep>
  <scstep>
   <time name="dav">    7.21    7.22</time>
   <time name="total">    7.60    7.61</time>
   <energy>
    <i name="e_fr_energy">   -112.50578204 </i>
    <i name="e_wo_entrp">   -112.50578204 </i>
    <i name="e_0_energy">   -112.50578204 </i>
   </energy>
  </scstep>
  <scstep>
   <time name="dav">    7.24    7.25</time>
   <time name="total">    7.64    7.76</time>
   <energy>
    <i name="e_fr_energy">   -112.55641145 </i>
    <i name="e_wo_entrp">   -112.55641145 </i>
    <i name="e_0_energy">   -112.55641145 </i>
   </energy>
  </scstep>
  <scstep>
   <time name="dav">    7.05    7.06</time>
   <time name="total">    7.44    7.99</time>
   <energy>
    <i name="e_fr_energy">   -112.59074883 </i>
    <i name="e_wo_entrp">   -112.59074883 </i>
    <i name="e_0_energy">   -112.59074883 </i>
   </energy>
  </scstep>
  <scstep>
   <time name="dav">    5.47    5.48</time>
   <time name="total">    5.86    6.33</time>
   <energy>
    <i name="e_fr_energy">   -112.61042361 </i>
    <i name="e_wo_entrp">   -112.61042361 </i>
    <i name="e_0_energy">   -112.61042361 </i>
   </energy>
  </scstep>
  <scstep>
   <time name="dav">    5.39    5.40</time>
   <time name="total">    5.79    6.63</time>
   <energy>
    <i name="e_fr_energy">   -112.61958967 </i>
    <i name="e_wo_entrp">   -112.61958967 </i>
    <i name="e_0_energy">   -112.61958967 </i>
   </energy>
  </scstep>
  <scstep>
   <time name="dav">    5.40    5.42</time>
   <time name="total">    5.80    5.84</time>
   <energy>
    <i name="e_fr_energy">   -112.62761033 </i>
    <i name="e_wo_entrp">   -112.62761033 </i>
    <i name="e_0_energy">   -112.62761033 </i>
   </energy>
  </scstep>
  <scstep>
   <time name="dav">    5.24    5.25</time>
   <time name="total">    5.64    6.06</time>
   <energy>
    <i name="e_fr_energy">   -112.63093690 </i>
    <i name="e_wo_entrp">   -112.63093690 </i>
    <i name="e_0_energy">   -112.63093690 </i>
   </energy>
  </scstep>
  <scstep>
   <time name="dav">    5.27    5.28</time>
   <time name="total">    5.66    5.69</time>
   <energy>
    <i name="e_fr_energy">   -112.63279053 </i>
    <i name="e_wo_entrp">   -112.63279053 </i>
    <i name="e_0_energy">   -112.63279053 </i>
   </energy>
  </scstep>
  <scstep>
   <time name="dav">    5.24    5.24</time>
   <time name="total">    5.63    5.64</time>
   <energy>
    <i name="e_fr_energy">   -112.63332441 </i>
    <i name="e_wo_entrp">   -112.63332441 </i>
    <i name="e_0_energy">   -112.63332441 </i>
   </energy>
  </scstep>
  <scstep>
   <time name="dav">    5.09    5.10</time>
   <time name="total">    5.48    5.49</time>
   <energy>
    <i name="e_fr_energy">   -112.63321745 </i>
    <i name="e_wo_entrp">   -112.63321745 </i>
    <i name="e_0_energy">   -112.63321745 </i>
   </energy>
  </scstep>
  <scstep>
   <time name="dav">    5.10    5.11</time>
   <time name="total">    5.50    5.51</time>
   <energy>
    <i name="e_fr_energy">   -112.63346953 </i>
    <i name="e_wo_entrp">   -112.63346953 </i>
    <i name="e_0_energy">   -112.63346953 </i>
   </energy>
  </scstep>
  <scstep>
   <time name="dav">    5.08    5.09</time>
   <time name="total">    5.48    6.70</time>
   <energy>
    <i name="e_fr_energy">   -112.63422597 </i>
    <i name="e_wo_entrp">   -112.63422597 </i>
    <i name="e_0_energy">   -112.63422597 </i>
   </energy>
  </scstep>
  <scstep>
   <time name="dav">    5.11    5.12</time>
   <time name="total">    5.51    9.79</time>
   <energy>
    <i name="e_fr_energy">   -112.63500714 </i>
    <i name="e_wo_entrp">   -112.63500714 </i>
    <i name="e_0_energy">   -112.63500714 </i>
   </energy>
  </scstep>
  <scstep>
   <time name="dav">    5.28    5.29</time>
   <time name="total">    5.68    6.73</time>
   <energy>
    <i name="e_fr_energy">   -112.63536843 </i>
    <i name="e_wo_entrp">   -112.63536843 </i>
    <i name="e_0_energy">   -112.63536843 </i>
   </energy>
  </scstep>
  <scstep>
   <time name="dav">    5.11    5.11</time>
   <time name="total">    5.50    6.46</time>
   <energy>
    <i name="e_fr_energy">   -112.63558358 </i>
    <i name="e_wo_entrp">   -112.63558358 </i>
    <i name="e_0_energy">   -112.63558358 </i>
   </energy>
  </scstep>
  <scstep>
   <time name="dav">    5.23    5.23</time>
   <time name="total">    5.63    5.64</time>
   <energy>
    <i name="e_fr_energy">   -112.63568748 </i>
    <i name="e_wo_entrp">   -112.63568748 </i>
    <i name="e_0_energy">   -112.63568748 </i>
   </energy>
  </scstep>
  <scstep>
   <time name="dav">    5.14    5.15</time>
   <time name="total">    5.37    7.00</time>
   <energy>
    <i name="alphaZ">    201.77671939 </i>
    <i name="ewald"> 174496.49654041 </i>
    <i name="hartreedc">-228208.23263326 </i>
    <i name="XCdc">   -599.23362247 </i>
    <i name="pawpsdc">  60360.45930964 </i>
    <i name="pawaedc"> -58000.60547557 </i>
    <i name="eentropy">      0.00000000 </i>
    <i name="bandstr">  -4372.02258547 </i>
    <i name="atom">  56008.72602466 </i>
    <i name="e_fr_energy">   -112.63572267 </i>
    <i name="e_wo_entrp">   -112.63572267 </i>
    <i name="e_0_energy">   -112.63572267 </i>
   </energy>
  </scstep>
  <structure>
   <crystal>
    <varray name="basis" >
     <v>      23.07864010       0.00000000       0.00000000 </v>
     <v>       0.00000000      23.07864010       0.00000000 </v>
     <v>       0.00000000       0.00000000      23.07864010 </v>
    </varray>
    <i name="volume">  12292.22903789 </i>
    <varray name="rec_basis" >
     <v>       0.04333011       0.00000000       0.00000000 </v>
     <v>       0.00000000       0.04333011       0.00000000 </v>
     <v>       0.00000000       0.00000000       0.04333011 </v>
    </varray>
   </crystal>
   <varray name="positions" >
    <v>       0.51374074       0.58105839       0.71027065 </v>
    <v>       0.42737503       0.47267333       0.70415172 </v>
    <v>       0.54779294       0.46837873       0.68155352 </v>
    <v>       0.63063185       0.55044412       0.65877811 </v>
    <v>       0.49681882       0.37238609       0.70276463 </v>
    <v>       0.58040627       0.65506097       0.63506747 </v>
    <v>       0.69070119       0.62900657       0.59969642 </v>
    <v>       0.38055604       0.55867995       0.64807503 </v>
    <v>       0.32514812       0.44999918       0.63034740 </v>
    <v>       0.38555988       0.36434983       0.67952904 </v>
    <v>       0.65332235       0.43734291       0.63090241 </v>
    <v>       0.46273242       0.66991945       0.63300766 </v>
    <v>       0.49255543       0.55619220       0.60808828 </v>
    <v>       0.45849800       0.41854749       0.60225206 </v>
    <v>       0.63615883       0.70486756       0.53180249 </v>
    <v>       0.70925455       0.52020435       0.56592295 </v>
    <v>       0.29576714       0.54648814       0.56880982 </v>
    <v>       0.56267469       0.36936891       0.59121202 </v>
    <v>       0.62043412       0.58452020       0.51542942 </v>
    <v>       0.53691138       0.74500478       0.58046210 </v>
    <v>       0.71845445       0.62045822       0.48341811 </v>
    <v>       0.36092944       0.35301926       0.56701944 </v>
    <v>       0.46023024       0.30256848       0.62296313 </v>
    <v>       0.39334289       0.49397633       0.54263974 </v>
    <v>       0.30067478       0.44660049       0.50295513 </v>
    <v>       0.39066205       0.61891804       0.54713749 </v>
    <v>       0.57137095       0.48756191       0.56993888 </v>
    <v>       0.47739682       0.32225857       0.51720223 </v>
    <v>       0.51875228       0.64518377       0.52151060 </v>
    <v>       0.43663610       0.72820969       0.53263861 </v>
    <v>       0.64079844       0.43025376       0.50678298 </v>
    <v>       0.62705089       0.67209368       0.42676482 </v>
    <v>       0.51070116       0.42834417       0.49170618 </v>
    <v>       0.57142115       0.51815139       0.43546292 </v>
    <v>       0.70115396       0.50443966       0.45162179 </v>
    <v>       0.57819800       0.34882180       0.43939571 </v>
    <v>       0.33890874       0.56281241       0.46205844 </v>
    <v>       0.43241108       0.66143875       0.43903995 </v>
    <v>       0.40060635       0.38634802       0.46230598 </v>
    <v>       0.52904070       0.73749528       0.45994952 </v>
    <v>       0.46720952       0.54438395       0.47220087 </v>
    <v>       0.47064186       0.31424727       0.38908429 </v>
    <v>       0.53080378       0.62842241       0.39673813 </v>
    <v>       0.62106575       0.44227558       0.36854388 </v>
    <v>       0.65920259       0.57110675       0.38317850 </v>
    <v>       0.49557047       0.43313993       0.37063716 </v>
    <v>       0.38347974       0.47996164       0.40602178 </v>
    <v>       0.56904267       0.34026764       0.33150248 </v>
    <v>       0.44534251       0.56113931       0.35717890 </v>
    <v>       0.38734310       0.38350492       0.34365064 </v>
    <v>       0.54740980       0.53129475       0.31668093 </v>
    <v>       0.47302860       0.35802679       0.27818212 </v>
    <v>       0.55636011       0.43341262       0.26613207 </v>
    <v>       0.44233272       0.47077811       0.27616702 </v>
   </varray>
  </structure>
  <varray name="forces" >
   <v>       0.11755154       0.34825112       1.49426385 </v>
   <v>       0.35420216       0.03003935       0.76758778 </v>
   <v>       0.30684956       0.53263373       0.64226271 </v>
   <v>      -0.15906486       0.02877135       0.40664792 </v>
   <v>       0.82993186      -0.59403955       1.28792324 </v>
   <v>       0.29152669      -0.31012796       0.32709008 </v>
   <v>       0.78928782       0.71623946       0.65367139 </v>
   <v>       0.09806395       0.83848558       0.39207236 </v>
   <v>      -0.34143754      -0.10195196       0.13444604 </v>
   <v>      -1.29348166      -0.14085198       1.20296160 </v>
   <v>       0.75703662      -0.70769265       0.45535083 </v>
   <v>      -0.54316285      -0.31097275       0.69133982 </v>
   <v>      -0.90080753      -0.01676267      -1.49415879 </v>
   <v>      -0.09050055       0.77078983      -0.39189615 </v>
   <v>       0.03092837       0.81976871       0.71366630 </v>
   <v>       0.28932558      -0.39355174       0.29180109 </v>
   <v>      -1.41332039       0.50014644       0.21327103 </v>
   <v>       0.62867128      -0.54837394       0.02273363 </v>
   <v>      -1.15878936      -0.34572624       0.64835297 </v>
   <v>       0.64356507       1.42694991       0.43934748 </v>
   <v>       1.47117203       0.51770630      -0.39012392 </v>
   <v>      -0.42456699      -0.32876777      -0.44084169 </v>
   <v>       0.03302610      -1.81143959       0.34212931 </v>
   <v>       1.10903361      -0.35572917       0.25911430 </v>
   <v>      -0.70100740      -0.69556710      -0.53622384 </v>
   <v>       0.29243554       0.56562903       0.13695736 </v>
   <v>      -0.20227844       0.89202106      -0.46962583 </v>
   <v>       0.33828828      -0.99827276      -1.25398958 </v>
   <v>       0.21806226      -1.33331795       0.58105262 </v>
   <v>      -1.37670551       0.82877597       0.06272275 </v>
   <v>       0.19049292      -1.40674621      -0.33573372 </v>
   <v>       0.71702933       0.81796092      -0.83881311 </v>
   <v>      -0.21655851       0.78096917      -0.42118802 </v>
   <v>      -0.31420143      -0.36860256       0.21754687 </v>
   <v>       1.38744977      -1.16825396       0.44901830 </v>
   <v>       0.24376566      -0.23447057       1.39367968 </v>
   <v>      -0.63090676       1.15090747      -0.59513872 </v>
   <v>      -1.25463710      -0.28159402      -0.42196635 </v>
   <v>      -0.47799597      -0.64484113       0.09146268 </v>
   <v>       0.56071749       0.89788264      -0.91158139 </v>
   <v>       0.06068668       0.33110512       0.23380018 </v>
   <v>      -0.13475084      -0.62302873       0.93102539 </v>
   <v>       0.38129766      -0.31112003      -0.74129658 </v>
   <v>       1.03011243      -0.22074697      -0.00005376 </v>
   <v>      -0.72303528       1.26735782      -2.34272338 </v>
   <v>       0.07757240       0.34789220       1.05335163 </v>
   <v>      -0.28141257      -0.23898464      -0.69742426 </v>
   <v>       1.19475990      -1.03565137      -0.71500179 </v>
   <v>      -0.74639869       0.54897239      -0.34827947 </v>
   <v>      -1.40945107      -0.09907994       0.02506987 </v>
   <v>       0.68398096       1.05673487       0.09680519 </v>
   <v>      -0.58370088      -1.23248287      -1.55618033 </v>
   <v>       0.82200977       0.08478108      -1.42319098 </v>
   <v>      -0.57066111       0.75797728      -0.33309457 </v>
  </varray>
  <varray name="stress" >
   <v>       4.48701784      -0.25575678       0.10167226 </v>
   <v>      -0.25575676       5.09711899      -0.18751037 </v>
   <v>       0.10167225      -0.18751038       5.02932666 </v>
  </varray>
  <energy>
   <i name="e_fr_energy">   -112.63572267 </i>
   <i name="e_wo_entrp">   -112.63572267 </i>
   <i name="e_0_energy">      0.00000000 </i>
  </energy>
  <time name="totalsc">  303.76  327.93</time>
 </calculation>
 <calculation>
  <scstep>
   <time name="dav">    6.86    6.88</time>
   <time name="total">    7.26    7.42</time>
   <energy>
    <i name="alphaZ">    201.77671939 </i>
    <i name="ewald"> 173788.89310324 </i>
    <i name="hartreedc">-227507.76702216 </i>
    <i name="XCdc">   -600.25647870 </i>
    <i name="pawpsdc">  60360.46110214 </i>
    <i name="pawaedc"> -58000.60727937 </i>
    <i name="eentropy">      0.00000000 </i>
    <i name="bandstr">  -4364.65184046 </i>
    <i name="atom">  56008.72602466 </i>
    <i name="e_fr_energy">   -113.42567125 </i>
    <i name="e_wo_entrp">   -113.42567125 </i>
    <i name="e_0_energy">   -113.42567125 </i>
   </energy>
  </scstep>
  <scstep>
   <time name="dav">    7.16    7.17</time>
   <time name="total">    7.54    7.55</time>
   <energy>
    <i name="e_fr_energy">   -113.45322645 </i>
    <i name="e_wo_entrp">   -113.45322645 </i>
    <i name="e_0_energy">   -113.45322645 </i>
   </energy>
  </scstep>
  <scstep>
   <time name="dav">    7.06    7.07</time>
   <time name="total">    7.46    7.77</time>
   <energy>
    <i name="e_fr_energy">   -113.45195294 </i>
    <i name="e_wo_entrp">   -113.45195294 </i>
    <i name="e_0_energy">   -113.45195294 </i>
   </energy>
  </scstep>
  <scstep>
   <time name="dav">    7.03    7.04</time>
   <time name="total">    7.42    7.93</time>
   <energy>
    <i name="e_fr_energy">   -113.45183011 </i>
    <i name="e_wo_entrp">   -113.45183011 </i>
    <i name="e_0_energy">   -113.45183011 </i>
   </energy>
  </scstep>
  <scstep>
   <time name="dav">    5.32    5.33</time>
   <time name="total">    5.70    5.83</time>
   <energy>
    <i name="e_fr_energy">   -113.45172837 </i>
    <i name="e_wo_entrp">   -113.45172837 </i>
    <i name="e_0_energy">   -113.45172837 </i>
   </energy>
  </scstep>
  <scstep>
   <time name="dav">    5.04    5.05</time>
   <time name="total">    5.27    7.23</time>
   <energy>
    <i name="alphaZ">    201.77671939 </i>
    <i name="ewald"> 173788.89310324 </i>
    <i name="hartreedc">-227514.22074019 </i>
    <i name="XCdc">   -600.11327466 </i>
    <i name="pawpsdc">  60182.89846481 </i>
    <i name="pawaedc"> -57820.57841828 </i>
    <i name="eentropy">      0.00000000 </i>
    <i name="bandstr">  -4360.83358781 </i>
    <i name="atom">  56008.72602466 </i>
    <i name="e_fr_energy">   -113.45170885 </i>
    <i name="e_wo_entrp">   -113.45170885 </i>
    <i name="e_0_energy">   -113.45170885 </i>
   </energy>
  </scstep>
  <structure>
   <crystal>
    <varray name="basis" >
     <v>      23.07864010       0.00000000       0.00000000 </v>
     <v>       0.00000000      23.07864010       0.00000000 </v>
     <v>       0.00000000       0.00000000      23.07864010 </v>
    </varray>
    <i name="volume">  12292.22903789 </i>
    <varray name="rec_basis" >
     <v>       0.04333011       0.00000000       0.00000000 </v>
     <v>       0.00000000       0.04333011       0.00000000 </v>
     <v>       0.00000000       0.00000000       0.04333011 </v>
    </varray>
   </crystal>
   <varray name="positions" >
    <v>       0.51378989       0.58120399       0.71089536 </v>
    <v>       0.42752311       0.47268589       0.70447262 </v>
    <v>       0.54792123       0.46860141       0.68182203 </v>
    <v>       0.63056535       0.55045615       0.65894812 </v>
    <v>       0.49716579       0.37213774       0.70330307 </v>
    <v>       0.58052815       0.65493132       0.63520422 </v>
    <v>       0.69103117       0.62930601       0.59996970 </v>
    <v>       0.38059704       0.55903050       0.64823895 </v>
    <v>       0.32500537       0.44995656       0.63040361 </v>
    <v>       0.38501911       0.36429095       0.68003196 </v>
    <v>       0.65363884       0.43704704       0.63109278 </v>
    <v>       0.46250534       0.66978944       0.63329669 </v>
    <v>       0.49217883       0.55618519       0.60746361 </v>
    <v>       0.45846016       0.41886973       0.60208822 </v>
    <v>       0.63617176       0.70521028       0.53210085 </v>
    <v>       0.70937551       0.52003982       0.56604494 </v>
    <v>       0.29517627       0.54669723       0.56889898 </v>
    <v>       0.56293752       0.36913965       0.59122152 </v>
    <v>       0.61994967       0.58437566       0.51570048 </v>
    <v>       0.53718044       0.74560135       0.58064578 </v>
    <v>       0.71906951       0.62067466       0.48325501 </v>
    <v>       0.36075194       0.35288182       0.56683514 </v>
    <v>       0.46024404       0.30181117       0.62310616 </v>
    <v>       0.39380654       0.49382761       0.54274807 </v>
    <v>       0.30038171       0.44630970       0.50273095 </v>
    <v>       0.39078431       0.61915452       0.54719474 </v>
    <v>       0.57128638       0.48793484       0.56974254 </v>
    <v>       0.47753825       0.32184122       0.51667797 </v>
    <v>       0.51884345       0.64462635       0.52175353 </v>
    <v>       0.43606054       0.72855618       0.53266483 </v>
    <v>       0.64087808       0.42966564       0.50664262 </v>
    <v>       0.62735066       0.67243565       0.42641414 </v>
    <v>       0.51061062       0.42867067       0.49153010 </v>
    <v>       0.57128979       0.51799729       0.43555387 </v>
    <v>       0.70173402       0.50395125       0.45180951 </v>
    <v>       0.57829991       0.34872378       0.43997837 </v>
    <v>       0.33864498       0.56329357       0.46180963 </v>
    <v>       0.43188655       0.66132102       0.43886354 </v>
    <v>       0.40040652       0.38607843       0.46234422 </v>
    <v>       0.52927512       0.73787066       0.45956841 </v>
    <v>       0.46723489       0.54452237       0.47229862 </v>
    <v>       0.47058553       0.31398680       0.38947353 </v>
    <v>       0.53096319       0.62829234       0.39642822 </v>
    <v>       0.62149641       0.44218329       0.36854385 </v>
    <v>       0.65890030       0.57163660       0.38219907 </v>
    <v>       0.49560290       0.43328538       0.37107753 </v>
    <v>       0.38336209       0.47986173       0.40573021 </v>
    <v>       0.56954216       0.33983466       0.33120356 </v>
    <v>       0.44503046       0.56136882       0.35703329 </v>
    <v>       0.38675385       0.38346350       0.34366112 </v>
    <v>       0.54769575       0.53173654       0.31672140 </v>
    <v>       0.47278457       0.35751153       0.27753153 </v>
    <v>       0.55670377       0.43344806       0.26553707 </v>
    <v>       0.44209415       0.47109500       0.27602776 </v>
   </varray>
  </structure>
  <varray name="forces" >
   <v>       0.06842319       0.28195339       1.21860700 </v>
   <v>       0.33773872       0.02397549       0.72140717 </v>
   <v>       0.27790770       0.47452891       0.58606096 </v>
   <v>      -0.12059582       0.02106779       0.37307797 </v>
   <v>       0.69784937      -0.57446267       1.09530058 </v>
   <v>       0.23766325      -0.26099383       0.29182108 </v>
   <v>       0.74533314       0.64258620       0.57858023 </v>
   <v>       0.07411742       0.77289925       0.37091603 </v>
   <v>      -0.30760222      -0.07465164       0.09962635 </v>
   <v>      -1.07918196      -0.15354597       1.05893750 </v>
   <v>       0.65600522      -0.64014677       0.40227282 </v>
   <v>      -0.47506879      -0.25699357       0.62913429 </v>
   <v>      -0.84357419       0.03293519      -1.19102509 </v>
   <v>      -0.02719238       0.55926955      -0.24568185 </v>
   <v>       0.03035776       0.73375145       0.60972936 </v>
   <v>       0.24630296      -0.33199682       0.28461691 </v>
   <v>      -1.24440318       0.41281319       0.16133805 </v>
   <v>       0.54271937      -0.48954027       0.01705002 </v>
   <v>      -0.84341846      -0.23421527       0.58024292 </v>
   <v>       0.50190444       1.25595758       0.37787812 </v>
   <v>       1.20202697       0.40884360      -0.33280524 </v>
   <v>      -0.37815713      -0.31351641      -0.34822429 </v>
   <v>      -0.00050480      -1.54675525       0.31460466 </v>
   <v>       0.82406491      -0.27798127       0.20075682 </v>
   <v>      -0.58513407      -0.58752263      -0.46900276 </v>
   <v>       0.23970958       0.49765573       0.11892446 </v>
   <v>      -0.08086196       0.72900042      -0.41501088 </v>
   <v>       0.33144203      -0.93635328      -1.08765455 </v>
   <v>       0.13375009      -1.01616443       0.49770472 </v>
   <v>      -1.14287662       0.75719106       0.05380404 </v>
   <v>       0.15658311      -1.30678250      -0.26853226 </v>
   <v>       0.69712817       0.81267338      -0.71265355 </v>
   <v>      -0.24266297       0.69093158      -0.35239434 </v>
   <v>      -0.20323714      -0.34696229       0.15697450 </v>
   <v>       1.15223646      -0.83355726       0.16602324 </v>
   <v>       0.20724211      -0.24727626       1.19598026 </v>
   <v>      -0.56242552       1.03564918      -0.53711939 </v>
   <v>      -1.10665695      -0.26827087      -0.38667945 </v>
   <v>      -0.46810710      -0.59372041       0.06222955 </v>
   <v>       0.48252222       0.72837122      -0.76534823 </v>
   <v>       0.02877068       0.33587327       0.18144700 </v>
   <v>      -0.09738861      -0.52894077       0.80838343 </v>
   <v>       0.34494559      -0.24906613      -0.66272249 </v>
   <v>       0.95838769      -0.21736269      -0.00218763 </v>
   <v>      -0.57785946       0.93855220      -1.97031530 </v>
   <v>       0.06775079       0.28312074       0.84562469 </v>
   <v>      -0.30397219      -0.17851571      -0.60438277 </v>
   <v>       1.02263173      -0.92774545      -0.59025195 </v>
   <v>      -0.70106432       0.53635374      -0.33136823 </v>
   <v>      -1.22268014      -0.14314016      -0.03892553 </v>
   <v>       0.64231117       0.92144620       0.07539256 </v>
   <v>      -0.50720656      -1.06439708      -1.32866371 </v>
   <v>       0.68799990       0.07043962      -1.24397101 </v>
   <v>      -0.47399317       0.64273772      -0.24952678 </v>
  </varray>
  <varray name="stress" >
   <v>       3.79279770      -0.22848640       0.05505175 </v>
   <v>      -0.22848640       4.44217035      -0.14720179 </v>
   <v>       0.05505175      -0.14720179       4.24675571 </v>
  </varray>
  <energy>
   <i name="e_fr_energy">   -113.45170885 </i>
   <i name="e_wo_entrp">   -113.45170885 </i>
   <i name="e_0_energy">      0.00000000 </i>
  </energy>
  <time name="totalsc">   54.62   61.11</time>
 </calculation>
 <calculation>
  <scstep>
   <time name="dav">    6.89    6.90</time>
   <time name="total">    7.30    7.45</time>
   <energy>
    <i name="alphaZ">    201.77671939 </i>
    <i name="ewald"> 171699.37724933 </i>
    <i name="hartreedc">-225443.75951755 </i>
    <i name="XCdc">   -602.95888706 </i>
    <i name="pawpsdc">  60183.94994481 </i>
    <i name="pawaedc"> -57821.64396190 </i>
    <i name="eentropy">      0.00000000 </i>
    <i name="bandstr">  -4340.43062479 </i>
    <i name="atom">  56008.72602466 </i>
    <i name="e_fr_energy">   -114.96305311 </i>
    <i name="e_wo_entrp">   -114.96305311 </i>
    <i name="e_0_energy">   -114.96305311 </i>
   </energy>
  </scstep>
  <scstep>
   <time name="dav">    7.14    7.14</time>
   <time name="total">    7.52    7.54</time>
   <energy>
    <i name="e_fr_energy">   -115.20839250 </i>
    <i name="e_wo_entrp">   -115.20839250 </i>
    <i name="e_0_energy">   -115.20839250 </i>
   </energy>
  </scstep>
  <scstep>
   <time name="dav">    7.05    7.06</time>
   <time name="total">    7.43    7.52</time>
   <energy>
    <i name="e_fr_energy">   -115.19959124 </i>
    <i name="e_wo_entrp">   -115.19959124 </i>
    <i name="e_0_energy">   -115.19959124 </i>
   </energy>
  </scstep>
  <scstep>
   <time name="dav">    7.20    7.21</time>
   <time name="total">    7.59    7.60</time>
   <energy>
    <i name="e_fr_energy">   -115.19771487 </i>
    <i name="e_wo_entrp">   -115.19771487 </i>
    <i name="e_0_energy">   -115.19771487 </i>
   </energy>
  </scstep>
  <scstep>
   <time name="dav">    7.16    7.17</time>
   <time name="total">    7.54    7.56</time>
   <energy>
    <i name="e_fr_energy">   -115.19703089 </i>
    <i name="e_wo_entrp">   -115.19703089 </i>
    <i name="e_0_energy">   -115.19703089 </i>
   </energy>
  </scstep>
  <scstep>
   <time name="dav">    7.06    7.07</time>
   <time name="total">    7.45    7.46</time>
   <energy>
    <i name="e_fr_energy">   -115.19685910 </i>
    <i name="e_wo_entrp">   -115.19685910 </i>
    <i name="e_0_energy">   -115.19685910 </i>
   </energy>
  </scstep>
  <scstep>
   <time name="dav">    5.22    5.22</time>
   <time name="total">    5.44    6.59</time>
   <energy>
    <i name="alphaZ">    201.77671939 </i>
    <i name="ewald"> 171699.37724933 </i>
    <i name="hartreedc">-225462.03369819 </i>
    <i name="XCdc">   -602.53558703 </i>
    <i name="pawpsdc">  59723.98722165 </i>
    <i name="pawaedc"> -57355.03825346 </i>
    <i name="eentropy">      0.00000000 </i>
    <i name="bandstr">  -4329.45655780 </i>
    <i name="atom">  56008.72602466 </i>
    <i name="e_fr_energy">   -115.19688145 </i>
    <i name="e_wo_entrp">   -115.19688145 </i>
    <i name="e_0_energy">   -115.19688145 </i>
   </energy>
  </scstep>
  <structure>
   <crystal>
    <varray name="basis" >
     <v>      23.07864010       0.00000000       0.00000000 </v>
     <v>       0.00000000      23.07864010       0.00000000 </v>
     <v>       0.00000000       0.00000000      23.07864010 </v>
    </varray>
    <i name="volume">  12292.22903789 </i>
    <varray name="rec_basis" >
     <v>       0.04333011       0.00000000       0.00000000 </v>
     <v>       0.00000000       0.04333011       0.00000000 </v>
     <v>       0.00000000       0.00000000       0.04333011 </v>
    </varray>
   </crystal>
   <varray name="positions" >
    <v>       0.51393732       0.58164077       0.71276949 </v>
    <v>       0.42796735       0.47272356       0.70543534 </v>
    <v>       0.54830609       0.46926945       0.68262757 </v>
    <v>       0.63036584       0.55049223       0.65945814 </v>
    <v>       0.49820671       0.37139269       0.70491840 </v>
    <v>       0.58089378       0.65454235       0.63561446 </v>
    <v>       0.69202110       0.63020433       0.60078955 </v>
    <v>       0.38072004       0.56008214       0.64873069 </v>
    <v>       0.32457714       0.44982869       0.63057223 </v>
    <v>       0.38339681       0.36411429       0.68154074 </v>
    <v>       0.65458833       0.43615944       0.63166388 </v>
    <v>       0.46182410       0.66939941       0.63416378 </v>
    <v>       0.49104902       0.55616417       0.60558962 </v>
    <v>       0.45834666       0.41983647       0.60159670 </v>
    <v>       0.63621055       0.70623845       0.53299594 </v>
    <v>       0.70973838       0.51954622       0.56641092 </v>
    <v>       0.29340366       0.54732453       0.56916647 </v>
    <v>       0.56372601       0.36845187       0.59125003 </v>
    <v>       0.61849629       0.58394204       0.51651366 </v>
    <v>       0.53798761       0.74739106       0.58119682 </v>
    <v>       0.72091468       0.62132397       0.48276571 </v>
    <v>       0.36021944       0.35246947       0.56628223 </v>
    <v>       0.46028546       0.29953924       0.62353527 </v>
    <v>       0.39519751       0.49338145       0.54307305 </v>
    <v>       0.29950249       0.44543731       0.50205841 </v>
    <v>       0.39115109       0.61986394       0.54736652 </v>
    <v>       0.57103268       0.48905363       0.56915353 </v>
    <v>       0.47796253       0.32058917       0.51510520 </v>
    <v>       0.51911695       0.64295408       0.52248229 </v>
    <v>       0.43433385       0.72959564       0.53274350 </v>
    <v>       0.64111700       0.42790128       0.50622153 </v>
    <v>       0.62824997       0.67346154       0.42536208 </v>
    <v>       0.51033901       0.42965017       0.49100184 </v>
    <v>       0.57089571       0.51753498       0.43582672 </v>
    <v>       0.70347418       0.50248601       0.45237268 </v>
    <v>       0.57860565       0.34842970       0.44172635 </v>
    <v>       0.33785369       0.56473706       0.46106320 </v>
    <v>       0.43031296       0.66096784       0.43833430 </v>
    <v>       0.39980701       0.38526966       0.46245894 </v>
    <v>       0.52997838       0.73899680       0.45842509 </v>
    <v>       0.46731100       0.54493765       0.47259185 </v>
    <v>       0.47041652       0.31320539       0.39064123 </v>
    <v>       0.53144142       0.62790213       0.39549847 </v>
    <v>       0.62278839       0.44190643       0.36854379 </v>
    <v>       0.65799346       0.57322614       0.37926079 </v>
    <v>       0.49570020       0.43372171       0.37239866 </v>
    <v>       0.38300914       0.47956199       0.40485549 </v>
    <v>       0.57104065       0.33853573       0.33030679 </v>
    <v>       0.44409432       0.56205735       0.35659647 </v>
    <v>       0.38498609       0.38333923       0.34369256 </v>
    <v>       0.54855361       0.53306191       0.31684281 </v>
    <v>       0.47205249       0.35596573       0.27557974 </v>
    <v>       0.55773474       0.43355440       0.26375208 </v>
    <v>       0.44137841       0.47204566       0.27560999 </v>
   </varray>
  </structure>
  <varray name="forces" >
   <v>      -0.04460062       0.13457143       0.56950719 </v>
   <v>       0.29111917       0.00797949       0.59076735 </v>
   <v>       0.19408478       0.30559557       0.44832810 </v>
   <v>      -0.00469533       0.00236556       0.27688161 </v>
   <v>       0.37242919      -0.51291843       0.63089195 </v>
   <v>       0.09128034      -0.11979660       0.19393905 </v>
   <v>       0.61671496       0.43579109       0.37873039 </v>
   <v>       0.01074782       0.60313494       0.32332992 </v>
   <v>      -0.20937866       0.00494025       0.00058408 </v>
   <v>      -0.58058573      -0.17487180       0.68629868 </v>
   <v>       0.39418899      -0.45046436       0.26280134 </v>
   <v>      -0.29789502      -0.12577099       0.46877343 </v>
   <v>      -0.71261838       0.13464765      -0.47471765 </v>
   <v>       0.17535313      -0.00312786       0.15416749 </v>
   <v>       0.03493556       0.51563551       0.33302289 </v>
   <v>       0.12730603      -0.16441046       0.26325252 </v>
   <v>      -0.80549118       0.19519882       0.03239220 </v>
   <v>       0.30806186      -0.33004614      -0.00137743 </v>
   <v>      -0.02236522       0.03943561       0.41833682 </v>
   <v>       0.15290586       0.80790900       0.23474487 </v>
   <v>       0.54471482       0.15711025      -0.19164299 </v>
   <v>      -0.25787985      -0.27215023      -0.09316856 </v>
   <v>      -0.07690032      -0.88564591       0.23250916 </v>
   <v>       0.06888955      -0.05397514       0.01668108 </v>
   <v>      -0.28661823      -0.31077668      -0.29654131 </v>
   <v>       0.09006669       0.31212384       0.06181306 </v>
   <v>       0.23442380       0.26548750      -0.25402783 </v>
   <v>       0.30822683      -0.77447464      -0.64386853 </v>
   <v>      -0.09403081      -0.18682767       0.28291186 </v>
   <v>      -0.54913783       0.56538831       0.02891737 </v>
   <v>       0.08590917      -1.03980762      -0.08244225 </v>
   <v>       0.63688591       0.77382948      -0.37365287 </v>
   <v>      -0.31341228       0.42034804      -0.14102150 </v>
   <v>       0.10638620      -0.27980237      -0.02569240 </v>
   <v>       0.61470202      -0.10417734      -0.42161728 </v>
   <v>       0.10994694      -0.29329872       0.66001967 </v>
   <v>      -0.37494225       0.72287157      -0.40486398 </v>
   <v>      -0.72878614      -0.23484270      -0.28701856 </v>
   <v>      -0.43700175      -0.44840144      -0.02877582 </v>
   <v>       0.28984741       0.31513754      -0.39729489 </v>
   <v>      -0.06644312       0.35119406       0.01506251 </v>
   <v>      -0.00271539      -0.28501467       0.46691378 </v>
   <v>       0.25253501      -0.07359921      -0.45522526 </v>
   <v>       0.76320620      -0.20551879      -0.00460695 </v>
   <v>      -0.28187565       0.24632071      -1.08294351 </v>
   <v>       0.04074311       0.12902600       0.30732768 </v>
   <v>      -0.36380770      -0.00618678      -0.35592718 </v>
   <v>       0.58963757      -0.63785662      -0.27801331 </v>
   <v>      -0.57515530       0.48928353      -0.28007655 </v>
   <v>      -0.74242228      -0.27168629      -0.20582675 </v>
   <v>       0.52977645       0.55548726       0.00725477 </v>
   <v>      -0.33180790      -0.63076569      -0.75001374 </v>
   <v>       0.35431089       0.03307497      -0.78061640 </v>
   <v>      -0.22876932       0.35232716      -0.03518732 </v>
  </varray>
  <varray name="stress" >
   <v>       2.00004246      -0.16520075      -0.05086427 </v>
   <v>      -0.16520075       2.76375824      -0.06903668 </v>
   <v>      -0.05086426      -0.06903669       2.24761663 </v>
  </varray>
  <energy>
   <i name="e_fr_energy">   -115.19688145 </i>
   <i name="e_wo_entrp">   -115.19688145 </i>
   <i name="e_0_energy">      0.00000000 </i>
  </energy>
  <time name="totalsc">   64.26   66.26</time>
 </calculation>
 <calculation>
  <scstep>
   <time name="dav">    6.90    6.90</time>
   <time name="total">    7.28    7.32</time>
   <energy>
    <i name="alphaZ">    201.77671939 </i>
    <i name="ewald"> 167663.78129433 </i>
    <i name="hartreedc">-221455.44554866 </i>
    <i name="XCdc">   -607.31700930 </i>
    <i name="pawpsdc">  59723.03245159 </i>
    <i name="pawaedc"> -57354.08244838 </i>
    <i name="eentropy">      0.00000000 </i>
    <i name="bandstr">  -4295.73326497 </i>
    <i name="atom">  56008.72602466 </i>
    <i name="e_fr_energy">   -115.26178134 </i>
    <i name="e_wo_entrp">   -115.26178134 </i>
    <i name="e_0_energy">   -115.26178134 </i>
   </energy>
  </scstep>
  <scstep>
   <time name="dav">    7.11    7.11</time>
   <time name="total">    7.49    8.28</time>
   <energy>
    <i name="e_fr_energy">   -116.29824925 </i>
    <i name="e_wo_entrp">   -116.29824925 </i>
    <i name="e_0_energy">   -116.29824925 </i>
   </energy>
  </scstep>
  <scstep>
   <time name="dav">    7.06    7.07</time>
   <time name="total">    7.44    9.97</time>
   <energy>
    <i name="e_fr_energy">   -116.29033564 </i>
    <i name="e_wo_entrp">   -116.29033564 </i>
    <i name="e_0_energy">   -116.29033564 </i>
   </energy>
  </scstep>
  <scstep>
   <time name="dav">    7.20    7.22</time>
   <time name="total">    7.59    9.13</time>
   <energy>
    <i name="e_fr_energy">   -116.26314691 </i>
    <i name="e_wo_entrp">   -116.26314691 </i>
    <i name="e_0_energy">   -116.26314691 </i>
   </energy>
  </scstep>
  <scstep>
   <time name="dav">    7.18    7.19</time>
   <time name="total">    7.57    7.60</time>
   <energy>
    <i name="e_fr_energy">   -116.26396832 </i>
    <i name="e_wo_entrp">   -116.26396832 </i>
    <i name="e_0_energy">   -116.26396832 </i>
   </energy>
  </scstep>
  <scstep>
   <time name="dav">    7.12    7.13</time>
   <time name="total">    7.51    9.78</time>
   <energy>
    <i name="e_fr_energy">   -116.26318127 </i>
    <i name="e_wo_entrp">   -116.26318127 </i>
    <i name="e_0_energy">   -116.26318127 </i>
   </energy>
  </scstep>
  <scstep>
   <time name="dav">    7.24    7.25</time>
   <time name="total">    7.46    7.48</time>
   <energy>
    <i name="alphaZ">    201.77671939 </i>
    <i name="ewald"> 167663.78129433 </i>
    <i name="hartreedc">-221485.95357663 </i>
    <i name="XCdc">   -606.50887903 </i>
    <i name="pawpsdc">  59056.22158833 </i>
    <i name="pawaedc"> -56676.80219636 </i>
    <i name="eentropy">      0.00000000 </i>
    <i name="bandstr">  -4277.50412808 </i>
    <i name="atom">  56008.72602466 </i>
    <i name="e_fr_energy">   -116.26315339 </i>
    <i name="e_wo_entrp">   -116.26315339 </i>
    <i name="e_0_energy">   -116.26315339 </i>
   </energy>
  </scstep>
  <structure>
   <crystal>
    <varray name="basis" >
     <v>      23.07864010       0.00000000       0.00000000 </v>
     <v>       0.00000000      23.07864010       0.00000000 </v>
     <v>       0.00000000       0.00000000      23.07864010 </v>
    </varray>
    <i name="volume">  12292.22903789 </i>
    <varray name="rec_basis" >
     <v>       0.04333011       0.00000000       0.00000000 </v>
     <v>       0.00000000       0.04333011       0.00000000 </v>
     <v>       0.00000000       0.00000000       0.04333011 </v>
    </varray>
   </crystal>
   <varray name="positions" >
    <v>       0.51423219       0.58251433       0.71651775 </v>
    <v>       0.42885585       0.47279892       0.70736078 </v>
    <v>       0.54907580       0.47060552       0.68423864 </v>
    <v>       0.62996684       0.55056440       0.66047819 </v>
    <v>       0.50028853       0.36990258       0.70814907 </v>
    <v>       0.58162506       0.65376441       0.63643494 </v>
    <v>       0.69400098       0.63200096       0.60242924 </v>
    <v>       0.38096602       0.56218542       0.64971418 </v>
    <v>       0.32372066       0.44957295       0.63090948 </v>
    <v>       0.38015220       0.36376097       0.68455828 </v>
    <v>       0.65648730       0.43438425       0.63280610 </v>
    <v>       0.46046161       0.66861936       0.63589796 </v>
    <v>       0.48878941       0.55612212       0.60184162 </v>
    <v>       0.45811964       0.42176994       0.60061365 </v>
    <v>       0.63628813       0.70829478       0.53478612 </v>
    <v>       0.71046414       0.51855902       0.56714289 </v>
    <v>       0.28985845       0.54857911       0.56970145 </v>
    <v>       0.56530298       0.36707631       0.59130706 </v>
    <v>       0.61558955       0.58307481       0.51814000 </v>
    <v>       0.53960194       0.75097046       0.58229889 </v>
    <v>       0.72460501       0.62262261       0.48178711 </v>
    <v>       0.35915445       0.35164478       0.56517641 </v>
    <v>       0.46036831       0.29499536       0.62439347 </v>
    <v>       0.39797945       0.49248913       0.54372302 </v>
    <v>       0.29774406       0.44369252       0.50071333 </v>
    <v>       0.39188464       0.62128278       0.54771007 </v>
    <v>       0.57052528       0.49129120       0.56797551 </v>
    <v>       0.47881110       0.31808507       0.51195965 </v>
    <v>       0.51966394       0.63960955       0.52393982 </v>
    <v>       0.43088048       0.73167457       0.53290083 </v>
    <v>       0.64159484       0.42437255       0.50537937 </v>
    <v>       0.63004859       0.67551334       0.42325798 </v>
    <v>       0.50979579       0.43160918       0.48994531 </v>
    <v>       0.57010756       0.51661036       0.43637242 </v>
    <v>       0.70695450       0.49955552       0.45349901 </v>
    <v>       0.57921712       0.34784155       0.44522230 </v>
    <v>       0.33627110       0.56762403       0.45957033 </v>
    <v>       0.42716579       0.66026148       0.43727583 </v>
    <v>       0.39860799       0.38365212       0.46268836 </v>
    <v>       0.53138490       0.74124907       0.45613846 </v>
    <v>       0.46746323       0.54576820       0.47317832 </v>
    <v>       0.47007851       0.31164257       0.39297665 </v>
    <v>       0.53239788       0.62712171       0.39363898 </v>
    <v>       0.62537236       0.44135270       0.36854365 </v>
    <v>       0.65617978       0.57640522       0.37338423 </v>
    <v>       0.49589478       0.43459437       0.37504092 </v>
    <v>       0.38230323       0.47896252       0.40310605 </v>
    <v>       0.57403762       0.33593787       0.32851326 </v>
    <v>       0.44222203       0.56343441       0.35572284 </v>
    <v>       0.38145058       0.38309069       0.34375545 </v>
    <v>       0.55026933       0.53571266       0.31708564 </v>
    <v>       0.47058831       0.35287413       0.27167617 </v>
    <v>       0.55979670       0.43376706       0.26018211 </v>
    <v>       0.43994695       0.47394700       0.27477444 </v>
   </varray>
  </structure>
  <varray name="forces" >
   <v>      -0.16836195       0.00429520      -0.16836483 </v>
   <v>       0.19844033      -0.01532486       0.35045358 </v>
   <v>       0.03489049      -0.00397367       0.24201456 </v>
   <v>       0.22332372      -0.02451930       0.12654490 </v>
   <v>      -0.04190922      -0.36152944      -0.02570264 </v>
   <v>      -0.14033412       0.14315302       0.03746852 </v>
   <v>       0.41324082       0.09162944       0.06271283 </v>
   <v>      -0.09310635       0.33709165       0.28526685 </v>
   <v>      -0.04250324       0.13137686      -0.16800587 </v>
   <v>       0.07847870      -0.17162708       0.20928625 </v>
   <v>       0.00467473      -0.14786123       0.06672379 </v>
   <v>      -0.04015840       0.05252512       0.23543029 </v>
   <v>      -0.57870224       0.17270910       0.53938603 </v>
   <v>       0.65217095      -0.95060552       0.87445236 </v>
   <v>       0.05921693       0.11036172      -0.09388232 </v>
   <v>      -0.07469228       0.10180045       0.22897986 </v>
   <v>      -0.10733221      -0.09532948      -0.13535952 </v>
   <v>      -0.05874104      -0.08931865      -0.03928197 </v>
   <v>       1.29134571       0.43915917       0.16393348 </v>
   <v>      -0.29348555       0.22010108       0.08991476 </v>
   <v>      -0.27156173      -0.13802721      -0.00923290 </v>
   <v>      -0.09045854      -0.19936823       0.34224192 </v>
   <v>      -0.15457372      -0.00561118       0.09195505 </v>
   <v>      -1.24139363       0.39954214      -0.40542388 </v>
   <v>       0.13580301       0.07428302      -0.03808746 </v>
   <v>      -0.18561182       0.02348334      -0.06084142 </v>
   <v>       0.65199456      -0.64127979       0.09807498 </v>
   <v>       0.23811113      -0.50827377       0.14780248 </v>
   <v>      -0.52417810       1.15620233      -0.05447052 </v>
   <v>       0.20874235       0.28683459      -0.01639747 </v>
   <v>       0.08381061      -0.43558598       0.24795557 </v>
   <v>       0.48812152       0.65330433       0.16437338 </v>
   <v>      -0.43158818      -0.12274025       0.33308084 </v>
   <v>       0.64285814      -0.12736197      -0.38721573 </v>
   <v>       0.11668090       0.54138515      -0.87683169 </v>
   <v>      -0.08518107      -0.42383483      -0.16392368 </v>
   <v>      -0.06986352       0.24171165      -0.19846955 </v>
   <v>      -0.22522894      -0.15894077      -0.11454465 </v>
   <v>      -0.36543480      -0.20044410      -0.21481901 </v>
   <v>       0.04393964      -0.22875845       0.10345303 </v>
   <v>      -0.27180877       0.37900429      -0.35191200 </v>
   <v>       0.12508457       0.04179567      -0.15340870 </v>
   <v>       0.10875768       0.24452055      -0.09487196 </v>
   <v>       0.42668314      -0.17065592       0.00661447 </v>
   <v>      -0.03239577      -0.44930490      -0.19849218 </v>
   <v>      -0.01159774      -0.05748918      -0.56124998 </v>
   <v>      -0.44020403       0.30002236       0.06232427 </v>
   <v>       0.02848506      -0.12646611       0.10893839 </v>
   <v>      -0.36530295       0.39078687      -0.18488934 </v>
   <v>      -0.12717895      -0.49347939      -0.46100911 </v>
   <v>       0.33689192      -0.06428859      -0.15786760 </v>
   <v>      -0.07008599      -0.05489410      -0.01042711 </v>
   <v>      -0.07767640      -0.02967495      -0.14574700 </v>
   <v>       0.08890465      -0.04051018       0.27134765 </v>
  </varray>
  <varray name="stress" >
   <v>      -0.44329326      -0.07797892      -0.14133502 </v>
   <v>      -0.07797892       0.48331006      -0.04531596 </v>
   <v>      -0.14133502      -0.04531597      -0.43316677 </v>
  </varray>
  <energy>
   <i name="e_fr_energy">   -116.26315339 </i>
   <i name="e_wo_entrp">   -116.26315339 </i>
   <i name="e_0_energy">      0.00000000 </i>
  </energy>
  <time name="totalsc">   66.30   75.82</time>
 </calculation>
 <calculation>
  <scstep>
   <time name="dav">    6.90    6.90</time>
   <time name="total">    7.28    7.31</time>
   <energy>
    <i name="alphaZ">    201.77671939 </i>
    <i name="ewald"> 167989.51687087 </i>
    <i name="hartreedc">-221810.78335465 </i>
    <i name="XCdc">   -606.14308773 </i>
    <i name="pawpsdc">  59057.16831036 </i>
    <i name="pawaedc"> -56677.72888120 </i>
    <i name="eentropy">      0.00000000 </i>
    <i name="bandstr">  -4278.79989318 </i>
    <i name="atom">  56008.72602466 </i>
    <i name="e_fr_energy">   -116.26729148 </i>
    <i name="e_wo_entrp">   -116.26729148 </i>
    <i name="e_0_energy">   -116.26729148 </i>
   </energy>
  </scstep>
  <scstep>
   <time name="dav">    7.12    7.13</time>
   <time name="total">    7.50    7.52</time>
   <energy>
    <i name="e_fr_energy">   -116.27419916 </i>
    <i name="e_wo_entrp">   -116.27419916 </i>
    <i name="e_0_energy">   -116.27419916 </i>
   </energy>
  </scstep>
  <scstep>
   <time name="dav">    7.15    7.16</time>
   <time name="total">    7.53    8.52</time>
   <energy>
    <i name="e_fr_energy">   -116.27410738 </i>
    <i name="e_wo_entrp">   -116.27410738 </i>
    <i name="e_0_energy">   -116.27410738 </i>
   </energy>
  </scstep>
  <scstep>
   <time name="dav">    6.98    6.99</time>
   <time name="total">    7.20    7.25</time>
   <energy>
    <i name="alphaZ">    201.77671939 </i>
    <i name="ewald"> 167989.51687087 </i>
    <i name="hartreedc">-221809.61355983 </i>
    <i name="XCdc">   -606.20756842 </i>
    <i name="pawpsdc">  59097.65180886 </i>
    <i name="pawaedc"> -56718.88533767 </i>
    <i name="eentropy">      0.00000000 </i>
    <i name="bandstr">  -4279.23908011 </i>
    <i name="atom">  56008.72602466 </i>
    <i name="e_fr_energy">   -116.27412225 </i>
    <i name="e_wo_entrp">   -116.27412225 </i>
    <i name="e_0_energy">   -116.27412225 </i>
   </energy>
  </scstep>
  <structure>
   <crystal>
    <varray name="basis" >
     <v>      23.07864010       0.00000000       0.00000000 </v>
     <v>       0.00000000      23.07864010       0.00000000 </v>
     <v>       0.00000000       0.00000000      23.07864010 </v>
    </varray>
    <i name="volume">  12292.22903789 </i>
    <varray name="rec_basis" >
     <v>       0.04333011       0.00000000       0.00000000 </v>
     <v>       0.00000000       0.04333011       0.00000000 </v>
     <v>       0.00000000       0.00000000       0.04333011 </v>
    </varray>
   </crystal>
   <varray name="positions" >
    <v>       0.51420788       0.58244231       0.71620872 </v>
    <v>       0.42878259       0.47279270       0.70720204 </v>
    <v>       0.54901234       0.47049537       0.68410581 </v>
    <v>       0.62999974       0.55055845       0.66039409 </v>
    <v>       0.50011690       0.37002543       0.70788272 </v>
    <v>       0.58156477       0.65382855       0.63636730 </v>
    <v>       0.69383775       0.63185284       0.60229405 </v>
    <v>       0.38094574       0.56201202       0.64963309 </v>
    <v>       0.32379128       0.44959403       0.63088168 </v>
    <v>       0.38041970       0.36379010       0.68430950 </v>
    <v>       0.65633074       0.43453060       0.63271193 </v>
    <v>       0.46057394       0.66868367       0.63575498 </v>
    <v>       0.48897571       0.55612559       0.60215063 </v>
    <v>       0.45813836       0.42161054       0.60069470 </v>
    <v>       0.63628173       0.70812524       0.53463853 </v>
    <v>       0.71040430       0.51864041       0.56708254 </v>
    <v>       0.29015073       0.54847567       0.56965734 </v>
    <v>       0.56517297       0.36718972       0.59130236 </v>
    <v>       0.61582920       0.58314631       0.51800592 </v>
    <v>       0.53946885       0.75067535       0.58220803 </v>
    <v>       0.72430076       0.62251554       0.48186779 </v>
    <v>       0.35924225       0.35171277       0.56526758 </v>
    <v>       0.46036148       0.29536999       0.62432272 </v>
    <v>       0.39775009       0.49256270       0.54366944 </v>
    <v>       0.29788904       0.44383637       0.50082422 </v>
    <v>       0.39182417       0.62116580       0.54768174 </v>
    <v>       0.57056711       0.49110672       0.56807263 </v>
    <v>       0.47874114       0.31829152       0.51221899 </v>
    <v>       0.51961884       0.63988529       0.52381966 </v>
    <v>       0.43116520       0.73150317       0.53288786 </v>
    <v>       0.64155544       0.42466348       0.50544880 </v>
    <v>       0.62990030       0.67534418       0.42343145 </v>
    <v>       0.50984057       0.43144767       0.49003242 </v>
    <v>       0.57017254       0.51668659       0.43632743 </v>
    <v>       0.70666756       0.49979713       0.45340615 </v>
    <v>       0.57916670       0.34789004       0.44493407 </v>
    <v>       0.33640158       0.56738601       0.45969341 </v>
    <v>       0.42742526       0.66031972       0.43736309 </v>
    <v>       0.39870684       0.38378548       0.46266945 </v>
    <v>       0.53126894       0.74106338       0.45632698 </v>
    <v>       0.46745068       0.54569973       0.47312997 </v>
    <v>       0.47010637       0.31177141       0.39278410 </v>
    <v>       0.53231902       0.62718605       0.39379229 </v>
    <v>       0.62515932       0.44139835       0.36854366 </v>
    <v>       0.65632931       0.57614312       0.37386873 </v>
    <v>       0.49587874       0.43452243       0.37482308 </v>
    <v>       0.38236143       0.47901194       0.40325028 </v>
    <v>       0.57379053       0.33615206       0.32866113 </v>
    <v>       0.44237639       0.56332087       0.35579487 </v>
    <v>       0.38174207       0.38311118       0.34375027 </v>
    <v>       0.55012788       0.53549412       0.31706562 </v>
    <v>       0.47070903       0.35312902       0.27199800 </v>
    <v>       0.55962670       0.43374953       0.26047644 </v>
    <v>       0.44006497       0.47379024       0.27484333 </v>
   </varray>
  </structure>
  <varray name="forces" >
   <v>      -0.16192830       0.00996761      -0.13180305 </v>
   <v>       0.20561021      -0.01396978       0.36938770 </v>
   <v>       0.04751102       0.02103501       0.25624174 </v>
   <v>       0.20430761      -0.02290632       0.13717521 </v>
   <v>      -0.01789348      -0.37577501       0.02216173 </v>
   <v>      -0.12456570       0.12160820       0.04832134 </v>
   <v>       0.42754024       0.11623097       0.08452275 </v>
   <v>      -0.08555040       0.35931262       0.28648449 </v>
   <v>      -0.05485672       0.12275088      -0.15618534 </v>
   <v>       0.03277448      -0.17390603       0.24129238 </v>
   <v>       0.03185260      -0.16996636       0.07944963 </v>
   <v>      -0.05864749       0.03981675       0.25020045 </v>
   <v>      -0.58506069       0.17625077       0.46534624 </v>
   <v>       0.60798724      -0.87594761       0.81515427 </v>
   <v>       0.05607394       0.14206135      -0.06370206 </v>
   <v>      -0.06051670       0.08286716       0.23136980 </v>
   <v>      -0.15354211      -0.07766678      -0.12568123 </v>
   <v>      -0.03406716      -0.10584230      -0.03641614 </v>
   <v>       1.18863153       0.40888392       0.18508846 </v>
   <v>      -0.26364806       0.25938612       0.09871602 </v>
   <v>      -0.22306378      -0.12201360      -0.02115120 </v>
   <v>      -0.10096350      -0.20506546       0.30926819 </v>
   <v>      -0.15089651      -0.05981551       0.10264518 </v>
[...]
       <r>     1.3922     0.0000   368.0000 </r>
       <r>     1.4340     0.0000   370.0000 </r>
       <r>     1.4758     0.0000   372.0000 </r>
       <r>     1.5176     0.0000   374.0000 </r>
       <r>     1.5594     0.0000   375.0000 </r>
       <r>     1.6012     0.0000   378.0000 </r>
       <r>     1.6430     0.0000   381.0000 </r>
       <r>     1.6848     0.0000   383.0000 </r>
       <r>     1.7266     0.0000   384.0000 </r>
       <r>     1.7684     0.0000   384.0000 </r>
       <r>     1.8102     0.0000   384.0000 </r>
       <r>     1.8520     0.0000   384.0000 </r>
       <r>     1.8938     0.0000   384.0000 </r>
       <r>     1.9356     0.0000   384.0000 </r>
       <r>     1.9774     0.0000   384.0000 </r>
       <r>     2.0192     0.0000   384.0000 </r>
       <r>     2.0610     0.0000   384.0000 </r>
       <r>     2.1028     0.0000   384.0000 </r>
       <r>     2.1446     0.0000   384.0000 </r>
       <r>     2.1864     0.0000   384.0000 </r>
       <r>     2.2282     0.0000   384.0000 </r>
       <r>     2.2700     0.0000   384.0000 </r>
      </set>
      <set comment="spin 2">
       <r>   -10.2701     0.0000     0.0000 </r>
       <r>   -10.2283     0.0000     0.0000 </r>
       <r>   -10.1865     0.0000     0.0000 </r>
       <r>   -10.1447     0.0000     0.0000 </r>
       <r>   -10.1029     0.0000     0.0000 </r>
       <r>   -10.0611     0.0000     0.0000 </r>
       <r>   -10.0193     0.0000     0.0000 </r>
       <r>    -9.9775     0.0000     0.0000 </r>
       <r>    -9.9357     0.0000     0.0000 </r>
       <r>    -9.8939     0.0000     0.0000 </r>
       <r>    -9.8521     0.0000     0.0000 </r>
       <r>    -9.8103     0.0000     0.0000 </r>
       <r>    -9.7685     0.0000     0.0000 </r>
       <r>    -9.7267     0.0000     0.0000 </r>
       <r>    -9.6849     0.0000     1.0000 </r>
       <r>    -9.6431     0.0000     1.0000 </r>
       <r>    -9.6013     0.0000     1.0000 </r>
       <r>    -9.5595     0.0000     1.0000 </r>
       <r>    -9.5177     0.0000     1.0000 </r>
       <r>    -9.4759     0.0000     1.0000 </r>
       <r>    -9.4341     0.0000     1.0000 </r>
       <r>    -9.3923     0.0000     1.0000 </r>
       <r>    -9.3505     0.0000     1.0000 </r>
       <r>    -9.3087     0.0000     1.0000 </r>
       <r>    -9.2669     0.0000     1.0000 </r>
       <r>    -9.2251     0.0000     1.0000 </r>
       <r>    -9.1833     0.0000     1.0000 </r>
       <r>    -9.1415     0.0000     2.0000 </r>
       <r>    -9.0997     0.0000     2.0000 </r>
       <r>    -9.0579     0.0000     3.0000 </r>
       <r>    -9.0161     0.0000     4.0000 </r>
       <r>    -8.9743     0.0000     5.0000 </r>
       <r>    -8.9325     0.0000     6.0000 </r>
       <r>    -8.8907     9.6628     8.4039 </r>
       <r>    -8.8489     0.0000    11.0000 </r>
       <r>    -8.8071     0.0000    13.0000 </r>
       <r>    -8.7653     0.0000    16.0000 </r>
       <r>    -8.7235     0.0000    18.0000 </r>
       <r>    -8.6817     0.0000    19.0000 </r>
       <r>    -8.6399     0.0000    22.0000 </r>
       <r>    -8.5981     0.0000    24.0000 </r>
       <r>    -8.5563     0.0000    27.0000 </r>
       <r>    -8.5145     0.0000    30.0000 </r>
       <r>    -8.4727     0.0000    34.0000 </r>
       <r>    -8.4309     0.0000    37.0000 </r>
       <r>    -8.3891     0.0000    41.0000 </r>
       <r>    -8.3473     0.0000    43.0000 </r>
       <r>    -8.3055     0.0000    47.0000 </r>
       <r>    -8.2637     0.0000    50.0000 </r>
       <r>    -8.2219     0.0000    55.0000 </r>
       <r>    -8.1801     0.0000    58.0000 </r>
       <r>    -8.1383     0.0000    61.0000 </r>
       <r>    -8.0965     0.0000    64.0000 </r>
       <r>    -8.0547     0.0000    67.0000 </r>
       <r>    -8.0129     0.0000    71.0000 </r>
       <r>    -7.9711     0.0000    75.0000 </r>
       <r>    -7.9293     0.0000    79.0000 </r>
       <r>    -7.8875     0.0000    83.0000 </r>
       <r>    -7.8457     0.0000    86.0000 </r>
       <r>    -7.8039    23.9233    90.0000 </r>
       <r>    -7.7621     0.0000    94.0000 </r>
       <r>    -7.7203     0.0000    97.0000 </r>
       <r>    -7.6785     0.0000    99.0000 </r>
       <r>    -7.6367     0.0000   102.0000 </r>
       <r>    -7.5949     0.0000   105.0000 </r>
       <r>    -7.5531     0.0000   109.0000 </r>
       <r>    -7.5113     0.0000   113.0000 </r>
       <r>    -7.4695     0.0000   116.0000 </r>
       <r>    -7.4277     0.0000   120.0000 </r>
       <r>    -7.3859     0.0000   123.0000 </r>
       <r>    -7.3441     0.0000   127.0000 </r>
       <r>    -7.3023     0.0000   130.0000 </r>
       <r>    -7.2605     0.0000   133.0000 </r>
       <r>    -7.2187     0.0000   136.0000 </r>
       <r>    -7.1769     0.0000   142.0000 </r>
       <r>    -7.1351     0.0000   145.0000 </r>
       <r>    -7.0933     0.0000   149.0000 </r>
       <r>    -7.0515     0.0000   152.0000 </r>
       <r>    -7.0097     0.0000   155.0000 </r>
       <r>    -6.9679     0.0000   158.0000 </r>
       <r>    -6.9261     0.0000   163.0000 </r>
       <r>    -6.8843     0.0000   168.0000 </r>
       <r>    -6.8425     0.0000   172.0000 </r>
       <r>    -6.8007     0.0000   176.0000 </r>
       <r>    -6.7589     0.0000   181.0000 </r>
       <r>    -6.7171     0.0000   185.0000 </r>
       <r>    -6.6753     0.0000   190.0000 </r>
       <r>    -6.6335     0.0000   195.0000 </r>
       <r>    -6.5917     0.0000   201.0000 </r>
       <r>    -6.5499    22.7806   208.9522 </r>
       <r>    -6.5081     0.0000   212.0000 </r>
       <r>    -6.4663     0.0000   219.0000 </r>
       <r>    -6.4245     0.0000   225.0000 </r>
       <r>    -6.3827     0.0000   230.0000 </r>
       <r>    -6.3409     0.0000   236.0000 </r>
       <r>    -6.2991     0.0000   241.0000 </r>
       <r>    -6.2573    23.8943   246.9988 </r>
       <r>    -6.2155     0.0000   251.0000 </r>
       <r>    -6.1737     0.0000   256.0000 </r>
       <r>    -6.1319     0.0000   261.0000 </r>
       <r>    -6.0901     0.0000   265.0000 </r>
       <r>    -6.0483     0.0000   269.0000 </r>
       <r>    -6.0065     0.0000   272.0000 </r>
       <r>    -5.9647     0.0000   275.0000 </r>
       <r>    -5.9229     0.0000   278.0000 </r>
       <r>    -5.8811     0.0000   279.0000 </r>
       <r>    -5.8393     0.0000   279.0000 </r>
       <r>    -5.7975     0.0000   279.0000 </r>
       <r>    -5.7557     0.0000   279.0000 </r>
       <r>    -5.7139     0.0000   279.0000 </r>
       <r>    -5.6721     0.0000   279.0000 </r>
       <r>    -5.6303     0.0000   279.0000 </r>
       <r>    -5.5885     0.0000   279.0000 </r>
       <r>    -5.5467     0.0000   279.0000 </r>
       <r>    -5.5049     0.0000   280.0000 </r>
       <r>    -5.4631     0.0000   280.0000 </r>
       <r>    -5.4213     0.0000   280.0000 </r>
       <r>    -5.3795     0.0000   280.0000 </r>
       <r>    -5.3376     0.0000   280.0000 </r>
       <r>    -5.2958     0.0000   280.0000 </r>
       <r>    -5.2540     0.0000   281.0000 </r>
       <r>    -5.2122     0.0000   281.0000 </r>
       <r>    -5.1704     0.0000   282.0000 </r>
       <r>    -5.1286     0.0000   282.0000 </r>
       <r>    -5.0868     0.0000   283.0000 </r>
       <r>    -5.0450     0.0000   283.0000 </r>
       <r>    -5.0032     0.0000   283.0000 </r>
       <r>    -4.9614     0.0000   284.0000 </r>
       <r>    -4.9196     0.0000   284.0000 </r>
       <r>    -4.8778     0.0000   285.0000 </r>
       <r>    -4.8360     0.0000   285.0000 </r>
       <r>    -4.7942     0.0000   285.0000 </r>
       <r>    -4.7524     0.0000   286.0000 </r>
       <r>    -4.7106     0.0000   286.0000 </r>
       <r>    -4.6688     0.0000   286.0000 </r>
       <r>    -4.6270     0.0000   286.0000 </r>
       <r>    -4.5852     0.0000   287.0000 </r>
       <r>    -4.5434     0.0000   287.0000 </r>
       <r>    -4.5016     0.0000   287.0000 </r>
       <r>    -4.4598     0.0000   287.0000 </r>
       <r>    -4.4180     0.0000   287.0000 </r>
       <r>    -4.3762     0.0000   287.0000 </r>
       <r>    -4.3344     0.0000   287.0000 </r>
       <r>    -4.2926     0.0000   288.0000 </r>
       <r>    -4.2508     0.0000   289.0000 </r>
       <r>    -4.2090     0.0000   289.0000 </r>
       <r>    -4.1672     0.0000   289.0000 </r>
       <r>    -4.1254     0.0000   289.0000 </r>
       <r>    -4.0836     0.0000   289.0000 </r>
       <r>    -4.0418     0.0000   289.0000 </r>
       <r>    -4.0000     0.0000   289.0000 </r>
       <r>    -3.9582     0.0000   289.0000 </r>
       <r>    -3.9164     0.0000   290.0000 </r>
       <r>    -3.8746     0.0000   290.0000 </r>
       <r>    -3.8328     0.0000   291.0000 </r>
       <r>    -3.7910     0.0000   291.0000 </r>
       <r>    -3.7492     0.0000   291.0000 </r>
       <r>    -3.7074     0.0000   292.0000 </r>
       <r>    -3.6656     0.0000   292.0000 </r>
       <r>    -3.6238     0.0000   293.0000 </r>
       <r>    -3.5820     0.0000   293.0000 </r>
       <r>    -3.5402     0.0000   294.0000 </r>
       <r>    -3.4984     0.0000   294.0000 </r>
       <r>    -3.4566     0.0000   294.0000 </r>
       <r>    -3.4148     0.0000   295.0000 </r>
       <r>    -3.3730     0.0000   296.0000 </r>
       <r>    -3.3312     0.0000   296.0000 </r>
       <r>    -3.2894     0.0000   296.0000 </r>
       <r>    -3.2476     0.0000   297.0000 </r>
       <r>    -3.2058     0.0000   297.0000 </r>
       <r>    -3.1640     0.0000   297.0000 </r>
       <r>    -3.1222     0.0000   298.0000 </r>
       <r>    -3.0804     0.0000   298.0000 </r>
       <r>    -3.0386     0.0000   298.0000 </r>
       <r>    -2.9968     0.0000   298.0000 </r>
       <r>    -2.9550    23.9233   300.0000 </r>
       <r>    -2.9132     0.0000   300.0000 </r>
       <r>    -2.8714     0.0000   300.0000 </r>
       <r>    -2.8296     0.0000   300.0000 </r>
       <r>    -2.7878     0.0000   300.0000 </r>
       <r>    -2.7460     0.0000   300.0000 </r>
       <r>    -2.7042     0.0000   300.0000 </r>
       <r>    -2.6624     0.0000   301.0000 </r>
       <r>    -2.6206     0.0000   301.0000 </r>
       <r>    -2.5788     0.0000   301.0000 </r>
       <r>    -2.5370     0.0000   302.0000 </r>
       <r>    -2.4952     0.0000   302.0000 </r>
       <r>    -2.4534     0.0000   303.0000 </r>
       <r>    -2.4116     0.0000   303.0000 </r>
       <r>    -2.3698     0.0000   304.0000 </r>
       <r>    -2.3280     0.0000   304.0000 </r>
       <r>    -2.2862     0.0000   304.0000 </r>
       <r>    -2.2444     0.0000   305.0000 </r>
       <r>    -2.2026     0.0000   306.0000 </r>
       <r>    -2.1608     0.0000   307.0000 </r>
       <r>    -2.1190     0.0000   307.0000 </r>
       <r>    -2.0772     0.0000   307.0000 </r>
       <r>    -2.0354     0.0000   308.0000 </r>
       <r>    -1.9936     0.0000   308.0000 </r>
       <r>    -1.9518     0.0000   309.0000 </r>
       <r>    -1.9100     0.0000   310.0000 </r>
       <r>    -1.8682     0.0000   311.0000 </r>
       <r>    -1.8264     0.0000   311.0000 </r>
       <r>    -1.7846     0.0000   312.0000 </r>
       <r>    -1.7428     0.0000   312.0000 </r>
       <r>    -1.7010     0.0000   313.0000 </r>
       <r>    -1.6592     0.0000   313.0000 </r>
       <r>    -1.6174     0.0000   313.0000 </r>
       <r>    -1.5756     0.0000   314.0000 </r>
       <r>    -1.5338     6.1231   315.2559 </r>
       <r>    -1.4920     0.0000   316.0000 </r>
       <r>    -1.4502     0.0000   316.0000 </r>
       <r>    -1.4084     0.0000   317.0000 </r>
       <r>    -1.3666     0.0000   318.0000 </r>
       <r>    -1.3248     0.0000   318.0000 </r>
       <r>    -1.2830     0.0000   318.0000 </r>
       <r>    -1.2412     0.0000   319.0000 </r>
       <r>    -1.1994     0.0000   319.0000 </r>
       <r>    -1.1576     0.0000   320.0000 </r>
       <r>    -1.1158     0.0000   321.0000 </r>
       <r>    -1.0740     0.0000   321.0000 </r>
       <r>    -1.0322     0.0000   321.0000 </r>
       <r>    -0.9904     0.0000   321.0000 </r>
       <r>    -0.9486     0.0000   322.0000 </r>
       <r>    -0.9068     0.0000   322.0000 </r>
       <r>    -0.8650     0.0000   322.0000 </r>
       <r>    -0.8232     0.0000   323.0000 </r>
       <r>    -0.7814     0.0000   324.0000 </r>
       <r>    -0.7396     0.0000   324.0000 </r>
       <r>    -0.6978     0.0000   324.0000 </r>
       <r>    -0.6560     0.0000   324.0000 </r>
       <r>    -0.6142     0.0000   325.0000 </r>
       <r>    -0.5724     0.0000   326.0000 </r>
       <r>    -0.5306     0.0000   327.0000 </r>
       <r>    -0.4888     0.0000   328.0000 </r>
       <r>    -0.4470     0.0000   329.0000 </r>
       <r>    -0.4052     0.0000   329.0000 </r>
       <r>    -0.3634     0.0000   329.0000 </r>
       <r>    -0.3216     0.0000   330.0000 </r>
       <r>    -0.2798     0.0000   331.0000 </r>
       <r>    -0.2380     0.0000   331.0000 </r>
       <r>    -0.1962     0.0000   332.0000 </r>
       <r>    -0.1544     0.0000   332.0000 </r>
       <r>    -0.1126     0.0000   334.0000 </r>
       <r>    -0.0708     0.0000   334.0000 </r>
       <r>    -0.0290     0.0000   334.0000 </r>
       <r>     0.0128     0.0000   335.0000 </r>
       <r>     0.0546     0.0000   336.0000 </r>
       <r>     0.0964     0.0000   336.0000 </r>
       <r>     0.1382     0.0000   337.0000 </r>
       <r>     0.1800     0.0000   337.0000 </r>
       <r>     0.2218     0.0000   339.0000 </r>
       <r>     0.2636     0.0000   339.0000 </r>
       <r>     0.3054     0.0000   340.0000 </r>
       <r>     0.3472     0.0000   340.0000 </r>
       <r>     0.3890     0.0000   340.0000 </r>
       <r>     0.4308     0.0000   340.0000 </r>
       <r>     0.4726     0.0000   340.0000 </r>
       <r>     0.5144     0.0000   341.0000 </r>
       <r>     0.5562     0.0000   342.0000 </r>
       <r>     0.5980     0.0000   343.0000 </r>
       <r>     0.6398     0.0000   344.0000 </r>
       <r>     0.6816     0.0000   344.0000 </r>
       <r>     0.7234     0.0000   345.0000 </r>
       <r>     0.7652     0.0000   345.0000 </r>
       <r>     0.8070     0.0000   346.0000 </r>
       <r>     0.8488     0.0000   348.0000 </r>
       <r>     0.8906     0.0000   349.0000 </r>
       <r>     0.9324     0.0000   350.0000 </r>
       <r>     0.9742     0.0000   351.0000 </r>
       <r>     1.0160     0.0000   353.0000 </r>
       <r>     1.0578     0.0000   355.0000 </r>
       <r>     1.0996     0.0000   355.0000 </r>
       <r>     1.1414    23.9233   358.0000 </r>
       <r>     1.1832     0.0000   359.0000 </r>
       <r>     1.2250     0.0000   362.0000 </r>
       <r>     1.2668     0.0000   364.0000 </r>
       <r>     1.3086     0.0000   365.0000 </r>
       <r>     1.3504     0.0000   367.0000 </r>
       <r>     1.3922     0.0000   368.0000 </r>
       <r>     1.4340     0.0000   370.0000 </r>
       <r>     1.4758     0.0000   372.0000 </r>
       <r>     1.5176     0.0000   374.0000 </r>
       <r>     1.5594     0.0000   375.0000 </r>
       <r>     1.6012     0.0000   378.0000 </r>
       <r>     1.6430     0.0000   381.0000 </r>
       <r>     1.6848     0.0000   383.0000 </r>
       <r>     1.7266     0.0000   384.0000 </r>
       <r>     1.7684     0.0000   384.0000 </r>
       <r>     1.8102     0.0000   384.0000 </r>
       <r>     1.8520     0.0000   384.0000 </r>
       <r>     1.8938     0.0000   384.0000 </r>
       <r>     1.9356     0.0000   384.0000 </r>
       <r>     1.9774     0.0000   384.0000 </r>
       <r>     2.0192     0.0000   384.0000 </r>
       <r>     2.0610     0.0000   384.0000 </r>
       <r>     2.1028     0.0000   384.0000 </r>
       <r>     2.1446     0.0000   384.0000 </r>
       <r>     2.1864     0.0000   384.0000 </r>
       <r>     2.2282     0.0000   384.0000 </r>
       <r>     2.2700     0.0000   384.0000 </r>
      </set>
     </set>
    </array>
   </total>
  </dos>
 </calculation>
 <structure name="finalpos" >
  <crystal>
   <varray name="basis" >
    <v>      23.07864010       0.00000000       0.00000000 </v>
    <v>       0.00000000      23.07864010       0.00000000 </v>
    <v>       0.00000000       0.00000000      23.07864010 </v>
   </varray>
   <i name="volume">  12292.22903789 </i>
   <varray name="rec_basis" >
    <v>       0.04333011       0.00000000       0.00000000 </v>
    <v>       0.00000000       0.04333011       0.00000000 </v>
    <v>       0.00000000       0.00000000       0.04333011 </v>
   </varray>
  </crystal>
  <varray name="positions" >
   <v>       0.50225364       0.58928084       0.71341420 </v>
   <v>       0.42964968       0.48708123       0.72598898 </v>
   <v>       0.54748875       0.47513870       0.70409671 </v>
   <v>       0.61629046       0.55188566       0.65000745 </v>
   <v>       0.54765675       0.35638024       0.68703774 </v>
   <v>       0.57556087       0.66366359       0.63615147 </v>
   <v>       0.68901988       0.63206318       0.59832821 </v>
   <v>       0.38892068       0.57516699       0.65549896 </v>
   <v>       0.34424741       0.45834897       0.63591083 </v>
   <v>       0.39857699       0.36809657       0.69560713 </v>
   <v>       0.64136334       0.42275467       0.63632644 </v>
   <v>       0.45423383       0.67948644       0.63833923 </v>
   <v>       0.49711715       0.56472345       0.59704509 </v>
   <v>       0.46907281       0.42924962       0.62089165 </v>
   <v>       0.62377947       0.70955754       0.53153228 </v>
   <v>       0.68725837       0.51195160       0.55720431 </v>
   <v>       0.29892207       0.54766537       0.56658184 </v>
   <v>       0.55935446       0.34888761       0.56692351 </v>
   <v>       0.59713297       0.58613589       0.52114829 </v>
   <v>       0.53128785       0.76635274       0.58633375 </v>
   <v>       0.70829547       0.61188736       0.47993114 </v>
   <v>       0.38009276       0.36698113       0.56402506 </v>
   <v>       0.46391848       0.29859225       0.62258029 </v>
   <v>       0.40746916       0.50190317       0.54312441 </v>
   <v>       0.31191613       0.44723901       0.49630865 </v>
   <v>       0.38657352       0.63101238       0.54770531 </v>
   <v>       0.56534011       0.47419482       0.56334458 </v>
   <v>       0.46428449       0.29592523       0.50115237 </v>
   <v>       0.50527421       0.66270193       0.52556125 </v>
   <v>       0.42348152       0.74867044       0.53196470 </v>
   <v>       0.65295971       0.40356021       0.50814867 </v>
   <v>       0.64145337       0.69818780       0.41453330 </v>
   <v>       0.48139114       0.41952540       0.49188230 </v>
   <v>       0.58503588       0.48499962       0.44374626 </v>
   <v>       0.70904773       0.49188057       0.43899425 </v>
   <v>       0.56795037       0.33613458       0.44599808 </v>
   <v>       0.34512395       0.56860153       0.45355260 </v>
   <v>       0.42128342       0.66840708       0.43772441 </v>
   <v>       0.37103437       0.35443549       0.44429883 </v>
   <v>       0.53383462       0.75434295       0.45641727 </v>
   <v>       0.48509170       0.55303306       0.46588626 </v>
   <v>       0.46467512       0.30630237       0.37908653 </v>
   <v>       0.53448980       0.64437925       0.40020270 </v>
   <v>       0.64682101       0.40440128       0.37854408 </v>
   <v>       0.63944957       0.57979668       0.38759762 </v>
   <v>       0.50879074       0.41909126       0.37312654 </v>
   <v>       0.39898504       0.46971534       0.40857960 </v>
   <v>       0.57630555       0.32206477       0.32521420 </v>
   <v>       0.42329526       0.57824373       0.35786691 </v>
   <v>       0.37792357       0.38010789       0.32848954 </v>
   <v>       0.53581614       0.53559697       0.34291135 </v>
   <v>       0.47932577       0.36379448       0.26629992 </v>
   <v>       0.57653536       0.43733703       0.27729709 </v>
   <v>       0.44216102       0.47849053       0.29006949 </v>
  </varray>
 </structure>
</modeling>
