       N       E                     dE             d eps       ncg     rms          rms(c)
DAV:   1     0.243937037747E+04    0.24394E+04   -0.47412E+04   720   0.572E+02
DAV:   2     0.638482212939E+03   -0.18009E+04   -0.15969E+04  1288   0.132E+02
DAV:   3    -0.813804920833E+01   -0.64662E+03   -0.59232E+03   976   0.895E+01
DAV:   4    -0.493898562172E+02   -0.41252E+02   -0.40675E+02   792   0.252E+01
DAV:   5    -0.499750556351E+02   -0.58520E+00   -0.58446E+00   800   0.359E+00    0.282E+01
DAV:   6    -0.115043889607E+02    0.38471E+02   -0.11657E+02   728   0.173E+01    0.146E+01
DAV:   7    -0.623503575450E+01    0.52694E+01   -0.60726E+00   760   0.551E+00    0.867E+00
DAV:   8    -0.110895985732E+02   -0.48546E+01   -0.25784E+00   788   0.316E+00    0.547E+00
DAV:   9    -0.134095888726E+02   -0.23200E+01   -0.11955E+00   776   0.353E+00    0.346E+00
DAV:  10    -0.208435161309E+02   -0.74339E+01   -0.25318E+00   752   0.286E+00    0.267E+00
DAV:  11    -0.329747388450E+02   -0.12131E+02   -0.69275E+00   736   0.365E+00    0.247E+00
DAV:  12    -0.344591519818E+02   -0.14844E+01   -0.33897E-01   840   0.100E+00    0.208E+00
DAV:  13    -0.385389964702E+02   -0.40798E+01   -0.11727E+00   736   0.152E+00    0.153E+00
DAV:  14    -0.436292740316E+02   -0.50903E+01   -0.18088E+00   744   0.169E+00    0.885E-01
DAV:  15    -0.456816056303E+02   -0.20523E+01   -0.37587E-01   784   0.704E-01    0.651E-01
DAV:  16    -0.474729316442E+02   -0.17913E+01   -0.27149E-01   728   0.758E-01    0.394E-01
DAV:  17    -0.486784541733E+02   -0.12055E+01   -0.10904E-01   752   0.492E-01    0.230E-01
DAV:  18    -0.490339434433E+02   -0.35549E+00   -0.10091E-02   776   0.218E-01    0.152E-01
DAV:  19    -0.493036108537E+02   -0.26967E+00   -0.73462E-03   764   0.111E-01    0.855E-02
DAV:  20    -0.493978719904E+02   -0.94261E-01   -0.34077E-03   764   0.117E-01    0.400E-02
DAV:  21    -0.494224943353E+02   -0.24622E-01   -0.64791E-04   564   0.535E-02    0.284E-02
DAV:  22    -0.494278622513E+02   -0.53679E-02   -0.56155E-04   536   0.286E-02    0.175E-02
DAV:  23    -0.494291069077E+02   -0.12447E-02   -0.23747E-04   544   0.252E-02    0.101E-02
DAV:  24    -0.494309916839E+02   -0.18848E-02   -0.89361E-05   528   0.140E-02    0.760E-03
DAV:  25    -0.494340659782E+02   -0.30743E-02   -0.91811E-05   520   0.110E-02    0.451E-03
DAV:  26    -0.494353192258E+02   -0.12532E-02   -0.16373E-05   500   0.751E-03    0.314E-03
DAV:  27    -0.494356509393E+02   -0.33171E-03   -0.64790E-06   496   0.444E-03    0.172E-03
DAV:  28    -0.494356948826E+02   -0.43943E-04   -0.26036E-06   496   0.303E-03
   1 F= -.49435695E+02 E0= -.49435695E+02  d E =-.494357E+02  mag=     1.0011
       N       E                     dE             d eps       ncg     rms          rms(c)
DAV:   1    -0.494511576709E+02   -0.15507E-01   -0.10924E+00   760   0.210E+00    0.705E-02
DAV:   2    -0.494516801425E+02   -0.52247E-03   -0.50724E-03   760   0.204E-01    0.511E-02
DAV:   3    -0.494516866794E+02   -0.65369E-05   -0.86024E-05   448   0.309E-02
   2 F= -.49451687E+02 E0= -.49451687E+02  d E =-.159918E-01  mag=     1.0007
       N       E                     dE             d eps       ncg     rms          rms(c)
DAV:   1    -0.494903885852E+02   -0.38708E-01   -0.98525E+00   732   0.632E+00    0.207E-01
DAV:   2    -0.494947857059E+02   -0.43971E-02   -0.45485E-02   760   0.611E-01    0.154E-01
DAV:   3    -0.494947133613E+02    0.72345E-04   -0.82893E-04   792   0.916E-02
   3 F= -.49494713E+02 E0= -.49494713E+02  d E =-.590185E-01  mag=     1.0004
       N       E                     dE             d eps       ncg     rms          rms(c)
DAV:   1    -0.495425896045E+02   -0.47804E-01   -0.39429E+01   736   0.127E+01    0.395E-01
DAV:   2    -0.495601509997E+02   -0.17561E-01   -0.18156E-01   740   0.122E+00    0.310E-01
DAV:   3    -0.495599177019E+02    0.23330E-03   -0.32461E-03   784   0.178E-01    0.209E-01
DAV:   4    -0.495595980662E+02    0.31964E-03   -0.15288E-03   776   0.871E-02    0.515E-02
DAV:   5    -0.495596020221E+02   -0.39559E-05   -0.56977E-05   480   0.231E-02
   4 F= -.49559602E+02 E0= -.49559602E+02  d E =-.123907E+00  mag=     1.0002
       N       E                     dE             d eps       ncg     rms          rms(c)
DAV:   1    -0.495458820175E+02    0.13716E-01   -0.15801E+02   720   0.254E+01    0.677E-01
DAV:   2    -0.496162862583E+02   -0.70404E-01   -0.72301E-01   748   0.245E+00    0.594E-01
DAV:   3    -0.496157658355E+02    0.52042E-03   -0.12454E-02   764   0.341E-01    0.425E-01
DAV:   4    -0.496141844894E+02    0.15813E-02   -0.49061E-03   760   0.155E-01    0.169E-01
DAV:   5    -0.496142435112E+02   -0.59022E-04   -0.86473E-04   776   0.691E-02
   5 F= -.49614244E+02 E0= -.49614244E+02  d E =-.178549E+00  mag=     1.0001
       N       E                     dE             d eps       ncg     rms          rms(c)
DAV:   1    -0.496322709830E+02   -0.18086E-01   -0.13940E+01   736   0.751E+00    0.235E-01
DAV:   2    -0.496386046914E+02   -0.63337E-02   -0.66648E-02   760   0.731E-01    0.189E-01
DAV:   3    -0.496385563210E+02    0.48370E-04   -0.12051E-03   784   0.101E-01    0.120E-01
DAV:   4    -0.496384875973E+02    0.68724E-04   -0.43159E-04   760   0.519E-02
   6 F= -.49638488E+02 E0= -.49638488E+02  d E =-.242441E-01  mag=     1.0000
       N       E                     dE             d eps       ncg     rms          rms(c)
DAV:   1    -0.496387817370E+02   -0.22542E-03   -0.28634E+01   728   0.108E+01    0.313E-01
DAV:   2    -0.496515966222E+02   -0.12815E-01   -0.13620E-01   752   0.104E+00    0.257E-01
DAV:   3    -0.496514897421E+02    0.10688E-03   -0.24187E-03   792   0.142E-01    0.168E-01
DAV:   4    -0.496512747385E+02    0.21500E-03   -0.84754E-04   760   0.730E-02    0.630E-02
DAV:   5    -0.496513001336E+02   -0.25395E-04   -0.95428E-05   504   0.278E-02
   7 F= -.49651300E+02 E0= -.49651300E+02  d E =-.370566E-01  mag=     1.0000
       N       E                     dE             d eps       ncg     rms          rms(c)
DAV:   1    -0.496580872725E+02   -0.68125E-02   -0.70231E+00   728   0.534E+00    0.915E-02
DAV:   2    -0.496613934150E+02   -0.33061E-02   -0.33199E-02   760   0.518E-01    0.918E-02
DAV:   3    -0.496613762866E+02    0.17128E-04   -0.51843E-04   760   0.650E-02
   8 F= -.49661376E+02 E0= -.49661376E+02  d E =-.100762E-01  mag=     1.0000
       N       E                     dE             d eps       ncg     rms          rms(c)
DAV:   1    -0.496534114430E+02    0.79820E-02   -0.63414E+01   720   0.161E+01    0.291E-01
DAV:   2    -0.496826917514E+02   -0.29280E-01   -0.29588E-01   752   0.155E+00    0.299E-01
DAV:   3    -0.496823655120E+02    0.32624E-03   -0.46043E-03   792   0.192E-01    0.228E-01
DAV:   4    -0.496814157511E+02    0.94976E-03   -0.14759E-03   756   0.835E-02    0.131E-01
DAV:   5    -0.496813274804E+02    0.88271E-04   -0.15116E-03   776   0.833E-02    0.479E-02
DAV:   6    -0.496813392582E+02   -0.11778E-04   -0.44667E-05   488   0.144E-02
   9 F= -.49681339E+02 E0= -.49681339E+02  d E =-.300391E-01  mag=     1.0000
       N       E                     dE             d eps       ncg     rms          rms(c)
DAV:   1    -0.495590779624E+02    0.12225E+00   -0.25510E+02   720   0.323E+01    0.631E-01
DAV:   2    -0.496794194817E+02   -0.12034E+00   -0.12126E+00   748   0.315E+00    0.566E-01
DAV:   3    -0.496781307215E+02    0.12888E-02   -0.19255E-02   780   0.399E-01    0.404E-01
DAV:   4    -0.496750743571E+02    0.30564E-02   -0.46367E-03   760   0.150E-01    0.234E-01
DAV:   5    -0.496746547115E+02    0.41965E-03   -0.41701E-03   776   0.138E-01    0.747E-02
DAV:   6    -0.496746917715E+02   -0.37060E-04   -0.11137E-04   504   0.231E-02
  10 F= -.49674692E+02 E0= -.49674692E+02  d E =-.233916E-01  mag=     1.0000
       N       E                     dE             d eps       ncg     rms          rms(c)
DAV:   1    -0.496486694208E+02    0.25985E-01   -0.82742E+01   720   0.184E+01    0.310E-01
DAV:   2    -0.496878932660E+02   -0.39224E-01   -0.39250E-01   760   0.179E+00    0.324E-01
DAV:   3    -0.496876407981E+02    0.25247E-03   -0.61675E-03   792   0.222E-01    0.245E-01
DAV:   4    -0.496866260603E+02    0.10147E-02   -0.12968E-03   784   0.794E-02    0.155E-01
DAV:   5    -0.496864610032E+02    0.16506E-03   -0.22651E-03   768   0.100E-01    0.533E-02
DAV:   6    -0.496864734871E+02   -0.12484E-04   -0.50976E-05   504   0.159E-02
  11 F= -.49686473E+02 E0= -.49686473E+02  d E =-.351734E-01  mag=     1.0000
       N       E                     dE             d eps       ncg     rms          rms(c)
DAV:   1    -0.496896944742E+02   -0.32335E-02   -0.14700E+01   736   0.772E+00    0.138E-01
DAV:   2    -0.496965667454E+02   -0.68723E-02   -0.69400E-02   768   0.748E-01    0.134E-01
DAV:   3    -0.496964831461E+02    0.83599E-04   -0.10911E-03   784   0.937E-02    0.102E-01
DAV:   4    -0.496962773845E+02    0.20576E-03   -0.28938E-04   536   0.377E-02    0.572E-02
DAV:   5    -0.496962517466E+02    0.25638E-04   -0.39702E-04   760   0.454E-02
  12 F= -.49696252E+02 E0= -.49696252E+02  d E =-.977826E-02  mag=     1.0000
       N       E                     dE             d eps       ncg     rms          rms(c)
DAV:   1    -0.496584929475E+02    0.37784E-01   -0.97506E+01   720   0.199E+01    0.392E-01
DAV:   2    -0.497046979557E+02   -0.46205E-01   -0.46744E-01   752   0.194E+00    0.351E-01
DAV:   3    -0.497041141598E+02    0.58380E-03   -0.74769E-03   792   0.250E-01    0.252E-01
DAV:   4    -0.497028416683E+02    0.12725E-02   -0.21239E-03   768   0.993E-02    0.132E-01
DAV:   5    -0.497027012939E+02    0.14037E-03   -0.14803E-03   792   0.847E-02    0.442E-02
DAV:   6    -0.497026992835E+02    0.20104E-05   -0.66135E-05   480   0.176E-02
  13 F= -.49702699E+02 E0= -.49702699E+02  d E =-.162258E-01  mag=     1.0000
       N       E                     dE             d eps       ncg     rms          rms(c)
DAV:   1    -0.497084133759E+02   -0.57121E-02   -0.10047E+01   728   0.639E+00    0.173E-01
DAV:   2    -0.497129696100E+02   -0.45562E-02   -0.47732E-02   768   0.612E-01    0.136E-01
DAV:   3    -0.497129380558E+02    0.31554E-04   -0.82002E-04   792   0.770E-02
  14 F= -.49712938E+02 E0= -.49712938E+02  d E =-.102388E-01  mag=     1.0000
       N       E                     dE             d eps       ncg     rms          rms(c)
DAV:   1    -0.497132280919E+02   -0.25848E-03   -0.24951E+00   752   0.319E+00    0.109E-01
DAV:   2    -0.497143513798E+02   -0.11233E-02   -0.11799E-02   792   0.301E-01    0.792E-02
DAV:   3    -0.497143482880E+02    0.30919E-05   -0.19459E-04   496   0.374E-02
  15 F= -.49714348E+02 E0= -.49714348E+02  d E =-.116490E-01  mag=     1.0000
       N       E                     dE             d eps       ncg     rms          rms(c)
DAV:   1    -0.497174934746E+02   -0.31421E-02   -0.11098E+01   748   0.671E+00    0.115E-01
DAV:   2    -0.497226535742E+02   -0.51601E-02   -0.52049E-02   768   0.647E-01    0.113E-01
DAV:   3    -0.497226076219E+02    0.45952E-04   -0.79778E-04   800   0.796E-02
  16 F= -.49722608E+02 E0= -.49722608E+02  d E =-.825933E-02  mag=     1.0000
       N       E                     dE             d eps       ncg     rms          rms(c)
DAV:   1    -0.496846748715E+02    0.37979E-01   -0.10010E+02   720   0.202E+01    0.386E-01
DAV:   2    -0.497308429451E+02   -0.46168E-01   -0.46912E-01   760   0.195E+00    0.365E-01
DAV:   3    -0.497301054160E+02    0.73753E-03   -0.72233E-03   800   0.239E-01    0.273E-01
DAV:   4    -0.497284989176E+02    0.16065E-02   -0.27769E-03   760   0.115E-01    0.135E-01
DAV:   5    -0.497283785243E+02    0.12039E-03   -0.16965E-03   784   0.890E-02    0.496E-02
DAV:   6    -0.497284045933E+02   -0.26069E-04   -0.76743E-05   496   0.189E-02
  17 F= -.49728405E+02 E0= -.49728405E+02  d E =-.140563E-01  mag=     1.0000
       N       E                     dE             d eps       ncg     rms          rms(c)
DAV:   1    -0.497264786284E+02    0.18999E-02   -0.69026E+00   744   0.529E+00    0.881E-02
DAV:   2    -0.497297256072E+02   -0.32470E-02   -0.32201E-02   784   0.510E-01    0.913E-02
DAV:   3    -0.497297129276E+02    0.12680E-04   -0.49984E-04   776   0.630E-02
  18 F= -.49729713E+02 E0= -.49729713E+02  d E =-.153646E-01  mag=     1.0000
       N       E                     dE             d eps       ncg     rms          rms(c)
DAV:   1    -0.497275800162E+02    0.21456E-02   -0.20262E+01   720   0.906E+00    0.171E-01
DAV:   2    -0.497372870936E+02   -0.97071E-02   -0.97011E-02   768   0.874E-01    0.138E-01
DAV:   3    -0.497371544687E+02    0.13262E-03   -0.14546E-03   784   0.107E-01    0.104E-01
DAV:   4    -0.497369060870E+02    0.24838E-03   -0.45284E-04   768   0.452E-02    0.468E-02
DAV:   5    -0.497368946403E+02    0.11447E-04   -0.21841E-04   504   0.334E-02
  19 F= -.49736895E+02 E0= -.49736895E+02  d E =-.718171E-02  mag=     1.0000
       N       E                     dE             d eps       ncg     rms          rms(c)
DAV:   1    -0.497211833604E+02    0.15723E-01   -0.38346E+01   720   0.125E+01    0.242E-01
DAV:   2    -0.497391987437E+02   -0.18015E-01   -0.18166E-01   760   0.120E+00    0.205E-01
DAV:   3    -0.497388641048E+02    0.33464E-03   -0.26998E-03   792   0.143E-01    0.154E-01
DAV:   4    -0.497382813289E+02    0.58278E-03   -0.12252E-03   756   0.736E-02    0.612E-02
DAV:   5    -0.497382708601E+02    0.10469E-04   -0.37803E-04   712   0.432E-02
  20 F= -.49738271E+02 E0= -.49738271E+02  d E =-.855793E-02  mag=     1.0000
       N       E                     dE             d eps       ncg     rms          rms(c)
DAV:   1    -0.497327935528E+02    0.54878E-02   -0.30655E+01   720   0.112E+01    0.326E-01
DAV:   2    -0.497464587875E+02   -0.13665E-01   -0.14521E-01   748   0.106E+00    0.250E-01
DAV:   3    -0.497462968911E+02    0.16190E-03   -0.25217E-03   784   0.131E-01    0.161E-01
DAV:   4    -0.497461475393E+02    0.14935E-03   -0.95649E-04   776   0.765E-02    0.479E-02
DAV:   5    -0.497461786320E+02   -0.31093E-04   -0.50445E-05   504   0.254E-02
  21 F= -.49746179E+02 E0= -.49746179E+02  d E =-.790777E-02  mag=     1.0000
       N       E                     dE             d eps       ncg     rms          rms(c)
DAV:   1    -0.497468842522E+02   -0.73671E-03   -0.26778E+00   744   0.330E+00    0.961E-02
DAV:   2    -0.497480921771E+02   -0.12079E-02   -0.12553E-02   776   0.311E-01    0.740E-02
DAV:   3    -0.497480806343E+02    0.11543E-04   -0.20580E-04   520   0.389E-02
  22 F= -.49748081E+02 E0= -.49748081E+02  d E =-.980977E-02  mag=     1.0000
       N       E                     dE             d eps       ncg     rms          rms(c)
DAV:   1    -0.497496795404E+02   -0.15874E-02   -0.10168E+01   748   0.641E+00    0.110E-01
DAV:   2    -0.497544423965E+02   -0.47629E-02   -0.47968E-02   764   0.620E-01    0.110E-01
DAV:   3    -0.497543820164E+02    0.60380E-04   -0.73292E-04   784   0.757E-02
  23 F= -.49754382E+02 E0= -.49754382E+02  d E =-.630138E-02  mag=     1.0000
       N       E                     dE             d eps       ncg     rms          rms(c)
DAV:   1    -0.497487642547E+02    0.56781E-02   -0.21563E+01   724   0.934E+00    0.178E-01
DAV:   2    -0.497585661247E+02   -0.98019E-02   -0.99601E-02   752   0.895E-01    0.183E-01
DAV:   3    -0.497583956177E+02    0.17051E-03   -0.14919E-03   792   0.106E-01    0.145E-01
DAV:   4    -0.497579708314E+02    0.42479E-03   -0.81720E-04   752   0.608E-02    0.710E-02
DAV:   5    -0.497579628519E+02    0.79795E-05   -0.47176E-04   784   0.465E-02
  24 F= -.49757963E+02 E0= -.49757963E+02  d E =-.988222E-02  mag=     1.0000
       N       E                     dE             d eps       ncg     rms          rms(c)
DAV:   1    -0.497581929814E+02   -0.22215E-03   -0.10426E+01   720   0.647E+00    0.117E-01
DAV:   2    -0.497631121123E+02   -0.49191E-02   -0.49716E-02   748   0.626E-01    0.109E-01
DAV:   3    -0.497630511624E+02    0.60950E-04   -0.75826E-04   808   0.766E-02
  25 F= -.49763051E+02 E0= -.49763051E+02  d E =-.508831E-02  mag=     1.0000
       N       E                     dE             d eps       ncg     rms          rms(c)
DAV:   1    -0.497559613480E+02    0.71508E-02   -0.22544E+01   724   0.951E+00    0.188E-01
DAV:   2    -0.497662883051E+02   -0.10327E-01   -0.10528E-01   776   0.915E-01    0.182E-01
DAV:   3    -0.497660679175E+02    0.22039E-03   -0.15954E-03   800   0.110E-01    0.140E-01
DAV:   4    -0.497655950993E+02    0.47282E-03   -0.93166E-04   764   0.645E-02    0.593E-02
DAV:   5    -0.497655633595E+02    0.31740E-04   -0.32619E-04   712   0.396E-02
  26 F= -.49765563E+02 E0= -.49765563E+02  d E =-.760051E-02  mag=     1.0000
       N       E                     dE             d eps       ncg     rms          rms(c)
DAV:   1    -0.497668685094E+02   -0.12734E-02   -0.36634E+00   736   0.381E+00    0.567E-02
DAV:   2    -0.497686308621E+02   -0.17624E-02   -0.17313E-02   768   0.367E-01    0.597E-02
DAV:   3    -0.497686176627E+02    0.13199E-04   -0.22810E-04   536   0.426E-02
  27 F= -.49768618E+02 E0= -.49768618E+02  d E =-.305430E-02  mag=     1.0000
       N       E                     dE             d eps       ncg     rms          rms(c)
DAV:   1    -0.497649867893E+02    0.36441E-02   -0.24890E+01   720   0.994E+00    0.151E-01
DAV:   2    -0.497765605722E+02   -0.11574E-01   -0.11538E-01   740   0.954E-01    0.174E-01
DAV:   3    -0.497764116933E+02    0.14888E-03   -0.16516E-03   792   0.109E-01    0.147E-01
DAV:   4    -0.497759435459E+02    0.46815E-03   -0.45401E-04   736   0.448E-02    0.933E-02
DAV:   5    -0.497757983434E+02    0.14520E-03   -0.11316E-03   760   0.692E-02    0.355E-02
DAV:   6    -0.497758291089E+02   -0.30766E-04   -0.14613E-05   500   0.918E-03
  28 F= -.49775829E+02 E0= -.49775829E+02  d E =-.102657E-01  mag=     1.0000
       N       E                     dE             d eps       ncg     rms          rms(c)
DAV:   1    -0.497426544520E+02    0.33144E-01   -0.99949E+01   720   0.199E+01    0.319E-01
DAV:   2    -0.497910835918E+02   -0.48429E-01   -0.47674E-01   744   0.194E+00    0.329E-01
DAV:   3    -0.497905000667E+02    0.58353E-03   -0.70180E-03   784   0.229E-01    0.260E-01
DAV:   4    -0.497890248743E+02    0.14752E-02   -0.14796E-03   760   0.817E-02    0.165E-01
DAV:   5    -0.497884751700E+02    0.54970E-03   -0.28446E-03   768   0.110E-01    0.510E-02
DAV:   6    -0.497885333843E+02   -0.58214E-04   -0.32366E-05   496   0.146E-02
  29 F= -.49788533E+02 E0= -.49788533E+02  d E =-.229700E-01  mag=     1.0000
       N       E                     dE             d eps       ncg     rms          rms(c)
DAV:   1    -0.496071368423E+02    0.18134E+00   -0.40866E+02   720   0.407E+01    0.832E-01
DAV:   2    -0.498110183137E+02   -0.20388E+00   -0.20330E+00   756   0.405E+00    0.698E-01
DAV:   3    -0.498080858901E+02    0.29324E-02   -0.31509E-02   792   0.498E-01    0.503E-01
DAV:   4    -0.498029167766E+02    0.51691E-02   -0.61324E-03   768   0.168E-01    0.311E-01
DAV:   5    -0.498012817702E+02    0.16350E-02   -0.64272E-03   768   0.167E-01    0.916E-02
DAV:   6    -0.498014498918E+02   -0.16812E-03   -0.11071E-04   520   0.273E-02    0.526E-02
DAV:   7    -0.498016603382E+02   -0.21045E-03   -0.36313E-05   512   0.140E-02    0.229E-02
DAV:   8    -0.498018515489E+02   -0.19121E-03   -0.19529E-05   520   0.899E-03    0.732E-03
DAV:   9    -0.498021048815E+02   -0.25333E-03   -0.11541E-05   504   0.624E-03    0.478E-03
DAV:  10    -0.498022369810E+02   -0.13210E-03   -0.34977E-06   512   0.267E-03    0.216E-03
DAV:  11    -0.498023333759E+02   -0.96395E-04   -0.20675E-06   480   0.205E-03
  30 F= -.49802333E+02 E0= -.49802333E+02  d E =-.367700E-01  mag=     1.0000
       N       E                     dE             d eps       ncg     rms          rms(c)
DAV:   1    -0.498029800029E+02   -0.74302E-03   -0.15043E+01   748   0.773E+00    0.116E-01
DAV:   2    -0.498100945208E+02   -0.71145E-02   -0.70251E-02   752   0.742E-01    0.125E-01
DAV:   3    -0.498100222835E+02    0.72237E-04   -0.10075E-03   800   0.851E-02    0.102E-01
DAV:   4    -0.498097976601E+02    0.22462E-03   -0.22946E-04   540   0.335E-02    0.643E-02
DAV:   5    -0.498097474188E+02    0.50241E-04   -0.57134E-04   784   0.512E-02
  31 F= -.49809747E+02 E0= -.49809747E+02  d E =-.741404E-02  mag=     1.0000
       N       E                     dE             d eps       ncg     rms          rms(c)
DAV:   1    -0.497588132388E+02    0.50984E-01   -0.13664E+02   720   0.234E+01    0.416E-01
DAV:   2    -0.498249098538E+02   -0.66097E-01   -0.65471E-01   760   0.227E+00    0.383E-01
DAV:   3    -0.498240956502E+02    0.81420E-03   -0.96596E-03   792   0.267E-01    0.289E-01
DAV:   4    -0.498221981050E+02    0.18975E-02   -0.25288E-03   760   0.108E-01    0.163E-01
DAV:   5    -0.498217904046E+02    0.40770E-03   -0.24640E-03   760   0.104E-01    0.520E-02
DAV:   6    -0.498218381277E+02   -0.47723E-04   -0.41445E-05   472   0.157E-02
  32 F= -.49821838E+02 E0= -.49821838E+02  d E =-.195048E-01  mag=     1.0000
       N       E                     dE             d eps       ncg     rms          rms(c)
DAV:   1    -0.498077520964E+02    0.14038E-01   -0.32214E+01   720   0.113E+01    0.184E-01
DAV:   2    -0.498230053207E+02   -0.15253E-01   -0.15104E-01   736   0.109E+00    0.187E-01
DAV:   3    -0.498228432225E+02    0.16210E-03   -0.21798E-03   796   0.126E-01    0.147E-01
DAV:   4    -0.498223720523E+02    0.47117E-03   -0.60621E-04   740   0.527E-02    0.855E-02
DAV:   5    -0.498223079542E+02    0.64098E-04   -0.79202E-04   760   0.587E-02
  33 F= -.49822308E+02 E0= -.49822308E+02  d E =-.199746E-01  mag=     1.0000
       N       E                     dE             d eps       ncg     rms          rms(c)
DAV:   1    -0.498283412007E+02   -0.59691E-02   -0.51195E+00   720   0.455E+00    0.937E-02
DAV:   2    -0.498307893058E+02   -0.24481E-02   -0.24261E-02   764   0.437E-01    0.746E-02
DAV:   3    -0.498307854913E+02    0.38145E-05   -0.35567E-04   680   0.534E-02
  34 F= -.49830785E+02 E0= -.49830785E+02  d E =-.847754E-02  mag=     1.0000
       N       E                     dE             d eps       ncg     rms          rms(c)
DAV:   1    -0.498272581973E+02    0.35311E-02   -0.46229E+01   720   0.137E+01    0.297E-01
DAV:   2    -0.498488751362E+02   -0.21617E-01   -0.21725E-01   760   0.131E+00    0.238E-01
DAV:   3    -0.498485106252E+02    0.36451E-03   -0.33021E-03   776   0.159E-01    0.172E-01
DAV:   4    -0.498479781985E+02    0.53243E-03   -0.16735E-03   756   0.866E-02    0.600E-02
DAV:   5    -0.498480404010E+02   -0.62203E-04   -0.26197E-04   560   0.385E-02
  35 F= -.49848040E+02 E0= -.49848040E+02  d E =-.257324E-01  mag=     1.0000
       N       E                     dE             d eps       ncg     rms          rms(c)
DAV:   1    -0.497604795333E+02    0.87499E-01   -0.18567E+02   720   0.275E+01    0.652E-01
DAV:   2    -0.498492511717E+02   -0.88772E-01   -0.89172E-01   756   0.266E+00    0.454E-01
DAV:   3    -0.498477289988E+02    0.15222E-02   -0.13812E-02   776   0.327E-01    0.318E-01
DAV:   4    -0.498457328864E+02    0.19961E-02   -0.57210E-03   760   0.161E-01    0.110E-01
DAV:   5    -0.498458347295E+02   -0.10184E-03   -0.85672E-04   784   0.670E-02    0.425E-02
DAV:   6    -0.498458642499E+02   -0.29520E-04   -0.87807E-05   488   0.207E-02
  36 F= -.49845864E+02 E0= -.49845864E+02  d E =-.235563E-01  mag=     1.0000
       N       E                     dE             d eps       ncg     rms          rms(c)
DAV:   1    -0.498313657179E+02    0.14469E-01   -0.48608E+01   728   0.140E+01    0.274E-01
DAV:   2    -0.498541060486E+02   -0.22740E-01   -0.22603E-01   768   0.134E+00    0.253E-01
DAV:   3    -0.498538504629E+02    0.25559E-03   -0.33984E-03   792   0.163E-01    0.193E-01
DAV:   4    -0.498532297912E+02    0.62067E-03   -0.13476E-03   760   0.782E-02    0.909E-02
DAV:   5    -0.498532718830E+02   -0.42092E-04   -0.68289E-04   792   0.569E-02
  37 F= -.49853272E+02 E0= -.49853272E+02  d E =-.309639E-01  mag=     1.0000
       N       E                     dE             d eps       ncg     rms          rms(c)
DAV:   1    -0.498574554568E+02   -0.42257E-02   -0.13345E+01   732   0.734E+00    0.139E-01
DAV:   2    -0.498637141937E+02   -0.62587E-02   -0.62716E-02   776   0.705E-01    0.129E-01
DAV:   3    -0.498636282852E+02    0.85908E-04   -0.95292E-04   792   0.857E-02
  38 F= -.49863628E+02 E0= -.49863628E+02  d E =-.103564E-01  mag=     1.0000
       N       E                     dE             d eps       ncg     rms          rms(c)
DAV:   1    -0.498447567955E+02    0.18957E-01   -0.57742E+01   728   0.153E+01    0.325E-01
DAV:   2    -0.498717388564E+02   -0.26982E-01   -0.27265E-01   784   0.147E+00    0.283E-01
DAV:   3    -0.498712441034E+02    0.49475E-03   -0.41643E-03   792   0.178E-01    0.205E-01
DAV:   4    -0.498704162586E+02    0.82784E-03   -0.21615E-03   768   0.100E-01    0.836E-02
DAV:   5    -0.498704606408E+02   -0.44382E-04   -0.52126E-04   752   0.522E-02
  39 F= -.49870461E+02 E0= -.49870461E+02  d E =-.171888E-01  mag=     1.0000
       N       E                     dE             d eps       ncg     rms          rms(c)
DAV:   1    -0.498709052291E+02   -0.48897E-03   -0.13943E+01   720   0.749E+00    0.131E-01
DAV:   2    -0.498775948924E+02   -0.66897E-02   -0.66868E-02   768   0.722E-01    0.128E-01
DAV:   3    -0.498775416222E+02    0.53270E-04   -0.97632E-04   792   0.838E-02
  40 F= -.49877542E+02 E0= -.49877542E+02  d E =-.708098E-02  mag=     1.0000
       N       E                     dE             d eps       ncg     rms          rms(c)
DAV:   1    -0.498577028454E+02    0.19892E-01   -0.55095E+01   720   0.149E+01    0.274E-01
DAV:   2    -0.498836185696E+02   -0.25916E-01   -0.26024E-01   768   0.143E+00    0.281E-01
DAV:   3    -0.498832796474E+02    0.33892E-03   -0.37915E-03   816   0.164E-01    0.222E-01
DAV:   4    -0.498822883924E+02    0.99125E-03   -0.17908E-03   756   0.894E-02    0.117E-01
DAV:   5    -0.498822558434E+02    0.32549E-04   -0.11570E-03   792   0.731E-02    0.477E-02
DAV:   6    -0.498822909414E+02   -0.35098E-04   -0.29738E-05   504   0.126E-02
  41 F= -.49882291E+02 E0= -.49882291E+02  d E =-.118303E-01  mag=     1.0000
       N       E                     dE             d eps       ncg     rms          rms(c)
DAV:   1    -0.498802420175E+02    0.20138E-02   -0.24813E+01   720   0.999E+00    0.158E-01
DAV:   2    -0.498920260685E+02   -0.11784E-01   -0.11606E-01   776   0.953E-01    0.158E-01
DAV:   3    -0.498919007634E+02    0.12531E-03   -0.16432E-03   792   0.108E-01    0.127E-01
DAV:   4    -0.498915360828E+02    0.36468E-03   -0.55124E-04   760   0.499E-02    0.682E-02
DAV:   5    -0.498915224082E+02    0.13675E-04   -0.55672E-04   776   0.494E-02
  42 F= -.49891522E+02 E0= -.49891522E+02  d E =-.923147E-02  mag=     1.0000
       N       E                     dE             d eps       ncg     rms          rms(c)
DAV:   1    -0.498168090732E+02    0.74727E-01   -0.17712E+02   720   0.268E+01    0.465E-01
DAV:   2    -0.499018270626E+02   -0.85018E-01   -0.84190E-01   756   0.257E+00    0.429E-01
DAV:   3    -0.499007526553E+02    0.10744E-02   -0.12253E-02   808   0.297E-01    0.331E-01
DAV:   4    -0.498982245540E+02    0.25281E-02   -0.35694E-03   748   0.127E-01    0.182E-01
DAV:   5    -0.498977901144E+02    0.43444E-03   -0.31147E-03   776   0.117E-01    0.596E-02
DAV:   6    -0.498978679890E+02   -0.77875E-04   -0.43791E-05   488   0.174E-02
  43 F= -.49897868E+02 E0= -.49897868E+02  d E =-.155770E-01  mag=     1.0000
       N       E                     dE             d eps       ncg     rms          rms(c)
DAV:   1    -0.498973740411E+02    0.41607E-03   -0.11607E+01   728   0.681E+00    0.100E-01
DAV:   2    -0.499028439993E+02   -0.54700E-02   -0.53935E-02   768   0.648E-01    0.105E-01
DAV:   3    -0.499028063430E+02    0.37656E-04   -0.75852E-04   816   0.729E-02
  44 F= -.49902806E+02 E0= -.49902806E+02  d E =-.493835E-02  mag=     1.0000
       N       E                     dE             d eps       ncg     rms          rms(c)
DAV:   1    -0.498649403458E+02    0.37904E-01   -0.10536E+02   720   0.206E+01    0.333E-01
DAV:   2    -0.499140141706E+02   -0.49074E-01   -0.49025E-01   756   0.197E+00    0.348E-01
DAV:   3    -0.499132895113E+02    0.72466E-03   -0.70623E-03   808   0.223E-01    0.280E-01
DAV:   4    -0.499114472876E+02    0.18422E-02   -0.24330E-03   752   0.103E-01    0.160E-01
DAV:   5    -0.499111292000E+02    0.31809E-03   -0.26522E-03   760   0.107E-01    0.578E-02
DAV:   6    -0.499112217352E+02   -0.92535E-04   -0.33818E-05   480   0.149E-02
  45 F= -.49911222E+02 E0= -.49911222E+02  d E =-.133537E-01  mag=     1.0000
       N       E                     dE             d eps       ncg     rms          rms(c)
DAV:   1    -0.497005515284E+02    0.21058E+00   -0.43051E+02   720   0.419E+01    0.846E-01
DAV:   2    -0.499140743902E+02   -0.21352E+00   -0.21175E+00   756   0.411E+00    0.693E-01
DAV:   3    -0.499112972448E+02    0.27771E-02   -0.32460E-02   800   0.493E-01    0.499E-01
DAV:   4    -0.499062235393E+02    0.50737E-02   -0.66917E-03   752   0.177E-01    0.302E-01
DAV:   5    -0.499049368768E+02    0.12867E-02   -0.61119E-03   756   0.163E-01    0.923E-02
DAV:   6    -0.499051361850E+02   -0.19931E-03   -0.10061E-04   504   0.268E-02    0.574E-02
DAV:   7    -0.499053828194E+02   -0.24663E-03   -0.40777E-05   488   0.150E-02    0.234E-02
DAV:   8    -0.499055763738E+02   -0.19355E-03   -0.20400E-05   512   0.935E-03    0.746E-03
DAV:   9    -0.499058115642E+02   -0.23519E-03   -0.12675E-05   488   0.631E-03    0.433E-03
DAV:  10    -0.499059595713E+02   -0.14801E-03   -0.45256E-06   512   0.284E-03    0.230E-03
DAV:  11    -0.499060453668E+02   -0.85796E-04   -0.20617E-06   496   0.198E-03
  46 F= -.49906045E+02 E0= -.49906045E+02  d E =-.817738E-02  mag=     1.0000
       N       E                     dE             d eps       ncg     rms          rms(c)
DAV:   1    -0.499196201608E+02   -0.13661E-01   -0.19685E+01   740   0.895E+00    0.230E-01
DAV:   2    -0.499287638155E+02   -0.91437E-02   -0.92693E-02   776   0.848E-01    0.170E-01
DAV:   3    -0.499286389883E+02    0.12483E-03   -0.14837E-03   776   0.102E-01    0.117E-01
DAV:   4    -0.499285189539E+02    0.12003E-03   -0.75245E-04   752   0.602E-02    0.321E-02
DAV:   5    -0.499285532798E+02   -0.34326E-04   -0.31603E-05   512   0.189E-02
  47 F= -.49928553E+02 E0= -.49928553E+02  d E =-.225079E-01  mag=     1.0000
       N       E                     dE             d eps       ncg     rms          rms(c)
DAV:   1    -0.499240054053E+02    0.45135E-02   -0.30234E+01   720   0.111E+01    0.299E-01
DAV:   2    -0.499380631390E+02   -0.14058E-01   -0.14306E-01   756   0.105E+00    0.214E-01
DAV:   3    -0.499378484054E+02    0.21473E-03   -0.23096E-03   776   0.128E-01    0.144E-01
DAV:   4    -0.499376403307E+02    0.20807E-03   -0.11230E-03   760   0.740E-02    0.369E-02
DAV:   5    -0.499376692925E+02   -0.28962E-04   -0.37425E-05   496   0.220E-02
  48 F= -.49937669E+02 E0= -.49937669E+02  d E =-.316239E-01  mag=     1.0000
       N       E                     dE             d eps       ncg     rms          rms(c)
DAV:   1    -0.499380654000E+02   -0.42507E-03   -0.29242E+01   728   0.109E+01    0.237E-01
DAV:   2    -0.499517367571E+02   -0.13671E-01   -0.13812E-01   768   0.104E+00    0.190E-01
DAV:   3    -0.499515432915E+02    0.19347E-03   -0.21281E-03   800   0.126E-01    0.137E-01
DAV:   4    -0.499512021677E+02    0.34112E-03   -0.97418E-04   768   0.668E-02    0.501E-02
DAV:   5    -0.499512013054E+02    0.86230E-06   -0.15169E-04   504   0.315E-02
  49 F= -.49951201E+02 E0= -.49951201E+02  d E =-.135320E-01  mag=     1.0000
       N       E                     dE             d eps       ncg     rms          rms(c)
DAV:   1    -0.499401135062E+02    0.11089E-01   -0.24291E+01   732   0.993E+00    0.223E-01
DAV:   2    -0.499514040464E+02   -0.11291E-01   -0.11476E-01   760   0.948E-01    0.175E-01
DAV:   3    -0.499512237686E+02    0.18028E-03   -0.17702E-03   792   0.115E-01    0.125E-01
DAV:   4    -0.499509304058E+02    0.29336E-03   -0.82201E-04   768   0.615E-02    0.433E-02
DAV:   5    -0.499509396315E+02   -0.92256E-05   -0.10316E-04   496   0.268E-02
  50 F= -.49950940E+02 E0= -.49950940E+02  d E =-.132703E-01  mag=     1.0000
       N       E                     dE             d eps       ncg     rms          rms(c)
DAV:   1    -0.499520547010E+02   -0.11243E-02   -0.16976E+01   732   0.830E+00    0.215E-01
DAV:   2    -0.499597061644E+02   -0.76515E-02   -0.78453E-02   752   0.778E-01    0.158E-01
DAV:   3    -0.499596464086E+02    0.59756E-04   -0.12849E-03   792   0.985E-02    0.110E-01
DAV:   4    -0.499595802418E+02    0.66167E-04   -0.58229E-04   776   0.536E-02
  51 F= -.49959580E+02 E0= -.49959580E+02  d E =-.864061E-02  mag=     1.0000
       N       E                     dE             d eps       ncg     rms          rms(c)
DAV:   1    -0.499595709861E+02    0.75423E-04   -0.40244E-02   784   0.405E-01    0.188E-02
DAV:   2    -0.499595960951E+02   -0.25109E-04   -0.21134E-04   512   0.410E-02
  52 F= -.49959596E+02 E0= -.49959596E+02  d E =-.865646E-02  mag=     1.0000
       N       E                     dE             d eps       ncg     rms          rms(c)
DAV:   1    -0.499597909895E+02   -0.22000E-03   -0.10559E+01   744   0.653E+00    0.145E-01
DAV:   2    -0.499646446059E+02   -0.48536E-02   -0.49378E-02   768   0.628E-01    0.130E-01
DAV:   3    -0.499645666849E+02    0.77921E-04   -0.78086E-04   816   0.774E-02
  53 F= -.49964567E+02 E0= -.49964567E+02  d E =-.497059E-02  mag=     1.0000
       N       E                     dE             d eps       ncg     rms          rms(c)
DAV:   1    -0.499627012032E+02    0.19434E-02   -0.60778E+00   752   0.496E+00    0.134E-01
DAV:   2    -0.499654279353E+02   -0.27267E-02   -0.28043E-02   776   0.472E-01    0.114E-01
DAV:   3    -0.499653518156E+02    0.76120E-04   -0.44941E-04   792   0.572E-02
  54 F= -.49965352E+02 E0= -.49965352E+02  d E =-.575572E-02  mag=     1.0000
       N       E                     dE             d eps       ncg     rms          rms(c)
DAV:   1    -0.499644882137E+02    0.93972E-03   -0.13370E+01   736   0.726E+00    0.115E-01
DAV:   2    -0.499705918326E+02   -0.61036E-02   -0.60917E-02   744   0.688E-01    0.121E-01
DAV:   3    -0.499705175124E+02    0.74320E-04   -0.87697E-04   808   0.779E-02
  55 F= -.49970518E+02 E0= -.49970518E+02  d E =-.516570E-02  mag=     1.0000
       N       E                     dE             d eps       ncg     rms          rms(c)
DAV:   1    -0.499232289098E+02    0.47363E-01   -0.12191E+02   720   0.220E+01    0.416E-01
DAV:   2    -0.499799345608E+02   -0.56706E-01   -0.57288E-01   752   0.213E+00    0.395E-01
DAV:   3    -0.499788267767E+02    0.11078E-02   -0.86700E-03   800   0.252E-01    0.297E-01
DAV:   4    -0.499767836969E+02    0.20431E-02   -0.33043E-03   748   0.118E-01    0.157E-01
DAV:   5    -0.499765422825E+02    0.24141E-03   -0.20119E-03   760   0.949E-02    0.542E-02
DAV:   6    -0.499766002398E+02   -0.57957E-04   -0.38413E-05   504   0.151E-02
  56 F= -.49976600E+02 E0= -.49976600E+02  d E =-.112484E-01  mag=     1.0000
       N       E                     dE             d eps       ncg     rms          rms(c)
DAV:   1    -0.499764442626E+02    0.98020E-04   -0.10692E+01   724   0.653E+00    0.118E-01
DAV:   2    -0.499813828074E+02   -0.49385E-02   -0.48833E-02   760   0.617E-01    0.110E-01
DAV:   3    -0.499813256310E+02    0.57176E-04   -0.70326E-04   816   0.705E-02
  57 F= -.49981326E+02 E0= -.49981326E+02  d E =-.472539E-02  mag=     1.0000
       N       E                     dE             d eps       ncg     rms          rms(c)
DAV:   1    -0.499681731217E+02    0.13210E-01   -0.36906E+01   720   0.121E+01    0.246E-01
DAV:   2    -0.499850272201E+02   -0.16854E-01   -0.16802E-01   776   0.115E+00    0.224E-01
DAV:   3    -0.499846838205E+02    0.34340E-03   -0.24678E-03   816   0.132E-01    0.169E-01
DAV:   4    -0.499840858549E+02    0.59797E-03   -0.17353E-03   752   0.860E-02    0.620E-02
DAV:   5    -0.499841384942E+02   -0.52639E-04   -0.29957E-04   648   0.406E-02
  58 F= -.49984138E+02 E0= -.49984138E+02  d E =-.753825E-02  mag=     1.0000
       N       E                     dE             d eps       ncg     rms          rms(c)
DAV:   1    -0.499816215421E+02    0.24643E-02   -0.15104E+01   724   0.779E+00    0.130E-01
DAV:   2    -0.499886453355E+02   -0.70238E-02   -0.69377E-02   760   0.738E-01    0.128E-01
DAV:   3    -0.499885614841E+02    0.83851E-04   -0.10043E-03   816   0.852E-02    0.100E-01
DAV:   4    -0.499883384563E+02    0.22303E-03   -0.38085E-04   704   0.413E-02    0.522E-02
DAV:   5    -0.499883319430E+02    0.65134E-05   -0.32267E-04   696   0.391E-02
  59 F= -.49988332E+02 E0= -.49988332E+02  d E =-.419345E-02  mag=     1.0000
       N       E                     dE             d eps       ncg     rms          rms(c)
DAV:   1    -0.499653856815E+02    0.22953E-01   -0.57808E+01   720   0.153E+01    0.270E-01
DAV:   2    -0.499920184540E+02   -0.26633E-01   -0.26653E-01   760   0.145E+00    0.253E-01
DAV:   3    -0.499915724676E+02    0.44599E-03   -0.39167E-03   824   0.169E-01    0.194E-01
DAV:   4    -0.499906158134E+02    0.95665E-03   -0.15898E-03   752   0.833E-02    0.948E-02
DAV:   5    -0.499905208477E+02    0.94966E-04   -0.93686E-04   784   0.654E-02
  60 F= -.49990521E+02 E0= -.49990521E+02  d E =-.638235E-02  mag=     1.0000
       N       E                     dE             d eps       ncg     rms          rms(c)
DAV:   1    -0.499881293387E+02    0.24865E-02   -0.13289E+01   736   0.729E+00    0.112E-01
DAV:   2    -0.499942100989E+02   -0.60808E-02   -0.60446E-02   760   0.689E-01    0.121E-01
DAV:   3    -0.499941505247E+02    0.59574E-04   -0.87262E-04   800   0.792E-02
  61 F= -.49994151E+02 E0= -.49994151E+02  d E =-.362968E-02  mag=     1.0000
       N       E                     dE             d eps       ncg     rms          rms(c)
DAV:   1    -0.499481230261E+02    0.46087E-01   -0.12073E+02   720   0.221E+01    0.380E-01
DAV:   2    -0.500025782083E+02   -0.54455E-01   -0.54813E-01   756   0.209E+00    0.398E-01
DAV:   3    -0.500015476643E+02    0.10305E-02   -0.80320E-03   816   0.241E-01    0.314E-01
DAV:   4    -0.499991547803E+02    0.23929E-02   -0.34487E-03   740   0.122E-01    0.175E-01
DAV:   5    -0.499988071495E+02    0.34763E-03   -0.28707E-03   752   0.113E-01    0.669E-02
DAV:   6    -0.499988587122E+02   -0.51563E-04   -0.43818E-05   500   0.163E-02
  62 F= -.49998859E+02 E0= -.49998859E+02  d E =-.833786E-02  mag=     1.0000
       N       E                     dE             d eps       ncg     rms          rms(c)
DAV:   1    -0.499992611898E+02   -0.45404E-03   -0.11649E+01   732   0.685E+00    0.118E-01
DAV:   2    -0.500046281070E+02   -0.53669E-02   -0.53495E-02   752   0.649E-01    0.116E-01
DAV:   3    -0.500045708632E+02    0.57244E-04   -0.78408E-04   800   0.753E-02
  63 F= -.50004571E+02 E0= -.50004571E+02  d E =-.571215E-02  mag=     1.0000
       N       E                     dE             d eps       ncg     rms          rms(c)
DAV:   1    -0.499898437059E+02    0.14784E-01   -0.42709E+01   720   0.131E+01    0.245E-01
DAV:   2    -0.500090710087E+02   -0.19227E-01   -0.19360E-01   760   0.124E+00    0.243E-01
DAV:   3    -0.500087406864E+02    0.33032E-03   -0.28409E-03   816   0.142E-01    0.190E-01
DAV:   4    -0.500079745010E+02    0.76619E-03   -0.16196E-03   744   0.857E-02    0.901E-02
DAV:   5    -0.500079932796E+02   -0.18779E-04   -0.71049E-04   784   0.585E-02
  64 F= -.50007993E+02 E0= -.50007993E+02  d E =-.913457E-02  mag=     1.0000
       N       E                     dE             d eps       ncg     rms          rms(c)
DAV:   1    -0.500079430624E+02    0.31439E-04   -0.84688E+00   732   0.583E+00    0.955E-02
DAV:   2    -0.500119487276E+02   -0.40057E-02   -0.39516E-02   752   0.555E-01    0.923E-02
DAV:   3    -0.500119246859E+02    0.24042E-04   -0.56922E-04   792   0.628E-02
  65 F= -.50011925E+02 E0= -.50011925E+02  d E =-.393141E-02  mag=     1.0000
       N       E                     dE             d eps       ncg     rms          rms(c)
DAV:   1    -0.499840348233E+02    0.27914E-01   -0.76593E+01   720   0.176E+01    0.292E-01
DAV:   2    -0.500192436568E+02   -0.35209E-01   -0.35151E-01   760   0.167E+00    0.307E-01
DAV:   3    -0.500187811110E+02    0.46255E-03   -0.50855E-03   816   0.188E-01    0.247E-01
DAV:   4    -0.500173979569E+02    0.13832E-02   -0.20970E-03   768   0.965E-02    0.137E-01
DAV:   5    -0.500172457177E+02    0.15224E-03   -0.18416E-03   784   0.906E-02    0.546E-02
DAV:   6    -0.500172937885E+02   -0.48071E-04   -0.29126E-05   472   0.132E-02
  66 F= -.50017294E+02 E0= -.50017294E+02  d E =-.930051E-02  mag=     1.0000
       N       E                     dE             d eps       ncg     rms          rms(c)
DAV:   1    -0.500187618659E+02   -0.15161E-02   -0.67594E+00   736   0.522E+00    0.900E-02
DAV:   2    -0.500218852801E+02   -0.31234E-02   -0.30899E-02   776   0.490E-01    0.815E-02
DAV:   3    -0.500218495990E+02    0.35681E-04   -0.43766E-04   744   0.543E-02
  67 F= -.50021850E+02 E0= -.50021850E+02  d E =-.455581E-02  mag=     1.0000
       N       E                     dE             d eps       ncg     rms          rms(c)
DAV:   1    -0.500093951579E+02    0.12490E-01   -0.39342E+01   720   0.126E+01    0.235E-01
DAV:   2    -0.500271452118E+02   -0.17750E-01   -0.17811E-01   744   0.118E+00    0.211E-01
DAV:   3    -0.500267736686E+02    0.37154E-03   -0.25774E-03   816   0.131E-01    0.164E-01
DAV:   4    -0.500260637552E+02    0.70991E-03   -0.16419E-03   776   0.848E-02    0.573E-02
DAV:   5    -0.500260803573E+02   -0.16602E-04   -0.32050E-04   752   0.409E-02
  68 F= -.50026080E+02 E0= -.50026080E+02  d E =-.878657E-02  mag=     1.0000
       N       E                     dE             d eps       ncg     rms          rms(c)
DAV:   1    -0.500241737694E+02    0.18900E-02   -0.12825E+01   728   0.719E+00    0.123E-01
DAV:   2    -0.500300892497E+02   -0.59155E-02   -0.58469E-02   768   0.674E-01    0.110E-01
DAV:   3    -0.500300235547E+02    0.65695E-04   -0.84208E-04   800   0.755E-02
  69 F= -.50030024E+02 E0= -.50030024E+02  d E =-.394320E-02  mag=     1.0000
       N       E                     dE             d eps       ncg     rms          rms(c)
DAV:   1    -0.500218604469E+02    0.82288E-02   -0.21899E+01   728   0.940E+00    0.178E-01
DAV:   2    -0.500316355810E+02   -0.97751E-02   -0.97784E-02   768   0.874E-01    0.164E-01
DAV:   3    -0.500314310582E+02    0.20452E-03   -0.14096E-03   800   0.966E-02    0.127E-01
DAV:   4    -0.500310737839E+02    0.35727E-03   -0.10852E-03   752   0.689E-02    0.419E-02
DAV:   5    -0.500311345253E+02   -0.60741E-04   -0.15632E-04   480   0.300E-02
  70 F= -.50031135E+02 E0= -.50031135E+02  d E =-.505417E-02  mag=     1.0000
       N       E                     dE             d eps       ncg     rms          rms(c)
DAV:   1    -0.500275345362E+02    0.35392E-02   -0.15437E+01   736   0.786E+00    0.122E-01
DAV:   2    -0.500347175803E+02   -0.71830E-02   -0.70527E-02   760   0.739E-01    0.121E-01
DAV:   3    -0.500346652475E+02    0.52333E-04   -0.98723E-04   808   0.814E-02
  71 F= -.50034665E+02 E0= -.50034665E+02  d E =-.353072E-02  mag=     1.0000
       N       E                     dE             d eps       ncg     rms          rms(c)
DAV:   1    -0.500064688705E+02    0.28249E-01   -0.67836E+01   720   0.165E+01    0.273E-01
DAV:   2    -0.500375385647E+02   -0.31070E-01   -0.30739E-01   768   0.155E+00    0.285E-01
DAV:   3    -0.500371815427E+02    0.35702E-03   -0.43454E-03   816   0.171E-01    0.232E-01
DAV:   4    -0.500359815263E+02    0.12000E-02   -0.20337E-03   760   0.951E-02    0.121E-01
DAV:   5    -0.500359349137E+02    0.46613E-04   -0.15053E-03   776   0.825E-02    0.508E-02
DAV:   6    -0.500359843542E+02   -0.49441E-04   -0.27691E-05   480   0.130E-02
  72 F= -.50035984E+02 E0= -.50035984E+02  d E =-.484983E-02  mag=     1.0000
       N       E                     dE             d eps       ncg     rms          rms(c)
DAV:   1    -0.500334629461E+02    0.24720E-02   -0.12404E+01   736   0.702E+00    0.107E-01
DAV:   2    -0.500393609141E+02   -0.58980E-02   -0.57264E-02   768   0.663E-01    0.104E-01
DAV:   3    -0.500393286809E+02    0.32233E-04   -0.79364E-04   800   0.724E-02
  73 F= -.50039329E+02 E0= -.50039329E+02  d E =-.334433E-02  mag=     1.0000
       N       E                     dE             d eps       ncg     rms          rms(c)
DAV:   1    -0.499928680914E+02    0.46493E-01   -0.11255E+02   720   0.212E+01    0.354E-01
DAV:   2    -0.500454797906E+02   -0.52612E-01   -0.51930E-01   768   0.201E+00    0.343E-01
DAV:   3    -0.500448665603E+02    0.61323E-03   -0.73435E-03   800   0.222E-01    0.273E-01
DAV:   4    -0.500431632480E+02    0.17033E-02   -0.28722E-03   756   0.113E-01    0.137E-01
DAV:   5    -0.500430422986E+02    0.12095E-03   -0.18865E-03   776   0.925E-02    0.504E-02
DAV:   6    -0.500431068363E+02   -0.64538E-04   -0.32166E-05   472   0.146E-02
  74 F= -.50043107E+02 E0= -.50043107E+02  d E =-.712248E-02  mag=     1.0000
       N       E                     dE             d eps       ncg     rms          rms(c)
DAV:   1    -0.500416111874E+02    0.14311E-02   -0.14023E+01   728   0.740E+00    0.121E-01
DAV:   2    -0.500481724958E+02   -0.65613E-02   -0.64622E-02   768   0.697E-01    0.106E-01
DAV:   3    -0.500481183817E+02    0.54114E-04   -0.90821E-04   800   0.764E-02
  75 F= -.50048118E+02 E0= -.50048118E+02  d E =-.501155E-02  mag=     1.0000
       N       E                     dE             d eps       ncg     rms          rms(c)
DAV:   1    -0.500181171084E+02    0.30055E-01   -0.74622E+01   720   0.171E+01    0.310E-01
DAV:   2    -0.500526702759E+02   -0.34553E-01   -0.34413E-01   764   0.161E+00    0.265E-01
DAV:   3    -0.500521419874E+02    0.52829E-03   -0.49173E-03   792   0.178E-01    0.204E-01
DAV:   4    -0.500511130926E+02    0.10289E-02   -0.23804E-03   768   0.101E-01    0.756E-02
DAV:   5    -0.500511383981E+02   -0.25305E-04   -0.60412E-04   784   0.530E-02
  76 F= -.50051138E+02 E0= -.50051138E+02  d E =-.803156E-02  mag=     1.0000
       N       E                     dE             d eps       ncg     rms          rms(c)
DAV:   1    -0.500486577086E+02    0.24554E-02   -0.13934E+01   728   0.737E+00    0.119E-01
DAV:   2    -0.500551825519E+02   -0.65248E-02   -0.64839E-02   784   0.697E-01    0.103E-01
DAV:   3    -0.500551246087E+02    0.57943E-04   -0.91115E-04   800   0.771E-02
  77 F= -.50055125E+02 E0= -.50055125E+02  d E =-.398621E-02  mag=     1.0000
       N       E                     dE             d eps       ncg     rms          rms(c)
DAV:   1    -0.500104042823E+02    0.44778E-01   -0.10910E+02   720   0.207E+01    0.363E-01
DAV:   2    -0.500615230773E+02   -0.51119E-01   -0.50923E-01   768   0.197E+00    0.315E-01
DAV:   3    -0.500607430350E+02    0.78004E-03   -0.72714E-03   800   0.217E-01    0.244E-01
DAV:   4    -0.500591718282E+02    0.15712E-02   -0.28282E-03   760   0.110E-01    0.108E-01
DAV:   5    -0.500590719664E+02    0.99862E-04   -0.12457E-03   792   0.743E-02    0.391E-02
DAV:   6    -0.500591453968E+02   -0.73430E-04   -0.23371E-05   488   0.123E-02
  78 F= -.50059145E+02 E0= -.50059145E+02  d E =-.800700E-02  mag=     1.0000
       N       E                     dE             d eps       ncg     rms          rms(c)
DAV:   1    -0.500551035868E+02    0.39684E-02   -0.22961E+01   720   0.951E+00    0.154E-01
DAV:   2    -0.500658585822E+02   -0.10755E-01   -0.10611E-01   768   0.899E-01    0.143E-01
DAV:   3    -0.500657777453E+02    0.80837E-04   -0.15109E-03   800   0.100E-01    0.112E-01
DAV:   4    -0.500655330723E+02    0.24467E-03   -0.50189E-04   744   0.488E-02    0.559E-02
DAV:   5    -0.500655964328E+02   -0.63360E-04   -0.35622E-04   704   0.399E-02
  79 F= -.50065596E+02 E0= -.50065596E+02  d E =-.645104E-02  mag=     1.0000
       N       E                     dE             d eps       ncg     rms          rms(c)
DAV:   1    -0.500167766108E+02    0.48756E-01   -0.11416E+02   720   0.213E+01    0.374E-01
DAV:   2    -0.500710481927E+02   -0.54272E-01   -0.53439E-01   768   0.202E+00    0.321E-01
DAV:   3    -0.500705573971E+02    0.49080E-03   -0.77200E-03   792   0.227E-01    0.244E-01
DAV:   4    -0.500692046666E+02    0.13527E-02   -0.23668E-03   752   0.107E-01    0.120E-01
DAV:   5    -0.500691275576E+02    0.77109E-04   -0.14547E-03   756   0.801E-02    0.409E-02
DAV:   6    -0.500691880506E+02   -0.60493E-04   -0.29339E-05   504   0.131E-02
  80 F= -.50069188E+02 E0= -.50069188E+02  d E =-.100427E-01  mag=     1.0000
       N       E                     dE             d eps       ncg     rms          rms(c)
DAV:   1    -0.500665002688E+02    0.26273E-02   -0.12362E+01   720   0.696E+00    0.103E-01
DAV:   2    -0.500723078981E+02   -0.58076E-02   -0.57094E-02   776   0.659E-01    0.999E-02
DAV:   3    -0.500722711964E+02    0.36702E-04   -0.80193E-04   788   0.732E-02
  81 F= -.50072271E+02 E0= -.50072271E+02  d E =-.308315E-02  mag=     1.0000
       N       E                     dE             d eps       ncg     rms          rms(c)
DAV:   1    -0.500259450174E+02    0.46363E-01   -0.11224E+02   720   0.210E+01    0.350E-01
DAV:   2    -0.500780742940E+02   -0.52129E-01   -0.51910E-01   768   0.199E+00    0.325E-01
DAV:   3    -0.500773316490E+02    0.74264E-03   -0.73973E-03   800   0.222E-01    0.255E-01
DAV:   4    -0.500756769127E+02    0.16547E-02   -0.25964E-03   760   0.108E-01    0.127E-01
DAV:   5    -0.500754928584E+02    0.18405E-03   -0.17475E-03   768   0.869E-02    0.438E-02
DAV:   6    -0.500755713397E+02   -0.78481E-04   -0.26775E-05   504   0.133E-02
  82 F= -.50075571E+02 E0= -.50075571E+02  d E =-.638329E-02  mag=     1.0000
       N       E                     dE             d eps       ncg     rms          rms(c)
DAV:   1    -0.500786460750E+02   -0.31532E-02   -0.58457E+00   732   0.479E+00    0.971E-02
DAV:   2    -0.500813924698E+02   -0.27464E-02   -0.27217E-02   784   0.456E-01    0.832E-02
DAV:   3    -0.500813919866E+02    0.48322E-06   -0.40382E-04   728   0.533E-02
  83 F= -.50081392E+02 E0= -.50081392E+02  d E =-.582065E-02  mag=     1.0000
       N       E                     dE             d eps       ncg     rms          rms(c)
DAV:   1    -0.500776864844E+02    0.37060E-02   -0.19938E+01   728   0.887E+00    0.192E-01
DAV:   2    -0.500867974890E+02   -0.91110E-02   -0.92070E-02   752   0.840E-01    0.166E-01
DAV:   3    -0.500866770949E+02    0.12039E-03   -0.13945E-03   808   0.976E-02    0.119E-01
DAV:   4    -0.500864714490E+02    0.20565E-03   -0.67309E-04   744   0.570E-02    0.478E-02
DAV:   5    -0.500865319518E+02   -0.60503E-04   -0.12621E-04   504   0.274E-02
  84 F= -.50086532E+02 E0= -.50086532E+02  d E =-.109606E-01  mag=     1.0000
       N       E                     dE             d eps       ncg     rms          rms(c)
DAV:   1    -0.500883939919E+02   -0.19225E-02   -0.35991E+00   736   0.380E+00    0.774E-02
DAV:   2    -0.500900695513E+02   -0.16756E-02   -0.16624E-02   768   0.359E-01    0.635E-02
DAV:   3    -0.500900763618E+02   -0.68104E-05   -0.23184E-04   536   0.434E-02
  85 F= -.50090076E+02 E0= -.50090076E+02  d E =-.354441E-02  mag=     1.0000
       N       E                     dE             d eps       ncg     rms          rms(c)
DAV:   1    -0.500907035120E+02   -0.63396E-03   -0.29760E-01   776   0.110E+00    0.326E-02
DAV:   2    -0.500908559527E+02   -0.15244E-03   -0.12979E-03   800   0.101E-01    0.256E-02
DAV:   3    -0.500908723705E+02   -0.16418E-04   -0.19385E-05   472   0.120E-02
  86 F= -.50090872E+02 E0= -.50090872E+02  d E =-.434042E-02  mag=     1.0000
       N       E                     dE             d eps       ncg     rms          rms(c)
DAV:   1    -0.500923069077E+02   -0.14510E-02   -0.14965E+00   756   0.247E+00    0.442E-02
DAV:   2    -0.500929850392E+02   -0.67813E-03   -0.66957E-03   784   0.229E-01    0.400E-02
DAV:   3    -0.500929788931E+02    0.61461E-05   -0.88414E-05   456   0.268E-02
  87 F= -.50092979E+02 E0= -.50092979E+02  d E =-.210652E-02  mag=     1.0000
       N       E                     dE             d eps       ncg     rms          rms(c)
DAV:   1    -0.500932315992E+02   -0.24656E-03   -0.63683E+00   736   0.509E+00    0.959E-02
DAV:   2    -0.500960194339E+02   -0.27878E-02   -0.28213E-02   768   0.471E-01    0.877E-02
DAV:   3    -0.500959640653E+02    0.55369E-04   -0.41443E-04   776   0.546E-02
  88 F= -.50095964E+02 E0= -.50095964E+02  d E =-.509169E-02  mag=     1.0000
       N       E                     dE             d eps       ncg     rms          rms(c)
DAV:   1    -0.500969197876E+02   -0.90035E-03   -0.24913E+00   752   0.318E+00    0.764E-02
DAV:   2    -0.500979770372E+02   -0.10572E-02   -0.11263E-02   756   0.297E-01    0.650E-02
DAV:   3    -0.500979487030E+02    0.28334E-04   -0.17018E-04   496   0.364E-02
  89 F= -.50097949E+02 E0= -.50097949E+02  d E =-.198464E-02  mag=     1.0000
       N       E                     dE             d eps       ncg     rms          rms(c)
DAV:   1    -0.500980421359E+02   -0.65099E-04   -0.68342E-02   748   0.529E-01    0.242E-02
DAV:   2    -0.500980748038E+02   -0.32668E-04   -0.27489E-04   544   0.478E-02
  90 F= -.50098075E+02 E0= -.50098075E+02  d E =-.211074E-02  mag=     1.0000
       N       E                     dE             d eps       ncg     rms          rms(c)
DAV:   1    -0.500992451215E+02   -0.12030E-02   -0.26337E+00   744   0.327E+00    0.498E-02
DAV:   2    -0.501004084688E+02   -0.11633E-02   -0.11723E-02   748   0.305E-01    0.527E-02
DAV:   3    -0.501003898913E+02    0.18577E-04   -0.15299E-04   456   0.357E-02
  91 F= -.50100390E+02 E0= -.50100390E+02  d E =-.231509E-02  mag=     1.0000
       N       E                     dE             d eps       ncg     rms          rms(c)
DAV:   1    -0.501003144583E+02    0.94010E-04   -0.67750E+00   728   0.524E+00    0.868E-02
DAV:   2    -0.501032344478E+02   -0.29200E-02   -0.29757E-02   752   0.486E-01    0.915E-02
DAV:   3    -0.501031777273E+02    0.56721E-04   -0.42944E-04   768   0.557E-02
  92 F= -.50103178E+02 E0= -.50103178E+02  d E =-.510292E-02  mag=     1.0000
       N       E                     dE             d eps       ncg     rms          rms(c)
DAV:   1    -0.500941122044E+02    0.91222E-02   -0.27067E+01   728   0.105E+01    0.178E-01
DAV:   2    -0.501059326815E+02   -0.11820E-01   -0.11997E-01   748   0.976E-01    0.182E-01
DAV:   3    -0.501057113146E+02    0.22137E-03   -0.17701E-03   808   0.113E-01    0.144E-01
DAV:   4    -0.501051674546E+02    0.54386E-03   -0.84449E-04   760   0.628E-02    0.736E-02
DAV:   5    -0.501051228855E+02    0.44569E-04   -0.60285E-04   776   0.523E-02
  93 F= -.50105123E+02 E0= -.50105123E+02  d E =-.704808E-02  mag=     1.0000
       N       E                     dE             d eps       ncg     rms          rms(c)
DAV:   1    -0.501055964567E+02   -0.42900E-03   -0.29361E-01   760   0.109E+00    0.262E-02
DAV:   2    -0.501057733249E+02   -0.17687E-03   -0.14078E-03   784   0.104E-01    0.167E-02
DAV:   3    -0.501057990388E+02   -0.25714E-04   -0.18576E-05   464   0.125E-02
  94 F= -.50105799E+02 E0= -.50105799E+02  d E =-.676153E-03  mag=     1.0000
       N       E                     dE             d eps       ncg     rms          rms(c)
DAV:   1    -0.501064013682E+02   -0.62804E-03   -0.22974E+00   744   0.305E+00    0.426E-02
DAV:   2    -0.501074359457E+02   -0.10346E-02   -0.10209E-02   776   0.284E-01    0.480E-02
DAV:   3    -0.501074260593E+02    0.98864E-05   -0.13008E-04   456   0.328E-02
  95 F= -.50107426E+02 E0= -.50107426E+02  d E =-.230317E-02  mag=     1.0000
       N       E                     dE             d eps       ncg     rms          rms(c)
DAV:   1    -0.501080474816E+02   -0.61154E-03   -0.52551E-02   736   0.454E-01    0.271E-02
DAV:   2    -0.501080748363E+02   -0.27355E-04   -0.24111E-04   560   0.440E-02
  96 F= -.50108075E+02 E0= -.50108075E+02  d E =-.648777E-03  mag=     1.0000
       N       E                     dE             d eps       ncg     rms          rms(c)
DAV:   1    -0.501093901403E+02   -0.13427E-02   -0.47440E-01   748   0.136E+00    0.494E-02
DAV:   2    -0.501095990745E+02   -0.20893E-03   -0.21536E-03   792   0.127E-01    0.362E-02
DAV:   3    -0.501096067613E+02   -0.76868E-05   -0.38773E-05   472   0.168E-02
  97 F= -.50109607E+02 E0= -.50109607E+02  d E =-.218070E-02  mag=     1.0000
       N       E                     dE             d eps       ncg     rms          rms(c)
DAV:   1    -0.501098725199E+02   -0.27345E-03   -0.22248E-02   760   0.301E-01    0.105E-02
DAV:   2    -0.501098882870E+02   -0.15767E-04   -0.92265E-05   472   0.280E-02
  98 F= -.50109888E+02 E0= -.50109888E+02  d E =-.281526E-03  mag=     1.0000
       N       E                     dE             d eps       ncg     rms          rms(c)
DAV:   1    -0.501105052785E+02   -0.63276E-03   -0.19795E-01   760   0.895E-01    0.216E-02
DAV:   2    -0.501105945532E+02   -0.89275E-04   -0.86957E-04   752   0.828E-02
  99 F= -.50110595E+02 E0= -.50110595E+02  d E =-.987792E-03  mag=     1.0000
