17
Energy = -16.01695007 eV
Na 16.19496153676722 12.023514546599364 12.09542615642095
Na 14.957625012799108 15.564088539858698 12.277113336855342
Na 13.956200642669618 13.292862729250004 9.46334085428101
Na 17.294714970159582 10.896729344214904 15.340261255299716
Na 10.949278976344749 14.490391605752817 7.877895284961498
Na 15.006779357756487 13.602070606717486 15.296587256414329
Na 13.430913574284371 9.832002106342804 10.810389539236398
Na 11.520138210057524 15.575708114889267 11.2015283998777
Na 10.544697436128802 11.912912310555235 10.270337983925812
Na 12.771931450551913 12.757881105404616 12.786854023956556
Na 12.10781890898024 15.687817716371862 14.761539831543669
Na 14.029593689154716 9.93775632969278 14.357306680707525
Na 8.267776774194182 14.613322648370426 10.212288618431618
Na 14.610700764402587 11.016411844089795 17.670170414748636
Na 9.350910720782746 13.493623893355666 13.476460181696385
Na 11.588224675807785 12.22659033149942 16.104846801823847
Na 10.58116786004613 9.954772147398815 13.299482743673341
