24
Energy = -24.48702455 eV
Na 12.961574094788686 13.55033027074207 5.858989910798427
Na 11.43178877073732 10.726198778334322 7.9694120175958
Na 10.485204335374199 14.367947624556242 8.31705442622398
Na 8.10234255880427 11.519926727740643 9.531953432662974
Na 13.50922894388308 16.27910735345512 8.059954599110098
Na 13.970419970710232 12.916284509997483 9.136108465358245
Na 10.070224371929418 8.839195835920822 11.066093994839717
Na 13.630733364479559 9.613810558314691 10.744696873545372
Na 11.017534072815868 12.268901740019755 11.102441106272678
Na 16.62735083458121 11.480239768928964 11.21443160956549
Na 15.51771924163725 15.385744947861431 11.099047441584855
Na 11.952931893941658 15.67159559545543 11.370544950313699
Na 8.463726371678568 14.570194262454628 11.56524288766764
Na 8.243214792629793 11.304592579258696 13.230904795512973
Na 13.93002143714095 12.843427833393052 12.84749787616777
Na 11.618585478924059 10.39595901495269 13.869738373302726
Na 15.061186764075527 9.736778510444005 14.129183802969232
Na 12.63012462254172 7.108286890198503 13.319411500087144
Na 13.221281311176307 12.287534786286924 16.28577651587286
Na 9.391383898709856 7.9833954093824175 14.875586997758983
Na 13.594580869741753 15.736566344261023 14.664142677358894
Na 10.507274078021878 13.9729274809527 14.423157887490168
Na 9.763489059895663 11.026465486920609 16.78076455578108
Na 12.458790458185561 8.575299286572001 16.698574898563944
