25
Energy = -25.68531298 eV
Na 10.831598812992455 13.825299667206622 6.745660851344373
Na 14.189698858405938 14.936583382472135 7.437869202908974
Na 13.268946571319143 11.435436568991912 8.01735521604363
Na 11.544416602265322 17.06863106308266 8.485814617643289
Na 8.821364328196323 14.88582474607574 9.595375790071861
Na 11.852700031376925 8.370973886116005 9.742380722750033
Na 14.38738653386594 16.576909599767426 10.756429667828986
Na 9.73541253917974 11.325516069977878 9.389211749445272
Na 12.663539335190466 11.172084871793867 11.564530776789946
Na 15.643548302088028 13.086576680273648 10.72011185269566
Na 12.123223737081766 14.085073827081276 10.111903093262878
Na 15.381460440009374 9.41016841237942 10.506675315827058
Na 9.658375351113298 9.341891375534544 12.51233379332043
Na 13.1117885933344 8.059607668076834 13.305277953195501
Na 9.709506343559509 12.991228017824959 12.650380639925473
Na 11.094269298518766 16.27138844329864 12.625760966520728
Na 15.568350969561658 11.138893691951923 13.744877700932415
Na 13.899420487916823 14.336703804116429 13.615326383247913
Na 12.007565026755447 11.104031812147324 14.792533996859133
Na 8.679476619895157 11.079782665184172 15.64152220581534
Na 10.604033273909659 7.992597603845147 15.951536638279117
Na 11.031689143551372 14.320522801937868 15.70224200608612
Na 13.97256078966798 8.985835959899264 16.745100530808774
Na 14.26436423379769 12.667445287660058 16.849191253294663
Na 11.338323175425392 10.914011492282988 18.173616474081175
