27
Energy = -28.04073783 eV
Na 11.586680225691879 14.974558930019757 8.367217278466613
Na 14.35476834568163 12.135638411667726 7.57944076358369
Na 8.034642406520256 13.990167611874975 7.55272282695103
Na 10.719463913814911 11.09540228341579 7.74862404669579
Na 7.307001952929913 10.808488594967718 9.119508370661489
Na 9.464893410672765 13.072945698989045 10.472696207772694
Na 10.262939893750211 9.165742980233565 10.803146262764367
Na 8.73780005039015 16.489559015057225 10.220814706540777
Na 12.81134542089959 12.192252921254257 10.447824594064288
Na 16.34914317258448 11.285932169416 10.968530525882313
Na 13.579920005809996 8.882724480702501 9.32113555946209
Na 14.994462660390901 14.762677384360952 10.082290259522562
Na 6.172561407740225 13.825814674241188 10.801709279186175
Na 16.185563140537997 7.654010938037355 12.036242294365701
Na 12.732408601476301 6.61447957069382 12.112164872223344
Na 8.658614102820719 14.768608316975657 13.478724577885227
Na 13.68608506698849 9.806825307434751 12.790734917507104
Na 7.772563737593213 10.918522753569027 12.812385924260703
Na 11.863591138164887 15.475577817238792 11.948941964564161
Na 14.664942936405648 13.311517257015575 13.49047318295076
Na 11.141159652187243 12.066038231264075 13.32427753252917
Na 16.67221397539766 10.370247745412273 14.545766126137373
Na 10.664922284318594 8.68451174553593 14.406495446471592
Na 14.294987266362522 7.553508187908382 15.252602864209765
Na 11.836434203313555 14.554531781196733 15.526992438431524
Na 13.39146852980801 11.115664150074084 16.072120431611904
Na 9.43575562198523 11.800384165679489 16.09274986953493
