24
Energy = -23.59066486 eV
Na 13.5208479956712 8.973423862633387 7.6111604110374405
Na 10.774090924326082 8.826624156254155 9.40301903291916
Na 8.517308600869413 11.295875765033106 9.378947907465916
Na 12.306497568895153 12.059354657355051 9.407999538603383
Na 13.619060330532788 9.22163602687284 11.496290025199112
Na 15.697003100061044 10.960799697875046 8.987514698092127
Na 7.376677163819768 11.843712096769725 12.59563016832672
Na 10.568551589346892 10.754246334798152 12.285097081869834
Na 9.756544224305172 14.08602324457129 10.923859523234182
Na 12.369599366405652 9.279207081817022 14.812594710295956
Na 9.104061149615909 10.38898327223903 15.327785240549328
Na 15.685925762909626 8.438455889551815 14.315872274944507
Na 15.325890371424524 14.043690772157483 10.104633996221684
Na 9.101450987560561 14.092281334764044 14.350430459527507
Na 13.015023841947503 13.240234417681037 12.635938206154842
Na 12.385537058285935 15.81139344141279 9.771733105410755
Na 16.312327692181707 11.221858387501811 12.346218395662698
Na 14.889945953523508 11.734018336613785 15.426348982133158
Na 11.425544064865665 16.41430815102558 13.16094906135724
Na 11.61200255474284 12.580185520697201 16.0673814050438
Na 16.270529726833168 14.38343015579994 13.519402469440317
Na 13.803307914419085 15.168425896699166 15.598032130852388
Na 14.63211093567612 17.058642974856912 12.10573774731057
Na 10.674994955548389 16.149070199663626 16.620011981561337
