24
Energy = -22.90698269 eV
Na 15.810219100182044 8.84891095630688 13.09750394162502
Na 14.384599330232897 11.976400221474817 13.538015581134777
Na 15.281379417097686 10.092694777832778 16.291935485209194
Na 15.691141851215972 14.087536250684758 11.315841795323996
Na 15.449054251735223 10.81350303187182 10.29161984006268
Na 16.36226829053276 17.692385881949907 11.826622351108147
Na 14.350234047469037 16.390620673029563 9.28270099457504
Na 15.178449049088293 15.632748638063777 14.357711454762539
Na 14.361324625971529 13.171963752224759 8.044966773313812
Na 14.435791111422455 13.341220108294001 16.776906782562133
Na 12.774933122999961 8.734676358367269 11.234368643006784
Na 12.504090898002286 8.994852731149185 14.62112638280035
Na 11.381122310125953 11.795751346167728 16.33234517571388
Na 9.359375334354052 9.173194516511606 10.459616609525158
Na 12.184339350246987 14.019803839496134 10.638399311354727
Na 11.696757696895048 11.127087303324418 8.89138796543433
Na 10.919958426531393 11.44305787805536 12.638898993215566
Na 9.05707814508007 9.549775336529423 14.962431016885654
Na 11.972506889917488 14.409479641280724 14.27901964451876
Na 12.688314528800978 17.03629508752645 12.24168111361279
Na 8.596897107384144 13.15386730180015 14.586824805237052
Na 7.135152268312287 10.907351781695686 12.421529078125776
Na 9.441519508401116 15.609411348428184 12.158296932322353
Na 8.921145719905475 12.777766740398567 10.199361536130148
