34
Energy = -34.82333758 eV
Na 18.074333076478432 15.831691602448036 17.317455184778087
Na 11.845676577829542 15.312487576621315 17.733292136451535
Na 15.231845225616219 13.921667308561975 18.31948442819858
Na 14.85230599999636 17.122425199130518 16.808868996800925
Na 11.587866427095538 18.40285906950399 16.17234971762537
Na 12.22412387866944 12.26648484198097 19.30507057916822
Na 17.317222761427892 12.79867713925129 15.66824999500644
Na 10.966858162247048 12.384125649995239 15.994651039977953
Na 10.518831209961538 15.487860162032844 14.519635716405107
Na 10.496169433843173 18.659895005589835 12.896221442365835
Na 16.921522926839085 15.89588828563909 13.969350555424601
Na 13.927785593052711 14.108099506712163 14.98162509812117
Na 14.290786905052604 11.0765476056941 16.64676595847719
Na 13.756868078081622 17.309100064866684 13.537456354418078
Na 12.61774061337596 14.431994770376384 11.832337294830586
Na 11.373854426020403 9.416615429409502 17.632749179483103
Na 12.795313101442952 17.751394636006403 10.300646951396807
Na 16.305885527185747 17.966422448288988 11.062194584912882
Na 13.453104143322244 8.054141400341837 15.171008569837886
Na 15.965488480634285 12.86944654410095 12.336674816803656
Na 10.074339218030353 9.323903886641746 14.371925801155534
Na 18.29712795495853 15.016217998693266 10.906650320036686
Na 9.391359582163751 15.744959971853572 11.220846670246859
Na 9.519735070293256 12.628415571431116 12.971079049183535
Na 16.470338688759426 9.797050202273683 14.214207712503192
Na 12.022604166842505 15.13012734682619 8.316678867842286
Na 13.03137480574271 11.05688526484083 13.227774651435894
Na 15.213389988222419 15.031916950529633 9.44794562960902
Na 17.299793448025323 12.142776625951843 9.23051346146885
Na 13.001591158735048 7.8172094124562275 11.836003277816667
Na 9.947918605948587 12.804198531152398 9.564715859817156
Na 10.356596046167306 9.753946519909855 11.049416388184055
Na 13.570656104176162 11.95517552549655 9.709979859704088
Na 15.891989108520015 9.52806145404775 10.926919023812806
