35
Energy = -37.38663425 eV
Na 14.356125760506826 11.428915224226213 6.4545980430609315
Na 8.351794046051708 13.71554304054029 7.79479102591871
Na 7.1534237644104515 10.3084599116238 8.695889208813945
Na 10.516827183844526 10.774895925673468 6.781640585591405
Na 16.62285621704206 9.492756100870354 9.583968170187042
Na 12.197639614618357 13.829373389753664 8.124225282304467
Na 15.567611651179355 13.131396560077429 9.613974285178504
Na 9.870204844216072 15.435554457122063 10.851537367183361
Na 13.091460282136792 10.199175875125789 9.264841932034331
Na 9.859797884893025 11.776824018240674 10.068094138738807
Na 13.635233009446232 16.354281089413607 10.900317141783514
Na 13.93078055003394 7.387906312850453 11.502765127718616
Na 17.150669901809557 8.301549911208012 13.26897656645779
Na 10.156446971896667 8.149546996408326 9.688814250519743
Na 18.196877754396024 11.709165623821134 12.252810431000396
Na 12.662669404273515 13.145979014002597 11.459004034465723
Na 6.902471707567793 13.212360483752917 11.223428711772462
Na 15.016125641381214 10.762095875346198 12.324521697001636
Na 15.652711008374736 14.32979394066512 13.283733683560175
Na 11.069343041257559 18.422325125667392 12.958124854315798
Na 11.577170028674727 9.940472313867996 12.49814778339364
Na 12.00124290318237 15.350919180091376 13.973220942483936
Na 8.022391579580622 9.663126955596825 12.231715127215162
Na 9.495249707529439 12.717794650687317 13.629942478254229
Na 14.37777036771745 17.72437262001815 14.392559124909852
Na 8.596197176549017 16.042200169846296 14.340318758197842
Na 10.637762961176394 6.8966279317197365 13.212316060437194
Na 12.99565432820918 12.173925371159056 14.829481640658281
Na 16.35847721993234 11.403058214847734 15.591945356695112
Na 11.344290677055584 17.4414848308952 16.557718756793953
Na 13.932583434198323 8.631317171863984 15.000806955881995
Na 14.241490805826448 14.82745240153212 16.759669026411423
Na 10.444373029562604 10.01089397870998 15.845612155026906
Na 10.625772332893737 13.836613579205181 16.95096721359586
Na 13.317838398095091 11.401176943088247 18.018857271957167
