36
Energy = -38.29476461 eV
Na 13.168155545205671 13.2905224753003 18.555540049188824
Na 13.09644521807416 9.753463148496971 18.788774425616946
Na 16.19027501205632 15.453302834937912 18.2448118463388
Na 10.293805471096807 11.77323171438224 16.883363747760853
Na 12.35472046928248 16.441766886097703 17.504303731187495
Na 17.14383604630742 17.200503428086414 15.136586290272849
Na 16.410641836489887 11.699852697246179 17.667698238122075
Na 13.538056837477333 11.125625053957439 15.68864733146976
Na 14.917879820612114 14.31929619706331 15.465401286752275
Na 15.30187727008317 8.19552251117321 16.42531094394849
Na 11.564775734045153 14.393886152543418 14.636927313732466
Na 13.797450765798455 17.81955240966552 14.66836853103499
Na 10.267586252382108 18.010928908804328 14.924001346016384
Na 11.483245954884731 8.398517174518737 15.792163625952176
Na 8.17359522210823 12.631582438659235 14.054871213615357
Na 8.80508290459347 15.182767293460044 16.54016286262291
Na 18.37154025592499 13.841895959391797 15.244751198873551
Na 17.232988898661194 10.490108588650749 14.33264392826533
Na 15.403855787556543 15.422456886209092 12.232962803757712
Na 15.804075723365104 18.613973742728415 11.669105272028153
Na 14.634973042108797 12.114366375022708 12.615254397656013
Na 8.850733974486971 15.704600070359689 12.60317336327563
Na 14.001678192247073 8.657940750095213 13.092070986170967
Na 12.086077994602544 14.054182274438292 11.256518059178454
Na 11.958169418441061 17.656371812762544 11.792055473825135
Na 19.02884260699884 16.389235706302365 12.42560598119108
Na 10.963326798782946 10.834597915734415 13.175089434336535
Na 16.463756965989585 9.89670769803114 10.707480155783388
Na 18.117102798758648 12.969977948018455 11.686451883521265
Na 9.12575285666084 12.494574925774483 10.454935114323524
Na 9.93835966956757 15.962917673383238 9.229083859842564
Na 15.273544961841925 13.009124086304308 9.197883645062381
Na 17.429011483956216 15.866946581256391 9.370339927131171
Na 12.648529303446368 10.576564129608009 10.084545148478481
Na 13.786297057407563 16.32504040555156 9.038270506039895
Na 11.831320206198185 13.308159808436853 7.86229025476617
