33
Energy = -34.77670751 eV
Na 16.28526099302017 10.884707771344628 7.77017299177861
Na 16.40631000326558 14.49618213965658 8.41186244302051
Na 13.037573282731362 12.734001016830149 8.529247249448835
Na 18.966792824891296 12.338956329517792 9.876204638876622
Na 13.525763409639168 9.349525718840683 10.010724689624494
Na 9.700452996289242 10.973761807659812 10.114267342101453
Na 7.787946667051326 16.807287984400876 10.519654177669207
Na 10.279670638733467 14.50942130466418 10.615501068567472
Na 17.305919545463297 9.081950441380092 10.95587532001128
Na 15.70519314830138 12.18303337294053 10.854967080182353
Na 13.837297838107682 15.394396797788042 10.999658040805604
Na 6.86578878045488 13.354898851327535 11.376277017253747
Na 12.43908658189393 12.004410350534163 11.969029477387565
Na 17.377054124642456 15.161515243921144 11.98315642972835
Na 10.940966073386763 17.618865668623016 12.451194938192282
Na 7.110756093022326 9.82940127763881 12.784113062446794
Na 10.82608100544352 9.016179684001335 13.065095974590033
Na 18.089774990230076 11.690397491257087 13.442959230336553
Na 9.372760346202389 12.251665155154683 13.540405025879014
Na 14.649613115375296 9.606423821083892 13.445465522014386
Na 8.29390786434274 15.623249140021636 13.930306540883493
Na 11.736039398831688 14.681964842143062 14.030111850136578
Na 14.937073025970529 13.25681711767063 14.005066743027934
Na 14.71837678614102 16.78689027498459 14.19637065690577
Na 17.56686738525192 8.254204853305014 14.516584701289986
Na 6.360567311325976 12.645910065177329 15.07704155636181
Na 17.512485574126107 14.642145900645415 15.603034128655471
Na 12.233921192062363 11.253719154651712 15.694699039898438
Na 10.830904050706987 16.98818885665419 16.25559768639957
Na 8.712194030107936 10.034131007974544 16.07470355533145
Na 16.103308992550865 11.16074286029695 16.440180252298422
Na 9.63846747505349 13.586328208159522 16.866065027548135
Na 13.387058792941659 14.33995982730926 17.135640878907225
