43
Energy = -44.44577972 eV
Na 16.6361092263807 9.999563272670901 10.418305163073951
Na 14.18897540468268 8.64338400227967 12.580664173868437
Na 19.095144434151933 12.076567525593306 11.758147935974728
Na 14.016570325252609 12.022174531520953 11.629352196719543
Na 11.529443874370441 7.626693643564357 14.646226958375355
Na 16.70546899420173 10.5614031313832 13.942383124466216
Na 11.136917658937014 10.525385428988397 12.858958820731107
Na 13.88965299517229 9.768032239748143 15.952356381841653
Na 18.794806855966716 12.676736349517602 15.544244168232376
Na 20.98946698472024 14.388305796158507 13.566839057653029
Na 16.464756204411966 13.700763639036943 9.797606912059857
Na 16.32276915313684 11.317364723406326 17.641422236057476
Na 13.234558912265685 14.318942972508658 8.987737979895407
Na 10.720180696619002 13.208349689960762 10.991601849857549
Na 14.827887911034574 13.307291438628289 15.012440773125334
Na 14.006349095494244 15.456343264208877 12.291057884655036
Na 10.47872014290301 10.524370208030406 16.267098216780997
Na 20.533362945123425 15.390298485848023 17.014552856439447
Na 17.337571379137266 14.68918696712554 13.032042851087041
Na 18.422157802873777 13.68092359673283 19.01845660252873
Na 16.839432839769685 17.280214832773805 10.75112344913271
Na 12.796386393273206 12.610847501018064 17.71898701885186
Na 17.069854483424113 15.781689577910337 16.3463355272407
Na 11.33470959761845 13.769855699424054 14.58794316288751
Na 22.401549272037396 17.445077247153147 14.95088899122673
Na 13.855109559635004 18.977278813516524 11.61150465822445
Na 19.45598887014092 17.46605083019359 13.031373756603244
Na 9.29609980537443 13.267172962652248 17.768200900947008
Na 15.082118059104594 14.729653871029416 19.06758096303273
Na 11.376457962272907 16.84066587122414 10.409809499070668
Na 8.829518823877455 15.60427656821806 12.575712447034462
Na 17.736660120873733 17.154609003144248 19.480051489854517
Na 13.688556868773153 16.352448700562718 16.21293116596403
Na 19.308088770744497 18.72173094185121 16.357224077533147
Na 16.2999584879558 18.23366055015809 14.077945858586885
Na 11.438898264509767 17.494322677221604 13.815196823334121
Na 11.514611883251353 15.571323925903993 19.107796130158864
Na 9.03647133789917 16.146341029040425 15.931730641790546
Na 14.029131363600372 17.950506926021887 19.530054764493258
Na 16.20847003772493 19.628868750232133 17.294889228947326
Na 13.528336660344342 19.90531377535013 15.081472758130682
Na 11.1879759458442 18.595475605580305 17.295834181244718
Na 13.271741674893024 21.173784906724965 18.38894840217459
