41
Energy = -42.79993269 eV
Na 10.832766074785567 15.007324873701958 18.143262401171206
Na 8.941347600822786 17.470647741387005 16.225066434070495
Na 12.223091624237409 18.14569453078726 17.174731519083352
Na 15.668456988966206 18.27505754953019 17.535904519128565
Na 9.039870696567284 12.296547306838319 19.485968023039835
Na 14.160927418028397 15.326537492454884 18.35222443768619
Na 7.988809076024742 14.045562887138228 16.574233926738316
Na 14.124528641071608 20.23967677929102 14.853210506378678
Na 11.285536385233367 18.53832558152349 13.740707199042621
Na 12.5111205917894 12.075693584065002 19.245982489039125
Na 12.626549570307537 12.856497197039547 15.814491883171467
Na 17.07100352030672 18.39003445885312 14.413911502409244
Na 17.03239585497454 15.247858031045514 16.41429188535885
Na 13.987902866029852 16.228522378252087 14.828922449367168
Na 10.652846596548159 15.178107954938188 14.321258163300355
Na 10.316830505163336 10.265662533036483 17.004610556516123
Na 15.732542599001528 12.293816864703853 18.10074587703079
Na 14.540658021139652 18.159414282145484 11.897720516685064
Na 9.30610973611027 11.974368008301656 14.116183310439872
Na 11.552538051065689 16.181677466264208 11.175509543543859
Na 9.071819620489485 13.825302581098551 11.17750436739606
Na 11.842113973159835 9.70351481739398 13.837523117928901
Na 16.55828687675635 15.268720315056202 12.738797688568594
Na 19.60790950438947 17.15145087908289 12.524660920648877
Na 18.890869946733854 12.117355489666053 16.803353858277102
Na 14.48494303220993 15.172861831669925 9.874525414787001
Na 12.825828542081442 12.935236268326639 12.3187192596106
Na 17.09423269592737 9.357825289030238 15.752229866195032
Na 13.772298288183594 9.581324690774203 16.71987154473089
Na 17.458811680083944 17.261978671808205 9.873065650791641
Na 15.72115371924045 12.499125780359813 14.547479348914774
Na 19.700937500090333 14.281703214707349 14.294856779693236
Na 10.293048113810684 10.614716639370153 10.881170494851283
Na 18.660715974107237 11.026293070900007 13.123639236151472
Na 19.471144409848762 13.944800466842823 10.87581774437315
Na 16.21102972231461 12.195154248903293 10.8915728328074
Na 11.637549176688136 13.215092131311104 8.906221899072246
Na 15.18521871133937 9.423763254574762 12.94142220215732
Na 14.715677067784222 12.339708976081418 7.671899809903783
Na 17.380616375540704 14.303559938598433 8.119589987673013
Na 13.534712843590091 10.182418132693874 10.061563178183283
