42
Energy = -45.29770181 eV
Na 11.756805923165388 15.145043324099706 8.4344821741763
Na 14.581853577409069 13.384612564195407 6.618559831731879
Na 15.769445285018714 10.294268750575416 9.130097719435481
Na 12.076871294054085 11.362550514514032 8.838163783398155
Na 15.212646973287695 16.6799880114521 8.434659951585465
Na 17.83021256429308 13.54933423599988 8.64594341885819
Na 12.091068038755315 18.735121076712836 9.38617616616241
Na 16.201262786774517 8.461743244248417 13.016687885497248
Na 11.621125443707507 13.620970786996502 11.591122774484448
Na 8.618084560715898 12.90528877927439 10.137057965258228
Na 9.708209129301641 16.579018875700324 11.571280195352944
Na 13.932900662397481 10.87061898469242 12.005608890049901
Na 9.07955234962434 9.156080272648236 9.648777210250243
Na 14.76830645223497 13.546132080146446 9.959724559999323
Na 7.051894199723438 10.444887948202378 12.592435888659773
Na 12.620475809160135 8.033431178447215 10.776998418504181
Na 17.112519522930913 15.792387345002222 11.680749144407923
Na 10.453994747878799 10.593163539441202 12.261805888965204
Na 15.188665207187984 19.16432889533062 11.684892120653993
Na 13.379718326818335 16.500339375210768 11.499879186149178
Na 17.526775416338612 11.985184974252961 12.13820439876716
Na 14.715502169779414 13.96272021698126 13.375505371949055
Na 9.501654334005027 7.539880253358628 12.980888803264879
Na 11.951929290731277 18.98451260060574 13.677648176377561
Na 8.656357567701475 13.635042896131703 13.90724155378671
Na 11.688559996761557 15.59266029642594 14.471884967221495
Na 11.974777484281793 12.12132736930553 14.781794848019386
Na 15.11719014549681 17.144830205358705 14.829597092895298
Na 18.577533165225546 10.33331590735745 15.436730407898557
Na 12.733318112979052 8.612573786287511 14.65970561998984
Na 15.34116943414573 11.092348620528362 15.16877529399674
Na 17.521101957343067 14.032822120686971 15.405939711713414
Na 8.97272538547994 17.178552755299272 15.526095903244814
Na 9.263348883968867 10.256747440747164 15.671563339824269
Na 13.953833596506051 14.047086054246494 16.717444010054262
Na 15.745019338507277 8.421462689560222 17.14366131076338
Na 10.354830728334445 13.852701453365663 17.386807670927844
Na 12.377570606662124 17.194867634422874 17.501078848541194
Na 12.798306301316082 10.696624053976626 17.86942374504079
Na 16.29916276528119 11.96800262082598 18.434934108926296
Na 15.914609182678321 16.04490805118974 18.32109256248584
Na 13.242709270705616 13.766116204863264 19.96247706939989
