41
Energy = -43.68439035 eV
Na 12.813384105637049 12.038480582647162 7.078103225306941
Na 13.088098581676665 8.198938255291788 7.030942640571278
Na 12.867003664848124 15.762465985935036 7.627366723752533
Na 14.946560602267631 13.394677309409142 9.570492860743657
Na 16.03872867584767 10.413513488378369 7.017359001515072
Na 10.489881574669644 9.821213033144257 8.755001825463882
Na 15.91054460332819 7.371552433526323 8.961328260822908
Na 12.18695055140505 7.213008535848669 10.720039657646135
Na 15.274470910788883 16.941879216859643 10.477316587963475
Na 10.001291788775035 13.318655832457294 8.7543525937236
Na 13.896487880826964 10.015005700577163 9.88238623500217
Na 12.117391850999113 18.800077273516948 9.832295818064546
Na 11.83970836910077 15.484257387893459 10.822265826930575
Na 9.400408568014512 16.820518866225463 8.678898767332974
Na 9.20199972897647 9.61327304063684 11.953598145523307
Na 17.686121323084244 13.946461823976609 12.021747637434247
Na 13.11821641437137 17.97301531316664 13.252053236572403
Na 17.461318204021612 10.499709614872332 10.305903679342551
Na 9.321043811998441 17.397010803254084 12.24462397037766
Na 8.523475247458723 13.741838617121788 12.002172927446052
Na 16.68280073115994 16.951877907102613 14.003949285319196
Na 11.823396463064682 12.124921745028077 11.677960807487219
Na 6.569026440457725 11.191414740849018 14.209025979207476
Na 14.36520522940108 14.694846373421765 12.963159542480435
Na 15.194361723190307 11.41345014766294 12.769807253070873
Na 15.589183208449132 8.029714406917828 12.536339420494475
Na 11.017585713845518 15.150874991819634 14.316277086265398
Na 7.7407740393569355 14.453023682869464 15.581318190295121
Na 12.325988196916587 9.129015361102207 13.77218337608202
Na 9.881441327698429 11.75970555698103 14.674188377316735
Na 18.332252306871613 10.60905515974145 13.857683342421952
Na 8.975268800659368 8.501480796188904 15.347082687611447
Na 13.103275154424066 12.446317210235565 15.277356665426376
Na 16.732231601585912 13.401869467965593 15.589741999698118
Na 13.979256622179065 15.72676336748019 16.37293524101998
Na 8.020096947572123 11.295668706774729 17.606493711522997
Na 15.333903953681368 9.840612865600715 16.006294515364484
Na 10.77538765947526 13.727298046211585 17.697775415911842
Na 11.656308281668798 10.0935353034574 17.40497519128363
Na 7.574318987113988 14.434505115112941 19.192206060587754
Na 14.394701384938797 12.508347164544556 18.404847461402277
