51
Energy = -53.89769766 eV
Na 20.97946179856977 12.358396750806987 10.589531798936614
Na 20.634052754130924 15.237405464085688 12.338982789257875
Na 20.891533729154947 12.412867936100163 14.266480165805621
Na 20.874566311300658 18.412349126279306 13.324078869204392
Na 20.754906176708772 15.583916195118546 15.824026197426283
Na 18.735135851470968 18.567410166507717 15.968845917137278
Na 19.12556672316893 12.804638982195552 17.185533639383614
Na 19.28125761271733 9.616666467678218 15.62050840709138
Na 18.20266084425073 15.940874555216961 18.158951152674657
Na 17.715849370637706 13.159189747242122 20.43313152424921
Na 18.4518949765169 10.701069673527554 12.221779737098007
Na 17.876734087696168 14.214986973264264 10.431892936267065
Na 17.60210312070859 17.062137845038063 12.724457776722371
Na 18.192244249676595 20.434976739877722 12.452236920501187
Na 17.58768017832598 13.973833434557054 14.235308752431033
Na 15.598249020601981 16.792510414317615 15.59440006929735
Na 15.960069546200923 20.383410245635517 14.97719171019899
Na 16.91057477348848 10.331739347450563 18.276020671093676
Na 16.109397946936557 10.79677227382913 14.858310643149789
Na 15.527070171748406 13.641778369818573 17.07585518750851
Na 16.386776536641165 17.15755586650379 9.23104149674039
Na 16.430297213311356 19.006161383267862 18.52297929317677
Na 15.303195048490537 15.857360371712149 19.985563409546597
Na 14.41718333115728 12.277650149359744 20.23862787114047
Na 15.675930028179705 8.705484910095977 11.804087784968372
Na 13.689817396954036 21.170823192707893 17.369945651412337
Na 13.5636928113036 10.613288922666634 17.216343564727175
Na 15.37091711024118 12.18813153850141 11.65056970943474
Na 14.854853964944029 19.1053201995672 11.699697182079856
Na 13.123331093934528 17.843357145898793 18.08587339812458
Na 14.589685118385274 15.51172671401745 12.026883903503384
Na 12.215036071522444 14.648327258117556 19.029964710086233
Na 14.910611978670321 13.853847675711354 8.567118858960905
Na 12.823767399002296 19.197352662454186 14.509186206356494
Na 13.08744616687778 9.216625158748467 13.97482860839135
Na 13.162250486944409 12.855920707424808 14.1662724206626
Na 10.94270728552496 11.292841308674703 19.50694967229243
Na 12.297108705257106 15.881646095348517 15.284528745619017
Na 12.888489414983901 16.63747369248202 8.767862646362788
Na 12.846772293554928 10.238369430932574 10.38106670466971
Na 10.520801329328451 20.076965437918272 17.028644422593324
Na 11.920609890697364 13.68839905554941 10.467708826766422
Na 10.386238517158471 9.796280037584783 16.106345167501342
Na 9.762745719539739 16.701794639908055 17.80388848814606
Na 11.571735798624642 17.283859392550642 11.791820297323946
Na 10.39305696873472 13.238483994578337 16.511841018464064
Na 10.41206185261052 11.104673472819051 12.584535890598803
Na 9.46640368080995 17.966646938614698 14.40358670231009
Na 9.811856132187897 14.528742908878545 13.039458579923371
Na 7.542994790652335 15.24148533291382 15.598643538505408
Na 7.753264751990164 11.96874310682026 14.615716524977847
