6
Energy = -4.57818733 eV
Na 7.632010490236324 10.131306904447479 11.294397105149521
Na 10.92760289126164 9.489583795497067 11.682032075018743
Na 10.411401061023883 8.07875140981764 8.641192143214917
Na 9.96790039911707 11.395521463436085 9.204765998792368
Na 10.489848502879802 12.802320573949117 12.241999085999606
Na 13.258394563164703 10.789673760536408 9.622771499508268
