9
Energy = -7.92534009 eV
Na 8.513394508443707 8.54933464083038 8.522580162997242
Na 12.35361725661435 11.38508911098643 11.638472528396367
Na 10.603043670150836 10.124819503050732 6.174246357241119
Na 9.1863041732813 12.906018529900601 12.550213044065664
Na 6.90087002646194 10.86053230248781 10.623428209788795
Na 10.366455493939428 5.994922621083381 10.040548955471165
Na 12.050418956298977 8.934176415108395 9.145772369256727
Na 9.932115308612444 11.771717775028579 9.164128549270217
Na 9.705352446807494 9.084960942134023 11.752181664123171
