  35  35   0   0
  0.2833450E+03  0.2148463E-08  0.2148463E-08  0.2148463E-08  0.1000000E-15
  1.000000000000000E-004
  CAR 
 unknown system                          
      1.98316509    -10.16184238  301     -3.34039652      1.00000000
    -10.162  0.0000E+00  0.0000E+00  0.0000E+00  0.0000E+00
    -10.121  0.0000E+00  0.0000E+00  0.0000E+00  0.0000E+00
    -10.081  0.0000E+00  0.0000E+00  0.0000E+00  0.0000E+00
    -10.040  0.0000E+00  0.0000E+00  0.0000E+00  0.0000E+00
    -10.000  0.0000E+00  0.0000E+00  0.0000E+00  0.0000E+00
     -9.959  0.0000E+00  0.0000E+00  0.0000E+00  0.0000E+00
     -9.919  0.0000E+00  0.0000E+00  0.0000E+00  0.0000E+00
     -9.878  0.0000E+00  0.0000E+00  0.0000E+00  0.0000E+00
     -9.838  0.0000E+00  0.0000E+00  0.0000E+00  0.0000E+00
     -9.797  0.0000E+00  0.0000E+00  0.0000E+00  0.0000E+00
     -9.757  0.0000E+00  0.0000E+00  0.0000E+00  0.0000E+00
     -9.717  0.0000E+00  0.0000E+00  0.0000E+00  0.0000E+00
     -9.676  0.0000E+00  0.0000E+00  0.0000E+00  0.0000E+00
     -9.636  0.0000E+00  0.0000E+00  0.0000E+00  0.0000E+00
     -9.595  0.0000E+00  0.0000E+00  0.1000E-02  0.0000E+00
     -9.555  0.0000E+00  0.0000E+00  0.1000E-02  0.1000E-02
     -9.514  0.0000E+00  0.0000E+00  0.1000E-02  0.1000E-02
     -9.474  0.0000E+00  0.0000E+00  0.1000E-02  0.1000E-02
     -9.433  0.0000E+00  0.0000E+00  0.1000E-02  0.1000E-02
     -9.393  0.0000E+00  0.0000E+00  0.1000E-02  0.1000E-02
     -9.352  0.0000E+00  0.0000E+00  0.1000E-02  0.1000E-02
     -9.312  0.0000E+00  0.0000E+00  0.1000E-02  0.1000E-02
     -9.271  0.0000E+00  0.0000E+00  0.1000E-02  0.1000E-02
     -9.231  0.0000E+00  0.0000E+00  0.1000E-02  0.1000E-02
     -9.190  0.0000E+00  0.0000E+00  0.1000E-02  0.1000E-02
     -9.150  0.0000E+00  0.0000E+00  0.1000E-02  0.1000E-02
     -9.109  0.0000E+00  0.0000E+00  0.2000E-02  0.1000E-02
     -9.069  0.0000E+00  0.0000E+00  0.3000E-02  0.2000E-02
     -9.028  0.0000E+00  0.0000E+00  0.4000E-02  0.3000E-02
     -8.988  0.0000E+00  0.0000E+00  0.4000E-02  0.4000E-02
     -8.947  0.0000E+00  0.3991E-02  0.5000E-02  0.4162E-02
     -8.907  0.0000E+00  0.0000E+00  0.6000E-02  0.6000E-02
     -8.866  0.0000E+00  0.0000E+00  0.9000E-02  0.7000E-02
     -8.826  0.0000E+00  0.0000E+00  0.1000E-01  0.9000E-02
     -8.785  0.0000E+00  0.0000E+00  0.1100E-01  0.1000E-01
     -8.745  0.0000E+00  0.0000E+00  0.1200E-01  0.1200E-01
     -8.704  0.0000E+00  0.0000E+00  0.1300E-01  0.1300E-01
     -8.664  0.0000E+00  0.0000E+00  0.1500E-01  0.1500E-01
     -8.623  0.0000E+00  0.2470E-01  0.1600E-01  0.1600E-01
     -8.583  0.0000E+00  0.0000E+00  0.1900E-01  0.1800E-01
     -8.543  0.0000E+00  0.0000E+00  0.2100E-01  0.2100E-01
     -8.502  0.0000E+00  0.0000E+00  0.2400E-01  0.2400E-01
     -8.462  0.0000E+00  0.0000E+00  0.2600E-01  0.2600E-01
     -8.421  0.0000E+00  0.0000E+00  0.3100E-01  0.2900E-01
     -8.381  0.0000E+00  0.0000E+00  0.3100E-01  0.3100E-01
     -8.340  0.0000E+00  0.0000E+00  0.3400E-01  0.3400E-01
     -8.300  0.0000E+00  0.0000E+00  0.3600E-01  0.3500E-01
     -8.259  0.0000E+00  0.0000E+00  0.3700E-01  0.3700E-01
     -8.219  0.0000E+00  0.0000E+00  0.4000E-01  0.4000E-01
     -8.178  0.0000E+00  0.2088E-02  0.4400E-01  0.4208E-01
     -8.138  0.0000E+00  0.0000E+00  0.4600E-01  0.4600E-01
     -8.097  0.0000E+00  0.0000E+00  0.4800E-01  0.4700E-01
     -8.057  0.0000E+00  0.0000E+00  0.4900E-01  0.4900E-01
     -8.016  0.0000E+00  0.0000E+00  0.5200E-01  0.5200E-01
     -7.976  0.0000E+00  0.0000E+00  0.5300E-01  0.5300E-01
     -7.935  0.0000E+00  0.0000E+00  0.5700E-01  0.5600E-01
     -7.895  0.0000E+00  0.0000E+00  0.5800E-01  0.5800E-01
     -7.854  0.0000E+00  0.2450E-01  0.6100E-01  0.6099E-01
     -7.814  0.0000E+00  0.0000E+00  0.6300E-01  0.6200E-01
     -7.773  0.0000E+00  0.0000E+00  0.6400E-01  0.6400E-01
     -7.733  0.0000E+00  0.0000E+00  0.6700E-01  0.6700E-01
     -7.692  0.0000E+00  0.0000E+00  0.7000E-01  0.6900E-01
     -7.652  0.0000E+00  0.0000E+00  0.7200E-01  0.7100E-01
     -7.611  0.0000E+00  0.0000E+00  0.7300E-01  0.7300E-01
     -7.571  0.0000E+00  0.0000E+00  0.7600E-01  0.7500E-01
     -7.530  0.2470E-01  0.0000E+00  0.7800E-01  0.7700E-01
     -7.490  0.0000E+00  0.0000E+00  0.8100E-01  0.8000E-01
     -7.449  0.0000E+00  0.0000E+00  0.8300E-01  0.8300E-01
     -7.409  0.0000E+00  0.0000E+00  0.8500E-01  0.8500E-01
     -7.368  0.0000E+00  0.0000E+00  0.8800E-01  0.8800E-01
     -7.328  0.0000E+00  0.0000E+00  0.9100E-01  0.9000E-01
     -7.288  0.0000E+00  0.0000E+00  0.9400E-01  0.9300E-01
     -7.247  0.0000E+00  0.0000E+00  0.9500E-01  0.9500E-01
     -7.207  0.0000E+00  0.0000E+00  0.9900E-01  0.9800E-01
     -7.166  0.0000E+00  0.0000E+00  0.1000E+00  0.9900E-01
     -7.126  0.0000E+00  0.0000E+00  0.1030E+00  0.1020E+00
     -7.085  0.0000E+00  0.0000E+00  0.1060E+00  0.1050E+00
     -7.045  0.0000E+00  0.0000E+00  0.1070E+00  0.1070E+00
     -7.004  0.0000E+00  0.0000E+00  0.1100E+00  0.1090E+00
     -6.964  0.0000E+00  0.0000E+00  0.1120E+00  0.1120E+00
     -6.923  0.0000E+00  0.0000E+00  0.1160E+00  0.1150E+00
     -6.883  0.0000E+00  0.0000E+00  0.1180E+00  0.1170E+00
     -6.842  0.0000E+00  0.0000E+00  0.1210E+00  0.1210E+00
     -6.802  0.0000E+00  0.0000E+00  0.1230E+00  0.1220E+00
     -6.761  0.0000E+00  0.0000E+00  0.1260E+00  0.1260E+00
     -6.721  0.0000E+00  0.0000E+00  0.1280E+00  0.1280E+00
     -6.680  0.0000E+00  0.0000E+00  0.1320E+00  0.1310E+00
     -6.640  0.0000E+00  0.0000E+00  0.1360E+00  0.1350E+00
     -6.599  0.0000E+00  0.0000E+00  0.1390E+00  0.1380E+00
     -6.559  0.0000E+00  0.0000E+00  0.1430E+00  0.1430E+00
     -6.518  0.0000E+00  0.2183E-05  0.1470E+00  0.1460E+00
     -6.478  0.0000E+00  0.0000E+00  0.1510E+00  0.1510E+00
     -6.437  0.0000E+00  0.1567E-05  0.1560E+00  0.1550E+00
     -6.397  0.0000E+00  0.0000E+00  0.1600E+00  0.1600E+00
     -6.356  0.0000E+00  0.0000E+00  0.1630E+00  0.1620E+00
     -6.316  0.0000E+00  0.0000E+00  0.1660E+00  0.1660E+00
     -6.275  0.0000E+00  0.0000E+00  0.1690E+00  0.1690E+00
     -6.235  0.0000E+00  0.0000E+00  0.1730E+00  0.1710E+00
     -6.194  0.0000E+00  0.0000E+00  0.1730E+00  0.1730E+00
     -6.154  0.0000E+00  0.0000E+00  0.1750E+00  0.1750E+00
     -6.114  0.0000E+00  0.0000E+00  0.1760E+00  0.1760E+00
     -6.073  0.0000E+00  0.0000E+00  0.1780E+00  0.1780E+00
     -6.033  0.0000E+00  0.0000E+00  0.1790E+00  0.1790E+00
     -5.992  0.0000E+00  0.0000E+00  0.1790E+00  0.1790E+00
     -5.952  0.0000E+00  0.0000E+00  0.1790E+00  0.1790E+00
     -5.911  0.0000E+00  0.0000E+00  0.1790E+00  0.1790E+00
     -5.871  0.0000E+00  0.0000E+00  0.1790E+00  0.1790E+00
     -5.830  0.0000E+00  0.0000E+00  0.1800E+00  0.1800E+00
     -5.790  0.0000E+00  0.0000E+00  0.1800E+00  0.1800E+00
     -5.749  0.0000E+00  0.0000E+00  0.1800E+00  0.1800E+00
     -5.709  0.0000E+00  0.0000E+00  0.1800E+00  0.1800E+00
     -5.668  0.0000E+00  0.0000E+00  0.1810E+00  0.1810E+00
     -5.628  0.0000E+00  0.0000E+00  0.1820E+00  0.1820E+00
     -5.587  0.0000E+00  0.0000E+00  0.1820E+00  0.1820E+00
     -5.547  0.0000E+00  0.0000E+00  0.1820E+00  0.1820E+00
     -5.506  0.0000E+00  0.0000E+00  0.1830E+00  0.1830E+00
     -5.466  0.0000E+00  0.0000E+00  0.1830E+00  0.1830E+00
     -5.425  0.0000E+00  0.0000E+00  0.1830E+00  0.1830E+00
     -5.385  0.0000E+00  0.0000E+00  0.1830E+00  0.1830E+00
     -5.344  0.0000E+00  0.0000E+00  0.1840E+00  0.1830E+00
     -5.304  0.0000E+00  0.0000E+00  0.1840E+00  0.1840E+00
     -5.263  0.0000E+00  0.0000E+00  0.1840E+00  0.1840E+00
     -5.223  0.0000E+00  0.0000E+00  0.1840E+00  0.1840E+00
     -5.182  0.0000E+00  0.0000E+00  0.1840E+00  0.1840E+00
     -5.142  0.0000E+00  0.0000E+00  0.1840E+00  0.1840E+00
     -5.101  0.0000E+00  0.0000E+00  0.1840E+00  0.1840E+00
     -5.061  0.0000E+00  0.0000E+00  0.1840E+00  0.1840E+00
     -5.020  0.0000E+00  0.0000E+00  0.1840E+00  0.1840E+00
     -4.980  0.0000E+00  0.0000E+00  0.1840E+00  0.1840E+00
     -4.939  0.0000E+00  0.0000E+00  0.1840E+00  0.1840E+00
     -4.899  0.0000E+00  0.0000E+00  0.1850E+00  0.1840E+00
     -4.859  0.0000E+00  0.0000E+00  0.1850E+00  0.1850E+00
     -4.818  0.0000E+00  0.0000E+00  0.1850E+00  0.1850E+00
     -4.778  0.0000E+00  0.0000E+00  0.1850E+00  0.1850E+00
     -4.737  0.0000E+00  0.0000E+00  0.1850E+00  0.1850E+00
     -4.697  0.0000E+00  0.0000E+00  0.1850E+00  0.1850E+00
     -4.656  0.0000E+00  0.0000E+00  0.1850E+00  0.1850E+00
     -4.616  0.0000E+00  0.0000E+00  0.1850E+00  0.1850E+00
     -4.575  0.0000E+00  0.0000E+00  0.1850E+00  0.1850E+00
     -4.535  0.0000E+00  0.0000E+00  0.1850E+00  0.1850E+00
     -4.494  0.0000E+00  0.0000E+00  0.1850E+00  0.1850E+00
     -4.454  0.0000E+00  0.0000E+00  0.1850E+00  0.1850E+00
     -4.413  0.0000E+00  0.0000E+00  0.1850E+00  0.1850E+00
     -4.373  0.0000E+00  0.0000E+00  0.1860E+00  0.1860E+00
     -4.332  0.0000E+00  0.0000E+00  0.1870E+00  0.1860E+00
     -4.292  0.0000E+00  0.0000E+00  0.1870E+00  0.1870E+00
     -4.251  0.0000E+00  0.0000E+00  0.1870E+00  0.1870E+00
     -4.211  0.0000E+00  0.0000E+00  0.1870E+00  0.1870E+00
     -4.170  0.0000E+00  0.0000E+00  0.1880E+00  0.1880E+00
     -4.130  0.0000E+00  0.0000E+00  0.1880E+00  0.1880E+00
     -4.089  0.0000E+00  0.0000E+00  0.1890E+00  0.1890E+00
     -4.049  0.0000E+00  0.0000E+00  0.1890E+00  0.1890E+00
     -4.008  0.0000E+00  0.0000E+00  0.1900E+00  0.1900E+00
     -3.968  0.0000E+00  0.0000E+00  0.1900E+00  0.1900E+00
     -3.927  0.0000E+00  0.0000E+00  0.1900E+00  0.1900E+00
     -3.887  0.0000E+00  0.0000E+00  0.1900E+00  0.1900E+00
     -3.846  0.0000E+00  0.0000E+00  0.1900E+00  0.1900E+00
     -3.806  0.0000E+00  0.0000E+00  0.1900E+00  0.1900E+00
     -3.765  0.0000E+00  0.0000E+00  0.1910E+00  0.1900E+00
     -3.725  0.0000E+00  0.0000E+00  0.1910E+00  0.1910E+00
     -3.685  0.0000E+00  0.0000E+00  0.1910E+00  0.1910E+00
     -3.644  0.0000E+00  0.0000E+00  0.1910E+00  0.1910E+00
     -3.604  0.0000E+00  0.0000E+00  0.1920E+00  0.1910E+00
     -3.563  0.0000E+00  0.0000E+00  0.1920E+00  0.1920E+00
     -3.523  0.0000E+00  0.0000E+00  0.1920E+00  0.1920E+00
     -3.482  0.0000E+00  0.0000E+00  0.1920E+00  0.1920E+00
     -3.442  0.0000E+00  0.0000E+00  0.1920E+00  0.1920E+00
     -3.401  0.0000E+00  0.0000E+00  0.1920E+00  0.1920E+00
     -3.361  0.0000E+00  0.0000E+00  0.1920E+00  0.1920E+00
     -3.320  0.0000E+00  0.0000E+00  0.1930E+00  0.1920E+00
     -3.280  0.0000E+00  0.0000E+00  0.1930E+00  0.1920E+00
     -3.239  0.0000E+00  0.0000E+00  0.1930E+00  0.1930E+00
     -3.199  0.0000E+00  0.0000E+00  0.1930E+00  0.1930E+00
     -3.158  0.0000E+00  0.0000E+00  0.1930E+00  0.1930E+00
     -3.118  0.0000E+00  0.0000E+00  0.1930E+00  0.1930E+00
     -3.077  0.0000E+00  0.0000E+00  0.1930E+00  0.1930E+00
     -3.037  0.0000E+00  0.0000E+00  0.1930E+00  0.1930E+00
     -2.996  0.0000E+00  0.0000E+00  0.1930E+00  0.1930E+00
     -2.956  0.0000E+00  0.0000E+00  0.1930E+00  0.1930E+00
     -2.915  0.0000E+00  0.0000E+00  0.1940E+00  0.1940E+00
     -2.875  0.0000E+00  0.0000E+00  0.1940E+00  0.1940E+00
     -2.834  0.1098E-01  0.0000E+00  0.1944E+00  0.1940E+00
     -2.794  0.0000E+00  0.0000E+00  0.1950E+00  0.1950E+00
     -2.753  0.0000E+00  0.0000E+00  0.1950E+00  0.1950E+00
     -2.713  0.0000E+00  0.0000E+00  0.1950E+00  0.1950E+00
     -2.672  0.0000E+00  0.0000E+00  0.1950E+00  0.1950E+00
     -2.632  0.0000E+00  0.0000E+00  0.1950E+00  0.1950E+00
     -2.591  0.0000E+00  0.0000E+00  0.1960E+00  0.1950E+00
     -2.551  0.0000E+00  0.0000E+00  0.1960E+00  0.1960E+00
     -2.510  0.0000E+00  0.0000E+00  0.1970E+00  0.1970E+00
     -2.470  0.0000E+00  0.0000E+00  0.1980E+00  0.1980E+00
     -2.430  0.0000E+00  0.0000E+00  0.1990E+00  0.1980E+00
     -2.389  0.0000E+00  0.0000E+00  0.1990E+00  0.1990E+00
     -2.349  0.0000E+00  0.0000E+00  0.2000E+00  0.1990E+00
     -2.308  0.0000E+00  0.0000E+00  0.2000E+00  0.2000E+00
     -2.268  0.0000E+00  0.0000E+00  0.2000E+00  0.2000E+00
     -2.227  0.0000E+00  0.0000E+00  0.2010E+00  0.2000E+00
     -2.187  0.0000E+00  0.0000E+00  0.2010E+00  0.2010E+00
     -2.146  0.0000E+00  0.0000E+00  0.2020E+00  0.2020E+00
     -2.106  0.0000E+00  0.0000E+00  0.2020E+00  0.2020E+00
     -2.065  0.0000E+00  0.0000E+00  0.2020E+00  0.2020E+00
     -2.025  0.0000E+00  0.0000E+00  0.2020E+00  0.2020E+00
     -1.984  0.0000E+00  0.0000E+00  0.2020E+00  0.2020E+00
     -1.944  0.0000E+00  0.0000E+00  0.2020E+00  0.2020E+00
     -1.903  0.0000E+00  0.0000E+00  0.2020E+00  0.2020E+00
     -1.863  0.0000E+00  0.0000E+00  0.2030E+00  0.2020E+00
     -1.822  0.0000E+00  0.0000E+00  0.2040E+00  0.2030E+00
     -1.782  0.0000E+00  0.0000E+00  0.2050E+00  0.2040E+00
     -1.741  0.0000E+00  0.0000E+00  0.2050E+00  0.2050E+00
     -1.701  0.0000E+00  0.0000E+00  0.2050E+00  0.2050E+00
     -1.660  0.0000E+00  0.0000E+00  0.2060E+00  0.2050E+00
     -1.620  0.0000E+00  0.0000E+00  0.2060E+00  0.2060E+00
     -1.579  0.0000E+00  0.0000E+00  0.2060E+00  0.2060E+00
     -1.539  0.0000E+00  0.0000E+00  0.2070E+00  0.2060E+00
     -1.498  0.0000E+00  0.0000E+00  0.2070E+00  0.2070E+00
     -1.458  0.0000E+00  0.0000E+00  0.2070E+00  0.2070E+00
     -1.417  0.0000E+00  0.0000E+00  0.2070E+00  0.2070E+00
     -1.377  0.0000E+00  0.0000E+00  0.2080E+00  0.2070E+00
     -1.336  0.0000E+00  0.0000E+00  0.2080E+00  0.2080E+00
     -1.296  0.0000E+00  0.0000E+00  0.2080E+00  0.2080E+00
     -1.256  0.0000E+00  0.0000E+00  0.2090E+00  0.2090E+00
     -1.215  0.0000E+00  0.0000E+00  0.2090E+00  0.2090E+00
     -1.175  0.0000E+00  0.0000E+00  0.2090E+00  0.2090E+00
     -1.134  0.2470E-01  0.0000E+00  0.2100E+00  0.2090E+00
     -1.094  0.0000E+00  0.0000E+00  0.2100E+00  0.2100E+00
     -1.053  0.0000E+00  0.0000E+00  0.2100E+00  0.2100E+00
     -1.013  0.0000E+00  0.0000E+00  0.2100E+00  0.2100E+00
     -0.972  0.0000E+00  0.0000E+00  0.2100E+00  0.2100E+00
     -0.932  0.0000E+00  0.0000E+00  0.2100E+00  0.2100E+00
     -0.891  0.0000E+00  0.0000E+00  0.2110E+00  0.2100E+00
     -0.851  0.0000E+00  0.0000E+00  0.2110E+00  0.2110E+00
     -0.810  0.0000E+00  0.0000E+00  0.2110E+00  0.2110E+00
     -0.770  0.0000E+00  0.0000E+00  0.2120E+00  0.2110E+00
     -0.729  0.0000E+00  0.0000E+00  0.2120E+00  0.2120E+00
     -0.689  0.0000E+00  0.0000E+00  0.2120E+00  0.2120E+00
     -0.648  0.0000E+00  0.0000E+00  0.2130E+00  0.2120E+00
     -0.608  0.0000E+00  0.0000E+00  0.2130E+00  0.2130E+00
     -0.567  0.0000E+00  0.0000E+00  0.2130E+00  0.2130E+00
     -0.527  0.0000E+00  0.0000E+00  0.2140E+00  0.2130E+00
     -0.486  0.0000E+00  0.0000E+00  0.2150E+00  0.2140E+00
     -0.446  0.0000E+00  0.0000E+00  0.2150E+00  0.2150E+00
     -0.405  0.0000E+00  0.0000E+00  0.2160E+00  0.2150E+00
     -0.365  0.0000E+00  0.0000E+00  0.2160E+00  0.2160E+00
     -0.324  0.0000E+00  0.0000E+00  0.2160E+00  0.2160E+00
     -0.284  0.0000E+00  0.0000E+00  0.2170E+00  0.2160E+00
     -0.243  0.0000E+00  0.0000E+00  0.2180E+00  0.2170E+00
     -0.203  0.0000E+00  0.0000E+00  0.2180E+00  0.2170E+00
     -0.162  0.0000E+00  0.0000E+00  0.2190E+00  0.2180E+00
     -0.122  0.0000E+00  0.0000E+00  0.2190E+00  0.2190E+00
     -0.081  0.0000E+00  0.0000E+00  0.2200E+00  0.2190E+00
     -0.041  0.0000E+00  0.0000E+00  0.2200E+00  0.2200E+00
     -0.001  0.0000E+00  0.0000E+00  0.2200E+00  0.2200E+00
      0.040  0.0000E+00  0.0000E+00  0.2210E+00  0.2200E+00
      0.080  0.0000E+00  0.2423E-01  0.2230E+00  0.2220E+00
      0.121  0.0000E+00  0.0000E+00  0.2230E+00  0.2220E+00
      0.161  0.0000E+00  0.0000E+00  0.2230E+00  0.2230E+00
      0.202  0.0000E+00  0.0000E+00  0.2240E+00  0.2230E+00
      0.242  0.0000E+00  0.0000E+00  0.2240E+00  0.2240E+00
      0.283  0.0000E+00  0.0000E+00  0.2250E+00  0.2240E+00
      0.323  0.0000E+00  0.0000E+00  0.2260E+00  0.2250E+00
      0.364  0.0000E+00  0.0000E+00  0.2260E+00  0.2260E+00
      0.404  0.0000E+00  0.0000E+00  0.2270E+00  0.2270E+00
      0.445  0.0000E+00  0.0000E+00  0.2270E+00  0.2270E+00
      0.485  0.0000E+00  0.0000E+00  0.2270E+00  0.2270E+00
      0.526  0.0000E+00  0.0000E+00  0.2270E+00  0.2270E+00
      0.566  0.0000E+00  0.0000E+00  0.2270E+00  0.2270E+00
      0.607  0.0000E+00  0.0000E+00  0.2280E+00  0.2270E+00
      0.647  0.0000E+00  0.0000E+00  0.2290E+00  0.2290E+00
      0.688  0.0000E+00  0.0000E+00  0.2290E+00  0.2290E+00
      0.728  0.0000E+00  0.0000E+00  0.2290E+00  0.2290E+00
      0.769  0.0000E+00  0.0000E+00  0.2300E+00  0.2290E+00
      0.809  0.0000E+00  0.0000E+00  0.2310E+00  0.2300E+00
      0.850  0.0000E+00  0.0000E+00  0.2330E+00  0.2320E+00
      0.890  0.0000E+00  0.0000E+00  0.2330E+00  0.2330E+00
      0.931  0.0000E+00  0.0000E+00  0.2330E+00  0.2330E+00
      0.971  0.0000E+00  0.0000E+00  0.2340E+00  0.2330E+00
      1.012  0.0000E+00  0.0000E+00  0.2360E+00  0.2340E+00
      1.052  0.0000E+00  0.0000E+00  0.2380E+00  0.2370E+00
      1.093  0.0000E+00  0.0000E+00  0.2390E+00  0.2380E+00
      1.133  0.0000E+00  0.0000E+00  0.2400E+00  0.2390E+00
      1.173  0.0000E+00  0.0000E+00  0.2420E+00  0.2410E+00
      1.214  0.0000E+00  0.0000E+00  0.2440E+00  0.2430E+00
      1.254  0.0000E+00  0.2470E-01  0.2460E+00  0.2450E+00
      1.295  0.2470E-01  0.0000E+00  0.2490E+00  0.2470E+00
      1.335  0.0000E+00  0.0000E+00  0.2490E+00  0.2490E+00
      1.376  0.0000E+00  0.0000E+00  0.2490E+00  0.2490E+00
      1.416  0.0000E+00  0.0000E+00  0.2510E+00  0.2500E+00
      1.457  0.0000E+00  0.0000E+00  0.2520E+00  0.2520E+00
      1.497  0.0000E+00  0.0000E+00  0.2520E+00  0.2520E+00
      1.538  0.0000E+00  0.0000E+00  0.2520E+00  0.2520E+00
      1.578  0.0000E+00  0.0000E+00  0.2520E+00  0.2520E+00
      1.619  0.0000E+00  0.0000E+00  0.2520E+00  0.2520E+00
      1.659  0.0000E+00  0.0000E+00  0.2520E+00  0.2520E+00
      1.700  0.0000E+00  0.0000E+00  0.2520E+00  0.2520E+00
      1.740  0.0000E+00  0.0000E+00  0.2520E+00  0.2520E+00
      1.781  0.0000E+00  0.0000E+00  0.2520E+00  0.2520E+00
      1.821  0.0000E+00  0.0000E+00  0.2520E+00  0.2520E+00
      1.862  0.0000E+00  0.0000E+00  0.2520E+00  0.2520E+00
      1.902  0.0000E+00  0.0000E+00  0.2520E+00  0.2520E+00
      1.943  0.0000E+00  0.0000E+00  0.2520E+00  0.2520E+00
      1.983  0.0000E+00  0.0000E+00  0.2520E+00  0.2520E+00
