   37   37 1000    2
  0.3405717E+03  0.2327038E-08  0.2327038E-08  0.2327038E-08  0.1000000E-15
  1.000000000000000E-004
  CAR 
 unknown system                          
    407      1    264
 
  0.0000000E+00  0.0000000E+00  0.0000000E+00  0.1000000E+01
    1       -9.793855     -9.775729
    2       -9.342239     -9.331018
    3       -9.242894     -9.233950
    4       -9.209484     -9.201103
    5       -9.119172     -9.105662
    6       -9.093791     -9.081983
    7       -9.083932     -9.072563
    8       -9.046938     -9.035540
    9       -9.027673     -9.016685
   10       -9.012681     -9.003846
   11       -9.004301     -8.995924
   12       -8.933668     -8.924416
   13       -8.915270     -8.904016
   14       -8.898572     -8.886955
   15       -8.886252     -8.877455
   16       -8.850914     -8.841458
   17       -8.835108     -8.826004
   18       -8.808942     -8.800205
   19       -8.775235     -8.767423
   20       -8.773848     -8.765412
   21       -8.753392     -8.745828
   22       -8.728581     -8.719454
   23       -8.715419     -8.707849
   24       -8.683668     -8.674397
   25       -8.662973     -8.653689
   26       -8.646684     -8.639841
   27       -8.622470     -8.614034
   28       -8.621600     -8.611826
   29       -8.603875     -8.595732
   30       -8.586381     -8.576451
   31       -8.557256     -8.548824
   32       -8.542624     -8.534399
   33       -8.524757     -8.516272
   34       -8.508027     -8.500109
   35       -8.483778     -8.474572
   36       -8.476172     -8.464982
   37       -8.445558     -8.436726
   38       -8.438919     -8.432382
   39       -8.428898     -8.421022
   40       -8.407606     -8.398613
   41       -8.390888     -8.384395
   42       -8.371492     -8.363035
   43       -8.359611     -8.353256
   44       -8.346253     -8.338030
   45       -8.332539     -8.323248
   46       -8.314932     -8.306629
   47       -8.295350     -8.286128
   48       -8.282027     -8.272888
   49       -8.271852     -8.261809
   50       -8.252224     -8.242969
   51       -8.250385     -8.242621
   52       -8.230345     -8.221391
   53       -8.194878     -8.186952
   54       -8.189497     -8.180615
   55       -8.169337     -8.162083
   56       -8.144797     -8.136520
   57       -8.109015     -8.101489
   58       -8.097178     -8.089403
   59       -8.075508     -8.066667
   60       -8.056147     -8.048858
   61       -8.044201     -8.035852
   62       -8.030336     -8.020912
   63       -8.013839     -8.006092
   64       -7.999205     -7.989154
   65       -7.977433     -7.968177
   66       -7.963469     -7.956961
   67       -7.947175     -7.939823
   68       -7.938746     -7.927936
   69       -7.924089     -7.916069
   70       -7.917182     -7.908814
   71       -7.897418     -7.888781
   72       -7.880012     -7.872590
   73       -7.863350     -7.856020
   74       -7.838550     -7.830621
   75       -7.820183     -7.811193
   76       -7.796865     -7.787959
   77       -7.783625     -7.775419
   78       -7.770524     -7.760919
   79       -7.753251     -7.746351
   80       -7.732638     -7.721427
   81       -7.711688     -7.703206
   82       -7.708214     -7.700465
   83       -7.676836     -7.669886
   84       -7.661460     -7.653180
   85       -7.651677     -7.643507
   86       -7.637563     -7.629241
   87       -7.611998     -7.603749
   88       -7.589324     -7.581407
   89       -7.577634     -7.569611
   90       -7.569208     -7.561545
   91       -7.538666     -7.531403
   92       -7.530029     -7.520945
   93       -7.509063     -7.502428
   94       -7.487024     -7.478536
   95       -7.468775     -7.461458
   96       -7.453518     -7.446624
   97       -7.437775     -7.429621
   98       -7.414375     -7.408447
   99       -7.408283     -7.401686
  100       -7.366779     -7.359664
  101       -7.358738     -7.351998
  102       -7.345067     -7.338718
  103       -7.324572     -7.318029
  104       -7.306150     -7.298833
  105       -7.291347     -7.283387
  106       -7.261539     -7.254666
  107       -7.251510     -7.244018
  108       -7.246467     -7.238633
  109       -7.211180     -7.203242
  110       -7.205062     -7.195666
  111       -7.186871     -7.181636
  112       -7.167200     -7.158598
  113       -7.161129     -7.153071
  114       -7.157756     -7.151850
  115       -7.124351     -7.116840
  116       -7.118263     -7.110806
  117       -7.104885     -7.096930
  118       -7.090848     -7.083092
  119       -7.084112     -7.075969
  120       -7.065895     -7.058125
  121       -7.048568     -7.041354
  122       -7.047406     -7.036811
  123       -7.041035     -7.033616
  124       -7.030120     -7.023832
  125       -7.010752     -7.004416
  126       -6.999722     -6.990936
  127       -6.995556     -6.987609
  128       -6.978135     -6.970934
  129       -6.970179     -6.962543
  130       -6.960183     -6.951715
  131       -6.953490     -6.946157
  132       -6.941596     -6.935326
  133       -6.923315     -6.916710
  134       -6.918150     -6.909599
  135       -6.899205     -6.891862
  136       -6.883128     -6.875674
  137       -6.874807     -6.866578
  138       -6.867584     -6.860363
  139       -6.853924     -6.847247
  140       -6.842673     -6.834510
  141       -6.841903     -6.832876
  142       -6.828584     -6.822432
  143       -6.821380     -6.813693
  144       -6.802066     -6.795195
  145       -6.799567     -6.792884
  146       -6.792694     -6.784532
  147       -6.779968     -6.772422
  148       -6.770283     -6.764016
  149       -6.765018     -6.757344
  150       -6.753736     -6.746526
  151       -6.737616     -6.731318
  152       -6.724199     -6.716518
  153       -6.717854     -6.712469
  154       -6.710477     -6.702894
  155       -6.694198     -6.686852
  156       -6.679993     -6.673944
  157       -6.666839     -6.659476
  158       -6.664494     -6.656692
  159       -6.648735     -6.642523
  160       -6.646760     -6.640944
  161       -6.632176     -6.625106
  162       -6.627575     -6.621539
  163       -6.611816     -6.605649
  164       -6.602537     -6.596509
  165       -6.591118     -6.585389
  166       -6.576124     -6.569547
  167       -6.565048     -6.558151
  168       -6.556310     -6.549592
  169       -6.544469     -6.537993
  170       -6.531984     -6.525914
  171       -6.511560     -6.504781
  172       -6.507212     -6.499119
  173       -6.488743     -6.482003
  174       -6.472951     -6.466515
  175       -6.456082     -6.449548
  176       -6.453899     -6.448060
  177       -6.437919     -6.431296
  178       -6.424007     -6.418143
  179       -6.406545     -6.399644
  180       -6.401855     -6.394091
  181       -6.377832     -6.372556
  182       -6.375101     -6.367072
  183       -6.349821     -6.341921
  184       -6.334096     -6.328601
  185       -6.320823     -6.310880
  186       -6.307091     -6.300363
  187       -6.275256     -6.268212
  188       -6.253023     -6.245117
  189       -6.230271     -6.223214
  190       -6.197870     -6.193698
  191       -5.883913     -5.868884
  192       -5.771177     -5.748879
  193       -5.675124     -5.661051
  194       -5.567703     -5.548672
  195       -5.188941     -5.166585
  196       -4.970033     -4.944518
  197       -4.696333     -4.672075
  198       -4.462040     -4.440282
  199       -4.294268     -4.265025
  200       -4.176455     -4.156646
  201       -4.000317     -3.981053
  202       -3.858506     -3.833530
  203       -3.693627     -3.673418
  204       -3.382466     -3.303835
  205       -3.247498     -3.224136
  206       -3.063046     -3.042886
  207       -2.928181     -2.908190
  208       -2.796971     -2.768412
  209       -2.670237     -2.644918
  210       -2.538967     -2.512923
  211       -2.450515     -2.426050
  212       -2.360417     -2.326197
  213       -2.189511     -2.156091
  214       -2.149377     -2.109845
  215       -2.020478     -1.999637
  216       -1.900862     -1.861564
  217       -1.825693     -1.793389
  218       -1.713156     -1.681739
  219       -1.577121     -1.548263
  220       -1.512965     -1.484373
  221       -1.333407     -1.286785
  222       -1.219297     -1.192498
  223       -1.151262     -1.123148
  224       -0.953095     -0.926659
  225       -0.848933     -0.822092
  226       -0.749888     -0.719886
  227       -0.672379     -0.648209
  228       -0.657090     -0.616702
  229       -0.562415     -0.534640
  230       -0.427452     -0.377781
  231       -0.386369     -0.354292
  232       -0.306411     -0.281162
  233       -0.246699     -0.218401
  234       -0.158907     -0.122831
  235       -0.114376     -0.078828
  236        0.015922      0.056932
  237        0.101486      0.130363
  238        0.267106      0.295595
  239        0.395041      0.425346
  240        0.456561      0.474994
  241        0.463409      0.484778
  242        0.554925      0.572382
  243        0.612234      0.626046
  244        0.640602      0.655606
  245        0.682507      0.702848
  246        0.695039      0.711669
  247        0.758786      0.780223
  248        0.779184      0.811278
  249        0.801694      0.821968
  250        0.853466      0.874805
  251        0.861556      0.878351
  252        0.877102      0.910428
  253        0.900559      0.920480
  254        0.942181      0.955628
  255        0.958084      0.959591
  256        0.965295      0.979214
  257        0.987679      0.998601
  258        0.989362      1.003826
  259        1.012446      1.034017
  260        1.044095      1.056759
  261        1.064694      1.082517
  262        1.089070      1.098087
  263        1.138512      1.147131
  264        1.164494      1.178312
