 vasp.5.3.5 31Mar14 (build Feb 01 2018 12:10:03) gamma-only                     
  
 executed on             LinuxIFC date 2019.03.23  03:07:37
 running on   64 total cores
 distrk:  each k-point on   64 cores,    1 groups
 distr:  one band on NCORES_PER_BAND=  16 cores,    4 groups


--------------------------------------------------------------------------------------------------------


 INCAR:
 POTCAR:    PAW_PBE Ag 02Apr2005                  
 POTCAR:    PAW_PBE Ag 02Apr2005                  
   VRHFIN =Ag : s1 d10                                                          
   LEXCH  = PE                                                                  
   EATOM  =  1037.2675 eV,   76.2370 Ry                                         
                                                                                
   TITEL  = PAW_PBE Ag 02Apr2005                                                
   LULTRA =        F    use ultrasoft PP ?                                      
   IUNSCR =        1    unscreen: 0-lin 1-nonlin 2-no                           
   RPACOR =    2.000    partial core radius                                     
   POMASS =  107.868; ZVAL   =   11.000    mass and valenz                      
   RCORE  =    2.500    outmost cutoff radius                                   
   RWIGS  =    2.840; RWIGS  =    1.503    wigner-seitz radius (au A)           
   ENMAX  =  249.844; ENMIN  =  187.383 eV                                      
   ICORE  =        3    local potential                                         
   LCOR   =        T    correct aug charges                                     
   LPAW   =        T    paw PP                                                  
   EAUG   =  412.496                                                            
   DEXC   =    0.000                                                            
   RMAX   =    2.560    core radius for proj-oper                               
   RAUG   =    1.300    factor for augmentation sphere                          
   RDEP   =    2.576    radius for radial grids                                 
   RDEPT  =    2.072    core radius for aug-charge                              
                                                                                
   Atomic configuration                                                         
   12 entries                                                                   
     n  l   j            E        occ.                                          
     1  0  0.50    -25324.9161   2.0000                                         
     2  0  0.50     -3728.5341   2.0000                                         
     2  1  1.50     -3344.0404   6.0000                                         
     3  0  0.50      -683.5581   2.0000                                         
     3  1  1.50      -557.3225   6.0000                                         
     3  2  2.50      -358.3853  10.0000                                         
     4  0  0.50       -95.0341   2.0000                                         
     4  1  1.50       -58.5511   6.0000                                         
     4  2  2.50        -7.4440  10.0000                                         
     5  0  0.50        -4.4045   1.0000                                         
     5  1  0.50        -1.3606   0.0000                                         
     4  3  2.50        -1.3606   0.0000                                         
   Description                                                                  
     l       E           TYP  RCUT    TYP  RCUT                                 
     2     -7.4439781     23  2.400                                             
     2     -8.8045607     23  2.400                                             
     0     -4.4044681     23  2.400                                             
     0      1.9520038     23  2.400                                             
     1     -1.3605826     23  2.500                                             
     1     27.2116520     23  2.500                                             
     3     -4.0817478     23  2.400                                             
  local pseudopotential read in
  partial core-charges read in
  partial kinetic energy density read in
  atomic valenz-charges read in
  non local Contribution for L=           2  read in
    real space projection operators read in
  non local Contribution for L=           2  read in
    real space projection operators read in
  non local Contribution for L=           0  read in
    real space projection operators read in
  non local Contribution for L=           0  read in
    real space projection operators read in
  non local Contribution for L=           1  read in
    real space projection operators read in
  non local Contribution for L=           1  read in
    real space projection operators read in
    PAW grid and wavefunctions read in
 
   number of l-projection  operators is LMAX  =           6
   number of lm-projection operators is LMMAX =          18
 

 ----------------------------------------------------------------------------- 
|                                                                             |
|  ADVICE TO THIS USER RUNNING 'VASP/VAMP'   (HEAR YOUR MASTER'S VOICE ...):  |
|                                                                             |
|      You have a (more or less) 'large supercell' and for larger cells       |
|      it might be more efficient to use real space projection opertators     |
|      So try LREAL= Auto  in the INCAR   file.                               |
|      Mind: At the moment your POTCAR file does not contain real space       |
|       projectors, and has to be modified,  BUT if you                       |
|      want to do an extremely  accurate calculation you might also keep the  |
|      reciprocal projection scheme          (i.e. LREAL=.FALSE.)             |
|                                                                             |
 ----------------------------------------------------------------------------- 

  PAW_PBE Ag 02Apr2005                  :
 energy of atom  1       EATOM=-1037.2675
 kinetic energy error for atom=    0.0689 (will be added to EATOM!!)
 
 
 POSCAR: Pt37, -183.79851564 <s> Ag </s>         
  positions in direct lattice
  No initial velocities read in
 exchange correlation table for  LEXCH =        8
   RHO(1)=    0.500       N(1)  =     2000
   RHO(2)=  100.500       N(2)  =     4000
 


--------------------------------------------------------------------------------------------------------


 ion  position               nearest neighbor table
   1  0.338  0.591  0.626-   8 2.76   6 2.79   2 2.79   4 2.84   3 2.86  11 3.05
   2  0.306  0.487  0.577-   7 2.70   6 2.73   1 2.79   3 2.84  11 3.03  13 3.06
   3  0.342  0.578  0.505-   5 2.74  11 2.75  10 2.83   2 2.84   1 2.86   7 2.92   4 3.01  17 3.47

   4  0.433  0.642  0.571-   9 2.75  11 2.77   8 2.81   1 2.84   5 2.89  16 2.98  17 2.99   3 3.01

   5  0.410  0.657  0.450-  17 2.68   3 2.74  12 2.80  10 2.84   4 2.89  14 2.98   9 3.41
   6  0.368  0.486  0.677-  18 2.70   2 2.73   1 2.79   8 2.80  13 2.80  11 3.15
   7  0.370  0.457  0.484-  15 2.68   2 2.70  11 2.76  22 2.82  10 2.83  13 2.91   3 2.92
   8  0.447  0.577  0.671-  28 2.75   1 2.76  16 2.78   6 2.80   4 2.81  11 2.84  18 2.99  19 3.24

   9  0.537  0.673  0.522-  16 2.67  12 2.70  17 2.72   4 2.75  25 2.78  20 2.79   5 3.41
  10  0.403  0.543  0.405-  17 2.68  15 2.74  21 2.81   3 2.83   7 2.83   5 2.84  14 2.98
  11  0.430  0.524  0.562-  19 2.64  13 2.70  17 2.74   3 2.75   7 2.76   4 2.77   8 2.84   2 3.03
                             1 3.05   6 3.15  22 3.42  18 3.54
  12  0.508  0.720  0.420-  14 2.69   9 2.70  20 2.80   5 2.80
  13  0.413  0.413  0.593-  11 2.70  22 2.76   6 2.80  23 2.82  18 2.84   7 2.91   2 3.06  19 3.55

  14  0.500  0.618  0.367-  12 2.69  17 2.70  21 2.70  24 2.81  20 2.88  10 2.98   5 2.98
  15  0.427  0.429  0.389-   7 2.68  29 2.73  10 2.74  21 2.75  22 2.78
  16  0.548  0.615  0.620-   9 2.67  19 2.68   8 2.78  25 2.79  28 2.80  30 2.91   4 2.98
  17  0.489  0.577  0.475-  27 2.65   5 2.68  10 2.68  14 2.70   9 2.72  11 2.74   4 2.99  20 3.39
                            19 3.45   3 3.47  24 3.53
  18  0.478  0.453  0.688-   6 2.70  26 2.74  28 2.79  19 2.82  13 2.84  23 2.89   8 2.99  11 3.54

  19  0.537  0.503  0.594-  11 2.64  23 2.64  27 2.66  30 2.67  16 2.68  18 2.82  28 3.05  26 3.14
                             8 3.24  31 3.41  17 3.45  25 3.52  13 3.55  22 3.58
  20  0.605  0.649  0.426-  33 2.70   9 2.79  12 2.80  24 2.82  25 2.85  14 2.88  17 3.39  27 3.59

  21  0.489  0.509  0.327-  14 2.70  29 2.73  15 2.75  24 2.75  10 2.81
  22  0.477  0.403  0.494-  23 2.72  32 2.75  13 2.76  15 2.78  29 2.79   7 2.82  11 3.42  27 3.48
                            19 3.58
  23  0.532  0.390  0.596-  19 2.64  22 2.72  32 2.76  13 2.82  31 2.88  18 2.89  26 2.91
  24  0.594  0.541  0.372-  33 2.74  21 2.75  34 2.79  29 2.80  14 2.81  20 2.82  27 2.84  17 3.53

  25  0.633  0.604  0.536-  27 2.72  35 2.74   9 2.78  16 2.79  33 2.83  30 2.83  20 2.85  19 3.52

  26  0.594  0.434  0.695-  31 2.68  18 2.74  28 2.80  30 2.88  23 2.91  19 3.14
  27  0.581  0.511  0.489-  17 2.65  19 2.66  25 2.72  24 2.84  32 2.84  29 2.86  34 2.95  35 2.99
                            33 3.17  22 3.48  20 3.59
  28  0.550  0.544  0.718-   8 2.75  18 2.79  26 2.80  16 2.80  30 2.88  19 3.05
  29  0.544  0.435  0.400-  34 2.71  21 2.73  15 2.73  32 2.75  22 2.79  24 2.80  27 2.86
  30  0.640  0.531  0.634-  19 2.67  35 2.72  25 2.83  31 2.87  26 2.88  28 2.88  16 2.91
  31  0.653  0.414  0.598-  26 2.68  36 2.69  32 2.80  35 2.82  30 2.87  23 2.88  19 3.41
  32  0.595  0.390  0.496-  29 2.75  22 2.75  23 2.76  36 2.79  31 2.80  34 2.82  27 2.84
  33  0.690  0.570  0.434-  20 2.70  37 2.73  24 2.74  35 2.82  25 2.83  34 2.98  27 3.17
  34  0.659  0.448  0.411-  29 2.71  37 2.72  36 2.77  24 2.79  32 2.82  27 2.95  33 2.98  35 3.36

  35  0.700  0.507  0.536-  30 2.72  25 2.74  36 2.75  37 2.78  33 2.82  31 2.82  27 2.99  34 3.36

  36  0.714  0.395  0.502-  31 2.69  35 2.75  34 2.77  37 2.78  32 2.79
  37  0.767  0.483  0.440-  34 2.72  33 2.73  36 2.78  35 2.78
 
  LATTYP: Found a simple cubic cell.
 ALAT       =    23.2703777625
  
  Lattice vectors:
  
 A1 = (  23.2703777625,   0.0000000000,   0.0000000000)
 A2 = (   0.0000000000,  23.2703777625,   0.0000000000)
 A3 = (   0.0000000000,   0.0000000000,  23.2703777625)


Analysis of symmetry for initial positions (statically):
=====================================================================
 Subroutine PRICEL returns:
 Original cell was already a primitive cell.
 

 Routine SETGRP: Setting up the symmetry group for a 
 simple cubic supercell.


 Subroutine GETGRP returns: Found  1 space group operations
 (whereof  1 operations were pure point group operations)
 out of a pool of 48 trial point group operations.


The static configuration has the point symmetry C_1 .


Analysis of symmetry for dynamics (positions and initial velocities):
=====================================================================
 Subroutine PRICEL returns:
 Original cell was already a primitive cell.
 

 Routine SETGRP: Setting up the symmetry group for a 
 simple cubic supercell.


 Subroutine GETGRP returns: Found  1 space group operations
 (whereof  1 operations were pure point group operations)
 out of a pool of 48 trial point group operations.


The dynamic configuration has the point symmetry C_1 .


Analysis of magnetic symmetry:
=====================================================================
 Subroutine PRICEL returns:
 Original cell was already a primitive cell.
 

 Subroutine MAGSYM returns: Found  1 space group operations
 (whereof  1 operations were pure point group operations)
 out of a pool of  1 trial space group operations
 (whereof  1 operations were pure point group operations)
 and found also     1 'primitive' translations


The magnetic configuration has the point symmetry C_1 .
 
 
 KPOINTS: Gamma-point only                        
  k-points in reciprocal lattice
Space group operators:
 irot       det(A)        alpha          n_x          n_y          n_z        tau_x        tau_y        tau_z
    1     1.000000     0.000001     1.000000     0.000000     0.000000     0.000000     0.000000     0.000000


--------------------------------------------------------------------------------------------------------




 Dimension of arrays:
   k-points           NKPTS =      1   k-points in BZ     NKDIM =      1   number of bands    NBANDS=    264
   number of dos      NEDOS =    301   number of ions     NIONS =     37
   non local maximal  LDIM  =      6   non local SUM 2l+1 LMDIM =     18
   total plane-waves  NPLWV = 729000
   max r-space proj   IRMAX =      1   max aug-charges    IRDMAX=   3044
   dimension x,y,z NGX =    90 NGY =   90 NGZ =   90
   dimension x,y,z NGXF=   180 NGYF=  180 NGZF=  180
   support grid    NGXF=   180 NGYF=  180 NGZF=  180
   ions per type =              37
 NGX,Y,Z   is equivalent  to a cutoff of   6.43,  6.43,  6.43 a.u.
 NGXF,Y,Z  is equivalent  to a cutoff of  12.86, 12.86, 12.86 a.u.


 I would recommend the setting:
   dimension x,y,z NGX =    90 NGY =   90 NGZ =   90
 SYSTEM =  unknown system                          
 POSCAR =  Pt37, -183.79851564 <s> Ag </s>         

 Startparameter for this run:
   NWRITE =      2    write-flag & timer
   PREC   = normal    normal or accurate (medium, high low for compatibility)
   ISTART =      0    job   : 0-new  1-cont  2-samecut
   ICHARG =      2    charge: 1-file 2-atom 10-const
   ISPIN  =      2    spin polarized calculation?
   LNONCOLLINEAR =      F non collinear calculations
   LSORBIT =      F    spin-orbit coupling
   INIWAV =      1    electr: 0-lowe 1-rand  2-diag
   LASPH  =      F    aspherical Exc in radial PAW
   METAGGA=      F    non-selfconsistent MetaGGA calc.

 Electronic Relaxation 1
   ENCUT  =  249.8 eV  18.36 Ry    4.29 a.u.  29.99 29.99 29.99*2*pi/ulx,y,z
   ENINI  =  249.8     initial cutoff
   ENAUG  =  412.5 eV  augmentation charge cutoff
   NELM   =     60;   NELMIN=  2; NELMDL= -5     # of ELM steps 
   EDIFF  = 0.1E-03   stopping-criterion for ELM
   LREAL  =      F    real-space projection
   NLSPLINE    = F    spline interpolate recip. space projectors
   LCOMPAT=      F    compatible to vasp.4.4
   GGA_COMPAT  = T    GGA compatible to vasp.4.4-vasp.4.6
   LMAXPAW     = -100 max onsite density
   LMAXMIX     =    2 max onsite mixed and CHGCAR
   VOSKOWN=      0    Vosko Wilk Nusair interpolation
   ROPT   =    0.00000
 Ionic relaxation
   EDIFFG = 0.1E-02   stopping-criterion for IOM
   NSW    =   1000    number of steps for IOM
   NBLOCK =      1;   KBLOCK =   1000    inner block; outer block 
   IBRION =      2    ionic relax: 0-MD 1-quasi-New 2-CG
   NFREE  =      1    steps in history (QN), initial steepest desc. (CG)
   ISIF   =      2    stress and relaxation
   IWAVPR =     11    prediction:  0-non 1-charg 2-wave 3-comb
   ISYM   =      2    0-nonsym 1-usesym 2-fastsym
   LCORR  =      T    Harris-Foulkes like correction to forces

   POTIM  = 0.1000    time-step for ionic-motion
   TEIN   =    0.0    initial temperature
   TEBEG  =    0.0;   TEEND  =   0.0 temperature during run
   SMASS  =  -3.00    Nose mass-parameter (am)
   estimated Nose-frequenzy (Omega)   =  0.10E-29 period in steps =****** mass=  -0.124E-25a.u.
   SCALEE = 1.0000    scale energy and forces
   NPACO  =    256;   APACO  = 16.0  distance and # of slots for P.C.
   PSTRESS=    0.0 pullay stress

  Mass of Ions in am
   POMASS = 107.87
  Ionic Valenz
   ZVAL   =  11.00
  Atomic Wigner-Seitz radii
   RWIGS  =  -1.00
  virtual crystal weights 
   VCA    =   1.00
   NELECT =     407.0000    total number of electrons
   NUPDOWN=      -1.0000    fix difference up-down

 DOS related values:
   EMIN   =  10.00;   EMAX   =-10.00  energy-range for DOS
   EFERMI =   0.00
   ISMEAR =     0;   SIGMA  =   0.00  broadening in eV -4-tet -1-fermi 0-gaus

 Electronic relaxation 2 (details)
   IALGO  =     38    algorithm
   LDIAG  =      T    sub-space diagonalisation (order eigenvalues)
   LSUBROT=      F    optimize rotation matrix (better conditioning)
   TURBO    =      0    0=normal 1=particle mesh
   IRESTART =      0    0=no restart 2=restart with 2 vectors
   NREBOOT  =      0    no. of reboots
   NMIN     =      0    reboot dimension
   EREF     =   0.00    reference energy to select bands
   IMIX   =      4    mixing-type and parameters
     AMIX     =   0.40;   BMIX     =  1.00
     AMIX_MAG =   1.60;   BMIX_MAG =  1.00
     AMIN     =   0.10
     WC   =   100.;   INIMIX=   1;  MIXPRE=   1;  MAXMIX= -45

 Intra band minimization:
   WEIMIN = 0.0010     energy-eigenvalue tresh-hold
   EBREAK =  0.95E-07  absolut break condition
   DEPER  =   0.30     relativ break condition  

   TIME   =   0.40     timestep for ELM

  volume/ion in A,a.u.               =     340.57      2298.29
  Fermi-wavevector in a.u.,A,eV,Ry     =   0.521358  0.985224  3.698259  0.271814
  Thomas-Fermi vector in A             =   1.539650
 
 Write flags
   LWAVE  =      F    write WAVECAR
   LCHARG =      F    write CHGCAR
   LVTOT  =      F    write LOCPOT, total local potential
   LVHAR  =      F    write LOCPOT, Hartree potential only
   LELF   =      F    write electronic localiz. function (ELF)
   LORBIT =      0    0 simple, 1 ext, 2 COOP (PROOUT)


 Dipole corrections
   LMONO  =      F    monopole corrections only (constant potential shift)
   LDIPOL =      F    correct potential (dipole corrections)
   IDIPOL =      0    1-x, 2-y, 3-z, 4-all directions 
   EPSILON=  1.0000000 bulk dielectric constant

 Exchange correlation treatment:
   GGA     =    PE    GGA type
   LEXCH   =     8    internal setting for exchange type
   VOSKOWN=      0    Vosko Wilk Nusair interpolation
   LHFCALC =     F    Hartree Fock is set to
   LHFONE  =     F    Hartree Fock one center treatment
   AEXX    =    0.0000 exact exchange contribution

 Linear response parameters
   LEPSILON=     F    determine dielectric tensor
   LRPA    =     F    only Hartree local field effects (RPA)
   LNABLA  =     F    use nabla operator in PAW spheres
   LVEL    =     F    velocity operator in full k-point grid
   LINTERFAST=   F  fast interpolation
   KINTER  =     0    interpolate to denser k-point grid
   CSHIFT  =0.1000    complex shift for real part using Kramers Kronig
   OMEGAMAX=  -1.0    maximum frequency
   DEG_THRESHOLD= 0.2000000E-02 threshold for treating states as degnerate
   RTIME   =    0.100 relaxation time in fs

 Orbital magnetization related:
   ORBITALMAG=     F  switch on orbital magnetization
   LCHIMAG   =     F  perturbation theory with respect to B field
   DQ        =  0.001000  dq finite difference perturbation B field



--------------------------------------------------------------------------------------------------------


 conjugate gradient relaxation of ions
 charge density and potential will be updated during run
 spin polarized calculation
 Variant of blocked Davidson
 Davidson routine will perform the subspace rotation
 perform sub-space diagonalisation
    after iterative eigenvector-optimisation
 modified Broyden-mixing scheme, WC =      100.0
 initial mixing is a Kerker type mixing with AMIX =  0.4000 and BMIX =      1.0000
 Hartree-type preconditioning will be used
 using additional bands           60
 reciprocal scheme for non local part
 use partial core corrections
 calculate Harris-corrections to forces 
   (improved forces if not selfconsistent)
 use gradient corrections 
 use of overlap-Matrix (Vanderbilt PP)
 Gauss-broadening in eV      SIGMA  =   0.00


--------------------------------------------------------------------------------------------------------


  energy-cutoff  :      249.84
  volume of cell :    12601.15
      direct lattice vectors                 reciprocal lattice vectors
    23.270377763  0.000000000  0.000000000     0.042973088  0.000000000  0.000000000
     0.000000000 23.270377763  0.000000000     0.000000000  0.042973088  0.000000000
     0.000000000  0.000000000 23.270377763     0.000000000  0.000000000  0.042973088

  length of vectors
    23.270377763 23.270377763 23.270377763     0.042973088  0.042973088  0.042973088


 
 k-points in units of 2pi/SCALE and weight: Gamma-point only                        
   0.00000000  0.00000000  0.00000000       1.000
 
 k-points in reciprocal lattice and weights: Gamma-point only                        
   0.00000000  0.00000000  0.00000000       1.000
 
 position of ions in fractional coordinates (direct lattice) 
   0.33772424  0.59123986  0.62646958
   0.30561672  0.48687530  0.57677123
   0.34240555  0.57792862  0.50458044
   0.43320423  0.64241575  0.57055955
   0.41024338  0.65669509  0.44952082
   0.36756681  0.48648114  0.67660449
   0.36968082  0.45711107  0.48448407
   0.44683780  0.57665854  0.67102914
   0.53664970  0.67265690  0.52169318
   0.40325432  0.54334038  0.40530885
   0.42987982  0.52368767  0.56228366
   0.50822699  0.72035913  0.41999251
   0.41323316  0.41312829  0.59298624
   0.50036896  0.61766312  0.36737293
   0.42730338  0.42938038  0.38883854
   0.54799381  0.61472047  0.62031733
   0.48877601  0.57671983  0.47509891
   0.47816530  0.45320280  0.68818121
   0.53658478  0.50298207  0.59439160
   0.60494884  0.64913031  0.42574164
   0.48905350  0.50939833  0.32731771
   0.47738820  0.40261938  0.49386936
   0.53187824  0.38961953  0.59626822
   0.59396387  0.54122513  0.37192375
   0.63297140  0.60380397  0.53620334
   0.59418528  0.43444813  0.69512127
   0.58063928  0.51058799  0.48924355
   0.55046100  0.54428223  0.71807563
   0.54383174  0.43514221  0.39950318
   0.64037742  0.53134870  0.63373006
   0.65309926  0.41393593  0.59807747
   0.59486430  0.38959761  0.49572684
   0.68968750  0.57048742  0.43391474
   0.65902534  0.44834878  0.41128684
   0.70013100  0.50702530  0.53644057
   0.71445499  0.39469983  0.50217240
   0.76677857  0.48250833  0.44035465
 
 position of ions in cartesian coordinates  (Angst):
   7.85897061 13.75837491 14.57818368
   7.11181656 11.32977222 13.42168438
   7.96790651 13.44861738 11.74177746
  10.08082605 14.94925715 13.27713620
   9.54651846 15.28154280 10.46051927
   8.55341844 11.32059984 15.74484216
   8.60261242 10.63714718 11.27412740
  10.39808437 13.41906198 15.61510149
  12.48804134 15.65298011 12.13999742
   9.38388042 12.64373595  9.43169005
  10.00346578 12.18640980 13.08455322
  11.82663415 16.76302900  9.77338446
   9.61609174  9.61365147 13.79901384
  11.64377466 14.37325414  8.54890697
   9.94351097  9.99184364  9.04841967
  12.75202293 14.30477748 14.43501856
  11.37400250 13.42048820 11.05573116
  11.12708705 10.54620044 16.01423672
  12.48653045 11.70458287 13.83171703
  14.07738814 15.10550760  9.90716879
  11.38045973 11.85389150  7.61680682
  11.10900377  9.36910512 11.49252665
  12.37700762  9.06659353 13.87538676
  13.82176355 12.59451334  8.65480609
  14.72948368 14.05074656 12.47765430
  13.82691604 10.10977204 16.17573462
  13.51169536 11.88157547 11.38488217
  12.80943534 12.66565301 16.70989116
  12.65517002 10.12592371  9.29658984
  14.90182443 12.36468501 14.74713789
  15.19786640  9.63244537 13.91748868
  13.84271698  9.06608356 11.53575074
  16.04928874 13.27545775 10.09735996
  15.33576856 10.43324556  9.57080011
  16.29231284 11.79867025 12.48317473
  16.62563752  9.18481404 11.68574152
  17.84322703 11.22815118 10.24721916
 


--------------------------------------------------------------------------------------------------------


 use parallel FFT for wavefunctions z direction half grid
 k-point  1 :   0.0000 0.0000 0.0000  plane waves:   56466

 maximum and minimum number of plane-waves per node :      3534     3521

 maximum number of plane-waves:     56466
 maximum index in each direction: 
   IXMAX=   29   IYMAX=   29   IZMAX=   29
   IXMIN=  -29   IYMIN=  -29   IZMIN=    0

 WARNING: aliasing errors must be expected set NGX to 118 to avoid them
 WARNING: aliasing errors must be expected set NGY to 118 to avoid them
 WARNING: aliasing errors must be expected set NGZ to 118 to avoid them
 aliasing errors are usually negligible using standard VASP settings
 and one can safely disregard these warnings

 parallel 3D FFT for wavefunctions:
    minimum data exchange during FFTs selected (reduces bandwidth)
 parallel 3D FFT for charge:
    minimum data exchange during FFTs selected (reduces bandwidth)


 total amount of memory used by VASP on root node    55441. kBytes
========================================================================

   base      :      30000. kBytes
   nonl-proj :       2593. kBytes
   fftplans  :       4337. kBytes
   grid      :      10964. kBytes
   one-center:         46. kBytes
   wavefun   :       7501. kBytes
 
     INWAV:  cpu time    0.00: real time    0.00
 Broyden mixing: mesh for mixing (old mesh)
   NGX = 59   NGY = 59   NGZ = 59
  (NGX  =180   NGY  =180   NGZ  =180)
  gives a total of 205379 points

 initial charge density was supplied:
 charge density of overlapping atoms calculated
 number of electron     407.0000000 magnetization      37.0000000
 keeping initial charge density in first step


--------------------------------------------------------------------------------------------------------


 Maximum index for augmentation-charges          237 (set IRDMAX)


--------------------------------------------------------------------------------------------------------


 First call to EWALD:  gamma=   0.076
 Maximum number of real-space cells 3x 3x 3
 Maximum number of reciprocal cells 3x 3x 3

 FEWALD executed in parallel
    FEWALD:  cpu time    0.00: real time    0.00


----------------------------------------- Iteration    1(   1)  ---------------------------------------


    POTLOK:  cpu time    0.22: real time    0.22
    SETDIJ:  cpu time    0.01: real time    0.01
     EDDAV:  cpu time    3.70: real time    3.71
       DOS:  cpu time    0.00: real time    0.00
    --------------------------------------------
      LOOP:  cpu time    3.93: real time    3.96

 eigenvalue-minimisations  :  1056
 total energy-change (2. order) : 0.3573913E+04  (-0.7709335E+04)
 number of electron     407.0000000 magnetization      37.0000000
 augmentation part      407.0000000 magnetization      37.0000000

 Free energy of the ion-electron system (eV)
  ---------------------------------------------------
  alpha Z        PSCENC =        92.40752286
  Ewald energy   TEWEN  =     99751.49279670
  -Hartree energ DENC   =   -136541.31105891
  -exchange      EXHF   =         0.00000000
  -V(xc)+E(xc)   XCENC  =      -402.16144114
  PAW double counting   =     37124.77058858   -35418.79052852
  entropy T*S    EENTRO =         0.00000000
  eigenvalues    EBANDS =       591.15616206
  atomic energy  EATOM  =     38376.34931319
  ---------------------------------------------------
  free energy    TOTEN  =      3573.91335484 eV

  energy without entropy =     3573.91335484  energy(sigma->0) =     3573.91335484


--------------------------------------------------------------------------------------------------------




----------------------------------------- Iteration    1(   2)  ---------------------------------------


     EDDAV:  cpu time    5.67: real time    5.68
       DOS:  cpu time    0.00: real time    0.00
    --------------------------------------------
      LOOP:  cpu time    5.67: real time    5.69

 eigenvalue-minimisations  :  1816
 total energy-change (2. order) :-0.2845225E+04  (-0.2548256E+04)
 number of electron     407.0000000 magnetization      37.0000000
 augmentation part      407.0000000 magnetization      37.0000000

 Free energy of the ion-electron system (eV)
  ---------------------------------------------------
  alpha Z        PSCENC =        92.40752286
  Ewald energy   TEWEN  =     99751.49279670
  -Hartree energ DENC   =   -136541.31105891
  -exchange      EXHF   =         0.00000000
  -V(xc)+E(xc)   XCENC  =      -402.16144114
  PAW double counting   =     37124.77058858   -35418.79052852
  entropy T*S    EENTRO =         0.00000000
  eigenvalues    EBANDS =     -2254.06897022
  atomic energy  EATOM  =     38376.34931319
  ---------------------------------------------------
  free energy    TOTEN  =       728.68822256 eV

  energy without entropy =      728.68822256  energy(sigma->0) =      728.68822256


--------------------------------------------------------------------------------------------------------




----------------------------------------- Iteration    1(   3)  ---------------------------------------


     EDDAV:  cpu time    4.49: real time    4.50
       DOS:  cpu time    0.00: real time    0.00
    --------------------------------------------
      LOOP:  cpu time    4.50: real time    4.50

 eigenvalue-minimisations  :  1368
 total energy-change (2. order) :-0.7678250E+03  (-0.7052159E+03)
 number of electron     407.0000000 magnetization      37.0000000
 augmentation part      407.0000000 magnetization      37.0000000

 Free energy of the ion-electron system (eV)
  ---------------------------------------------------
  alpha Z        PSCENC =        92.40752286
  Ewald energy   TEWEN  =     99751.49279670
  -Hartree energ DENC   =   -136541.31105891
  -exchange      EXHF   =         0.00000000
  -V(xc)+E(xc)   XCENC  =      -402.16144114
  PAW double counting   =     37124.77058858   -35418.79052852
  entropy T*S    EENTRO =        -0.00000000
  eigenvalues    EBANDS =     -3021.89395016
  atomic energy  EATOM  =     38376.34931319
  ---------------------------------------------------
  free energy    TOTEN  =       -39.13675739 eV

  energy without entropy =      -39.13675739  energy(sigma->0) =      -39.13675739


--------------------------------------------------------------------------------------------------------




----------------------------------------- Iteration    1(   4)  ---------------------------------------


     EDDAV:  cpu time    4.00: real time    4.01
       DOS:  cpu time    0.00: real time    0.00
    --------------------------------------------
      LOOP:  cpu time    4.00: real time    4.01

 eigenvalue-minimisations  :  1184
 total energy-change (2. order) :-0.3891054E+02  (-0.3838995E+02)
 number of electron     407.0000000 magnetization      37.0000000
 augmentation part      407.0000000 magnetization      37.0000000

 Free energy of the ion-electron system (eV)
  ---------------------------------------------------
  alpha Z        PSCENC =        92.40752286
  Ewald energy   TEWEN  =     99751.49279670
  -Hartree energ DENC   =   -136541.31105891
  -exchange      EXHF   =         0.00000000
  -V(xc)+E(xc)   XCENC  =      -402.16144114
  PAW double counting   =     37124.77058858   -35418.79052852
  entropy T*S    EENTRO =         0.00000000
  eigenvalues    EBANDS =     -3060.80449496
  atomic energy  EATOM  =     38376.34931319
  ---------------------------------------------------
  free energy    TOTEN  =       -78.04730219 eV

  energy without entropy =      -78.04730219  energy(sigma->0) =      -78.04730219


--------------------------------------------------------------------------------------------------------




----------------------------------------- Iteration    1(   5)  ---------------------------------------


     EDDAV:  cpu time    4.08: real time    4.08
       DOS:  cpu time    0.00: real time    0.00
    CHARGE:  cpu time    0.11: real time    0.11
    MIXING:  cpu time    0.00: real time    0.00
    --------------------------------------------
      LOOP:  cpu time    4.20: real time    4.20

 eigenvalue-minimisations  :  1200
 total energy-change (2. order) :-0.5616755E+00  (-0.5608469E+00)
 number of electron     406.9999008 magnetization      33.3034992
 augmentation part      190.5985339 magnetization      31.2781388

 Broyden mixing:
  rms(total) = 0.35887E+01    rms(broyden)= 0.35880E+01
  rms(prec ) = 0.36420E+01
  weight for this iteration     100.00

 Free energy of the ion-electron system (eV)
  ---------------------------------------------------
  alpha Z        PSCENC =        92.40752286
  Ewald energy   TEWEN  =     99751.49279670
  -Hartree energ DENC   =   -136541.31105891
  -exchange      EXHF   =         0.00000000
  -V(xc)+E(xc)   XCENC  =      -402.16144114
  PAW double counting   =     37124.77058858   -35418.79052852
  entropy T*S    EENTRO =         0.00000000
  eigenvalues    EBANDS =     -3061.36617046
  atomic energy  EATOM  =     38376.34931319
  ---------------------------------------------------
  free energy    TOTEN  =       -78.60897769 eV

  energy without entropy =      -78.60897769  energy(sigma->0) =      -78.60897769


--------------------------------------------------------------------------------------------------------




----------------------------------------- Iteration    1(   6)  ---------------------------------------


    POTLOK:  cpu time    0.26: real time    0.26
    SETDIJ:  cpu time    0.01: real time    0.01
     EDDAV:  cpu time    3.72: real time    3.72
       DOS:  cpu time    0.00: real time    0.00
    CHARGE:  cpu time    0.11: real time    0.11
    MIXING:  cpu time    0.00: real time    0.00
    --------------------------------------------
      LOOP:  cpu time    4.10: real time    4.11

 eigenvalue-minimisations  :  1080
 total energy-change (2. order) : 0.4407100E+02  (-0.1318812E+02)
 number of electron     406.9998984 magnetization      30.7933263
 augmentation part      195.2856188 magnetization      19.1740401

 Broyden mixing:
  rms(total) = 0.19293E+01    rms(broyden)= 0.19291E+01
  rms(prec ) = 0.19471E+01
  weight for this iteration     100.00

 eigenvalues of (default mixing * dielectric matrix)
  average eigenvalue GAMMA=   0.8583
  0.8583

 Free energy of the ion-electron system (eV)
  ---------------------------------------------------
  alpha Z        PSCENC =        92.40752286
  Ewald energy   TEWEN  =     99751.49279670
  -Hartree energ DENC   =   -136375.51866181
  -exchange      EXHF   =         0.00000000
  -V(xc)+E(xc)   XCENC  =      -383.52141695
  PAW double counting   =     38503.48008000   -36827.53993968
  entropy T*S    EENTRO =         0.00000000
  eigenvalues    EBANDS =     -3171.68767545
  atomic energy  EATOM  =     38376.34931319
  ---------------------------------------------------
  free energy    TOTEN  =       -34.53798114 eV

  energy without entropy =      -34.53798114  energy(sigma->0) =      -34.53798114


--------------------------------------------------------------------------------------------------------




----------------------------------------- Iteration    1(   7)  ---------------------------------------


    POTLOK:  cpu time    0.21: real time    0.21
    SETDIJ:  cpu time    0.01: real time    0.01
     EDDAV:  cpu time    3.86: real time    3.86
       DOS:  cpu time    0.00: real time    0.00
    CHARGE:  cpu time    0.11: real time    0.11
    MIXING:  cpu time    0.00: real time    0.00
    --------------------------------------------
      LOOP:  cpu time    4.19: real time    4.20

 eigenvalue-minimisations  :  1120
 total energy-change (2. order) : 0.7587971E+01  (-0.8120789E+00)
 number of electron     406.9998985 magnetization      26.8035897
 augmentation part      195.2664156 magnetization      15.5631891

 Broyden mixing:
  rms(total) = 0.11712E+01    rms(broyden)= 0.11712E+01
  rms(prec ) = 0.11805E+01
  weight for this iteration     100.00

 eigenvalues of (default mixing * dielectric matrix)
  average eigenvalue GAMMA=   1.0268
  0.7625  1.2912

 Free energy of the ion-electron system (eV)
  ---------------------------------------------------
  alpha Z        PSCENC =        92.40752286
  Ewald energy   TEWEN  =     99751.49279670
  -Hartree energ DENC   =   -136452.49119025
  -exchange      EXHF   =         0.00000000
  -V(xc)+E(xc)   XCENC  =      -377.33318550
  PAW double counting   =     39325.54561046   -37668.64764298
  entropy T*S    EENTRO =         0.00000000
  eigenvalues    EBANDS =     -3074.27323473
  atomic energy  EATOM  =     38376.34931319
  ---------------------------------------------------
  free energy    TOTEN  =       -26.95001024 eV

  energy without entropy =      -26.95001024  energy(sigma->0) =      -26.95001024


--------------------------------------------------------------------------------------------------------




----------------------------------------- Iteration    1(   8)  ---------------------------------------


    POTLOK:  cpu time    0.21: real time    0.21
    SETDIJ:  cpu time    0.01: real time    0.01
     EDDAV:  cpu time    3.89: real time    3.90
       DOS:  cpu time    0.00: real time    0.00
    CHARGE:  cpu time    0.11: real time    0.11
    MIXING:  cpu time    0.00: real time    0.00
    --------------------------------------------
      LOOP:  cpu time    4.22: real time    4.23

 eigenvalue-minimisations  :  1128
 total energy-change (2. order) : 0.1553488E+01  (-0.2146703E+00)
 number of electron     406.9998986 magnetization      24.1087815
 augmentation part      195.1220675 magnetization      13.1052201

 Broyden mixing:
  rms(total) = 0.62611E+00    rms(broyden)= 0.62610E+00
  rms(prec ) = 0.62902E+00
  weight for this iteration     100.00

 eigenvalues of (default mixing * dielectric matrix)
  average eigenvalue GAMMA=   1.2709
  2.3010  0.8987  0.6129

 Free energy of the ion-electron system (eV)
  ---------------------------------------------------
  alpha Z        PSCENC =        92.40752286
  Ewald energy   TEWEN  =     99751.49279670
  -Hartree energ DENC   =   -136544.98782498
  -exchange      EXHF   =         0.00000000
  -V(xc)+E(xc)   XCENC  =      -375.74029666
  PAW double counting   =     40301.05126699   -38664.48728871
  entropy T*S    EENTRO =         0.00000000
  eigenvalues    EBANDS =     -2961.48201205
  atomic energy  EATOM  =     38376.34931319
  ---------------------------------------------------
  free energy    TOTEN  =       -25.39652265 eV

  energy without entropy =      -25.39652265  energy(sigma->0) =      -25.39652265


--------------------------------------------------------------------------------------------------------




----------------------------------------- Iteration    1(   9)  ---------------------------------------


    POTLOK:  cpu time    0.22: real time    0.21
    SETDIJ:  cpu time    0.01: real time    0.01
     EDDAV:  cpu time    4.02: real time    4.02
       DOS:  cpu time    0.00: real time    0.00
    CHARGE:  cpu time    0.11: real time    0.11
    MIXING:  cpu time    0.00: real time    0.01
    --------------------------------------------
      LOOP:  cpu time    4.35: real time    4.47

 eigenvalue-minimisations  :  1176
 total energy-change (2. order) :-0.3566614E+01  (-0.7006625E-01)
 number of electron     406.9998985 magnetization      22.5648202
 augmentation part      195.0648134 magnetization      13.6594928

 Broyden mixing:
  rms(total) = 0.44560E+00    rms(broyden)= 0.44553E+00
  rms(prec ) = 0.45122E+00
  weight for this iteration     100.00

 eigenvalues of (default mixing * dielectric matrix)
  average eigenvalue GAMMA=   1.1083
  2.3390  0.9079  0.5931  0.5931

 Free energy of the ion-electron system (eV)
  ---------------------------------------------------
  alpha Z        PSCENC =        92.40752286
  Ewald energy   TEWEN  =     99751.49279670
  -Hartree energ DENC   =   -136579.87133977
  -exchange      EXHF   =         0.00000000
  -V(xc)+E(xc)   XCENC  =      -378.23692785
  PAW double counting   =     40649.41304888   -39019.94247420
  entropy T*S    EENTRO =         0.00000000
  eigenvalues    EBANDS =     -2920.57507596
  atomic energy  EATOM  =     38376.34931319
  ---------------------------------------------------
  free energy    TOTEN  =       -28.96313615 eV

  energy without entropy =      -28.96313615  energy(sigma->0) =      -28.96313615


--------------------------------------------------------------------------------------------------------




----------------------------------------- Iteration    1(  10)  ---------------------------------------


    POTLOK:  cpu time    0.21: real time    0.21
    SETDIJ:  cpu time    0.01: real time    0.01
     EDDAV:  cpu time    3.97: real time    3.98
       DOS:  cpu time    0.00: real time    0.00
    CHARGE:  cpu time    0.10: real time    0.11
    MIXING:  cpu time    0.00: real time    0.01
    --------------------------------------------
      LOOP:  cpu time    4.31: real time    4.32

 eigenvalue-minimisations  :  1144
 total energy-change (2. order) :-0.2821152E+01  (-0.4937170E-01)
 number of electron     406.9998986 magnetization      19.4677394
 augmentation part      195.0206411 magnetization      10.7611337

 Broyden mixing:
  rms(total) = 0.38335E+00    rms(broyden)= 0.38334E+00
  rms(prec ) = 0.38610E+00
  weight for this iteration     100.00

 eigenvalues of (default mixing * dielectric matrix)
  average eigenvalue GAMMA=   1.1335
  2.3632  1.1056  0.6566  0.7709  0.7709

 Free energy of the ion-electron system (eV)
  ---------------------------------------------------
  alpha Z        PSCENC =        92.40752286
  Ewald energy   TEWEN  =     99751.49279670
  -Hartree energ DENC   =   -136591.82025691
  -exchange      EXHF   =         0.00000000
  -V(xc)+E(xc)   XCENC  =      -380.08655724
  PAW double counting   =     40684.55379939   -39055.80203915
  entropy T*S    EENTRO =         0.00000000
  eigenvalues    EBANDS =     -2908.87886665
  atomic energy  EATOM  =     38376.34931319
  ---------------------------------------------------
  free energy    TOTEN  =       -31.78428780 eV

  energy without entropy =      -31.78428780  energy(sigma->0) =      -31.78428780


--------------------------------------------------------------------------------------------------------




----------------------------------------- Iteration    1(  11)  ---------------------------------------


    POTLOK:  cpu time    0.21: real time    0.21
    SETDIJ:  cpu time    0.01: real time    0.01
     EDDAV:  cpu time    3.74: real time    3.75
       DOS:  cpu time    0.00: real time    0.00
    CHARGE:  cpu time    0.11: real time    0.11
    MIXING:  cpu time    0.00: real time    0.01
    --------------------------------------------
      LOOP:  cpu time    4.08: real time    4.09

 eigenvalue-minimisations  :  1072
 total energy-change (2. order) :-0.1095234E+02  (-0.3412601E+00)
 number of electron     406.9998984 magnetization      15.7934211
 augmentation part      194.9714866 magnetization       9.4279676

 Broyden mixing:
  rms(total) = 0.35541E+00    rms(broyden)= 0.35533E+00
  rms(prec ) = 0.35953E+00
  weight for this iteration     100.00

 eigenvalues of (default mixing * dielectric matrix)
  average eigenvalue GAMMA=   1.1711
  2.4552  1.6487  0.8869  0.8869  0.6392  0.5098

 Free energy of the ion-electron system (eV)
  ---------------------------------------------------
  alpha Z        PSCENC =        92.40752286
  Ewald energy   TEWEN  =     99751.49279670
  -Hartree energ DENC   =   -136604.30196337
  -exchange      EXHF   =         0.00000000
  -V(xc)+E(xc)   XCENC  =      -388.12194635
  PAW double counting   =     40670.53344814   -39041.70089742
  entropy T*S    EENTRO =         0.00000000
  eigenvalues    EBANDS =     -2899.39490487
  atomic energy  EATOM  =     38376.34931319
  ---------------------------------------------------
  free energy    TOTEN  =       -42.73663111 eV

  energy without entropy =      -42.73663111  energy(sigma->0) =      -42.73663111


--------------------------------------------------------------------------------------------------------




----------------------------------------- Iteration    1(  12)  ---------------------------------------


    POTLOK:  cpu time    0.21: real time    0.21
    SETDIJ:  cpu time    0.01: real time    0.01
     EDDAV:  cpu time    3.82: real time    3.82
       DOS:  cpu time    0.00: real time    0.00
    CHARGE:  cpu time    0.11: real time    0.11
    MIXING:  cpu time    0.00: real time    0.01
    --------------------------------------------
      LOOP:  cpu time    4.15: real time    4.17

 eigenvalue-minimisations  :  1096
 total energy-change (2. order) :-0.7808974E+01  (-0.2905364E+00)
 number of electron     406.9998987 magnetization      13.4421734
 augmentation part      194.9412873 magnetization       9.4147336

 Broyden mixing:
  rms(total) = 0.30944E+00    rms(broyden)= 0.30928E+00
  rms(prec ) = 0.31803E+00
  weight for this iteration     100.00

 eigenvalues of (default mixing * dielectric matrix)
  average eigenvalue GAMMA=   1.1710
  2.7835  2.0298  0.8346  0.8346  0.6642  0.5251  0.5251

 Free energy of the ion-electron system (eV)
  ---------------------------------------------------
  alpha Z        PSCENC =        92.40752286
  Ewald energy   TEWEN  =     99751.49279670
  -Hartree energ DENC   =   -136618.56910024
  -exchange      EXHF   =         0.00000000
  -V(xc)+E(xc)   XCENC  =      -393.63702353
  PAW double counting   =     40668.21020096   -39039.67546434
  entropy T*S    EENTRO =         0.00000000
  eigenvalues    EBANDS =     -2887.12385092
  atomic energy  EATOM  =     38376.34931319
  ---------------------------------------------------
  free energy    TOTEN  =       -50.54560530 eV

  energy without entropy =      -50.54560530  energy(sigma->0) =      -50.54560530


--------------------------------------------------------------------------------------------------------




----------------------------------------- Iteration    1(  13)  ---------------------------------------


    POTLOK:  cpu time    0.21: real time    0.21
    SETDIJ:  cpu time    0.01: real time    0.01
     EDDAV:  cpu time    3.86: real time    3.87
       DOS:  cpu time    0.00: real time    0.00
    CHARGE:  cpu time    0.12: real time    0.12
    MIXING:  cpu time    0.01: real time    0.01
    --------------------------------------------
      LOOP:  cpu time    4.21: real time    4.23

 eigenvalue-minimisations  :  1128
 total energy-change (2. order) :-0.4473704E+01  (-0.1310250E+00)
 number of electron     406.9998987 magnetization      10.2898585
 augmentation part      194.8945860 magnetization       6.5352662

 Broyden mixing:
  rms(total) = 0.23215E+00    rms(broyden)= 0.23213E+00
  rms(prec ) = 0.23712E+00
  weight for this iteration     100.00

 eigenvalues of (default mixing * dielectric matrix)
  average eigenvalue GAMMA=   1.3469
  4.0168  2.3089  1.0155  1.0155  0.6724  0.6171  0.5644  0.5644

 Free energy of the ion-electron system (eV)
  ---------------------------------------------------
  alpha Z        PSCENC =        92.40752286
  Ewald energy   TEWEN  =     99751.49279670
  -Hartree energ DENC   =   -136629.06128681
  -exchange      EXHF   =         0.00000000
  -V(xc)+E(xc)   XCENC  =      -396.74586822
  PAW double counting   =     40663.72202745   -39035.43344587
  entropy T*S    EENTRO =         0.00000000
  eigenvalues    EBANDS =     -2877.75036821
  atomic energy  EATOM  =     38376.34931319
  ---------------------------------------------------
  free energy    TOTEN  =       -55.01930891 eV

  energy without entropy =      -55.01930891  energy(sigma->0) =      -55.01930891


--------------------------------------------------------------------------------------------------------




----------------------------------------- Iteration    1(  14)  ---------------------------------------


    POTLOK:  cpu time    0.21: real time    0.21
    SETDIJ:  cpu time    0.01: real time    0.01
     EDDAV:  cpu time    3.76: real time    3.76
       DOS:  cpu time    0.00: real time    0.00
    CHARGE:  cpu time    0.11: real time    0.11
    MIXING:  cpu time    0.00: real time    0.01
    --------------------------------------------
      LOOP:  cpu time    4.10: real time    4.10

 eigenvalue-minimisations  :  1088
 total energy-change (2. order) :-0.7997146E+01  (-0.3237530E+00)
 number of electron     406.9998987 magnetization       8.1027601
 augmentation part      194.8690562 magnetization       4.6956729

 Broyden mixing:
  rms(total) = 0.15859E+00    rms(broyden)= 0.15858E+00
  rms(prec ) = 0.16420E+00
  weight for this iteration     100.00

 eigenvalues of (default mixing * dielectric matrix)
  average eigenvalue GAMMA=   1.4858
  5.2674  2.3935  1.2246  1.2246  0.6821  0.6821  0.6493  0.6245  0.6245

 Free energy of the ion-electron system (eV)
  ---------------------------------------------------
  alpha Z        PSCENC =        92.40752286
  Ewald energy   TEWEN  =     99751.49279670
  -Hartree energ DENC   =   -136623.15566589
  -exchange      EXHF   =         0.00000000
  -V(xc)+E(xc)   XCENC  =      -402.88873595
  PAW double counting   =     40586.41595078   -38957.41541507
  entropy T*S    EENTRO =         0.00000000
  eigenvalues    EBANDS =     -2886.22222180
  atomic energy  EATOM  =     38376.34931319
  ---------------------------------------------------
  free energy    TOTEN  =       -63.01645517 eV

  energy without entropy =      -63.01645517  energy(sigma->0) =      -63.01645517


--------------------------------------------------------------------------------------------------------




----------------------------------------- Iteration    1(  15)  ---------------------------------------


    POTLOK:  cpu time    0.26: real time    0.26
    SETDIJ:  cpu time    0.01: real time    0.01
     EDDAV:  cpu time    3.80: real time    3.80
       DOS:  cpu time    0.00: real time    0.00
    CHARGE:  cpu time    0.11: real time    0.11
    MIXING:  cpu time    0.01: real time    0.01
    --------------------------------------------
      LOOP:  cpu time    4.18: real time    4.20

 eigenvalue-minimisations  :  1104
 total energy-change (2. order) :-0.5848516E+01  (-0.1750565E+00)
 number of electron     406.9998990 magnetization       7.2187143
 augmentation part      194.8866582 magnetization       5.9180175

 Broyden mixing:
  rms(total) = 0.18396E+00    rms(broyden)= 0.18380E+00
  rms(prec ) = 0.19222E+00
  weight for this iteration     100.00

 eigenvalues of (default mixing * dielectric matrix)
  average eigenvalue GAMMA=   1.3960
  5.6021  2.3492  1.2350  1.2350  0.7509  0.7509  0.6230  0.5849  0.5849  0.2443

 Free energy of the ion-electron system (eV)
  ---------------------------------------------------
  alpha Z        PSCENC =        92.40752286
  Ewald energy   TEWEN  =     99751.49279670
  -Hartree energ DENC   =   -136597.35518671
  -exchange      EXHF   =         0.00000000
  -V(xc)+E(xc)   XCENC  =      -407.86670842
  PAW double counting   =     40515.23647332   -38885.58579401
  entropy T*S    EENTRO =         0.00000000
  eigenvalues    EBANDS =     -2913.54338800
  atomic energy  EATOM  =     38376.34931319
  ---------------------------------------------------
  free energy    TOTEN  =       -68.86497105 eV

  energy without entropy =      -68.86497105  energy(sigma->0) =      -68.86497105


--------------------------------------------------------------------------------------------------------




----------------------------------------- Iteration    1(  16)  ---------------------------------------


    POTLOK:  cpu time    0.21: real time    0.21
    SETDIJ:  cpu time    0.01: real time    0.01
     EDDAV:  cpu time    4.14: real time    4.14
       DOS:  cpu time    0.00: real time    0.00
    CHARGE:  cpu time    0.10: real time    0.11
    MIXING:  cpu time    0.01: real time    0.01
    --------------------------------------------
      LOOP:  cpu time    4.47: real time    4.52

 eigenvalue-minimisations  :  1232
 total energy-change (2. order) :-0.7779922E+00  (-0.8927242E-02)
 number of electron     406.9998990 magnetization       5.3455370
 augmentation part      194.8938466 magnetization       4.1234543

 Broyden mixing:
  rms(total) = 0.15058E+00    rms(broyden)= 0.15057E+00
  rms(prec ) = 0.15802E+00
  weight for this iteration     100.00

 eigenvalues of (default mixing * dielectric matrix)
  average eigenvalue GAMMA=   1.4394
  6.2592  2.2757  1.3323  1.3323  0.7851  0.7851  0.6014  0.6014  0.6714  0.5945
  0.5945

 Free energy of the ion-electron system (eV)
  ---------------------------------------------------
  alpha Z        PSCENC =        92.40752286
  Ewald energy   TEWEN  =     99751.49279670
  -Hartree energ DENC   =   -136592.98003269
  -exchange      EXHF   =         0.00000000
  -V(xc)+E(xc)   XCENC  =      -408.58412285
  PAW double counting   =     40507.23659216   -38877.64156859
  entropy T*S    EENTRO =         0.00000000
  eigenvalues    EBANDS =     -2917.92346403
  atomic energy  EATOM  =     38376.34931319
  ---------------------------------------------------
  free energy    TOTEN  =       -69.64296324 eV

  energy without entropy =      -69.64296324  energy(sigma->0) =      -69.64296324


--------------------------------------------------------------------------------------------------------




----------------------------------------- Iteration    1(  17)  ---------------------------------------


    POTLOK:  cpu time    0.23: real time    0.23
    SETDIJ:  cpu time    0.02: real time    0.02
     EDDAV:  cpu time    3.81: real time    3.82
       DOS:  cpu time    0.00: real time    0.00
    CHARGE:  cpu time    0.11: real time    0.11
    MIXING:  cpu time    0.01: real time    0.01
    --------------------------------------------
      LOOP:  cpu time    4.18: real time    4.21

 eigenvalue-minimisations  :  1096
 total energy-change (2. order) :-0.2369659E+01  (-0.3912233E-01)
 number of electron     406.9998989 magnetization       3.0478684
 augmentation part      194.9099215 magnetization       1.9296035

 Broyden mixing:
  rms(total) = 0.98941E-01    rms(broyden)= 0.98929E-01
  rms(prec ) = 0.10409E+00
  weight for this iteration     100.00

 eigenvalues of (default mixing * dielectric matrix)
  average eigenvalue GAMMA=   1.5920
  7.6356  2.1530  2.1530  1.4748  0.9658  0.9658  0.8179  0.5827  0.5827  0.5905
  0.5905  0.5922

 Free energy of the ion-electron system (eV)
  ---------------------------------------------------
  alpha Z        PSCENC =        92.40752286
  Ewald energy   TEWEN  =     99751.49279670
  -Hartree energ DENC   =   -136572.71306321
  -exchange      EXHF   =         0.00000000
  -V(xc)+E(xc)   XCENC  =      -410.84449267
  PAW double counting   =     40474.17030125   -38844.38892259
  entropy T*S    EENTRO =         0.00000000
  eigenvalues    EBANDS =     -2938.48607745
  atomic energy  EATOM  =     38376.34931319
  ---------------------------------------------------
  free energy    TOTEN  =       -72.01262189 eV

  energy without entropy =      -72.01262189  energy(sigma->0) =      -72.01262189


--------------------------------------------------------------------------------------------------------




----------------------------------------- Iteration    1(  18)  ---------------------------------------


    POTLOK:  cpu time    0.21: real time    0.21
    SETDIJ:  cpu time    0.01: real time    0.01
     EDDAV:  cpu time    3.80: real time    3.80
       DOS:  cpu time    0.00: real time    0.00
    CHARGE:  cpu time    0.11: real time    0.11
    MIXING:  cpu time    0.01: real time    0.01
    --------------------------------------------
      LOOP:  cpu time    4.14: real time    4.15

 eigenvalue-minimisations  :  1088
 total energy-change (2. order) :-0.2358703E+01  (-0.4580205E-01)
 number of electron     406.9998989 magnetization       2.0651765
 augmentation part      194.9220805 magnetization       1.0462463

 Broyden mixing:
  rms(total) = 0.54209E-01    rms(broyden)= 0.54170E-01
  rms(prec ) = 0.58518E-01
  weight for this iteration     100.00

 eigenvalues of (default mixing * dielectric matrix)
  average eigenvalue GAMMA=   1.6745
  8.8493  2.3766  2.3766  1.5311  1.0189  1.0189  0.9066  0.5957  0.5957  0.6372
  0.6372  0.6501  0.5748

 Free energy of the ion-electron system (eV)
  ---------------------------------------------------
  alpha Z        PSCENC =        92.40752286
  Ewald energy   TEWEN  =     99751.49279670
  -Hartree energ DENC   =   -136541.93342660
  -exchange      EXHF   =         0.00000000
  -V(xc)+E(xc)   XCENC  =      -413.26376995
  PAW double counting   =     40442.88705235   -38812.80830366
  entropy T*S    EENTRO =         0.00000000
  eigenvalues    EBANDS =     -2969.50251022
  atomic energy  EATOM  =     38376.34931319
  ---------------------------------------------------
  free energy    TOTEN  =       -74.37132532 eV

  energy without entropy =      -74.37132532  energy(sigma->0) =      -74.37132532


--------------------------------------------------------------------------------------------------------




----------------------------------------- Iteration    1(  19)  ---------------------------------------


    POTLOK:  cpu time    0.21: real time    0.21
    SETDIJ:  cpu time    0.01: real time    0.01
     EDDAV:  cpu time    3.90: real time    3.91
       DOS:  cpu time    0.00: real time    0.00
    CHARGE:  cpu time    0.11: real time    0.11
    MIXING:  cpu time    0.01: real time    0.01
    --------------------------------------------
      LOOP:  cpu time    4.24: real time    4.27

 eigenvalue-minimisations  :  1128
 total energy-change (2. order) :-0.1250991E+01  (-0.1051436E-01)
 number of electron     406.9998989 magnetization       1.7230924
 augmentation part      194.9338655 magnetization       0.7374345

 Broyden mixing:
  rms(total) = 0.44174E-01    rms(broyden)= 0.44151E-01
  rms(prec ) = 0.48276E-01
  weight for this iteration     100.00

 eigenvalues of (default mixing * dielectric matrix)
  average eigenvalue GAMMA=   1.7167
  9.3281  2.8628  2.3572  1.4963  1.4963  0.9757  0.9757  0.8754  0.5861  0.5861
  0.6969  0.6171  0.5901  0.5901

 Free energy of the ion-electron system (eV)
  ---------------------------------------------------
  alpha Z        PSCENC =        92.40752286
  Ewald energy   TEWEN  =     99751.49279670
  -Hartree energ DENC   =   -136523.50564903
  -exchange      EXHF   =         0.00000000
  -V(xc)+E(xc)   XCENC  =      -414.60059696
  PAW double counting   =     40434.01959421   -38803.70803398
  entropy T*S    EENTRO =         0.00000000
  eigenvalues    EBANDS =     -2988.07726293
  atomic energy  EATOM  =     38376.34931319
  ---------------------------------------------------
  free energy    TOTEN  =       -75.62231593 eV

  energy without entropy =      -75.62231593  energy(sigma->0) =      -75.62231593


--------------------------------------------------------------------------------------------------------




----------------------------------------- Iteration    1(  20)  ---------------------------------------


    POTLOK:  cpu time    0.21: real time    0.21
    SETDIJ:  cpu time    0.01: real time    0.01
     EDDAV:  cpu time    3.89: real time    3.89
       DOS:  cpu time    0.00: real time    0.00
    CHARGE:  cpu time    0.11: real time    0.11
    MIXING:  cpu time    0.01: real time    0.01
    --------------------------------------------
      LOOP:  cpu time    4.22: real time    4.24

 eigenvalue-minimisations  :  1128
 total energy-change (2. order) :-0.9023452E+00  (-0.3902065E-02)
 number of electron     406.9998989 magnetization       1.3905719
 augmentation part      194.9350755 magnetization       0.3969148

 Broyden mixing:
  rms(total) = 0.26363E-01    rms(broyden)= 0.26347E-01
  rms(prec ) = 0.29727E-01
  weight for this iteration     100.00

 eigenvalues of (default mixing * dielectric matrix)
  average eigenvalue GAMMA=   1.7926
  9.7726  4.0296  1.8958  1.8958  1.8287  1.0228  1.0228  0.9899  0.5878  0.5878
  0.7310  0.7310  0.6053  0.6053  0.5829

 Free energy of the ion-electron system (eV)
  ---------------------------------------------------
  alpha Z        PSCENC =        92.40752286
  Ewald energy   TEWEN  =     99751.49279670
  -Hartree energ DENC   =   -136507.51602360
  -exchange      EXHF   =         0.00000000
  -V(xc)+E(xc)   XCENC  =      -415.57689422
  PAW double counting   =     40442.16210012   -38811.71851485
  entropy T*S    EENTRO =         0.00000000
  eigenvalues    EBANDS =     -3004.12496132
  atomic energy  EATOM  =     38376.34931319
  ---------------------------------------------------
  free energy    TOTEN  =       -76.52466111 eV

  energy without entropy =      -76.52466111  energy(sigma->0) =      -76.52466111


--------------------------------------------------------------------------------------------------------




----------------------------------------- Iteration    1(  21)  ---------------------------------------


    POTLOK:  cpu time    0.21: real time    0.21
    SETDIJ:  cpu time    0.01: real time    0.01
     EDDAV:  cpu time    3.79: real time    3.79
       DOS:  cpu time    0.00: real time    0.00
    CHARGE:  cpu time    0.11: real time    0.11
    MIXING:  cpu time    0.01: real time    0.01
    --------------------------------------------
      LOOP:  cpu time    4.12: real time    4.13

 eigenvalue-minimisations  :  1088
 total energy-change (2. order) :-0.6871418E+00  (-0.2412354E-02)
 number of electron     406.9998989 magnetization       1.2738323
 augmentation part      194.9488424 magnetization       0.2732276

 Broyden mixing:
  rms(total) = 0.13270E-01    rms(broyden)= 0.13254E-01
  rms(prec ) = 0.15517E-01
  weight for this iteration     100.00

 eigenvalues of (default mixing * dielectric matrix)
  average eigenvalue GAMMA=   1.8178
 10.1153  4.5394  2.2656  1.9229  1.9229  1.0819  1.0819  0.8498  0.8498  0.8647
  0.5879  0.5879  0.5988  0.5988  0.6400  0.5774

 Free energy of the ion-electron system (eV)
  ---------------------------------------------------
  alpha Z        PSCENC =        92.40752286
  Ewald energy   TEWEN  =     99751.49279670
  -Hartree energ DENC   =   -136489.03952864
  -exchange      EXHF   =         0.00000000
  -V(xc)+E(xc)   XCENC  =      -416.36739012
  PAW double counting   =     40447.50414822   -38816.90746870
  entropy T*S    EENTRO =         0.00000000
  eigenvalues    EBANDS =     -3022.65119644
  atomic energy  EATOM  =     38376.34931319
  ---------------------------------------------------
  free energy    TOTEN  =       -77.21180290 eV

  energy without entropy =      -77.21180290  energy(sigma->0) =      -77.21180290


--------------------------------------------------------------------------------------------------------




----------------------------------------- Iteration    1(  22)  ---------------------------------------


    POTLOK:  cpu time    0.21: real time    0.21
    SETDIJ:  cpu time    0.01: real time    0.01
     EDDAV:  cpu time    3.78: real time    3.78
       DOS:  cpu time    0.00: real time    0.00
    CHARGE:  cpu time    0.14: real time    0.14
    MIXING:  cpu time    0.01: real time    0.01
    --------------------------------------------
      LOOP:  cpu time    4.15: real time    4.17

 eigenvalue-minimisations  :  1096
 total energy-change (2. order) :-0.1553673E+00  (-0.2371358E-03)
 number of electron     406.9998989 magnetization       1.2078944
 augmentation part      194.9492707 magnetization       0.2058171

 Broyden mixing:
  rms(total) = 0.86919E-02    rms(broyden)= 0.86883E-02
  rms(prec ) = 0.10556E-01
  weight for this iteration     100.00

 eigenvalues of (default mixing * dielectric matrix)
  average eigenvalue GAMMA=   1.8375
 10.1749  5.0062  2.4281  2.1012  2.1012  1.1718  1.1718  0.9467  0.9467  0.8619
  0.5878  0.5878  0.6840  0.6840  0.6026  0.6026  0.5790

 Free energy of the ion-electron system (eV)
  ---------------------------------------------------
  alpha Z        PSCENC =        92.40752286
  Ewald energy   TEWEN  =     99751.49279670
  -Hartree energ DENC   =   -136482.65305389
  -exchange      EXHF   =         0.00000000
  -V(xc)+E(xc)   XCENC  =      -416.55203431
  PAW double counting   =     40454.92254973   -38824.41952386
  entropy T*S    EENTRO =        -0.00000000
  eigenvalues    EBANDS =     -3028.91474063
  atomic energy  EATOM  =     38376.34931319
  ---------------------------------------------------
  free energy    TOTEN  =       -77.36717021 eV

  energy without entropy =      -77.36717021  energy(sigma->0) =      -77.36717021


--------------------------------------------------------------------------------------------------------




----------------------------------------- Iteration    1(  23)  ---------------------------------------


    POTLOK:  cpu time    0.21: real time    0.21
    SETDIJ:  cpu time    0.01: real time    0.01
     EDDAV:  cpu time    3.30: real time    3.31
       DOS:  cpu time    0.00: real time    0.00
    CHARGE:  cpu time    0.10: real time    0.11
    MIXING:  cpu time    0.01: real time    0.01
    --------------------------------------------
      LOOP:  cpu time    3.64: real time    3.94

 eigenvalue-minimisations  :   912
 total energy-change (2. order) :-0.1112457E+00  (-0.1622913E-03)
 number of electron     406.9998989 magnetization       1.1131648
 augmentation part      194.9505514 magnetization       0.1082839

 Broyden mixing:
  rms(total) = 0.50151E-02    rms(broyden)= 0.50126E-02
  rms(prec ) = 0.63012E-02
  weight for this iteration     100.00

 eigenvalues of (default mixing * dielectric matrix)
  average eigenvalue GAMMA=   1.8659
 10.3317  5.5211  2.4106  2.3006  2.3006  1.3326  1.3326  1.0252  1.0252  0.5877
  0.5877  0.8047  0.8047  0.8200  0.6007  0.6007  0.5788  0.6205

 Free energy of the ion-electron system (eV)
  ---------------------------------------------------
  alpha Z        PSCENC =        92.40752286
  Ewald energy   TEWEN  =     99751.49279670
  -Hartree energ DENC   =   -136476.27956541
  -exchange      EXHF   =         0.00000000
  -V(xc)+E(xc)   XCENC  =      -416.68895140
  PAW double counting   =     40459.27189878   -38828.80117196
  entropy T*S    EENTRO =         0.00000000
  eigenvalues    EBANDS =     -3035.23025873
  atomic energy  EATOM  =     38376.34931319
  ---------------------------------------------------
  free energy    TOTEN  =       -77.47841595 eV

  energy without entropy =      -77.47841595  energy(sigma->0) =      -77.47841595


--------------------------------------------------------------------------------------------------------




----------------------------------------- Iteration    1(  24)  ---------------------------------------


    POTLOK:  cpu time    0.21: real time    0.21
    SETDIJ:  cpu time    0.01: real time    0.01
     EDDAV:  cpu time    3.10: real time    3.10
       DOS:  cpu time    0.00: real time    0.00
    CHARGE:  cpu time    0.11: real time    0.11
    MIXING:  cpu time    0.01: real time    0.01
    --------------------------------------------
      LOOP:  cpu time    3.44: real time    3.48

 eigenvalue-minimisations  :   800
 total energy-change (2. order) :-0.3356864E-01  (-0.8040601E-04)
 number of electron     406.9998989 magnetization       1.0723016
 augmentation part      194.9526845 magnetization       0.0693055

 Broyden mixing:
  rms(total) = 0.35159E-02    rms(broyden)= 0.35143E-02
  rms(prec ) = 0.44167E-02
  weight for this iteration     100.00

 eigenvalues of (default mixing * dielectric matrix)
  average eigenvalue GAMMA=   1.8482
 10.3793  5.6728  2.8711  2.1136  2.1136  1.7473  1.2298  1.0659  1.0659  0.8775
  0.8775  0.5877  0.5877  0.8316  0.6923  0.6043  0.6043  0.5936  0.5996

 Free energy of the ion-electron system (eV)
  ---------------------------------------------------
  alpha Z        PSCENC =        92.40752286
  Ewald energy   TEWEN  =     99751.49279670
  -Hartree energ DENC   =   -136472.08991274
  -exchange      EXHF   =         0.00000000
  -V(xc)+E(xc)   XCENC  =      -416.74031229
  PAW double counting   =     40460.56210776   -38830.09402433
  entropy T*S    EENTRO =         0.00000000
  eigenvalues    EBANDS =     -3039.39947576
  atomic energy  EATOM  =     38376.34931319
  ---------------------------------------------------
  free energy    TOTEN  =       -77.51198460 eV

  energy without entropy =      -77.51198460  energy(sigma->0) =      -77.51198460


--------------------------------------------------------------------------------------------------------




----------------------------------------- Iteration    1(  25)  ---------------------------------------


    POTLOK:  cpu time    0.21: real time    0.21
    SETDIJ:  cpu time    0.00: real time    0.01
     EDDAV:  cpu time    2.92: real time    2.93
       DOS:  cpu time    0.00: real time    0.00
    CHARGE:  cpu time    0.10: real time    0.11
    MIXING:  cpu time    0.01: real time    0.01
    --------------------------------------------
      LOOP:  cpu time    3.26: real time    3.31

 eigenvalue-minimisations  :   752
 total energy-change (2. order) :-0.8431072E-02  (-0.2206378E-04)
 number of electron     406.9998989 magnetization       1.0394368
 augmentation part      194.9503870 magnetization       0.0368724

 Broyden mixing:
  rms(total) = 0.23330E-02    rms(broyden)= 0.23325E-02
  rms(prec ) = 0.30054E-02
  weight for this iteration     100.00

 eigenvalues of (default mixing * dielectric matrix)
  average eigenvalue GAMMA=   1.8505
 10.4570  5.6671  3.1026  2.4165  2.1095  2.1095  1.2241  1.2241  1.0218  1.0218
  0.5877  0.5877  0.8383  0.7932  0.7932  0.6053  0.6053  0.5882  0.6094  0.6470

 Free energy of the ion-electron system (eV)
  ---------------------------------------------------
  alpha Z        PSCENC =        92.40752286
  Ewald energy   TEWEN  =     99751.49279670
  -Hartree energ DENC   =   -136470.34282841
  -exchange      EXHF   =         0.00000000
  -V(xc)+E(xc)   XCENC  =      -416.74924888
  PAW double counting   =     40462.63797640   -38832.19699995
  entropy T*S    EENTRO =        -0.00000000
  eigenvalues    EBANDS =     -3041.11894759
  atomic energy  EATOM  =     38376.34931319
  ---------------------------------------------------
  free energy    TOTEN  =       -77.52041567 eV

  energy without entropy =      -77.52041567  energy(sigma->0) =      -77.52041567


--------------------------------------------------------------------------------------------------------




----------------------------------------- Iteration    1(  26)  ---------------------------------------


    POTLOK:  cpu time    0.21: real time    0.21
    SETDIJ:  cpu time    0.01: real time    0.01
     EDDAV:  cpu time    2.88: real time    2.88
       DOS:  cpu time    0.00: real time    0.00
    CHARGE:  cpu time    0.12: real time    0.12
    MIXING:  cpu time    0.01: real time    0.01
    --------------------------------------------
      LOOP:  cpu time    3.23: real time    3.69

 eigenvalue-minimisations  :   736
 total energy-change (2. order) :-0.3219616E-02  (-0.1032503E-04)
 number of electron     406.9998989 magnetization       1.0214877
 augmentation part      194.9509982 magnetization       0.0202334

 Broyden mixing:
  rms(total) = 0.13455E-02    rms(broyden)= 0.13452E-02
  rms(prec ) = 0.19042E-02
  weight for this iteration     100.00

 eigenvalues of (default mixing * dielectric matrix)
  average eigenvalue GAMMA=   1.8544
 10.4997  5.6829  3.5337  2.4255  2.2228  2.2228  1.3600  1.3600  1.0527  1.0527
  0.8503  0.8503  0.8752  0.5877  0.5877  0.6910  0.6910  0.6031  0.6031  0.5880
  0.6019

 Free energy of the ion-electron system (eV)
  ---------------------------------------------------
  alpha Z        PSCENC =        92.40752286
  Ewald energy   TEWEN  =     99751.49279670
  -Hartree energ DENC   =   -136468.84511802
  -exchange      EXHF   =         0.00000000
  -V(xc)+E(xc)   XCENC  =      -416.75748646
  PAW double counting   =     40462.22300733   -38831.77226787
  entropy T*S    EENTRO =         0.00000000
  eigenvalues    EBANDS =     -3042.62140302
  atomic energy  EATOM  =     38376.34931319
  ---------------------------------------------------
  free energy    TOTEN  =       -77.52363528 eV

  energy without entropy =      -77.52363528  energy(sigma->0) =      -77.52363528


--------------------------------------------------------------------------------------------------------




----------------------------------------- Iteration    1(  27)  ---------------------------------------


    POTLOK:  cpu time    0.25: real time    0.25
    SETDIJ:  cpu time    0.01: real time    0.01
     EDDAV:  cpu time    2.86: real time    2.86
       DOS:  cpu time    0.00: real time    0.00
    CHARGE:  cpu time    0.11: real time    0.11
    MIXING:  cpu time    0.01: real time    0.01
    --------------------------------------------
      LOOP:  cpu time    3.23: real time    3.25

 eigenvalue-minimisations  :   728
 total energy-change (2. order) :-0.4260777E-02  (-0.7589488E-05)
 number of electron     406.9998989 magnetization       1.0160542
 augmentation part      194.9512749 magnetization       0.0151400

 Broyden mixing:
  rms(total) = 0.88641E-03    rms(broyden)= 0.88608E-03
  rms(prec ) = 0.12259E-02
  weight for this iteration     100.00

 eigenvalues of (default mixing * dielectric matrix)
  average eigenvalue GAMMA=   1.8626
 10.4956  5.8716  4.0198  2.3329  2.3329  2.1977  1.4914  1.4914  1.0979  1.0979
  0.9646  0.9182  0.9182  0.5877  0.5877  0.7680  0.7680  0.6036  0.6036  0.5940
  0.5952  0.6389

 Free energy of the ion-electron system (eV)
  ---------------------------------------------------
  alpha Z        PSCENC =        92.40752286
  Ewald energy   TEWEN  =     99751.49279670
  -Hartree energ DENC   =   -136467.29260361
  -exchange      EXHF   =         0.00000000
  -V(xc)+E(xc)   XCENC  =      -416.76665829
  PAW double counting   =     40462.34260386   -38831.89569057
  entropy T*S    EENTRO =         0.00000000
  eigenvalues    EBANDS =     -3044.16518022
  atomic energy  EATOM  =     38376.34931319
  ---------------------------------------------------
  free energy    TOTEN  =       -77.52789606 eV

  energy without entropy =      -77.52789606  energy(sigma->0) =      -77.52789606


--------------------------------------------------------------------------------------------------------




----------------------------------------- Iteration    1(  28)  ---------------------------------------


    POTLOK:  cpu time    0.21: real time    0.21
    SETDIJ:  cpu time    0.01: real time    0.01
     EDDAV:  cpu time    2.84: real time    2.84
       DOS:  cpu time    0.00: real time    0.00
    CHARGE:  cpu time    0.11: real time    0.11
    MIXING:  cpu time    0.01: real time    0.01
    --------------------------------------------
      LOOP:  cpu time    3.18: real time    3.20

 eigenvalue-minimisations  :   728
 total energy-change (2. order) :-0.3437172E-02  (-0.5001129E-05)
 number of electron     406.9998989 magnetization       1.0085172
 augmentation part      194.9515633 magnetization       0.0074620

 Broyden mixing:
  rms(total) = 0.61338E-03    rms(broyden)= 0.61315E-03
  rms(prec ) = 0.79975E-03
  weight for this iteration     100.00

 eigenvalues of (default mixing * dielectric matrix)
  average eigenvalue GAMMA=   1.8840
 10.5000  6.0775  4.4015  2.4911  2.4911  2.1859  2.1859  1.2800  1.2800  1.0442
  1.0442  0.9902  0.5877  0.5877  0.8499  0.8499  0.7323  0.7323  0.6030  0.6030
  0.5926  0.5926  0.6295

 Free energy of the ion-electron system (eV)
  ---------------------------------------------------
  alpha Z        PSCENC =        92.40752286
  Ewald energy   TEWEN  =     99751.49279670
  -Hartree energ DENC   =   -136466.13227212
  -exchange      EXHF   =         0.00000000
  -V(xc)+E(xc)   XCENC  =      -416.77367859
  PAW double counting   =     40462.29254763   -38831.84681663
  entropy T*S    EENTRO =         0.00000000
  eigenvalues    EBANDS =     -3045.32074628
  atomic energy  EATOM  =     38376.34931319
  ---------------------------------------------------
  free energy    TOTEN  =       -77.53133323 eV

  energy without entropy =      -77.53133323  energy(sigma->0) =      -77.53133323


--------------------------------------------------------------------------------------------------------




----------------------------------------- Iteration    1(  29)  ---------------------------------------


    POTLOK:  cpu time    0.21: real time    0.21
    SETDIJ:  cpu time    0.01: real time    0.01
     EDDAV:  cpu time    2.88: real time    2.88
       DOS:  cpu time    0.00: real time    0.00
    CHARGE:  cpu time    0.11: real time    0.11
    MIXING:  cpu time    0.01: real time    0.01
    --------------------------------------------
      LOOP:  cpu time    3.22: real time    3.24

 eigenvalue-minimisations  :   736
 total energy-change (2. order) :-0.2194349E-02  (-0.2367240E-05)
 number of electron     406.9998989 magnetization       1.0049370
 augmentation part      194.9520386 magnetization       0.0041408

 Broyden mixing:
  rms(total) = 0.46914E-03    rms(broyden)= 0.46900E-03
  rms(prec ) = 0.56786E-03
  weight for this iteration     100.00

 eigenvalues of (default mixing * dielectric matrix)
  average eigenvalue GAMMA=   1.9058
 10.4967  6.3745  4.9697  2.5993  2.5993  2.1951  2.1951  1.4470  1.4470  1.0831
  1.0831  0.9704  0.9704  0.5877  0.5877  0.8331  0.8039  0.8039  0.6039  0.6039
  0.5898  0.5993  0.6471  0.6471

 Free energy of the ion-electron system (eV)
  ---------------------------------------------------
  alpha Z        PSCENC =        92.40752286
  Ewald energy   TEWEN  =     99751.49279670
  -Hartree energ DENC   =   -136465.41161697
  -exchange      EXHF   =         0.00000000
  -V(xc)+E(xc)   XCENC  =      -416.77887141
  PAW double counting   =     40462.00905059   -38831.56085430
  entropy T*S    EENTRO =         0.00000000
  eigenvalues    EBANDS =     -3046.04086826
  atomic energy  EATOM  =     38376.34931319
  ---------------------------------------------------
  free energy    TOTEN  =       -77.53352758 eV

  energy without entropy =      -77.53352758  energy(sigma->0) =      -77.53352758


--------------------------------------------------------------------------------------------------------




----------------------------------------- Iteration    1(  30)  ---------------------------------------


    POTLOK:  cpu time    0.21: real time    0.21
    SETDIJ:  cpu time    0.01: real time    0.01
     EDDAV:  cpu time    2.86: real time    2.87
       DOS:  cpu time    0.00: real time    0.00
    CHARGE:  cpu time    0.11: real time    0.11
    MIXING:  cpu time    0.01: real time    0.01
    --------------------------------------------
      LOOP:  cpu time    3.20: real time    3.25

 eigenvalue-minimisations  :   728
 total energy-change (2. order) :-0.1072918E-02  (-0.7375021E-06)
 number of electron     406.9998989 magnetization       1.0037939
 augmentation part      194.9518297 magnetization       0.0030665

 Broyden mixing:
  rms(total) = 0.26030E-03    rms(broyden)= 0.26018E-03
  rms(prec ) = 0.33486E-03
  weight for this iteration     100.00

 eigenvalues of (default mixing * dielectric matrix)
  average eigenvalue GAMMA=   1.9303
 10.4603  7.0840  5.2654  2.9109  2.3200  2.1626  2.1626  1.8675  1.2337  1.2337
  1.2327  1.0593  1.0593  0.9452  0.5877  0.5877  0.8196  0.8196  0.7088  0.7088
  0.6040  0.6040  0.5876  0.6072  0.6258

 Free energy of the ion-electron system (eV)
  ---------------------------------------------------
  alpha Z        PSCENC =        92.40752286
  Ewald energy   TEWEN  =     99751.49279670
  -Hartree energ DENC   =   -136465.16990279
  -exchange      EXHF   =         0.00000000
  -V(xc)+E(xc)   XCENC  =      -416.78023427
  PAW double counting   =     40462.29177146   -38831.84724944
  entropy T*S    EENTRO =         0.00000000
  eigenvalues    EBANDS =     -3046.27861821
  atomic energy  EATOM  =     38376.34931319
  ---------------------------------------------------
[...]
-10.364   0.003  -0.001  -0.001   0.002 -10.311   0.003  -0.001
  0.003 -10.360   0.000   0.001  -0.001   0.003 -10.307   0.000
 -0.001   0.000 -10.359   0.000  -0.001  -0.001   0.000 -10.306
 -0.001   0.001   0.000 -10.360   0.000  -0.001   0.001   0.000
  0.002  -0.001  -0.001   0.000 -10.361   0.002  -0.001  -0.001
  0.002  -0.000  -0.001   0.000  -0.000   0.002  -0.000  -0.001
  0.003  -0.001  -0.001   0.000  -0.001   0.003  -0.001  -0.001
 -0.016   0.012  -0.011  -0.000  -0.019  -0.016   0.011  -0.010
 -0.000   0.019   0.014  -0.016   0.000  -0.000   0.018   0.014
  0.019  -0.000   0.009   0.012  -0.016   0.018  -0.000   0.009
 -0.020   0.015  -0.013  -0.000  -0.023  -0.019   0.014  -0.013
 -0.000   0.023   0.018  -0.019   0.000  -0.000   0.022   0.017
  0.023  -0.000   0.011   0.015  -0.019   0.022  -0.000   0.011
 pseudopotential strength for first ion, spin component:           2
-10.391   0.002  -0.002  -0.000   0.001 -10.363   0.002  -0.002
  0.002 -10.388   0.001   0.001  -0.000   0.002 -10.359   0.001
 -0.002   0.001 -10.386  -0.000  -0.000  -0.002   0.001 -10.357
 -0.000   0.001  -0.000 -10.388   0.000  -0.000   0.001  -0.000
  0.001  -0.000  -0.000   0.000 -10.389   0.001  -0.000  -0.000
-10.363   0.002  -0.002  -0.000   0.001 -10.310   0.002  -0.002
  0.002 -10.359   0.001   0.001  -0.000   0.002 -10.306   0.001
 -0.002   0.001 -10.357  -0.000  -0.000  -0.002   0.001 -10.305
 -0.000   0.001  -0.000 -10.360   0.000  -0.000   0.001  -0.000
  0.001  -0.000  -0.000   0.000 -10.360   0.001  -0.000  -0.000
  0.001  -0.000  -0.001   0.000  -0.000   0.001  -0.000  -0.001
  0.002  -0.001  -0.001   0.001  -0.000   0.002  -0.001  -0.001
 -0.016   0.012  -0.011  -0.000  -0.019  -0.015   0.011  -0.010
 -0.000   0.019   0.015  -0.016   0.000  -0.000   0.019   0.014
  0.019  -0.000   0.009   0.012  -0.016   0.019  -0.000   0.009
 -0.020   0.014  -0.013  -0.000  -0.023  -0.019   0.014  -0.013
 -0.000   0.024   0.018  -0.020   0.000  -0.000   0.023   0.018
  0.024  -0.000   0.011   0.015  -0.020   0.023  -0.000   0.011
 total augmentation occupancy for first ion, spin component:           1
  2.707   0.059   0.099  -0.036   0.058  -0.738  -0.045  -0.074   0.031  -0.037  -0.106  -0.035  -0.082   0.045   0.048  -0.004
  0.059   2.754   0.107  -0.071  -0.158  -0.045  -0.757  -0.092   0.046   0.143  -0.039   0.022   0.061   0.113   0.062   0.003
  0.099   0.107   2.711  -0.126  -0.000  -0.073  -0.092  -0.675   0.107  -0.006   0.114  -0.032  -0.045   0.097   0.057  -0.003
 -0.036  -0.071  -0.126   2.662  -0.114   0.031   0.046   0.107  -0.673   0.091  -0.017  -0.025   0.052  -0.107   0.038  -0.002
  0.058  -0.158  -0.000  -0.114   2.997  -0.037   0.142  -0.006   0.091  -0.957   0.034  -0.001  -0.161  -0.009  -0.144  -0.003
 -0.738  -0.045  -0.073   0.031  -0.037   0.735   0.034   0.053  -0.026   0.019   0.104   0.022   0.098  -0.047  -0.064  -0.006
 -0.045  -0.757  -0.092   0.046   0.142   0.034   0.731   0.080  -0.027  -0.132   0.034  -0.019  -0.073  -0.126  -0.061   0.005
 -0.074  -0.092  -0.675   0.107  -0.006   0.053   0.080   0.610  -0.092   0.011  -0.108   0.030   0.056  -0.102  -0.067  -0.004
  0.031   0.046   0.107  -0.673   0.091  -0.026  -0.027  -0.092   0.651  -0.074   0.018   0.018  -0.053   0.126  -0.047   0.003
 -0.037   0.143  -0.006   0.091  -0.957   0.019  -0.132   0.011  -0.074   0.892  -0.039   0.006   0.173   0.011   0.161  -0.010
 -0.106  -0.039   0.114  -0.017   0.034   0.104   0.034  -0.108   0.018  -0.039   1.852  -0.262  -0.150  -0.093   0.163   0.014
 -0.035   0.022  -0.032  -0.025  -0.001   0.022  -0.019   0.030   0.018   0.006  -0.262   0.056   0.033   0.020  -0.040  -0.003
 -0.082   0.061  -0.045   0.052  -0.161   0.098  -0.073   0.056  -0.053   0.173  -0.150   0.033   0.090  -0.002   0.019  -0.006
  0.045   0.113   0.097  -0.107  -0.009  -0.047  -0.126  -0.102   0.126   0.011  -0.093   0.020  -0.002   0.080   0.006  -0.000
  0.048   0.062   0.057   0.038  -0.144  -0.064  -0.061  -0.067  -0.047   0.161   0.163  -0.040   0.019   0.006   0.087  -0.000
 -0.004   0.003  -0.003  -0.002  -0.003  -0.006   0.005  -0.004   0.003  -0.010   0.014  -0.003  -0.006  -0.000  -0.000   0.001
 -0.002   0.004   0.001  -0.003   0.001   0.003   0.007   0.006  -0.008  -0.001   0.009  -0.002  -0.000  -0.005   0.000   0.000
  0.007  -0.002   0.003   0.004  -0.003   0.004   0.003   0.004   0.003  -0.009  -0.016   0.003  -0.000   0.000  -0.006  -0.000
 total augmentation occupancy for first ion, spin component:           2
  0.020  -0.016  -0.023   0.011  -0.022  -0.016   0.013   0.018  -0.009   0.017  -0.011  -0.001   0.003  -0.014   0.004  -0.000
 -0.016   0.006   0.019  -0.010   0.018   0.013  -0.008  -0.015   0.007  -0.015   0.011   0.002  -0.003   0.012  -0.004   0.000
 -0.023   0.019   0.012  -0.008   0.022   0.018  -0.015  -0.013   0.006  -0.017   0.005   0.002  -0.002   0.016  -0.004   0.000
  0.011  -0.010  -0.008  -0.007  -0.006  -0.009   0.007   0.006   0.003   0.004  -0.002  -0.001   0.000  -0.007   0.002  -0.000
 -0.022   0.018   0.022  -0.006   0.017   0.017  -0.015  -0.017   0.004  -0.014   0.010   0.001  -0.003   0.013  -0.004   0.000
 -0.016   0.013   0.018  -0.009   0.017   0.014  -0.011  -0.014   0.007  -0.013   0.009   0.001  -0.003   0.011  -0.003   0.000
  0.013  -0.008  -0.015   0.007  -0.015  -0.011   0.009   0.011  -0.005   0.012  -0.010  -0.001   0.003  -0.009   0.003  -0.000
  0.018  -0.015  -0.013   0.006  -0.017  -0.014   0.011   0.014  -0.005   0.013  -0.002  -0.002   0.002  -0.011   0.003  -0.000
 -0.009   0.007   0.006   0.003   0.004   0.007  -0.005  -0.005   0.001  -0.004   0.002   0.000  -0.000   0.005  -0.001   0.000
  0.017  -0.015  -0.017   0.004  -0.014  -0.013   0.012   0.013  -0.004   0.012  -0.007  -0.001   0.002  -0.010   0.003  -0.000
 -0.011   0.011   0.005  -0.002   0.010   0.009  -0.010  -0.002   0.002  -0.007   0.007  -0.001  -0.001   0.008  -0.002   0.000
 -0.001   0.002   0.002  -0.001   0.001   0.001  -0.001  -0.002   0.000  -0.001  -0.001   0.000   0.000   0.001  -0.000  -0.000
  0.003  -0.003  -0.002   0.000  -0.003  -0.003   0.003   0.002  -0.000   0.002  -0.001   0.000   0.000  -0.002   0.001  -0.000
 -0.014   0.012   0.016  -0.007   0.013   0.011  -0.009  -0.011   0.005  -0.010   0.008   0.001  -0.002   0.009  -0.002   0.000
  0.004  -0.004  -0.004   0.002  -0.004  -0.003   0.003   0.003  -0.001   0.003  -0.002  -0.000   0.001  -0.002   0.001  -0.000
 -0.000   0.000   0.000  -0.000   0.000   0.000  -0.000  -0.000   0.000  -0.000   0.000  -0.000  -0.000   0.000  -0.000   0.000
  0.000  -0.000  -0.000   0.000  -0.000  -0.000   0.000   0.000  -0.000   0.000  -0.000  -0.000   0.000  -0.000   0.000  -0.000
 -0.000   0.000   0.000   0.000   0.000   0.000  -0.000  -0.000   0.000  -0.000   0.000   0.000  -0.000   0.000  -0.000   0.000


------------------------ aborting loop because EDIFF is reached ----------------------------------------


    CHARGE:  cpu time    0.11: real time    0.11
    FORLOC:  cpu time    0.01: real time    0.01
    FORNL :  cpu time    2.66: real time    2.66
    STRESS:  cpu time    3.15: real time    3.15
    FORCOR:  cpu time    0.21: real time    0.21
    FORHAR:  cpu time    0.04: real time    0.04
    MIXING:  cpu time    0.00: real time    0.00
    OFIELD:  cpu time    0.00: real time    0.00

  FORCE on cell =-STRESS in cart. coord.  units (eV):
  Direction    XX          YY          ZZ          XY          YZ          ZX
  --------------------------------------------------------------------------------------
  Alpha Z    92.40752    92.40752    92.40752
  Ewald   42041.46179 20837.69034 34535.47102 -4450.15471 -3586.76840 -5584.13572
  Hartree 53783.39309 33715.05293 46682.76771 -4152.45431 -3338.40498 -5119.38138
  E(xc)   -2145.02366 -2146.57423 -2145.70507    -0.35406    -0.36658    -0.97544
  Local  ************-60594.78373-87257.60816  8601.45135  6926.88248 10695.99865
  n-local  -382.98193  -385.54264  -383.59758    -0.99178    -1.61648    -0.17337
  augment  3398.10940  3401.06991  3399.38840     0.69221     0.18195     2.55527
  Kinetic  5061.90791  5068.76211  5064.71230     1.36546    -0.15764     6.31072
  Fock        0.00000     0.00000     0.00000     0.00000     0.00000     0.00000
  -------------------------------------------------------------------------------------
  Total     -12.67382   -11.91778   -12.16386    -0.44583    -0.24967     0.19873
  in kB      -1.61142    -1.51529    -1.54658    -0.05669    -0.03174     0.02527
  external pressure =       -1.56 kB  Pullay stress =        0.00 kB


 VOLUME and BASIS-vectors are now :
 -----------------------------------------------------------------------------
  energy-cutoff  :      249.84
  volume of cell :    12601.15
      direct lattice vectors                 reciprocal lattice vectors
    23.270377763  0.000000000  0.000000000     0.042973088  0.000000000  0.000000000
     0.000000000 23.270377763  0.000000000     0.000000000  0.042973088  0.000000000
     0.000000000  0.000000000 23.270377763     0.000000000  0.000000000  0.042973088

  length of vectors
    23.270377763 23.270377763 23.270377763     0.042973088  0.042973088  0.042973088


 FORCES acting on ions
    electron-ion (+dipol)            ewald-force                    non-local-force                 convergence-correction
 -----------------------------------------------------------------------------------------------
   0.126E+04 -.738E+03 -.722E+03   -.125E+04 0.735E+03 0.720E+03   -.297E+01 0.306E+01 0.199E+01   -.878E-02 0.183E-02 -.630E-02
   0.155E+04 0.378E+03 -.142E+03   -.154E+04 -.375E+03 0.142E+03   -.400E+01 -.253E+01 -.179E+00   0.315E-02 -.202E-02 -.978E-02
   0.140E+04 -.588E+03 0.400E+03   -.140E+04 0.587E+03 -.400E+03   -.257E+01 0.129E+01 -.284E+00   0.128E-01 0.412E-02 -.155E-01
   0.684E+03 -.134E+04 -.489E+03   -.683E+03 0.133E+04 0.489E+03   -.122E+01 0.230E+01 0.695E+00   -.127E-01 0.645E-02 -.107E-01
   0.873E+03 -.119E+04 0.557E+03   -.872E+03 0.118E+04 -.557E+03   -.981E+00 0.331E+01 -.583E+00   0.359E-01 0.421E-02 -.110E-01
   0.101E+04 0.447E+03 -.119E+04   -.101E+04 -.446E+03 0.119E+04   -.278E+01 -.114E+01 0.316E+01   -.127E-01 -.114E-02 0.152E-02
   0.125E+04 0.757E+03 0.551E+03   -.124E+04 -.756E+03 -.550E+03   -.272E+01 -.121E+01 -.100E+01   0.296E-02 0.556E-02 -.418E-02
   0.439E+03 -.653E+03 -.138E+04   -.438E+03 0.652E+03 0.138E+04   -.102E+01 0.121E+01 0.245E+01   -.185E-01 0.139E-02 0.898E-02
   -.238E+03 -.158E+04 -.246E+03   0.237E+03 0.158E+04 0.245E+03   0.610E+00 0.432E+01 0.699E+00   0.497E-02 0.406E-03 0.109E-02
   0.943E+03 -.138E+03 0.998E+03   -.943E+03 0.139E+03 -.998E+03   -.141E+00 -.137E+01 -.457E+00   0.206E-01 0.597E-02 0.519E-02
   0.661E+03 0.636E+02 -.357E+03   -.660E+03 -.639E+02 0.356E+03   -.121E+01 0.332E+00 0.728E+00   -.117E-01 0.265E-02 0.952E-02
   -.573E+02 -.142E+04 0.671E+03   0.572E+02 0.141E+04 -.669E+03   0.755E-01 0.573E+01 -.227E+01   0.233E-01 0.170E-01 -.668E-02
   0.820E+03 0.137E+04 -.340E+03   -.818E+03 -.137E+04 0.340E+03   -.181E+01 -.374E+01 0.252E+00   0.182E-02 0.109E-02 -.809E-03
   0.237E+03 -.744E+03 0.132E+04   -.237E+03 0.742E+03 -.132E+04   -.200E+00 0.178E+01 -.201E+01   0.144E-01 0.901E-02 -.140E-01
   0.754E+03 0.102E+04 0.101E+04   -.752E+03 -.102E+04 -.100E+04   -.246E+01 -.428E+01 -.266E+01   -.491E-02 -.377E-03 -.791E-02
   -.331E+03 -.117E+04 -.970E+03   0.331E+03 0.117E+04 0.969E+03   0.371E+00 0.103E+01 0.958E+00   -.270E-01 -.619E-02 -.292E-02
   0.169E+03 -.473E+03 0.167E+03   -.169E+03 0.472E+03 -.166E+03   -.694E+00 0.142E+01 -.501E+00   0.772E-02 0.376E-02 0.463E-02
   0.302E+03 0.735E+03 -.131E+04   -.302E+03 -.734E+03 0.131E+04   0.515E+00 -.109E+01 0.141E+01   -.741E-03 -.126E-03 0.811E-02
   -.263E+03 0.160E+03 -.559E+03   0.262E+03 -.159E+03 0.558E+03   0.117E+01 -.399E+00 0.144E+01   0.143E-02 -.171E-01 0.680E-02
   -.706E+03 -.107E+04 0.647E+03   0.706E+03 0.107E+04 -.647E+03   -.827E-01 0.126E+01 -.419E+00   0.333E-02 0.245E-02 0.145E-02
   0.337E+03 0.184E+03 0.154E+04   -.336E+03 -.183E+03 -.153E+04   -.122E+01 -.998E+00 -.438E+01   0.459E-02 0.997E-02 -.691E-02
   0.350E+03 0.948E+03 0.313E+03   -.349E+03 -.947E+03 -.313E+03   -.636E+00 -.966E-01 -.167E+00   -.650E-02 -.457E-02 -.390E-02
   0.263E+02 0.153E+04 -.479E+03   -.257E+02 -.153E+04 0.478E+03   -.545E+00 -.314E+01 0.131E+01   -.236E-02 -.380E-02 0.103E-01
   -.584E+03 -.200E+03 0.142E+04   0.582E+03 0.200E+03 -.142E+04   0.148E+01 0.202E+00 -.274E+01   -.237E-02 -.452E-02 0.325E-02
   -.102E+04 -.101E+04 -.375E+03   0.102E+04 0.101E+04 0.374E+03   0.111E+01 0.179E+01 0.686E+00   -.116E-01 -.519E-02 0.621E-02
   -.551E+03 0.809E+03 -.134E+04   0.550E+03 -.806E+03 0.133E+04   0.131E+01 -.269E+01 0.373E+01   -.548E-02 -.269E-02 0.487E-02
   -.457E+03 0.108E+03 0.354E+03   0.455E+03 -.108E+03 -.354E+03   0.141E+01 -.300E+00 0.155E+00   -.810E-02 0.376E-02 -.373E-02
   -.368E+03 -.378E+03 -.155E+04   0.367E+03 0.377E+03 0.155E+04   0.117E+01 0.354E+00 0.451E+01   -.112E-01 0.401E-02 -.444E-02
   -.957E+02 0.102E+04 0.112E+04   0.965E+02 -.102E+04 -.112E+04   -.810E+00 -.178E+01 -.149E+01   0.480E-02 0.107E-02 -.127E-02
   -.117E+04 -.335E+03 -.107E+04   0.117E+04 0.333E+03 0.106E+04   0.171E+01 0.194E+01 0.350E+01   -.239E-02 -.193E-02 0.352E-02
   -.933E+03 0.967E+03 -.658E+03   0.934E+03 -.966E+03 0.656E+03   -.824E+00 -.824E+00 0.116E+01   0.434E-02 -.111E-01 0.805E-02
   -.312E+03 0.147E+04 0.299E+03   0.312E+03 -.146E+04 -.298E+03   -.267E+00 -.272E+01 -.101E+01   -.208E-02 0.473E-02 0.592E-02
   -.124E+04 -.701E+03 0.642E+03   0.124E+04 0.699E+03 -.640E+03   0.288E+01 0.212E+01 -.178E+01   0.234E-02 -.245E-02 0.181E-02
   -.862E+03 0.691E+03 0.105E+04   0.860E+03 -.690E+03 -.105E+04   0.222E+01 -.115E+01 -.215E+01   -.297E-02 -.545E-02 0.145E-01
   -.139E+04 -.139E+03 -.373E+03   0.139E+04 0.140E+03 0.374E+03   0.258E+01 -.177E+00 -.931E+00   -.710E-02 -.321E-02 -.438E-02
   -.110E+04 0.109E+04 0.341E+02   0.110E+04 -.109E+04 -.334E+02   0.364E+01 -.370E+01 -.679E+00   0.299E-02 -.552E-02 0.503E-02
   -.138E+04 0.111E+03 0.453E+03   0.138E+04 -.111E+03 -.451E+03   0.583E+01 0.104E+00 -.122E+01   -.112E-02 -.199E-02 0.314E-02
 -----------------------------------------------------------------------------------------------
   0.128E+01 -.242E+00 -.192E+01   -.455E-12 0.853E-12 -.227E-12   -.109E+01 0.213E+00 0.191E+01   -.899E-02 0.100E-01 -.561E-03
 
 
 POSITION                                       TOTAL-FORCE (eV/Angst)
 -----------------------------------------------------------------------------------
      7.71607     13.70845     14.65986        -0.003224      0.000124     -0.004217
      6.96576     11.38084     13.38203        -0.001977      0.000665     -0.005678
      8.11673     13.49610     11.72131         0.004926      0.002713     -0.005619
      9.89596     15.02700     13.45647        -0.005429      0.003992     -0.001289
      9.99931     15.29011     10.51898         0.012958      0.008420     -0.006928
      8.31311     11.15558     15.81304         0.002096     -0.002386      0.000492
      8.51859     10.65311     11.22119         0.001099      0.001178     -0.004506
     10.23647     13.40854     15.93233        -0.012774      0.002148      0.002439
     12.33964     16.02529     12.17920         0.001445      0.007243      0.002199
      9.79152     12.63231      9.61043         0.014646     -0.004993     -0.005044
      9.76442     12.02663     13.51181         0.005727      0.004450      0.000893
     12.10449     16.87598      9.50745         0.012495     -0.000443     -0.001116
      9.37487      9.33049     13.67682        -0.000842     -0.001380      0.000380
     11.57325     14.40476      8.31535         0.010023      0.011313     -0.006577
     10.03264      9.90046      9.04256         0.005851      0.008418     -0.005481
     12.45886     14.48567     14.50578        -0.011163     -0.003749     -0.004435
     11.55691     13.37585     11.84635         0.003228     -0.014735      0.010329
     10.98435     10.55905     15.75509        -0.015020      0.000610      0.000697
     12.72506     11.65599     13.76798        -0.004014     -0.000651     -0.009257
     13.70174     14.70687     10.12095         0.004437     -0.000525     -0.003539
     11.31386     11.82153      7.38820         0.000890     -0.003164     -0.000887
     11.26631     10.36609     11.60908         0.000824      0.002686      0.000747
     12.26100      8.83786     13.81501        -0.001726     -0.004383      0.003734
     13.85330     12.60542      8.28072         0.003901      0.002786     -0.001321
     14.53496     13.96626     12.69516        -0.005530     -0.002671      0.003294
     13.71052     10.05067     16.09053         0.000832     -0.002589      0.004429
     13.69097     11.84895     11.04879        -0.005737      0.003327      0.007288
     12.85233     12.65104     16.51315        -0.003817      0.003244      0.001563
     12.75926     10.08878      9.03491        -0.013887      0.000149     -0.005490
     15.19232     12.33498     14.93885         0.001335     -0.004683      0.000854
     15.05614      9.74206     13.76733         0.002925     -0.002709      0.003821
     13.79232      8.98630     11.41360        -0.002309      0.000551      0.008143
     16.03958     13.18779     10.12064        -0.006728      0.001342      0.000684
     15.49845     10.43550      9.45933         0.006923     -0.003602      0.009730
     16.45962     11.82548     12.51557        -0.006952     -0.003660      0.003476
     16.64643      9.12755     11.63689         0.004030     -0.005522      0.004918
     18.05504     11.17683     10.27941         0.000541     -0.003517      0.001274
 -----------------------------------------------------------------------------------
    total drift:                                0.179607     -0.019337     -0.018375


--------------------------------------------------------------------------------------------------------



  FREE ENERGIE OF THE ION-ELECTRON SYSTEM (eV)
  ---------------------------------------------------
  free  energy   TOTEN  =       -78.98147135 eV

  energy  without entropy=      -78.98147135  energy(sigma->0) =      -78.98147135
 
 d Force = 0.4959627E-04[ 0.687E-04, 0.305E-04]  d Energy = 0.8397541E-04-0.344E-04
 d Force = 0.5586143E+00[ 0.559E+00, 0.558E+00]  d Ewald  = 0.5586148E+00-0.496E-06


--------------------------------------------------------------------------------------------------------


    POTLOK:  cpu time    0.23: real time    0.23


--------------------------------------------------------------------------------------------------------




--------------------------------------------------------------------------------------------------------


  
 reached required accuracy - stopping structural energy minimisation
     LOOP+:  cpu time   13.52: real time   13.63
    4ORBIT:  cpu time    0.00: real time    0.00

 total amount of memory used by VASP on root node    55441. kBytes
========================================================================

   base      :      30000. kBytes
   nonl-proj :       2593. kBytes
   fftplans  :       4337. kBytes
   grid      :      10964. kBytes
   one-center:         46. kBytes
   wavefun   :       7501. kBytes
 
  
  
 General timing and accounting informations for this job:
 ========================================================
  
                  Total CPU time used (sec):     1466.184
                            User time (sec):     1456.631
                          System time (sec):        9.553
                         Elapsed time (sec):     1535.890
  
                   Maximum memory used (kb):       68656.
                   Average memory used (kb):           0.
  
                          Minor page faults:       774456
                          Major page faults:            0
                 Voluntary context switches:        42808
