unknown system                          
           1
    18.064674    0.000000    0.000000
     0.000000   18.064674    0.000000
     0.000000    0.000000   18.064674
   Ag
   8
Direct configuration=     1
   0.64129046  0.57020694  0.50164309
   0.65150094  0.52399510  0.64405809
   0.38769426  0.57567942  0.62112711
   0.51640538  0.53115651  0.58035882
   0.39873313  0.53797349  0.48585438
   0.53765007  0.49497910  0.42603410
   0.61552212  0.42824281  0.53469168
   0.41720639  0.49730643  0.35110928
Direct configuration=     2
   0.64148944  0.57061919  0.50152442
   0.65165123  0.52405503  0.64428262
   0.38739221  0.57584809  0.62162239
   0.51649357  0.53110891  0.58037596
   0.39874164  0.53795920  0.48572090
   0.53775508  0.49497785  0.42604521
   0.61556261  0.42774658  0.53472503
   0.41691697  0.49722494  0.35058002
Direct configuration=     3
   0.64208638  0.57185593  0.50116842
   0.65210210  0.52423482  0.64495623
   0.38648607  0.57635410  0.62310822
   0.51675815  0.53096612  0.58042740
   0.39876715  0.53791632  0.48532043
   0.53807011  0.49497413  0.42607855
   0.61568409  0.42625789  0.53482505
   0.41604871  0.49698047  0.34899225
Direct configuration=     4
   0.64328025  0.57432942  0.50045641
   0.65300384  0.52459440  0.64630344
   0.38467378  0.57736612  0.62607988
   0.51728730  0.53068055  0.58053028
   0.39881819  0.53783057  0.48451950
   0.53870016  0.49496668  0.42614523
   0.61592704  0.42328051  0.53502510
   0.41431218  0.49649154  0.34581670
Direct configuration=     5
   0.64361124  0.57501516  0.50025902
   0.65325384  0.52469409  0.64667693
   0.38417135  0.57764669  0.62690373
   0.51743400  0.53060138  0.58055880
   0.39883233  0.53780680  0.48429746
   0.53887483  0.49496461  0.42616371
   0.61599440  0.42245508  0.53508057
   0.41383076  0.49635599  0.34493633
Direct configuration=     6
   0.64368034  0.57508947  0.50048835
   0.65338485  0.52469673  0.64650036
   0.38426641  0.57753887  0.62692393
   0.51725311  0.53062912  0.58061756
   0.39901833  0.53787608  0.48451249
   0.53859781  0.49503040  0.42604873
   0.61602520  0.42237003  0.53526719
   0.41377670  0.49630910  0.34451794
Direct configuration=     7
   0.64383973  0.57526088  0.50101735
   0.65368706  0.52470282  0.64609306
   0.38448568  0.57729016  0.62697053
   0.51683583  0.53069311  0.58075311
   0.39944739  0.53803588  0.48500852
   0.53795880  0.49518217  0.42578349
   0.61609625  0.42217383  0.53569767
   0.41365201  0.49620094  0.34355281
Direct configuration=     8
   0.64376225  0.57523886  0.50122123
   0.65382530  0.52470069  0.64589785
   0.38448349  0.57718978  0.62711999
   0.51697261  0.53063141  0.58082707
   0.39960837  0.53802937  0.48479688
   0.53778506  0.49528630  0.42579905
   0.61600281  0.42221534  0.53588194
   0.41356286  0.49624805  0.34333254
Direct configuration=     9
   0.64357954  0.57518692  0.50170198
   0.65415130  0.52469564  0.64543752
   0.38447832  0.57695309  0.62747242
   0.51729514  0.53048592  0.58100147
   0.39998795  0.53801403  0.48429783
   0.53737538  0.49553184  0.42583572
   0.61578246  0.42231320  0.53631646
   0.41335265  0.49635916  0.34281313
Direct configuration=    10
   0.64346690  0.57522525  0.50179141
   0.65451352  0.52469819  0.64539053
   0.38461059  0.57665151  0.62741643
   0.51713151  0.53049340  0.58116633
   0.40018550  0.53811165  0.48425534
   0.53723403  0.49566590  0.42584873
   0.61562905  0.42225158  0.53657637
   0.41323165  0.49644232  0.34243141
Direct configuration=    11
   0.64331303  0.57527760  0.50191356
   0.65500830  0.52470166  0.64532634
   0.38479127  0.57623957  0.62733994
   0.51690799  0.53050363  0.58139152
   0.40045533  0.53824500  0.48419731
   0.53704096  0.49584901  0.42586649
   0.61541950  0.42216741  0.53693139
   0.41306637  0.49655592  0.34190999
Direct configuration=    12
   0.64313203  0.57531766  0.50192213
   0.65531315  0.52471893  0.64532796
   0.38469534  0.57588279  0.62735395
   0.51714464  0.53043372  0.58158137
   0.40054505  0.53837179  0.48395355
   0.53696322  0.49593742  0.42585493
   0.61519168  0.42214213  0.53720632
   0.41301765  0.49673536  0.34167633
Direct configuration=    13
   0.64283498  0.57538340  0.50193620
   0.65581343  0.52474727  0.64533062
   0.38453791  0.57529727  0.62737695
   0.51753301  0.53031901  0.58189293
   0.40069230  0.53857986  0.48355352
   0.53683566  0.49608251  0.42583595
   0.61481780  0.42210065  0.53765750
   0.41293768  0.49702983  0.34129288
Direct configuration=    14
   0.64287007  0.57541756  0.50189361
   0.65587413  0.52478165  0.64532979
   0.38455866  0.57504335  0.62718695
   0.51711882  0.53049255  0.58190807
   0.40077358  0.53870409  0.48380272
   0.53687789  0.49597468  0.42579138
   0.61487378  0.42199592  0.53764681
   0.41305583  0.49713000  0.34131722
Direct configuration=    15
   0.64285708  0.57540492  0.50190937
   0.65585167  0.52476893  0.64533010
   0.38455098  0.57513730  0.62725725
   0.51727207  0.53042834  0.58190247
   0.40074350  0.53865812  0.48371052
   0.53686226  0.49601457  0.42580787
   0.61485306  0.42203467  0.53765076
   0.41301211  0.49709294  0.34130821
