<?xml version="1.0" encoding="ISO-8859-1"?>
<modeling>
 <generator>
  <i name="program" type="string">vasp </i>
  <i name="version" type="string">5.3.5  </i>
  <i name="subversion" type="string">31Mar14 (build Feb 01 2018 12:10:03) gamma-only                       parallel </i>
  <i name="platform" type="string">LinuxIFC </i>
  <i name="date" type="string">2019 03 23 </i>
  <i name="time" type="string">12:07:00 </i>
 </generator>
 <incar>
  <i type="string" name="PREC">normal</i>
  <i type="int" name="ISPIN">     2</i>
  <i type="int" name="IBRION">     2</i>
  <i type="int" name="NSW">  1000</i>
  <i type="int" name="ISIF">     2</i>
  <i name="POTIM">      0.10000000</i>
  <i type="logical" name="LPLANE"> T  </i>
  <i type="int" name="ISMEAR">     0</i>
  <i name="SIGMA">      0.00010000</i>
  <i type="logical" name="LWAVE"> F  </i>
  <i type="logical" name="LCHARG"> F  </i>
  <i type="logical" name="LVTOT"> F  </i>
  <i type="string" name="GGA"> PE</i>
 </incar>
 <kpoints>
  <varray name="kpointlist" >
   <v>       0.00000000       0.00000000       0.00000000 </v>
  </varray>
  <varray name="weights" >
   <v>       1.00000000 </v>
  </varray>
 </kpoints>
 <parameters>
  <separator name="general" >
   <i type="string" name="SYSTEM">unknown system</i>
   <i type="logical" name="LCOMPAT"> F  </i>
  </separator>
  <separator name="electronic" >
   <i type="string" name="PREC">normal</i>
   <i name="ENMAX">    249.84400000</i>
   <i name="ENAUG">    412.49600000</i>
   <i name="EDIFF">      0.00010000</i>
   <i type="int" name="IALGO">    38</i>
   <i type="int" name="IWAVPR">    11</i>
   <i type="int" name="NBANDS">    52</i>
   <i name="NELECT">     77.00000000</i>
   <i type="int" name="TURBO">     0</i>
   <i type="int" name="IRESTART">     0</i>
   <i type="int" name="NREBOOT">     0</i>
   <i type="int" name="NMIN">     0</i>
   <i name="EREF">      0.00000000</i>
   <separator name="electronic smearing" >
    <i type="int" name="ISMEAR">     0</i>
    <i name="SIGMA">      0.00010000</i>
    <i name="KSPACING">      0.50000000</i>
    <i type="logical" name="KGAMMA"> T  </i>
   </separator>
   <separator name="electronic projectors" >
    <i type="logical" name="LREAL"> F  </i>
    <v name="ROPT">      0.00000000</v>
    <i type="int" name="LMAXPAW">  -100</i>
    <i type="int" name="LMAXMIX">     2</i>
    <i type="logical" name="NLSPLINE"> F  </i>
   </separator>
   <separator name="electronic startup" >
    <i type="int" name="ISTART">     0</i>
    <i type="int" name="ICHARG">     2</i>
    <i type="int" name="INIWAV">     1</i>
   </separator>
   <separator name="electronic spin" >
    <i type="int" name="ISPIN">     2</i>
    <i type="logical" name="LNONCOLLINEAR"> F  </i>
    <v name="MAGMOM">      1.00000000      1.00000000      1.00000000      1.00000000      1.00000000      1.00000000      1.00000000</v>
    <i name="NUPDOWN">     -1.00000000</i>
    <i type="logical" name="LSORBIT"> F  </i>
    <v name="SAXIS">      0.00000000      0.00000000      1.00000000</v>
    <i type="logical" name="LSPIRAL"> F  </i>
    <v name="QSPIRAL">      0.00000000      0.00000000      0.00000000</v>
    <i type="logical" name="LZEROZ"> F  </i>
   </separator>
   <separator name="electronic exchange-correlation" >
    <i type="logical" name="LASPH"> F  </i>
    <i type="logical" name="LMETAGGA"> F  </i>
   </separator>
   <separator name="electronic convergence" >
    <i type="int" name="NELM">    60</i>
    <i type="int" name="NELMDL">    -5</i>
    <i type="int" name="NELMIN">     2</i>
    <i name="ENINI">    249.84400000</i>
    <separator name="electronic convergence detail" >
     <i type="logical" name="LDIAG"> T  </i>
     <i type="logical" name="LSUBROT"> F  </i>
     <i name="WEIMIN">      0.00100000</i>
     <i name="EBREAK">      0.00000048</i>
     <i name="DEPER">      0.30000000</i>
     <i type="int" name="NRMM">     4</i>
     <i name="TIME">      0.40000000</i>
    </separator>
   </separator>
   <separator name="electronic mixer" >
    <i name="AMIX">      0.40000000</i>
    <i name="BMIX">      1.00000000</i>
    <i name="AMIN">      0.10000000</i>
    <i name="AMIX_MAG">      1.60000000</i>
    <i name="BMIX_MAG">      1.00000000</i>
    <separator name="electronic mixer details" >
     <i type="int" name="IMIX">     4</i>
     <i type="int" name="MAXMIX">   -45</i>
     <i name="WC">    100.00000000</i>
     <i type="int" name="INIMIX">     1</i>
     <i type="int" name="MIXPRE">     1</i>
     <i type="int" name="MREMOVE">     5</i>
    </separator>
   </separator>
   <separator name="electronic dipolcorrection" >
    <i type="logical" name="LDIPOL"> F  </i>
    <i type="logical" name="LMONO"> F  </i>
    <i type="int" name="IDIPOL">     0</i>
    <i name="EPSILON">      1.00000000</i>
    <v name="DIPOL">   -100.00000000   -100.00000000   -100.00000000</v>
    <i name="EFIELD">      0.00000000</i>
   </separator>
  </separator>
  <separator name="grids" >
   <i type="int" name="NGX">    70</i>
   <i type="int" name="NGY">    70</i>
   <i type="int" name="NGZ">    70</i>
   <i type="int" name="NGXF">   140</i>
   <i type="int" name="NGYF">   140</i>
   <i type="int" name="NGZF">   140</i>
   <i type="logical" name="ADDGRID"> F  </i>
  </separator>
  <separator name="ionic" >
   <i type="int" name="NSW">  1000</i>
   <i type="int" name="IBRION">     2</i>
   <i type="int" name="ISIF">     2</i>
   <i name="PSTRESS">      0.00000000</i>
   <i name="EDIFFG">      0.00100000</i>
   <i type="int" name="NFREE">     1</i>
   <i name="POTIM">      0.10000000</i>
   <i name="SMASS">     -3.00000000</i>
   <i name="SCALEE">      1.00000000</i>
  </separator>
  <separator name="ionic md" >
   <i name="TEBEG">      0.00010000</i>
   <i name="TEEND">      0.00010000</i>
   <i type="int" name="NBLOCK">     1</i>
   <i type="int" name="KBLOCK">  1000</i>
   <i type="int" name="NPACO">   256</i>
   <i name="APACO">     16.00000000</i>
  </separator>
  <separator name="symmetry" >
   <i type="int" name="ISYM">     2</i>
   <i name="SYMPREC">      0.00001000</i>
  </separator>
  <separator name="dos" >
   <i type="logical" name="LORBIT"> F  </i>
   <v name="RWIGS">     -1.00000000</v>
   <i type="int" name="NEDOS">   301</i>
   <i name="EMIN">     10.00000000</i>
   <i name="EMAX">    -10.00000000</i>
   <i name="EFERMI">      0.00000000</i>
  </separator>
  <separator name="writing" >
   <i type="int" name="NWRITE">     2</i>
   <i type="logical" name="LWAVE"> F  </i>
   <i type="logical" name="LCHARG"> F  </i>
   <i type="logical" name="LPARD"> F  </i>
   <i type="logical" name="LVTOT"> F  </i>
   <i type="logical" name="LVHAR"> F  </i>
   <i type="logical" name="LELF"> F  </i>
   <i type="logical" name="LOPTICS"> F  </i>
   <v name="STM">      0.00000000      0.00000000      0.00000000      0.00000000      0.00000000      0.00000000      0.00000000</v>
  </separator>
  <separator name="performance" >
   <i type="int" name="NPAR">     4</i>
   <i type="int" name="NSIM">     4</i>
   <i type="int" name="NBLK">    -1</i>
   <i type="logical" name="LPLANE"> T  </i>
   <i type="logical" name="LSCALAPACK"> T  </i>
   <i type="logical" name="LSCAAWARE"> F  </i>
   <i type="logical" name="LSCALU"> F  </i>
   <i type="logical" name="LASYNC"> F  </i>
   <i type="logical" name="LORBITALREAL"> F  </i>
  </separator>
  <separator name="miscellaneous" >
   <i type="int" name="IDIOT">     3</i>
   <i type="logical" name="LMUSIC"> F  </i>
   <v name="POMASS">    107.86800000</v>
   <v name="DARWINR">      0.00000000</v>
   <v name="DARWINV">      1.00000000</v>
   <i type="logical" name="LCORR"> T  </i>
  </separator>
  <i type="logical" name="GGA_COMPAT"> T  </i>
  <i type="logical" name="LBERRY"> F  </i>
  <i type="int" name="ICORELEVEL">     0</i>
  <i type="logical" name="LDAU"> F  </i>
  <i type="int" name="I_CONSTRAINED_M">     0</i>
  <separator name="electronic exchange-correlation" >
   <i type="string" name="GGA">PE</i>
   <i type="int" name="VOSKOWN">     0</i>
   <i type="logical" name="LHFCALC"> F  </i>
   <i type="string" name="PRECFOCK"></i>
   <i type="logical" name="LSYMGRAD"> F  </i>
   <i type="logical" name="LHFONE"> F  </i>
   <i type="logical" name="LRHFCALC"> F  </i>
   <i type="logical" name="LTHOMAS"> F  </i>
   <i type="logical" name="LMODELHF"> F  </i>
   <i name="ENCUT4O">     -1.00000000</i>
   <i type="int" name="EXXOEP">     0</i>
   <i type="int" name="FOURORBIT">     0</i>
   <i name="AEXX">      0.00000000</i>
   <i name="HFALPHA">      0.00000000</i>
   <i name="MCALPHA">      0.00000000</i>
   <i name="ALDAX">      1.00000000</i>
   <i name="AGGAX">      1.00000000</i>
   <i name="ALDAC">      1.00000000</i>
   <i name="AGGAC">      1.00000000</i>
   <i type="int" name="NKREDX">     1</i>
   <i type="int" name="NKREDY">     1</i>
   <i type="int" name="NKREDZ">     1</i>
   <i type="logical" name="SHIFTRED"> F  </i>
   <i type="logical" name="ODDONLY"> F  </i>
   <i type="logical" name="EVENONLY"> F  </i>
   <i type="int" name="LMAXFOCK">     0</i>
   <i type="int" name="NMAXFOCKAE">     0</i>
   <i type="logical" name="LFOCKAEDFT"> F  </i>
   <i name="HFSCREEN">      0.00000000</i>
   <i name="HFSCREENC">      0.00000000</i>
   <i type="int" name="NBANDSGWLOW">     0</i>
  </separator>
  <separator name="vdW DFT" >
   <i type="logical" name="LUSE_VDW"> F  </i>
   <i name="Zab_VDW">     -0.84910000</i>
   <i name="PARAM1">      0.12340000</i>
   <i name="PARAM2">      1.00000000</i>
   <i name="PARAM3">      0.00000000</i>
  </separator>
  <separator name="model GW" >
   <i type="int" name="MODEL_GW">     0</i>
   <i name="MODEL_EPS0">    450.64970526</i>
   <i name="MODEL_ALPHA">      1.00000000</i>
  </separator>
  <separator name="linear response parameters" >
   <i type="logical" name="LEPSILON"> F  </i>
   <i type="logical" name="LRPA"> F  </i>
   <i type="logical" name="LNABLA"> F  </i>
   <i type="logical" name="LVEL"> F  </i>
   <i type="int" name="KINTER">     0</i>
   <i name="CSHIFT">      0.10000000</i>
   <i name="OMEGAMAX">     -1.00000000</i>
   <i name="DEG_THRESHOLD">      0.00200000</i>
  </separator>
  <separator name="orbital magnetization" >
   <i type="logical" name="NUCIND"> F  </i>
   <v name="MAGPOS">      0.00000000      0.00000000      0.00000000</v>
   <i type="logical" name="LNICSALL"> T  </i>
   <i type="logical" name="ORBITALMAG"> F  </i>
   <i type="logical" name="LMAGBLOCH"> F  </i>
   <i type="logical" name="LCHIMAG"> F  </i>
   <i type="logical" name="LGAUGE"> T  </i>
   <i type="int" name="MAGATOM">     0</i>
   <v name="MAGDIPOL">      0.00000000      0.00000000      0.00000000</v>
   <v name="AVECCONST">      0.00000000      0.00000000      0.00000000</v>
  </separator>
  <separator name="response functions" >
   <i type="logical" name="LADDER"> F  </i>
   <i type="logical" name="LFXC"> F  </i>
   <i type="logical" name="LHARTREE"> T  </i>
   <i type="int" name="IBSE">     0</i>
   <i type="logical" name="LTCTE"> F  </i>
   <i type="logical" name="LTETE"> F  </i>
   <i type="logical" name="LTRIPLET"> F  </i>
   <i type="logical" name="LFXCEPS"> F  </i>
   <i type="logical" name="LFXHEG"> F  </i>
   <i type="logical" name="L2ORDER"> F  </i>
   <i type="logical" name="LUSEW"> F  </i>
   <i name="ENCUTGW">     -2.00000000</i>
   <i name="ENCUTGWSOFT">     -2.00000000</i>
   <i name="ENCUTLF">     -1.00000000</i>
   <i type="int" name="LMAXMP2">    -1</i>
   <i name="SCISSOR">      0.00000000</i>
   <i type="int" name="NOMEGA">     0</i>
   <i type="int" name="NOMEGAR">     0</i>
   <i type="int" name="NBANDSGW">    -1</i>
   <i type="int" name="NBANDSO">    -1</i>
   <i type="int" name="NBANDSV">    -1</i>
   <i type="int" name="NELM">     1</i>
   <i type="int" name="DIM">     3</i>
   <i type="int" name="ANTIRES">     0</i>
   <i name="OMEGAMAX">    -30.00000000</i>
   <i name="OMEGAMIN">    -30.00000000</i>
   <i name="OMEGATL">   -200.00000000</i>
   <i type="int" name="OMEGAGRID">     0</i>
   <i name="CSHIFT">     -0.10000000</i>
   <i type="logical" name="SELFENERGY"> F  </i>
   <i type="logical" name="LSPECTRAL"> F  </i>
   <i type="logical" name="ODDONLYGW"> F  </i>
   <i type="logical" name="EVENONLYGW"> F  </i>
   <i type="int" name="NKREDLFX">     1</i>
   <i type="int" name="NKREDLFY">     1</i>
   <i type="int" name="NKREDLFZ">     1</i>
   <i type="int" name="MAXMEM">  1800</i>
   <i type="int" name="TELESCOPE">     0</i>
   <i type="int" name="TAUPAR">     1</i>
  </separator>
  <separator name="External order field" >
   <i name="OFIELD_KAPPA">      0.00000000</i>
   <v name="OFIELD_K">      0.00000000      0.00000000      0.00000000</v>
   <i name="OFIELD_Q6_NEAR">      0.00000000</i>
   <i name="OFIELD_Q6_FAR">      0.00000000</i>
   <i name="OFIELD_A">      0.00000000</i>
  </separator>
 </parameters>
 <atominfo>
  <atoms>       7 </atoms>
  <types>       1 </types>
  <array name="atoms" >
   <dimension dim="1">ion</dimension>
   <field type="string">element</field>
   <field type="int">atomtype</field>
   <set>
    <rc><c>Ag</c><c>   1</c></rc>
    <rc><c>Ag</c><c>   1</c></rc>
    <rc><c>Ag</c><c>   1</c></rc>
    <rc><c>Ag</c><c>   1</c></rc>
    <rc><c>Ag</c><c>   1</c></rc>
    <rc><c>Ag</c><c>   1</c></rc>
    <rc><c>Ag</c><c>   1</c></rc>
   </set>
  </array>
  <array name="atomtypes" >
   <dimension dim="1">type</dimension>
   <field type="int">atomspertype</field>
   <field type="string">element</field>
   <field>mass</field>
   <field>valence</field>
   <field type="string">pseudopotential</field>
   <set>
    <rc><c>   7</c><c>Ag</c><c>    107.86800000</c><c>     11.00000000</c><c>  PAW_PBE Ag 02Apr2005                  </c></rc>
   </set>
  </array>
 </atominfo>
 <structure name="initialpos" >
  <crystal>
   <varray name="basis" >
    <v>      17.38849362       0.00000000       0.00000000 </v>
    <v>       0.00000000      17.38849362       0.00000000 </v>
    <v>       0.00000000       0.00000000      17.38849362 </v>
   </varray>
   <i name="volume">   5257.57989465 </i>
   <varray name="rec_basis" >
    <v>       0.05750929       0.00000000       0.00000000 </v>
    <v>       0.00000000       0.05750929       0.00000000 </v>
    <v>       0.00000000       0.00000000       0.05750929 </v>
   </varray>
  </crystal>
  <varray name="positions" >
   <v>       0.48463513       0.42804893       0.64644568 </v>
   <v>       0.54978249       0.56058188       0.59237656 </v>
   <v>       0.55816349       0.43148075       0.51134971 </v>
   <v>       0.60241048       0.50254111       0.38273732 </v>
   <v>       0.57694002       0.63273292       0.45943260 </v>
   <v>       0.46165756       0.53175072       0.44774878 </v>
   <v>       0.39752582       0.53936300       0.58702085 </v>
  </varray>
 </structure>
 <calculation>
  <scstep>
   <time name="dav">    0.30    0.30</time>
   <time name="total">    0.46    0.48</time>
   <energy>
    <i name="alphaZ">      7.92728332 </i>
    <i name="ewald">   4887.96967508 </i>
    <i name="hartreedc"> -11826.65230367 </i>
    <i name="XCdc">    -78.83642409 </i>
    <i name="pawpsdc">   7023.60524649 </i>
    <i name="pawaedc">  -6700.85226215 </i>
    <i name="eentropy">      0.00000000 </i>
    <i name="bandstr">     99.06765571 </i>
    <i name="atom">   7260.39041060 </i>
    <i name="e_fr_energy">    672.61928128 </i>
    <i name="e_wo_entrp">    672.61928128 </i>
    <i name="e_0_energy">    672.61928128 </i>
   </energy>
  </scstep>
  <scstep>
   <time name="dav">    0.48    0.48</time>
   <time name="total">    0.48    0.48</time>
   <energy>
    <i name="e_fr_energy">    275.01606966 </i>
    <i name="e_wo_entrp">    275.01606966 </i>
    <i name="e_0_energy">    275.01606966 </i>
   </energy>
  </scstep>
  <scstep>
   <time name="dav">    0.42    0.42</time>
   <time name="total">    0.42    0.43</time>
   <energy>
    <i name="e_fr_energy">     16.50978500 </i>
    <i name="e_wo_entrp">     16.50978500 </i>
    <i name="e_0_energy">     16.50978500 </i>
   </energy>
  </scstep>
  <scstep>
   <time name="dav">    0.33    0.33</time>
   <time name="total">    0.33    0.34</time>
   <energy>
    <i name="e_fr_energy">    -10.41371937 </i>
    <i name="e_wo_entrp">    -10.41371937 </i>
    <i name="e_0_energy">    -10.41371937 </i>
   </energy>
  </scstep>
  <scstep>
   <time name="dav">    0.33    0.33</time>
   <time name="total">    0.37    0.37</time>
   <energy>
    <i name="e_fr_energy">    -10.85186851 </i>
    <i name="e_wo_entrp">    -10.85186851 </i>
    <i name="e_0_energy">    -10.85186851 </i>
   </energy>
  </scstep>
  <scstep>
   <time name="dav">    0.31    0.31</time>
   <time name="total">    0.50    0.51</time>
   <energy>
    <i name="e_fr_energy">     -1.86250142 </i>
    <i name="e_wo_entrp">     -1.86250142 </i>
    <i name="e_0_energy">     -1.86250142 </i>
   </energy>
  </scstep>
  <scstep>
   <time name="dav">    0.32    0.32</time>
   <time name="total">    0.51    0.52</time>
   <energy>
    <i name="e_fr_energy">     -2.71369920 </i>
    <i name="e_wo_entrp">     -2.71369920 </i>
    <i name="e_0_energy">     -2.71369920 </i>
   </energy>
  </scstep>
  <scstep>
   <time name="dav">    0.32    0.32</time>
   <time name="total">    0.51    0.52</time>
   <energy>
    <i name="e_fr_energy">      0.10697550 </i>
    <i name="e_wo_entrp">      0.10697550 </i>
    <i name="e_0_energy">      0.10697550 </i>
   </energy>
  </scstep>
  <scstep>
   <time name="dav">    0.31    0.31</time>
   <time name="total">    0.50    0.51</time>
   <energy>
    <i name="e_fr_energy">     -3.28643905 </i>
    <i name="e_wo_entrp">     -3.28643905 </i>
    <i name="e_0_energy">     -3.28643905 </i>
   </energy>
  </scstep>
  <scstep>
   <time name="dav">    0.31    0.31</time>
   <time name="total">    0.50    0.51</time>
   <energy>
    <i name="e_fr_energy">     -5.95670183 </i>
    <i name="e_wo_entrp">     -5.95670183 </i>
    <i name="e_0_energy">     -5.95670183 </i>
   </energy>
  </scstep>
  <scstep>
   <time name="dav">    0.31    0.31</time>
   <time name="total">    0.50    0.50</time>
   <energy>
    <i name="e_fr_energy">     -8.22659968 </i>
    <i name="e_wo_entrp">     -8.22659968 </i>
    <i name="e_0_energy">     -8.22659968 </i>
   </energy>
  </scstep>
  <scstep>
   <time name="dav">    0.31    0.31</time>
   <time name="total">    0.50    0.51</time>
   <energy>
    <i name="e_fr_energy">     -9.26901797 </i>
    <i name="e_wo_entrp">     -9.26901797 </i>
    <i name="e_0_energy">     -9.26901797 </i>
   </energy>
  </scstep>
  <scstep>
   <time name="dav">    0.30    0.30</time>
   <time name="total">    0.49    0.53</time>
   <energy>
    <i name="e_fr_energy">    -10.20590688 </i>
    <i name="e_wo_entrp">    -10.20590688 </i>
    <i name="e_0_energy">    -10.20590688 </i>
   </energy>
  </scstep>
  <scstep>
   <time name="dav">    0.30    0.30</time>
   <time name="total">    0.50    0.50</time>
   <energy>
    <i name="e_fr_energy">    -10.55422277 </i>
    <i name="e_wo_entrp">    -10.55422277 </i>
    <i name="e_0_energy">    -10.55422277 </i>
   </energy>
  </scstep>
  <scstep>
   <time name="dav">    0.30    0.30</time>
   <time name="total">    0.49    0.50</time>
   <energy>
    <i name="e_fr_energy">    -10.68385358 </i>
    <i name="e_wo_entrp">    -10.68385358 </i>
    <i name="e_0_energy">    -10.68385358 </i>
   </energy>
  </scstep>
  <scstep>
   <time name="dav">    0.28    0.28</time>
   <time name="total">    0.48    0.48</time>
   <energy>
    <i name="e_fr_energy">    -10.72790598 </i>
    <i name="e_wo_entrp">    -10.72790598 </i>
    <i name="e_0_energy">    -10.72790598 </i>
   </energy>
  </scstep>
  <scstep>
   <time name="dav">    0.27    0.27</time>
   <time name="total">    0.46    0.47</time>
   <energy>
    <i name="e_fr_energy">    -10.73566422 </i>
    <i name="e_wo_entrp">    -10.73566422 </i>
    <i name="e_0_energy">    -10.73566422 </i>
   </energy>
  </scstep>
  <scstep>
   <time name="dav">    0.26    0.26</time>
   <time name="total">    0.45    0.46</time>
   <energy>
    <i name="e_fr_energy">    -10.73787131 </i>
    <i name="e_wo_entrp">    -10.73787131 </i>
    <i name="e_0_energy">    -10.73787131 </i>
   </energy>
  </scstep>
  <scstep>
   <time name="dav">    0.25    0.25</time>
   <time name="total">    0.44    0.45</time>
   <energy>
    <i name="e_fr_energy">    -10.74106963 </i>
    <i name="e_wo_entrp">    -10.74106963 </i>
    <i name="e_0_energy">    -10.74106963 </i>
   </energy>
  </scstep>
  <scstep>
   <time name="dav">    0.27    0.27</time>
   <time name="total">    0.46    0.47</time>
   <energy>
    <i name="e_fr_energy">    -10.74166789 </i>
    <i name="e_wo_entrp">    -10.74166789 </i>
    <i name="e_0_energy">    -10.74166789 </i>
   </energy>
  </scstep>
  <scstep>
   <time name="dav">    0.26    0.26</time>
   <time name="total">    0.45    0.46</time>
   <energy>
    <i name="e_fr_energy">    -10.74199827 </i>
    <i name="e_wo_entrp">    -10.74199827 </i>
    <i name="e_0_energy">    -10.74199827 </i>
   </energy>
  </scstep>
  <scstep>
   <time name="dav">    0.27    0.27</time>
   <time name="total">    0.42    0.43</time>
   <energy>
    <i name="alphaZ">      7.92728332 </i>
    <i name="ewald">   4887.96967508 </i>
    <i name="hartreedc"> -11825.63922369 </i>
    <i name="XCdc">    -80.72052061 </i>
    <i name="pawpsdc">   7523.33647185 </i>
    <i name="pawaedc">  -7211.15177509 </i>
    <i name="eentropy">      0.00000000 </i>
    <i name="bandstr">   -572.85439644 </i>
    <i name="atom">   7260.39041060 </i>
    <i name="e_fr_energy">    -10.74207498 </i>
    <i name="e_wo_entrp">    -10.74207498 </i>
    <i name="e_0_energy">    -10.74207498 </i>
   </energy>
  </scstep>
  <structure>
   <crystal>
    <varray name="basis" >
     <v>      17.38849362       0.00000000       0.00000000 </v>
     <v>       0.00000000      17.38849362       0.00000000 </v>
     <v>       0.00000000       0.00000000      17.38849362 </v>
    </varray>
    <i name="volume">   5257.57989465 </i>
    <varray name="rec_basis" >
     <v>       0.05750929       0.00000000       0.00000000 </v>
     <v>       0.00000000       0.05750929       0.00000000 </v>
     <v>       0.00000000       0.00000000       0.05750929 </v>
    </varray>
   </crystal>
   <varray name="positions" >
    <v>       0.48463513       0.42804893       0.64644568 </v>
    <v>       0.54978249       0.56058188       0.59237656 </v>
    <v>       0.55816349       0.43148075       0.51134971 </v>
    <v>       0.60241048       0.50254111       0.38273732 </v>
    <v>       0.57694002       0.63273292       0.45943260 </v>
    <v>       0.46165756       0.53175072       0.44774878 </v>
    <v>       0.39752582       0.53936300       0.58702085 </v>
   </varray>
  </structure>
  <varray name="forces" >
   <v>       0.24552167      -0.38789864       0.21871668 </v>
   <v>       0.18092637       0.50296344       0.27930877 </v>
   <v>       0.41755779      -0.97058584      -0.05578385 </v>
   <v>       0.12658094      -0.40155797      -0.27948601 </v>
   <v>       0.09217732       0.67131402       0.19669029 </v>
   <v>      -0.50134311       0.19099153      -0.23809727 </v>
   <v>      -0.56142099       0.39477345      -0.12134863 </v>
  </varray>
  <varray name="stress" >
   <v>      -0.01325816      -0.31487549       0.06369962 </v>
   <v>      -0.31487550       0.55716060       0.10024125 </v>
   <v>       0.06369962       0.10024125      -0.24134622 </v>
  </varray>
  <energy>
   <i name="e_fr_energy">    -10.74207498 </i>
   <i name="e_wo_entrp">    -10.74207498 </i>
   <i name="e_0_energy">      0.00000000 </i>
  </energy>
  <time name="totalsc">   10.80   11.03</time>
 </calculation>
 <calculation>
  <scstep>
   <time name="dav">    0.31    0.31</time>
   <time name="total">    0.50    0.51</time>
   <energy>
    <i name="alphaZ">      7.92728332 </i>
    <i name="ewald">   4858.93136511 </i>
    <i name="hartreedc"> -11796.98570552 </i>
    <i name="XCdc">    -80.79768308 </i>
    <i name="pawpsdc">   7523.46633768 </i>
    <i name="pawaedc">  -7211.28207275 </i>
    <i name="eentropy">      0.00000000 </i>
    <i name="bandstr">   -572.42132877 </i>
    <i name="atom">   7260.39041060 </i>
    <i name="e_fr_energy">    -10.77139341 </i>
    <i name="e_wo_entrp">    -10.77139341 </i>
    <i name="e_0_energy">    -10.77139341 </i>
   </energy>
  </scstep>
  <scstep>
   <time name="dav">    0.33    0.33</time>
   <time name="total">    0.51    0.52</time>
   <energy>
    <i name="e_fr_energy">    -10.77244940 </i>
    <i name="e_wo_entrp">    -10.77244940 </i>
    <i name="e_0_energy">    -10.77244940 </i>
   </energy>
  </scstep>
  <scstep>
   <time name="dav">    0.27    0.27</time>
   <time name="total">    0.43    0.45</time>
   <energy>
    <i name="alphaZ">      7.92728332 </i>
    <i name="ewald">   4858.93136511 </i>
    <i name="hartreedc"> -11797.44580833 </i>
    <i name="XCdc">    -80.78504907 </i>
    <i name="pawpsdc">   7515.12806371 </i>
    <i name="pawaedc">  -7202.81652979 </i>
    <i name="eentropy">      0.00000000 </i>
    <i name="bandstr">   -572.10218419 </i>
    <i name="atom">   7260.39041060 </i>
    <i name="e_fr_energy">    -10.77244863 </i>
    <i name="e_wo_entrp">    -10.77244863 </i>
    <i name="e_0_energy">    -10.77244863 </i>
   </energy>
  </scstep>
  <structure>
   <crystal>
    <varray name="basis" >
     <v>      17.38849362       0.00000000       0.00000000 </v>
     <v>       0.00000000      17.38849362       0.00000000 </v>
     <v>       0.00000000       0.00000000      17.38849362 </v>
    </varray>
    <i name="volume">   5257.57989465 </i>
    <varray name="rec_basis" >
     <v>       0.05750929       0.00000000       0.00000000 </v>
     <v>       0.00000000       0.05750929       0.00000000 </v>
     <v>       0.00000000       0.00000000       0.05750929 </v>
    </varray>
   </crystal>
   <varray name="positions" >
    <v>       0.48477136       0.42783369       0.64656704 </v>
    <v>       0.54988288       0.56086097       0.59253155 </v>
    <v>       0.55839519       0.43094219       0.51131876 </v>
    <v>       0.60248072       0.50231829       0.38258224 </v>
    <v>       0.57699116       0.63310542       0.45954174 </v>
    <v>       0.46137937       0.53185670       0.44761667 </v>
    <v>       0.39721429       0.53958206       0.58695351 </v>
   </varray>
  </structure>
  <varray name="forces" >
   <v>       0.22972704      -0.32573276       0.17577927 </v>
   <v>       0.13956506       0.42363073       0.23464856 </v>
   <v>       0.37046822      -0.86365715      -0.04946559 </v>
   <v>       0.09198828      -0.35699245      -0.22833251 </v>
   <v>       0.07453635       0.59530879       0.17521740 </v>
   <v>      -0.41339856       0.16982418      -0.20044609 </v>
   <v>      -0.49288640       0.35761866      -0.10740105 </v>
  </varray>
  <varray name="stress" >
   <v>      -0.10730833      -0.29645371       0.06470830 </v>
   <v>      -0.29645371       0.42742837       0.09612424 </v>
   <v>       0.06470830       0.09612424      -0.31980456 </v>
  </varray>
  <energy>
   <i name="e_fr_energy">    -10.77244863 </i>
   <i name="e_wo_entrp">    -10.77244863 </i>
   <i name="e_0_energy">      0.00000000 </i>
  </energy>
  <time name="totalsc">    2.03    2.08</time>
 </calculation>
 <calculation>
  <scstep>
   <time name="dav">    0.30    0.30</time>
   <time name="total">    0.50    0.50</time>
   <energy>
    <i name="alphaZ">      7.92728332 </i>
    <i name="ewald">   4772.86680620 </i>
    <i name="hartreedc"> -11712.68255341 </i>
    <i name="XCdc">    -81.00564761 </i>
    <i name="pawpsdc">   7511.93210820 </i>
    <i name="pawaedc">  -7199.56844755 </i>
    <i name="eentropy">      0.00000000 </i>
    <i name="bandstr">   -570.69375227 </i>
    <i name="atom">   7260.39041060 </i>
    <i name="e_fr_energy">    -10.83379251 </i>
    <i name="e_wo_entrp">    -10.83379251 </i>
    <i name="e_0_energy">    -10.83379251 </i>
   </energy>
  </scstep>
  <scstep>
   <time name="dav">    0.33    0.33</time>
   <time name="total">    0.52    0.52</time>
   <energy>
    <i name="e_fr_energy">    -10.84275664 </i>
    <i name="e_wo_entrp">    -10.84275664 </i>
    <i name="e_0_energy">    -10.84275664 </i>
   </energy>
  </scstep>
  <scstep>
   <time name="dav">    0.32    0.32</time>
   <time name="total">    0.52    0.52</time>
   <energy>
    <i name="e_fr_energy">    -10.84257417 </i>
    <i name="e_wo_entrp">    -10.84257417 </i>
    <i name="e_0_energy">    -10.84257417 </i>
   </energy>
  </scstep>
  <scstep>
   <time name="dav">    0.32    0.32</time>
   <time name="total">    0.48    0.49</time>
   <energy>
    <i name="alphaZ">      7.92728332 </i>
    <i name="ewald">   4772.86680620 </i>
    <i name="hartreedc"> -11714.40376833 </i>
    <i name="XCdc">    -80.95747845 </i>
    <i name="pawpsdc">   7479.86660672 </i>
    <i name="pawaedc">  -7166.99277170 </i>
    <i name="eentropy">      0.00000000 </i>
    <i name="bandstr">   -569.53958196 </i>
    <i name="atom">   7260.39041060 </i>
    <i name="e_fr_energy">    -10.84249359 </i>
    <i name="e_wo_entrp">    -10.84249359 </i>
    <i name="e_0_energy">    -10.84249359 </i>
   </energy>
  </scstep>
  <structure>
   <crystal>
    <varray name="basis" >
     <v>      17.38849362       0.00000000       0.00000000 </v>
     <v>       0.00000000      17.38849362       0.00000000 </v>
     <v>       0.00000000       0.00000000      17.38849362 </v>
    </varray>
    <i name="volume">   5257.57989465 </i>
    <varray name="rec_basis" >
     <v>       0.05750929       0.00000000       0.00000000 </v>
     <v>       0.00000000       0.05750929       0.00000000 </v>
     <v>       0.00000000       0.00000000       0.05750929 </v>
    </varray>
   </crystal>
   <varray name="positions" >
    <v>       0.48518007       0.42718798       0.64693113 </v>
    <v>       0.55018406       0.56169822       0.59299649 </v>
    <v>       0.55909027       0.42932652       0.51122590 </v>
    <v>       0.60269143       0.50164984       0.38211700 </v>
    <v>       0.57714460       0.63422292       0.45986916 </v>
    <v>       0.46054482       0.53217463       0.44722032 </v>
    <v>       0.39627973       0.54023921       0.58675151 </v>
   </varray>
  </structure>
  <varray name="forces" >
   <v>       0.20587241      -0.18514306       0.07165523 </v>
   <v>       0.03579119       0.23768056       0.13637780 </v>
   <v>       0.26529058      -0.62274613      -0.03524986 </v>
   <v>       0.00394745      -0.26596843      -0.10735305 </v>
   <v>       0.03097442       0.43298072       0.13099446 </v>
   <v>      -0.20474654       0.12464541      -0.11531048 </v>
   <v>      -0.33712951       0.27855093      -0.08111411 </v>
  </varray>
  <varray name="stress" >
   <v>      -0.38427559      -0.24825337       0.06315972 </v>
   <v>      -0.24825337       0.05651703       0.08379651 </v>
   <v>       0.06315972       0.08379651      -0.55084196 </v>
  </varray>
  <energy>
   <i name="e_fr_energy">    -10.84249359 </i>
   <i name="e_wo_entrp">    -10.84249359 </i>
   <i name="e_0_energy">      0.00000000 </i>
  </energy>
  <time name="totalsc">    2.60    2.62</time>
 </calculation>
 <calculation>
  <scstep>
   <time name="dav">    0.30    0.30</time>
   <time name="total">    0.49    0.50</time>
   <energy>
    <i name="alphaZ">      7.92728332 </i>
    <i name="ewald">   4605.31764080 </i>
    <i name="hartreedc"> -11548.79278578 </i>
    <i name="XCdc">    -81.37488420 </i>
    <i name="pawpsdc">   7479.57765049 </i>
    <i name="pawaedc">  -7166.69689800 </i>
    <i name="eentropy">     -0.00000000 </i>
    <i name="bandstr">   -567.21751619 </i>
    <i name="atom">   7260.39041060 </i>
    <i name="e_fr_energy">    -10.86909896 </i>
    <i name="e_wo_entrp">    -10.86909896 </i>
    <i name="e_0_energy">    -10.86909896 </i>
   </energy>
  </scstep>
  <scstep>
   <time name="dav">    0.32    0.33</time>
   <time name="total">    0.52    0.52</time>
   <energy>
    <i name="e_fr_energy">    -10.90485879 </i>
    <i name="e_wo_entrp">    -10.90485879 </i>
    <i name="e_0_energy">    -10.90485879 </i>
   </energy>
  </scstep>
  <scstep>
   <time name="dav">    0.33    0.33</time>
   <time name="total">    0.52    0.52</time>
   <energy>
    <i name="e_fr_energy">    -10.90468517 </i>
    <i name="e_wo_entrp">    -10.90468517 </i>
    <i name="e_0_energy">    -10.90468517 </i>
   </energy>
  </scstep>
  <scstep>
   <time name="dav">    0.32    0.32</time>
   <time name="total">    0.51    0.51</time>
   <energy>
    <i name="e_fr_energy">    -10.90416447 </i>
    <i name="e_wo_entrp">    -10.90416447 </i>
    <i name="e_0_energy">    -10.90416447 </i>
   </energy>
  </scstep>
  <scstep>
   <time name="dav">    0.26    0.27</time>
   <time name="total">    0.46    1.81</time>
   <energy>
    <i name="e_fr_energy">    -10.90429010 </i>
    <i name="e_wo_entrp">    -10.90429010 </i>
    <i name="e_0_energy">    -10.90429010 </i>
   </energy>
  </scstep>
  <scstep>
   <time name="dav">    0.24    0.24</time>
   <time name="total">    0.40    0.40</time>
   <energy>
    <i name="alphaZ">      7.92728332 </i>
    <i name="ewald">   4605.31764080 </i>
    <i name="hartreedc"> -11552.00616495 </i>
    <i name="XCdc">    -81.27997847 </i>
    <i name="pawpsdc">   7423.77558062 </i>
    <i name="pawaedc">  -7109.96171161 </i>
    <i name="eentropy">      0.00000000 </i>
    <i name="bandstr">   -565.06741863 </i>
    <i name="atom">   7260.39041060 </i>
    <i name="e_fr_energy">    -10.90435832 </i>
    <i name="e_wo_entrp">    -10.90435832 </i>
    <i name="e_0_energy">    -10.90435832 </i>
   </energy>
  </scstep>
  <structure>
   <crystal>
    <varray name="basis" >
     <v>      17.38849362       0.00000000       0.00000000 </v>
     <v>       0.00000000      17.38849362       0.00000000 </v>
     <v>       0.00000000       0.00000000      17.38849362 </v>
    </varray>
    <i name="volume">   5257.57989465 </i>
    <varray name="rec_basis" >
     <v>       0.05750929       0.00000000       0.00000000 </v>
     <v>       0.00000000       0.05750929       0.00000000 </v>
     <v>       0.00000000       0.00000000       0.05750929 </v>
    </varray>
   </crystal>
   <varray name="positions" >
    <v>       0.48599748       0.42589656       0.64765930 </v>
    <v>       0.55078641       0.56337273       0.59392639 </v>
    <v>       0.56048044       0.42609516       0.51104018 </v>
    <v>       0.60311285       0.50031294       0.38118651 </v>
    <v>       0.57745149       0.63645791       0.46052400 </v>
    <v>       0.45887571       0.53281050       0.44642763 </v>
    <v>       0.39441060       0.54155352       0.58634751 </v>
   </varray>
  </structure>
  <varray name="forces" >
   <v>       0.16388201       0.05741391      -0.10833668 </v>
   <v>      -0.14314457      -0.05350323      -0.03070773 </v>
   <v>       0.09232492      -0.22305068      -0.01019507 </v>
   <v>      -0.15004942      -0.10689535       0.10824712 </v>
   <v>      -0.05106528       0.13826047       0.05341213 </v>
   <v>       0.15320951       0.05834419       0.02583508 </v>
   <v>      -0.06515717       0.12943069      -0.03825485 </v>
  </varray>
  <varray name="stress" >
   <v>      -0.81540337      -0.17853571       0.07876946 </v>
   <v>      -0.17853571      -0.51076340       0.07473826 </v>
   <v>       0.07876946       0.07473826      -0.89882799 </v>
  </varray>
  <energy>
   <i name="e_fr_energy">    -10.90435832 </i>
   <i name="e_wo_entrp">    -10.90435832 </i>
   <i name="e_0_energy">      0.00000000 </i>
  </energy>
  <time name="totalsc">    3.48    6.22</time>
 </calculation>
 <calculation>
  <scstep>
   <time name="dav">    0.31    0.31</time>
   <time name="total">    0.50    0.51</time>
   <energy>
    <i name="alphaZ">      7.92728332 </i>
    <i name="ewald">   4575.13632081 </i>
    <i name="hartreedc"> -11522.13104525 </i>
    <i name="XCdc">    -81.35292278 </i>
    <i name="pawpsdc">   7424.50417543 </i>
    <i name="pawaedc">  -7110.69885209 </i>
    <i name="eentropy">      0.00000000 </i>
    <i name="bandstr">   -564.68047802 </i>
    <i name="atom">   7260.39041060 </i>
    <i name="e_fr_energy">    -10.90510797 </i>
    <i name="e_wo_entrp">    -10.90510797 </i>
    <i name="e_0_energy">    -10.90510797 </i>
   </energy>
  </scstep>
  <scstep>
   <time name="dav">    0.33    0.33</time>
   <time name="total">    0.52    0.52</time>
   <energy>
    <i name="e_fr_energy">    -10.90639550 </i>
    <i name="e_wo_entrp">    -10.90639550 </i>
    <i name="e_0_energy">    -10.90639550 </i>
   </energy>
  </scstep>
  <scstep>
   <time name="dav">    0.27    0.27</time>
   <time name="total">    0.42    0.44</time>
   <energy>
    <i name="alphaZ">      7.92728332 </i>
    <i name="ewald">   4575.13632081 </i>
    <i name="hartreedc"> -11522.61967363 </i>
    <i name="XCdc">    -81.33874344 </i>
    <i name="pawpsdc">   7418.56776889 </i>
    <i name="pawaedc">  -7104.66309606 </i>
    <i name="eentropy">      0.00000000 </i>
    <i name="bandstr">   -564.30668332 </i>
    <i name="atom">   7260.39041060 </i>
    <i name="e_fr_energy">    -10.90641283 </i>
    <i name="e_wo_entrp">    -10.90641283 </i>
    <i name="e_0_energy">    -10.90641283 </i>
   </energy>
  </scstep>
  <structure>
   <crystal>
    <varray name="basis" >
     <v>      17.38849362       0.00000000       0.00000000 </v>
     <v>       0.00000000      17.38849362       0.00000000 </v>
     <v>       0.00000000       0.00000000      17.38849362 </v>
    </varray>
    <i name="volume">   5257.57989465 </i>
    <varray name="rec_basis" >
     <v>       0.05750929       0.00000000       0.00000000 </v>
     <v>       0.00000000       0.05750929       0.00000000 </v>
     <v>       0.00000000       0.00000000       0.05750929 </v>
    </varray>
   </crystal>
   <varray name="positions" >
    <v>       0.48614787       0.42565896       0.64779327 </v>
    <v>       0.55089723       0.56368080       0.59409747 </v>
    <v>       0.56073620       0.42550066       0.51100601 </v>
    <v>       0.60319039       0.50006698       0.38101532 </v>
    <v>       0.57750795       0.63686910       0.46064447 </v>
    <v>       0.45856862       0.53292748       0.44628179 </v>
    <v>       0.39406672       0.54179533       0.58627318 </v>
   </varray>
  </structure>
  <varray name="forces" >
   <v>       0.15338894       0.10322463      -0.14168283 </v>
   <v>      -0.17468007      -0.10411459      -0.06063985 </v>
   <v>       0.06222214      -0.15441786      -0.00613761 </v>
   <v>      -0.17750777      -0.07410639       0.14817866 </v>
   <v>      -0.06681150       0.07996417       0.03853377 </v>
   <v>       0.21733422       0.04799506       0.05203277 </v>
   <v>      -0.01394597       0.10145497      -0.03028491 </v>
  </varray>
  <varray name="stress" >
   <v>      -0.89185194      -0.16909800       0.08513430 </v>
   <v>      -0.16909800      -0.60605952       0.07526131 </v>
   <v>       0.08513430       0.07526131      -0.96183777 </v>
  </varray>
  <energy>
   <i name="e_fr_energy">    -10.90641283 </i>
   <i name="e_wo_entrp">    -10.90641283 </i>
   <i name="e_0_energy">      0.00000000 </i>
  </energy>
  <time name="totalsc">    2.03    2.08</time>
 </calculation>
 <calculation>
  <scstep>
   <time name="dav">    0.31    0.31</time>
   <time name="total">    0.49    0.50</time>
   <energy>
    <i name="alphaZ">      7.92728332 </i>
    <i name="ewald">   4579.76139791 </i>
    <i name="hartreedc"> -11527.47953822 </i>
    <i name="XCdc">    -81.32042459 </i>
    <i name="pawpsdc">   7415.50084771 </i>
    <i name="pawaedc">  -7101.53666482 </i>
    <i name="eentropy">      0.00000000 </i>
    <i name="bandstr">   -564.15642835 </i>
    <i name="atom">   7260.39041060 </i>
    <i name="e_fr_energy">    -10.91311646 </i>
    <i name="e_wo_entrp">    -10.91311646 </i>
    <i name="e_0_energy">    -10.91311646 </i>
   </energy>
  </scstep>
  <scstep>
   <time name="dav">    0.32    0.32</time>
   <time name="total">    0.51    0.51</time>
   <energy>
    <i name="e_fr_energy">    -10.91395616 </i>
    <i name="e_wo_entrp">    -10.91395616 </i>
    <i name="e_0_energy">    -10.91395616 </i>
   </energy>
  </scstep>
  <scstep>
   <time name="dav">    0.23    0.23</time>
   <time name="total">    0.39    0.40</time>
   <energy>
    <i name="alphaZ">      7.92728332 </i>
    <i name="ewald">   4579.76139791 </i>
    <i name="hartreedc"> -11527.44860606 </i>
    <i name="XCdc">    -81.32226984 </i>
    <i name="pawpsdc">   7416.66341342 </i>
    <i name="pawaedc">  -7102.71436874 </i>
    <i name="eentropy">      0.00000000 </i>
    <i name="bandstr">   -564.17123327 </i>
    <i name="atom">   7260.39041060 </i>
    <i name="e_fr_energy">    -10.91397266 </i>
    <i name="e_wo_entrp">    -10.91397266 </i>
    <i name="e_0_energy">    -10.91397266 </i>
   </energy>
  </scstep>
  <structure>
   <crystal>
    <varray name="basis" >
     <v>      17.38849362       0.00000000       0.00000000 </v>
     <v>       0.00000000      17.38849362       0.00000000 </v>
     <v>       0.00000000       0.00000000      17.38849362 </v>
    </varray>
    <i name="volume">   5257.57989465 </i>
    <varray name="rec_basis" >
     <v>       0.05750929       0.00000000       0.00000000 </v>
     <v>       0.00000000       0.05750929       0.00000000 </v>
     <v>       0.00000000       0.00000000       0.05750929 </v>
    </varray>
   </crystal>
   <varray name="positions" >
    <v>       0.48643712       0.42578120       0.64758442 </v>
    <v>       0.55062812       0.56357213       0.59403240 </v>
    <v>       0.56089516       0.42511476       0.51098842 </v>
    <v>       0.60290942       0.49989019       0.38122710 </v>
    <v>       0.57740803       0.63709102       0.46073481 </v>
    <v>       0.45886728       0.53303293       0.44633783 </v>
    <v>       0.39396985       0.54201707       0.58620653 </v>
   </varray>
  </structure>
  <varray name="forces" >
   <v>       0.12709118       0.08554586      -0.11470623 </v>
   <v>      -0.14319928      -0.08428503      -0.06302248 </v>
   <v>       0.06254082      -0.15304480      -0.00662828 </v>
   <v>      -0.14778859      -0.06209029       0.12148440 </v>
   <v>      -0.05042555       0.08399834       0.03648582 </v>
   <v>       0.17759168       0.03771139       0.05541481 </v>
   <v>      -0.02581026       0.09216454      -0.02902804 </v>
  </varray>
  <varray name="stress" >
   <v>      -0.86063150      -0.15274245       0.06471981 </v>
   <v>      -0.15274245      -0.60082629       0.06429903 </v>
   <v>       0.06471981       0.06429903      -0.94655703 </v>
  </varray>
  <energy>
   <i name="e_fr_energy">    -10.91397266 </i>
   <i name="e_wo_entrp">    -10.91397266 </i>
   <i name="e_0_energy">      0.00000000 </i>
  </energy>
  <time name="totalsc">    2.00    2.01</time>
 </calculation>
 <calculation>
  <scstep>
   <time name="dav">    0.30    0.30</time>
   <time name="total">    0.49    0.50</time>
   <energy>
    <i name="alphaZ">      7.92728332 </i>
    <i name="ewald">   4593.68781860 </i>
    <i name="hartreedc"> -11541.38391059 </i>
    <i name="XCdc">    -81.27851890 </i>
    <i name="pawpsdc">   7417.07081156 </i>
    <i name="pawaedc">  -7103.12857674 </i>
    <i name="eentropy">      0.00000000 </i>
    <i name="bandstr">   -564.21098012 </i>
    <i name="atom">   7260.39041060 </i>
    <i name="e_fr_energy">    -10.92566229 </i>
    <i name="e_wo_entrp">    -10.92566229 </i>
    <i name="e_0_energy">    -10.92566229 </i>
   </energy>
  </scstep>
  <scstep>
   <time name="dav">    0.31    0.31</time>
   <time name="total">    0.50    0.51</time>
   <energy>
    <i name="e_fr_energy">    -10.93285809 </i>
    <i name="e_wo_entrp">    -10.93285809 </i>
    <i name="e_0_energy">    -10.93285809 </i>
   </energy>
  </scstep>
  <scstep>
   <time name="dav">    0.32    0.32</time>
   <time name="total">    0.51    0.51</time>
   <energy>
    <i name="e_fr_energy">    -10.93285829 </i>
    <i name="e_wo_entrp">    -10.93285829 </i>
    <i name="e_0_energy">    -10.93285829 </i>
   </energy>
  </scstep>
  <scstep>
   <time name="dav">    0.26    0.26</time>
   <time name="total">    0.42    0.42</time>
   <energy>
    <i name="alphaZ">      7.92728332 </i>
    <i name="ewald">   4593.68781860 </i>
    <i name="hartreedc"> -11541.27502218 </i>
    <i name="XCdc">    -81.28621171 </i>
    <i name="pawpsdc">   7422.66441750 </i>
    <i name="pawaedc">  -7108.80498217 </i>
    <i name="eentropy">      0.00000000 </i>
    <i name="bandstr">   -564.23648954 </i>
    <i name="atom">   7260.39041060 </i>
    <i name="e_fr_energy">    -10.93277558 </i>
    <i name="e_wo_entrp">    -10.93277558 </i>
    <i name="e_0_energy">    -10.93277558 </i>
   </energy>
  </scstep>
  <structure>
   <crystal>
    <varray name="basis" >
     <v>      17.38849362       0.00000000       0.00000000 </v>
     <v>       0.00000000      17.38849362       0.00000000 </v>
     <v>       0.00000000       0.00000000      17.38849362 </v>
    </varray>
    <i name="volume">   5257.57989465 </i>
    <varray name="rec_basis" >
     <v>       0.05750929       0.00000000       0.00000000 </v>
     <v>       0.00000000       0.05750929       0.00000000 </v>
     <v>       0.00000000       0.00000000       0.05750929 </v>
    </varray>
   </crystal>
   <varray name="positions" >
    <v>       0.48730486       0.42614792       0.64695786 </v>
    <v>       0.54982080       0.56324613       0.59383717 </v>
    <v>       0.56137203       0.42395708       0.51093565 </v>
    <v>       0.60206654       0.49935984       0.38186245 </v>
    <v>       0.57710827       0.63775677       0.46100583 </v>
    <v>       0.45976325       0.53334929       0.44650597 </v>
    <v>       0.39367923       0.54268228       0.58600658 </v>
   </varray>
  </structure>
  <varray name="forces" >
   <v>       0.08151205       0.07058274      -0.07783364 </v>
   <v>      -0.10348555      -0.06287457      -0.09476519 </v>
   <v>       0.07094736      -0.16984832      -0.00900179 </v>
   <v>      -0.10400899      -0.03419862       0.08691614 </v>
   <v>      -0.02560333       0.09798473       0.03628109 </v>
   <v>       0.12667369       0.01723389       0.08764280 </v>
   <v>      -0.04603522       0.08112015      -0.02923941 </v>
  </varray>
  <varray name="stress" >
   <v>      -0.77282368      -0.10591714       0.02048137 </v>
   <v>      -0.10591714      -0.58974843       0.03946235 </v>
   <v>       0.02048137       0.03946235      -0.89816910 </v>
  </varray>
  <energy>
   <i name="e_fr_energy">    -10.93277558 </i>
   <i name="e_wo_entrp">    -10.93277558 </i>
   <i name="e_0_energy">      0.00000000 </i>
  </energy>
  <time name="totalsc">    2.52    2.55</time>
 </calculation>
 <calculation>
  <scstep>
   <time name="dav">    0.30    0.30</time>
   <time name="total">    0.49    0.50</time>
   <energy>
    <i name="alphaZ">      7.92728332 </i>
    <i name="ewald">   4621.76668520 </i>
    <i name="hartreedc"> -11569.29888772 </i>
    <i name="XCdc">    -81.19174735 </i>
    <i name="pawpsdc">   7423.65932826 </i>
    <i name="pawaedc">  -7109.82101535 </i>
    <i name="eentropy">      0.00000000 </i>
    <i name="bandstr">   -564.35572456 </i>
    <i name="atom">   7260.39041060 </i>
    <i name="e_fr_energy">    -10.92366760 </i>
    <i name="e_wo_entrp">    -10.92366760 </i>
    <i name="e_0_energy">    -10.92366760 </i>
   </energy>
  </scstep>
  <scstep>
   <time name="dav">    0.32    0.32</time>
   <time name="total">    0.51    0.51</time>
   <energy>
    <i name="e_fr_energy">    -10.95316441 </i>
    <i name="e_wo_entrp">    -10.95316441 </i>
    <i name="e_0_energy">    -10.95316441 </i>
   </energy>
  </scstep>
  <scstep>
   <time name="dav">    0.33    0.33</time>
   <time name="total">    0.52    0.96</time>
   <energy>
    <i name="e_fr_energy">    -10.95322305 </i>
    <i name="e_wo_entrp">    -10.95322305 </i>
    <i name="e_0_energy">    -10.95322305 </i>
   </energy>
  </scstep>
  <scstep>
   <time name="dav">    0.32    0.32</time>
   <time name="total">    0.51    0.51</time>
   <energy>
    <i name="e_fr_energy">    -10.95296684 </i>
    <i name="e_wo_entrp">    -10.95296684 </i>
    <i name="e_0_energy">    -10.95296684 </i>
   </energy>
  </scstep>
  <scstep>
   <time name="dav">    0.32    0.32</time>
   <time name="total">    0.51    0.51</time>
   <energy>
    <i name="e_fr_energy">    -10.95309663 </i>
    <i name="e_wo_entrp">    -10.95309663 </i>
    <i name="e_0_energy">    -10.95309663 </i>
   </energy>
  </scstep>
  <scstep>
   <time name="dav">    0.25    0.25</time>
   <time name="total">    0.41    0.41</time>
   <energy>
    <i name="alphaZ">      7.92728332 </i>
    <i name="ewald">   4621.76668520 </i>
    <i name="hartreedc"> -11568.95933800 </i>
    <i name="XCdc">    -81.20905425 </i>
    <i name="pawpsdc">   7437.80930074 </i>
    <i name="pawaedc">  -7124.18764629 </i>
    <i name="eentropy">      0.00000000 </i>
    <i name="bandstr">   -564.49078857 </i>
    <i name="atom">   7260.39041060 </i>
    <i name="e_fr_energy">    -10.95314725 </i>
    <i name="e_wo_entrp">    -10.95314725 </i>
    <i name="e_0_energy">    -10.95314725 </i>
   </energy>
  </scstep>
  <structure>
   <crystal>
    <varray name="basis" >
     <v>      17.38849362       0.00000000       0.00000000 </v>
     <v>       0.00000000      17.38849362       0.00000000 </v>
     <v>       0.00000000       0.00000000      17.38849362 </v>
    </varray>
    <i name="volume">   5257.57989465 </i>
    <varray name="rec_basis" >
     <v>       0.05750929       0.00000000       0.00000000 </v>
     <v>       0.00000000       0.05750929       0.00000000 </v>
     <v>       0.00000000       0.00000000       0.05750929 </v>
    </varray>
   </crystal>
   <varray name="positions" >
    <v>       0.48904035       0.42688137       0.64570475 </v>
    <v>       0.54820616       0.56259411       0.59344670 </v>
    <v>       0.56232579       0.42164172       0.51083010 </v>
    <v>       0.60038077       0.49829913       0.38313316 </v>
    <v>       0.57650875       0.63908828       0.46154786 </v>
    <v>       0.46155518       0.53398200       0.44684224 </v>
    <v>       0.39309798       0.54401270       0.58560669 </v>
   </varray>
  </structure>
  <varray name="forces" >
   <v>      -0.03722296       0.00514609       0.03086991 </v>
   <v>       0.01825662       0.01633700      -0.14951127 </v>
   <v>       0.07210703      -0.16573063      -0.01343780 </v>
   <v>       0.03330193       0.02674667      -0.02426625 </v>
   <v>       0.02872380       0.10854887       0.03366551 </v>
   <v>      -0.03092157      -0.02918801       0.14853962 </v>
   <v>      -0.08424486       0.03814001      -0.02585973 </v>
  </varray>
  <varray name="stress" >
   <v>      -0.58786268      -0.01382468      -0.06974706 </v>
   <v>      -0.01382467      -0.55397027      -0.00891994 </v>
   <v>      -0.06974706      -0.00891994      -0.78917687 </v>
  </varray>
  <energy>
   <i name="e_fr_energy">    -10.95314725 </i>
   <i name="e_wo_entrp">    -10.95314725 </i>
   <i name="e_0_energy">      0.00000000 </i>
  </energy>
  <time name="totalsc">    3.53    4.00</time>
 </calculation>
 <calculation>
  <scstep>
   <time name="dav">    0.30    0.30</time>
   <time name="total">    0.49    0.50</time>
   <energy>
    <i name="alphaZ">      7.92728332 </i>
    <i name="ewald">   4631.57284862 </i>
    <i name="hartreedc"> -11578.72103817 </i>
    <i name="XCdc">    -81.17450649 </i>
    <i name="pawpsdc">   7437.72000083 </i>
    <i name="pawaedc">  -7124.09821584 </i>
    <i name="eentropy">      0.00000000 </i>
    <i name="bandstr">   -564.56778456 </i>
    <i name="atom">   7260.39041060 </i>
    <i name="e_fr_energy">    -10.95100168 </i>
    <i name="e_wo_entrp">    -10.95100168 </i>
    <i name="e_0_energy">    -10.95100168 </i>
   </energy>
  </scstep>
  <scstep>
   <time name="dav">    0.32    0.32</time>
   <time name="total">    0.51    0.51</time>
   <energy>
    <i name="e_fr_energy">    -10.95453174 </i>
    <i name="e_wo_entrp">    -10.95453174 </i>
    <i name="e_0_energy">    -10.95453174 </i>
   </energy>
  </scstep>
  <scstep>
   <time name="dav">    0.32    0.31</time>
   <time name="total">    0.47    0.48</time>
   <energy>
    <i name="alphaZ">      7.92728332 </i>
    <i name="ewald">   4631.57284862 </i>
    <i name="hartreedc"> -11578.65108102 </i>
    <i name="XCdc">    -81.17903779 </i>
    <i name="pawpsdc">   7441.12191051 </i>
    <i name="pawaedc">  -7127.54615248 </i>
    <i name="eentropy">      0.00000000 </i>
    <i name="bandstr">   -564.59073040 </i>
    <i name="atom">   7260.39041060 </i>
    <i name="e_fr_energy">    -10.95454862 </i>
    <i name="e_wo_entrp">    -10.95454862 </i>
    <i name="e_0_energy">    -10.95454862 </i>
   </energy>
  </scstep>
  <structure>
   <crystal>
    <varray name="basis" >
     <v>      17.38849362       0.00000000       0.00000000 </v>
     <v>       0.00000000      17.38849362       0.00000000 </v>
     <v>       0.00000000       0.00000000      17.38849362 </v>
    </varray>
    <i name="volume">   5257.57989465 </i>
    <varray name="rec_basis" >
     <v>       0.05750929       0.00000000       0.00000000 </v>
     <v>       0.00000000       0.05750929       0.00000000 </v>
     <v>       0.00000000       0.00000000       0.05750929 </v>
    </varray>
   </crystal>
   <varray name="positions" >
    <v>       0.48964222       0.42713573       0.64527017 </v>
    <v>       0.54764619       0.56236799       0.59331129 </v>
    <v>       0.56265655       0.42083875       0.51079350 </v>
    <v>       0.59979614       0.49793128       0.38357384 </v>
    <v>       0.57630083       0.63955005       0.46173584 </v>
    <v>       0.46217663       0.53420142       0.44695886 </v>
    <v>       0.39289641       0.54447409       0.58546801 </v>
   </varray>
  </structure>
  <varray name="forces" >
   <v>      -0.08548295      -0.02532919       0.07713493 </v>
   <v>       0.06926725       0.05458382      -0.16965208 </v>
   <v>       0.07265649      -0.16688334      -0.01574615 </v>
   <v>       0.09288714       0.04718830      -0.07029981 </v>
   <v>       0.05144958       0.11242639       0.03247269 </v>
   <v>      -0.09974985      -0.04491144       0.17153567 </v>
   <v>      -0.10102766       0.02292546      -0.02544524 </v>
  </varray>
  <varray name="stress" >
   <v>      -0.51042262       0.01529203      -0.10993731 </v>
   <v>       0.01529203      -0.52069728      -0.02781530 </v>
   <v>      -0.10993732      -0.02781529      -0.75119068 </v>
  </varray>
  <energy>
   <i name="e_fr_energy">    -10.95454862 </i>
   <i name="e_wo_entrp">    -10.95454862 </i>
   <i name="e_0_energy">      0.00000000 </i>
  </energy>
  <time name="totalsc">    2.07    2.20</time>
 </calculation>
 <calculation>
  <scstep>
   <time name="dav">    0.30    0.30</time>
   <time name="total">    0.49    0.50</time>
   <energy>
    <i name="alphaZ">      7.92728332 </i>
    <i name="ewald">   4615.44994774 </i>
    <i name="hartreedc"> -11562.69947541 </i>
    <i name="XCdc">    -81.21295396 </i>
    <i name="pawpsdc">   7442.18673843 </i>
    <i name="pawaedc">  -7128.63079352 </i>
    <i name="eentropy">      0.00000000 </i>
    <i name="bandstr">   -564.37042666 </i>
    <i name="atom">   7260.39041060 </i>
    <i name="e_fr_energy">    -10.95926946 </i>
    <i name="e_wo_entrp">    -10.95926946 </i>
    <i name="e_0_energy">    -10.95926946 </i>
   </energy>
  </scstep>
  <scstep>
   <time name="dav">    0.31    0.31</time>
   <time name="total">    0.50    0.50</time>
   <energy>
    <i name="e_fr_energy">    -10.96613099 </i>
    <i name="e_wo_entrp">    -10.96613099 </i>
    <i name="e_0_energy">    -10.96613099 </i>
   </energy>
  </scstep>
  <scstep>
   <time name="dav">    0.33    0.33</time>
   <time name="total">    0.52    0.52</time>
   <energy>
    <i name="e_fr_energy">    -10.96615045 </i>
    <i name="e_wo_entrp">    -10.96615045 </i>
    <i name="e_0_energy">    -10.96615045 </i>
   </energy>
  </scstep>
  <scstep>
   <time name="dav">    0.28    0.28</time>
   <time name="total">    0.47    0.50</time>
   <energy>
    <i name="e_fr_energy">    -10.96603232 </i>
    <i name="e_wo_entrp">    -10.96603232 </i>
    <i name="e_0_energy">    -10.96603232 </i>
   </energy>
  </scstep>
  <scstep>
   <time name="dav">    0.32    0.32</time>
   <time name="total">    0.48    0.49</time>
   <energy>
    <i name="alphaZ">      7.92728332 </i>
    <i name="ewald">   4615.44994774 </i>
    <i name="hartreedc"> -11563.06003224 </i>
    <i name="XCdc">    -81.20385643 </i>
    <i name="pawpsdc">   7439.28482126 </i>
    <i name="pawaedc">  -7125.68061549 </i>
    <i name="eentropy">      0.00000000 </i>
    <i name="bandstr">   -564.07404406 </i>
    <i name="atom">   7260.39041060 </i>
    <i name="e_fr_energy">    -10.96608529 </i>
    <i name="e_wo_entrp">    -10.96608529 </i>
    <i name="e_0_energy">    -10.96608529 </i>
   </energy>
  </scstep>
  <structure>
   <crystal>
    <varray name="basis" >
     <v>      17.38849362       0.00000000       0.00000000 </v>
     <v>       0.00000000      17.38849362       0.00000000 </v>
     <v>       0.00000000       0.00000000      17.38849362 </v>
    </varray>
    <i name="volume">   5257.57989465 </i>
    <varray name="rec_basis" >
     <v>       0.05750929       0.00000000       0.00000000 </v>
     <v>       0.00000000       0.05750929       0.00000000 </v>
     <v>       0.00000000       0.00000000       0.05750929 </v>
    </varray>
   </crystal>
   <varray name="positions" >
    <v>       0.48987616       0.42728458       0.64517260 </v>
    <v>       0.54738103       0.56238411       0.59238427 </v>
    <v>       0.56333893       0.41922617       0.51068232 </v>
    <v>       0.59961451       0.49776488       0.38370944 </v>
    <v>       0.57632149       0.64055358       0.46208281 </v>
    <v>       0.46236501       0.53422307       0.44787494 </v>
    <v>       0.39221785       0.54506291       0.58520513 </v>
   </varray>
  </structure>
  <varray name="forces" >
   <v>      -0.08605796       0.00129208       0.04680494 </v>
   <v>       0.05844775       0.01163773      -0.15579549 </v>
   <v>       0.05690641      -0.12387094      -0.01229865 </v>
   <v>       0.07174088       0.06519520      -0.02956608 </v>
   <v>       0.04420146       0.09213740      -0.00892820 </v>
   <v>      -0.04804470      -0.05687214       0.13974052 </v>
   <v>      -0.09719384       0.01048067       0.02004294 </v>
  </varray>
  <varray name="stress" >
   <v>      -0.56084485       0.03203291      -0.11300397 </v>
   <v>       0.03203291      -0.59905729      -0.03619026 </v>
   <v>      -0.11300397      -0.03619026      -0.75224280 </v>
  </varray>
  <energy>
   <i name="e_fr_energy">    -10.96608529 </i>
   <i name="e_wo_entrp">    -10.96608529 </i>
   <i name="e_0_energy">      0.00000000 </i>
  </energy>
  <time name="totalsc">    3.06    3.14</time>
 </calculation>
 <calculation>
  <scstep>
   <time name="dav">    0.30    0.30</time>
   <time name="total">    0.49    0.50</time>
   <energy>
    <i name="alphaZ">      7.92728332 </i>
    <i name="ewald">   4567.41693129 </i>
    <i name="hartreedc"> -11515.62395378 </i>
    <i name="XCdc">    -81.29193002 </i>
    <i name="pawpsdc">   7439.20023262 </i>
    <i name="pawaedc">  -7125.59326338 </i>
    <i name="eentropy">      0.00000000 </i>
    <i name="bandstr">   -563.34318266 </i>
    <i name="atom">   7260.39041060 </i>
    <i name="e_fr_energy">    -10.91747202 </i>
    <i name="e_wo_entrp">    -10.91747202 </i>
    <i name="e_0_energy">    -10.91747202 </i>
   </energy>
  </scstep>
  <scstep>
   <time name="dav">    0.30    0.31</time>
   <time name="total">    0.50    0.50</time>
   <energy>
    <i name="e_fr_energy">    -10.98040583 </i>
    <i name="e_wo_entrp">    -10.98040583 </i>
    <i name="e_0_energy">    -10.98040583 </i>
   </energy>
  </scstep>
  <scstep>
   <time name="dav">    0.33    0.33</time>
   <time name="total">    0.52    0.54</time>
   <energy>
    <i name="e_fr_energy">    -10.98050942 </i>
    <i name="e_wo_entrp">    -10.98050942 </i>
    <i name="e_0_energy">    -10.98050942 </i>
   </energy>
  </scstep>
  <scstep>
   <time name="dav">    0.32    0.32</time>
   <time name="total">    0.51    0.52</time>
   <energy>
    <i name="e_fr_energy">    -10.97946568 </i>
    <i name="e_wo_entrp">    -10.97946568 </i>
    <i name="e_0_energy">    -10.97946568 </i>
   </energy>
  </scstep>
  <scstep>
   <time name="dav">    0.32    0.32</time>
   <time name="total">    0.51    0.52</time>
   <energy>
    <i name="e_fr_energy">    -10.97944794 </i>
    <i name="e_wo_entrp">    -10.97944794 </i>
    <i name="e_0_energy">    -10.97944794 </i>
   </energy>
  </scstep>
  <scstep>
   <time name="dav">    0.24    0.23</time>
   <time name="total">    0.39    0.40</time>
   <energy>
    <i name="alphaZ">      7.92728332 </i>
    <i name="ewald">   4567.41693129 </i>
    <i name="hartreedc"> -11516.63885690 </i>
    <i name="XCdc">    -81.26700963 </i>
    <i name="pawpsdc">   7430.24356471 </i>
    <i name="pawaedc">  -7116.46578240 </i>
    <i name="eentropy">      0.00000000 </i>
    <i name="bandstr">   -562.58607279 </i>
    <i name="atom">   7260.39041060 </i>
    <i name="e_fr_energy">    -10.97953180 </i>
    <i name="e_wo_entrp">    -10.97953180 </i>
    <i name="e_0_energy">    -10.97953180 </i>
   </energy>
  </scstep>
  <structure>
   <crystal>
    <varray name="basis" >
     <v>      17.38849362       0.00000000       0.00000000 </v>
     <v>       0.00000000      17.38849362       0.00000000 </v>
     <v>       0.00000000       0.00000000      17.38849362 </v>
    </varray>
    <i name="volume">   5257.57989465 </i>
    <varray name="rec_basis" >
     <v>       0.05750929       0.00000000       0.00000000 </v>
     <v>       0.00000000       0.05750929       0.00000000 </v>
     <v>       0.00000000       0.00000000       0.05750929 </v>
    </varray>
   </crystal>
   <varray name="positions" >
    <v>       0.49057800       0.42773113       0.64487987 </v>
    <v>       0.54658553       0.56243247       0.58960323 </v>
    <v>       0.56538605       0.41438843       0.51034876 </v>
    <v>       0.59906961       0.49726569       0.38411624 </v>
    <v>       0.57638345       0.64356418       0.46312375 </v>
    <v>       0.46293016       0.53428803       0.45062316 </v>
    <v>       0.39018218       0.54682938       0.58441650 </v>
   </varray>
  </structure>
  <varray name="forces" >
   <v>      -0.09606898       0.06425753      -0.03965657 </v>
   <v>       0.05417083      -0.09905630      -0.06251859 </v>
   <v>       0.00719126       0.03018346      -0.00372938 </v>
   <v>       0.02261682       0.11217066       0.07461149 </v>
   <v>       0.02621513       0.02375113      -0.13270895 </v>
   <v>       0.07307627      -0.09775279       0.00820159 </v>
   <v>      -0.08720133      -0.03355368       0.15580041 </v>
  </varray>
  <varray name="stress" >
   <v>      -0.65397578       0.07569376      -0.12151336 </v>
   <v>       0.07569376      -0.79002909      -0.05706618 </v>
   <v>      -0.12151336      -0.05706618      -0.71902242 </v>
  </varray>
  <energy>
   <i name="e_fr_energy">    -10.97953180 </i>
   <i name="e_wo_entrp">    -10.97953180 </i>
   <i name="e_0_energy">      0.00000000 </i>
  </energy>
  <time name="totalsc">    3.51    3.60</time>
 </calculation>
 <calculation>
  <scstep>
   <time name="dav">    0.30    0.30</time>
   <time name="total">    0.49    0.50</time>
   <energy>
    <i name="alphaZ">      7.92728332 </i>
    <i name="ewald">   4558.90021908 </i>
    <i name="hartreedc"> -11508.16267657 </i>
    <i name="XCdc">    -81.28532310 </i>
    <i name="pawpsdc">   7429.97853031 </i>
    <i name="pawaedc">  -7116.19227821 </i>
    <i name="eentropy">      0.00000000 </i>
    <i name="bandstr">   -562.53463480 </i>
    <i name="atom">   7260.39041060 </i>
    <i name="e_fr_energy">    -10.97846936 </i>
    <i name="e_wo_entrp">    -10.97846936 </i>
    <i name="e_0_energy">    -10.97846936 </i>
   </energy>
  </scstep>
  <scstep>
   <time name="dav">    0.31    0.31</time>
   <time name="total">    0.50    0.50</time>
   <energy>
    <i name="e_fr_energy">    -10.99149372 </i>
    <i name="e_wo_entrp">    -10.99149372 </i>
    <i name="e_0_energy">    -10.99149372 </i>
   </energy>
  </scstep>
  <scstep>
   <time name="dav">    0.33    0.33</time>
   <time name="total">    0.52    0.54</time>
   <energy>
    <i name="e_fr_energy">    -10.99152764 </i>
    <i name="e_wo_entrp">    -10.99152764 </i>
    <i name="e_0_energy">    -10.99152764 </i>
   </energy>
  </scstep>
  <scstep>
   <time name="dav">    0.29    0.29</time>
   <time name="total">    0.48    0.49</time>
   <energy>
    <i name="e_fr_energy">    -10.99131058 </i>
    <i name="e_wo_entrp">    -10.99131058 </i>
    <i name="e_0_energy">    -10.99131058 </i>
   </energy>
  </scstep>
  <scstep>
   <time name="dav">    0.31    0.31</time>
   <time name="total">    0.47    0.47</time>
   <energy>
    <i name="alphaZ">      7.92728332 </i>
    <i name="ewald">   4558.90021908 </i>
    <i name="hartreedc"> -11508.47034025 </i>
    <i name="XCdc">    -81.27888887 </i>
    <i name="pawpsdc">   7427.51849013 </i>
    <i name="pawaedc">  -7113.68579410 </i>
    <i name="eentropy">      0.00000000 </i>
    <i name="bandstr">   -562.29271680 </i>
    <i name="atom">   7260.39041060 </i>
    <i name="e_fr_energy">    -10.99133688 </i>
    <i name="e_wo_entrp">    -10.99133688 </i>
    <i name="e_0_energy">    -10.99133688 </i>
   </energy>
  </scstep>
  <structure>
   <crystal>
    <varray name="basis" >
     <v>      17.38849362       0.00000000       0.00000000 </v>
     <v>       0.00000000      17.38849362       0.00000000 </v>
     <v>       0.00000000       0.00000000      17.38849362 </v>
    </varray>
    <i name="volume">   5257.57989465 </i>
    <varray name="rec_basis" >
     <v>       0.05750929       0.00000000       0.00000000 </v>
     <v>       0.00000000       0.05750929       0.00000000 </v>
     <v>       0.00000000       0.00000000       0.05750929 </v>
    </varray>
   </crystal>
   <varray name="positions" >
    <v>       0.49010066       0.42835609       0.64448846 </v>
    <v>       0.54672127       0.56171493       0.58821206 </v>
    <v>       0.56612250       0.41299751       0.51020983 </v>
    <v>       0.59905528       0.49792991       0.38480462 </v>
    <v>       0.57659830       0.64474481       0.46248821 </v>
    <v>       0.46366001       0.53358568       0.45160106 </v>
    <v>       0.38885695       0.54717038       0.58530727 </v>
   </varray>
  </structure>
  <varray name="forces" >
   <v>      -0.10287846       0.04776603      -0.06076795 </v>
   <v>       0.05591340      -0.06913170      -0.06006322 </v>
   <v>      -0.00035544       0.04172239       0.01089729 </v>
   <v>       0.05287844       0.10224460       0.07177707 </v>
   <v>       0.00414282      -0.00566283      -0.11384443 </v>
   <v>       0.00216532      -0.08220534       0.05326962 </v>
   <v>      -0.01186608      -0.03473315       0.09873161 </v>
  </varray>
  <varray name="stress" >
   <v>      -0.67848370       0.06564472      -0.08293307 </v>
   <v>       0.06564472      -0.78365142      -0.04577186 </v>
   <v>      -0.08293308      -0.04577187      -0.75675454 </v>
  </varray>
  <energy>
   <i name="e_fr_energy">    -10.99133688 </i>
   <i name="e_wo_entrp">    -10.99133688 </i>
   <i name="e_0_energy">      0.00000000 </i>
  </energy>
  <time name="totalsc">    3.06    3.11</time>
 </calculation>
 <calculation>
  <scstep>
   <time name="dav">    0.30    0.30</time>
   <time name="total">    0.49    0.50</time>
   <energy>
    <i name="alphaZ">      7.92728332 </i>
    <i name="ewald">   4541.02948223 </i>
    <i name="hartreedc"> -11490.62639759 </i>
    <i name="XCdc">    -81.31138564 </i>
    <i name="pawpsdc">   7427.34583682 </i>
    <i name="pawaedc">  -7113.50953305 </i>
    <i name="eentropy">     -0.00000000 </i>
    <i name="bandstr">   -562.18679645 </i>
    <i name="atom">   7260.39041060 </i>
    <i name="e_fr_energy">    -10.94109975 </i>
    <i name="e_wo_entrp">    -10.94109975 </i>
    <i name="e_0_energy">    -10.94109975 </i>
   </energy>
  </scstep>
  <scstep>
   <time name="dav">    0.32    0.32</time>
   <time name="total">    0.50    0.51</time>
   <energy>
    <i name="e_fr_energy">    -10.99664752 </i>
    <i name="e_wo_entrp">    -10.99664752 </i>
    <i name="e_0_energy">    -10.99664752 </i>
   </energy>
  </scstep>
  <scstep>
   <time name="dav">    0.33    0.33</time>
   <time name="total">    0.52    0.52</time>
   <energy>
    <i name="e_fr_energy">    -10.99668675 </i>
    <i name="e_wo_entrp">    -10.99668675 </i>
    <i name="e_0_energy">    -10.99668675 </i>
   </energy>
  </scstep>
  <scstep>
   <time name="dav">    0.32    0.31</time>
   <time name="total">    0.50    0.51</time>
   <energy>
    <i name="e_fr_energy">    -10.99576297 </i>
    <i name="e_wo_entrp">    -10.99576297 </i>
    <i name="e_0_energy">    -10.99576297 </i>
   </energy>
  </scstep>
  <scstep>
   <time name="dav">    0.31    0.31</time>
   <time name="total">    0.50    0.50</time>
   <energy>
    <i name="e_fr_energy">    -10.99579331 </i>
    <i name="e_wo_entrp">    -10.99579331 </i>
    <i name="e_0_energy">    -10.99579331 </i>
   </energy>
  </scstep>
  <scstep>
   <time name="dav">    0.26    0.26</time>
   <time name="total">    0.45    0.45</time>
   <energy>
    <i name="e_fr_energy">    -10.99592955 </i>
    <i name="e_wo_entrp">    -10.99592955 </i>
    <i name="e_0_energy">    -10.99592955 </i>
   </energy>
  </scstep>
  <scstep>
   <time name="dav">    0.25    0.25</time>
   <time name="total">    0.44    0.44</time>
   <energy>
    <i name="e_fr_energy">    -10.99612173 </i>
    <i name="e_wo_entrp">    -10.99612173 </i>
    <i name="e_0_energy">    -10.99612173 </i>
   </energy>
  </scstep>
  <scstep>
   <time name="dav">    0.25    0.25</time>
   <time name="total">    0.44    0.44</time>
   <energy>
    <i name="e_fr_energy">    -10.99625743 </i>
    <i name="e_wo_entrp">    -10.99625743 </i>
    <i name="e_0_energy">    -10.99625743 </i>
   </energy>
  </scstep>
  <scstep>
   <time name="dav">    0.24    0.24</time>
   <time name="total">    0.43    0.43</time>
   <energy>
    <i name="e_fr_energy">    -10.99636873 </i>
    <i name="e_wo_entrp">    -10.99636873 </i>
    <i name="e_0_energy">    -10.99636873 </i>
   </energy>
  </scstep>
  <scstep>
   <time name="dav">    0.25    0.25</time>
   <time name="total">    0.41    0.41</time>
   <energy>
    <i name="alphaZ">      7.92728332 </i>
    <i name="ewald">   4541.02948223 </i>
    <i name="hartreedc"> -11491.14978517 </i>
    <i name="XCdc">    -81.30072612 </i>
    <i name="pawpsdc">   7423.16148608 </i>
    <i name="pawaedc">  -7109.23529282 </i>
    <i name="eentropy">      0.00000000 </i>
    <i name="bandstr">   -561.81929243 </i>
    <i name="atom">   7260.39041060 </i>
    <i name="e_fr_energy">    -10.99643430 </i>
    <i name="e_wo_entrp">    -10.99643430 </i>
    <i name="e_0_energy">    -10.99643430 </i>
   </energy>
  </scstep>
  <structure>
   <crystal>
    <varray name="basis" >
     <v>      17.38849362       0.00000000       0.00000000 </v>
     <v>       0.00000000      17.38849362       0.00000000 </v>
     <v>       0.00000000       0.00000000      17.38849362 </v>
    </varray>
    <i name="volume">   5257.57989465 </i>
    <varray name="rec_basis" >
     <v>       0.05750929       0.00000000       0.00000000 </v>
     <v>       0.00000000       0.05750929       0.00000000 </v>
     <v>       0.00000000       0.00000000       0.05750929 </v>
    </varray>
   </crystal>
   <varray name="positions" >
    <v>       0.48911904       0.42964131       0.64368353 </v>
    <v>       0.54700043       0.56023931       0.58535116 </v>
    <v>       0.56763698       0.41013711       0.50992410 </v>
    <v>       0.59902581       0.49929587       0.38622027 </v>
    <v>       0.57704012       0.64717275       0.46118122 </v>
    <v>       0.46516095       0.53214132       0.45361209 </v>
    <v>       0.38613164       0.54787163       0.58713914 </v>
   </varray>
  </structure>
  <varray name="forces" >
   <v>      -0.10469095       0.00412043      -0.09956621 </v>
   <v>       0.09238596       0.02335973       0.00777386 </v>
   <v>      -0.02415951       0.06886718       0.03587865 </v>
   <v>       0.11902813       0.07241802       0.05731492 </v>
   <v>      -0.04362844      -0.07724500      -0.06521416 </v>
   <v>      -0.18977742      -0.04519804       0.08476728 </v>
   <v>       0.15084222      -0.04632231      -0.02095434 </v>
  </varray>
  <varray name="stress" >
   <v>      -0.70680527       0.05651054       0.01734776 </v>
   <v>       0.05651054      -0.78676371      -0.01212383 </v>
   <v>       0.01734775      -0.01212383      -0.80771542 </v>
  </varray>
  <energy>
   <i name="e_fr_energy">    -10.99643430 </i>
   <i name="e_wo_entrp">    -10.99643430 </i>
   <i name="e_0_energy">      0.00000000 </i>
  </energy>
  <time name="totalsc">    5.28    5.35</time>
 </calculation>
 <calculation>
  <scstep>
   <time name="dav">    0.30    0.30</time>
   <time name="total">    0.49    0.50</time>
   <energy>
    <i name="alphaZ">      7.92728332 </i>
    <i name="ewald">   4546.86596915 </i>
    <i name="hartreedc"> -11497.06955077 </i>
    <i name="XCdc">    -81.28847931 </i>
    <i name="pawpsdc">   7423.11542995 </i>
    <i name="pawaedc">  -7109.18900672 </i>
    <i name="eentropy">     -0.00000000 </i>
    <i name="bandstr">   -561.74442466 </i>
    <i name="atom">   7260.39041060 </i>
    <i name="e_fr_energy">    -10.99236844 </i>
    <i name="e_wo_entrp">    -10.99236844 </i>
    <i name="e_0_energy">    -10.99236844 </i>
   </energy>
  </scstep>
  <scstep>
   <time name="dav">    0.31    0.31</time>
   <time name="total">    0.50    0.51</time>
   <energy>
    <i name="e_fr_energy">    -10.99816027 </i>
    <i name="e_wo_entrp">    -10.99816027 </i>
    <i name="e_0_energy">    -10.99816027 </i>
   </energy>
  </scstep>
  <scstep>
   <time name="dav">    0.33    0.33</time>
   <time name="total">    0.52    0.52</time>
   <energy>
    <i name="e_fr_energy">    -10.99818067 </i>
    <i name="e_wo_entrp">    -10.99818067 </i>
    <i name="e_0_energy">    -10.99818067 </i>
   </energy>
  </scstep>
  <scstep>
   <time name="dav">    0.24    0.23</time>
   <time name="total">    0.42    0.43</time>
   <energy>
    <i name="e_fr_energy">    -10.99806014 </i>
    <i name="e_wo_entrp">    -10.99806014 </i>
    <i name="e_0_energy">    -10.99806014 </i>
   </energy>
  </scstep>
  <scstep>
   <time name="dav">    0.32    0.32</time>
   <time name="total">    0.48    0.48</time>
   <energy>
    <i name="alphaZ">      7.92728332 </i>
    <i name="ewald">   4546.86596915 </i>
    <i name="hartreedc"> -11496.88236325 </i>
    <i name="XCdc">    -81.29384380 </i>
    <i name="pawpsdc">   7424.23247311 </i>
    <i name="pawaedc">  -7110.33118315 </i>
    <i name="eentropy">      0.00000000 </i>
    <i name="bandstr">   -561.90678244 </i>
    <i name="atom">   7260.39041060 </i>
    <i name="e_fr_energy">    -10.99803646 </i>
    <i name="e_wo_entrp">    -10.99803646 </i>
    <i name="e_0_energy">    -10.99803646 </i>
   </energy>
  </scstep>
  <structure>
   <crystal>
    <varray name="basis" >
     <v>      17.38849362       0.00000000       0.00000000 </v>
     <v>       0.00000000      17.38849362       0.00000000 </v>
     <v>       0.00000000       0.00000000      17.38849362 </v>
    </varray>
    <i name="volume">   5257.57989465 </i>
    <varray name="rec_basis" >
     <v>       0.05750929       0.00000000       0.00000000 </v>
     <v>       0.00000000       0.05750929       0.00000000 </v>
     <v>       0.00000000       0.00000000       0.05750929 </v>
    </varray>
   </crystal>
   <varray name="positions" >
    <v>       0.48943738       0.42922452       0.64394456 </v>
    <v>       0.54690990       0.56071785       0.58627894 </v>
    <v>       0.56714584       0.41106473       0.51001676 </v>
    <v>       0.59903537       0.49885289       0.38576118 </v>
    <v>       0.57689684       0.64638538       0.46160507 </v>
    <v>       0.46467420       0.53260972       0.45295992 </v>
    <v>       0.38701545       0.54764421       0.58654507 </v>
   </varray>
  </structure>
  <varray name="forces" >
   <v>      -0.10294669       0.01624381      -0.08525310 </v>
   <v>       0.07287954      -0.00637231      -0.01793865 </v>
   <v>      -0.02002040       0.06670826       0.02843046 </v>
   <v>       0.09515729       0.07956082       0.06005666 </v>
   <v>      -0.02845065      -0.05987884      -0.07715658 </v>
   <v>      -0.12237334      -0.05106819       0.07990321 </v>
   <v>       0.10575424      -0.04519355       0.01195800 </v>
  </varray>
  <varray name="stress" >
   <v>      -0.69885975       0.05661871      -0.01867379 </v>
   <v>       0.05661871      -0.77781336      -0.02444346 </v>
   <v>      -0.01867379      -0.02444346      -0.79709606 </v>
  </varray>
  <energy>
   <i name="e_fr_energy">    -10.99803646 </i>
   <i name="e_wo_entrp">    -10.99803646 </i>
   <i name="e_0_energy">      0.00000000 </i>
  </energy>
  <time name="totalsc">    3.02    3.09</time>
 </calculation>
 <calculation>
  <scstep>
   <time name="dav">    0.30    0.30</time>
   <time name="total">    0.49    0.84</time>
   <energy>
    <i name="alphaZ">      7.92728332 </i>
    <i name="ewald">   4569.03143373 </i>
    <i name="hartreedc"> -11518.88286494 </i>
    <i name="XCdc">    -81.25487980 </i>
    <i name="pawpsdc">   7424.21785993 </i>
    <i name="pawaedc">  -7110.31690763 </i>
    <i name="eentropy">      0.00000000 </i>
    <i name="bandstr">   -562.10922306 </i>
    <i name="atom">   7260.39041060 </i>
    <i name="e_fr_energy">    -10.99688787 </i>
    <i name="e_wo_entrp">    -10.99688787 </i>
    <i name="e_0_energy">    -10.99688787 </i>
   </energy>
  </scstep>
  <scstep>
   <time name="dav">    0.32    0.32</time>
   <time name="total">    0.52    2.16</time>
   <energy>
    <i name="e_fr_energy">    -11.01123030 </i>
    <i name="e_wo_entrp">    -11.01123030 </i>
    <i name="e_0_energy">    -11.01123030 </i>
   </energy>
  </scstep>
  <scstep>
   <time name="dav">    0.32    0.32</time>
   <time name="total">    0.52    0.52</time>
   <energy>
    <i name="e_fr_energy">    -11.01115204 </i>
    <i name="e_wo_entrp">    -11.01115204 </i>
    <i name="e_0_energy">    -11.01115204 </i>
   </energy>
  </scstep>
  <scstep>
   <time name="dav">    0.32    0.32</time>
   <time name="total">    0.51    0.52</time>
   <energy>
    <i name="e_fr_energy">    -11.01087133 </i>
    <i name="e_wo_entrp">    -11.01087133 </i>
    <i name="e_0_energy">    -11.01087133 </i>
   </energy>
  </scstep>
  <scstep>
   <time name="dav">    0.25    0.25</time>
   <time name="total">    0.41    0.41</time>
   <energy>
    <i name="alphaZ">      7.92728332 </i>
    <i name="ewald">   4569.03143373 </i>
    <i name="hartreedc"> -11518.50953942 </i>
    <i name="XCdc">    -81.26475492 </i>
    <i name="pawpsdc">   7428.00557857 </i>
    <i name="pawaedc">  -7114.17311228 </i>
    <i name="eentropy">      0.00000000 </i>
    <i name="bandstr">   -562.41813667 </i>
    <i name="atom">   7260.39041060 </i>
    <i name="e_fr_energy">    -11.01083708 </i>
    <i name="e_wo_entrp">    -11.01083708 </i>
    <i name="e_0_energy">    -11.01083708 </i>
   </energy>
  </scstep>
  <structure>
   <crystal>
    <varray name="basis" >
     <v>      17.38849362       0.00000000       0.00000000 </v>
[...]
       <r>    -1.8159     0.0000    42.0000 </r>
       <r>    -1.7800     0.0000    42.0000 </r>
       <r>    -1.7441     0.0000    42.0000 </r>
       <r>    -1.7082     0.0000    42.0000 </r>
       <r>    -1.6723     0.0000    42.0000 </r>
       <r>    -1.6364     0.0000    42.0000 </r>
       <r>    -1.6005     0.0000    42.0000 </r>
       <r>    -1.5646     0.0000    42.0000 </r>
       <r>    -1.5286     0.0000    42.0000 </r>
       <r>    -1.4927     0.0000    42.0000 </r>
       <r>    -1.4568     0.0000    42.0000 </r>
       <r>    -1.4209     0.0000    42.0000 </r>
       <r>    -1.3850     0.0000    42.0000 </r>
       <r>    -1.3491     0.0000    42.0000 </r>
       <r>    -1.3132     0.0000    42.0000 </r>
       <r>    -1.2773     0.0000    44.0000 </r>
       <r>    -1.2414     0.0000    44.0000 </r>
       <r>    -1.2055     0.0000    45.0000 </r>
       <r>    -1.1695     0.0000    45.0000 </r>
       <r>    -1.1336     0.0000    45.0000 </r>
       <r>    -1.0977     0.0000    45.0000 </r>
       <r>    -1.0618     0.0000    45.0000 </r>
       <r>    -1.0259     0.0000    45.0000 </r>
       <r>    -0.9900     0.0000    45.0000 </r>
       <r>    -0.9541     0.0000    45.0000 </r>
       <r>    -0.9182     0.0000    45.0000 </r>
       <r>    -0.8823     0.0000    45.0000 </r>
       <r>    -0.8464     0.0000    45.0000 </r>
       <r>    -0.8104     0.0000    45.0000 </r>
       <r>    -0.7745     0.0000    45.0000 </r>
       <r>    -0.7386     0.0000    45.0000 </r>
       <r>    -0.7027     0.0000    45.0000 </r>
       <r>    -0.6668     0.0000    45.0000 </r>
       <r>    -0.6309     0.0000    45.0000 </r>
       <r>    -0.5950     0.0000    45.0000 </r>
       <r>    -0.5591     0.0000    45.0000 </r>
       <r>    -0.5232     0.0000    45.0000 </r>
       <r>    -0.4873     0.0000    45.0000 </r>
       <r>    -0.4513    27.8329    46.9995 </r>
       <r>    -0.4154     0.0000    47.0000 </r>
       <r>    -0.3795     0.0000    47.0000 </r>
       <r>    -0.3436     0.0000    47.0000 </r>
       <r>    -0.3077     0.0000    47.0000 </r>
       <r>    -0.2718     0.0000    48.0000 </r>
       <r>    -0.2359     0.0000    49.0000 </r>
       <r>    -0.2000     0.0000    49.0000 </r>
       <r>    -0.1641     0.0000    49.0000 </r>
       <r>    -0.1282     0.0000    49.0000 </r>
       <r>    -0.0922     0.0000    49.0000 </r>
       <r>    -0.0563     0.0000    49.0000 </r>
       <r>    -0.0204     0.0000    49.0000 </r>
       <r>     0.0155     0.0000    49.0000 </r>
       <r>     0.0514     0.0000    49.0000 </r>
       <r>     0.0873     0.0000    49.0000 </r>
       <r>     0.1232     0.0000    49.0000 </r>
       <r>     0.1591     0.0000    49.0000 </r>
       <r>     0.1950     0.0000    49.0000 </r>
       <r>     0.2309     0.0000    49.0000 </r>
       <r>     0.2669     0.0000    50.0000 </r>
       <r>     0.3028     0.0000    50.0000 </r>
       <r>     0.3387     0.0000    50.0000 </r>
       <r>     0.3746     0.0000    50.0000 </r>
       <r>     0.4105     0.0000    50.0000 </r>
       <r>     0.4464    16.0034    50.5747 </r>
       <r>     0.4823     0.0000    51.0000 </r>
       <r>     0.5182     0.0000    51.0000 </r>
       <r>     0.5541     0.0000    51.0000 </r>
       <r>     0.5901     0.0000    52.0000 </r>
       <r>     0.6260     0.0000    52.0000 </r>
       <r>     0.6619     0.0000    52.0000 </r>
       <r>     0.6978     0.0000    52.0000 </r>
       <r>     0.7337     0.0000    52.0000 </r>
       <r>     0.7696     0.0000    52.0000 </r>
       <r>     0.8055     0.0000    52.0000 </r>
       <r>     0.8414     0.0000    52.0000 </r>
       <r>     0.8773     0.0000    52.0000 </r>
       <r>     0.9132     0.0000    52.0000 </r>
       <r>     0.9492     0.0000    52.0000 </r>
       <r>     0.9851     0.0000    52.0000 </r>
       <r>     1.0210     0.0000    52.0000 </r>
       <r>     1.0569     0.0000    52.0000 </r>
       <r>     1.0928     0.0000    52.0000 </r>
      </set>
      <set comment="spin 2">
       <r>    -9.6803     0.0000     0.0000 </r>
       <r>    -9.6443     0.0000     0.0000 </r>
       <r>    -9.6084     0.0000     0.0000 </r>
       <r>    -9.5725     0.0000     0.0000 </r>
       <r>    -9.5366     0.0000     0.0000 </r>
       <r>    -9.5007     0.0000     0.0000 </r>
       <r>    -9.4648     0.0000     0.0000 </r>
       <r>    -9.4289     0.0000     0.0000 </r>
       <r>    -9.3930     0.0000     0.0000 </r>
       <r>    -9.3571     0.0000     0.0000 </r>
       <r>    -9.3211     0.0000     0.0000 </r>
       <r>    -9.2852     0.0000     0.0000 </r>
       <r>    -9.2493     0.0000     0.0000 </r>
       <r>    -9.2134     0.0000     0.0000 </r>
       <r>    -9.1775     0.0000     0.0000 </r>
       <r>    -9.1416     0.0000     1.0000 </r>
       <r>    -9.1057     0.0000     1.0000 </r>
       <r>    -9.0698     0.0000     1.0000 </r>
       <r>    -9.0339     0.0000     1.0000 </r>
       <r>    -8.9980     0.0000     1.0000 </r>
       <r>    -8.9620     0.0000     1.0000 </r>
       <r>    -8.9261     0.0000     1.0000 </r>
       <r>    -8.8902     0.0000     1.0000 </r>
       <r>    -8.8543     0.0000     1.0000 </r>
       <r>    -8.8184     0.0000     3.0000 </r>
       <r>    -8.7825     0.0000     3.0000 </r>
       <r>    -8.7466     0.0000     3.0000 </r>
       <r>    -8.7107     0.0000     3.0000 </r>
       <r>    -8.6748     0.0000     3.0000 </r>
       <r>    -8.6389     0.0000     3.0000 </r>
       <r>    -8.6029     0.0000     3.0000 </r>
       <r>    -8.5670     0.0000     3.0000 </r>
       <r>    -8.5311     0.0000     5.0000 </r>
       <r>    -8.4952     0.0000     5.0000 </r>
       <r>    -8.4593     0.0000     5.0000 </r>
       <r>    -8.4234     0.0000     5.0000 </r>
       <r>    -8.3875     0.0000     5.0000 </r>
       <r>    -8.3516     4.8657     5.1747 </r>
       <r>    -8.3157     0.0000     6.0000 </r>
       <r>    -8.2798     0.0000     7.0000 </r>
       <r>    -8.2438     0.0000     8.0000 </r>
       <r>    -8.2079     0.0000     8.0000 </r>
       <r>    -8.1720     0.0000     9.0000 </r>
       <r>    -8.1361     0.0000    11.0000 </r>
       <r>    -8.1002     0.0000    11.0000 </r>
       <r>    -8.0643     0.0000    11.0000 </r>
       <r>    -8.0284     0.0000    11.0000 </r>
       <r>    -7.9925     0.0000    11.0000 </r>
       <r>    -7.9566     0.0000    11.0000 </r>
       <r>    -7.9207     0.0000    11.0000 </r>
       <r>    -7.8847     0.0000    13.0000 </r>
       <r>    -7.8488     0.0000    13.0000 </r>
       <r>    -7.8129     0.0000    13.0000 </r>
       <r>    -7.7770     0.0000    13.0000 </r>
       <r>    -7.7411     0.0000    13.0000 </r>
       <r>    -7.7052     0.0000    14.0000 </r>
       <r>    -7.6693     0.0000    14.0000 </r>
       <r>    -7.6334     0.0000    16.0000 </r>
       <r>    -7.5975     0.0000    16.0000 </r>
       <r>    -7.5616     0.0000    16.0000 </r>
       <r>    -7.5256     0.0000    16.0000 </r>
       <r>    -7.4897     0.0000    18.0000 </r>
       <r>    -7.4538     0.0000    18.0000 </r>
       <r>    -7.4179     0.0000    18.0000 </r>
       <r>    -7.3820     0.0000    18.0000 </r>
       <r>    -7.3461     0.0000    18.0000 </r>
       <r>    -7.3102     0.0000    18.0000 </r>
       <r>    -7.2743     0.0000    18.0000 </r>
       <r>    -7.2384     0.0000    18.0000 </r>
       <r>    -7.2025     0.0000    18.0000 </r>
       <r>    -7.1665     0.0000    20.0000 </r>
       <r>    -7.1306     0.0000    24.0000 </r>
       <r>    -7.0947     0.0000    24.0000 </r>
       <r>    -7.0588     0.0000    24.0000 </r>
       <r>    -7.0229     0.0000    24.0000 </r>
       <r>    -6.9870     0.0000    25.0000 </r>
       <r>    -6.9511     0.0000    25.0000 </r>
       <r>    -6.9152     0.0000    25.0000 </r>
       <r>    -6.8793     0.0000    26.0000 </r>
       <r>    -6.8433     0.0000    27.0000 </r>
       <r>    -6.8074     0.0000    29.0000 </r>
       <r>    -6.7715     0.0000    31.0000 </r>
       <r>    -6.7356     0.0000    31.0000 </r>
       <r>    -6.6997     0.0000    31.0000 </r>
       <r>    -6.6638     0.0000    31.0000 </r>
       <r>    -6.6279     0.0000    34.0000 </r>
       <r>    -6.5920     0.0000    36.0000 </r>
       <r>    -6.5561     0.0000    36.0000 </r>
       <r>    -6.5202     0.0000    36.0000 </r>
       <r>    -6.4842     0.0000    36.0000 </r>
       <r>    -6.4483     0.0000    36.0000 </r>
       <r>    -6.4124     0.0000    36.0000 </r>
       <r>    -6.3765     0.0000    36.0000 </r>
       <r>    -6.3406     0.0000    36.0000 </r>
       <r>    -6.3047     0.0000    36.0000 </r>
       <r>    -6.2688     0.0000    36.0000 </r>
       <r>    -6.2329     0.0000    36.0000 </r>
       <r>    -6.1970     0.0000    36.0000 </r>
       <r>    -6.1611     0.0000    36.0000 </r>
       <r>    -6.1251     0.0000    36.0000 </r>
       <r>    -6.0892     0.0000    36.0000 </r>
       <r>    -6.0533     0.0000    36.0000 </r>
       <r>    -6.0174     0.0000    36.0000 </r>
       <r>    -5.9815     0.0000    36.0000 </r>
       <r>    -5.9456     0.0000    36.0000 </r>
       <r>    -5.9097     0.0000    36.0000 </r>
       <r>    -5.8738     0.0000    36.0000 </r>
       <r>    -5.8379     0.0000    36.0000 </r>
       <r>    -5.8020     0.0000    36.0000 </r>
       <r>    -5.7660     0.0000    36.0000 </r>
       <r>    -5.7301     0.0000    36.0000 </r>
       <r>    -5.6942     0.0000    36.0000 </r>
       <r>    -5.6583     0.0000    36.0000 </r>
       <r>    -5.6224     0.0000    36.0000 </r>
       <r>    -5.5865     0.0000    36.0000 </r>
       <r>    -5.5506     0.0000    36.0000 </r>
       <r>    -5.5147     0.0000    36.0000 </r>
       <r>    -5.4788     0.0000    36.0000 </r>
       <r>    -5.4429     0.0000    36.0000 </r>
       <r>    -5.4069     0.0000    36.0000 </r>
       <r>    -5.3710     0.0000    36.0000 </r>
       <r>    -5.3351     0.0000    36.0000 </r>
       <r>    -5.2992     0.0000    36.0000 </r>
       <r>    -5.2633     0.0000    36.0000 </r>
       <r>    -5.2274     0.0000    36.0000 </r>
       <r>    -5.1915     0.0000    36.0000 </r>
       <r>    -5.1556     0.0000    36.0000 </r>
       <r>    -5.1197     0.0000    36.0000 </r>
       <r>    -5.0838     0.0000    36.0000 </r>
       <r>    -5.0478     0.0000    36.0000 </r>
       <r>    -5.0119     0.0000    36.0000 </r>
       <r>    -4.9760     0.0000    36.0000 </r>
       <r>    -4.9401     0.0000    36.0000 </r>
       <r>    -4.9042     0.0000    36.0000 </r>
       <r>    -4.8683     0.0000    36.0000 </r>
       <r>    -4.8324     0.0000    36.0000 </r>
       <r>    -4.7965     0.0000    36.0000 </r>
       <r>    -4.7606     0.0000    38.0000 </r>
       <r>    -4.7247     0.0000    38.0000 </r>
       <r>    -4.6887     0.0000    38.0000 </r>
       <r>    -4.6528     0.0000    38.0000 </r>
       <r>    -4.6169     0.0000    38.0000 </r>
       <r>    -4.5810     0.0000    38.0000 </r>
       <r>    -4.5451     0.0000    38.0000 </r>
       <r>    -4.5092     0.0000    38.0000 </r>
       <r>    -4.4733     0.0000    38.0000 </r>
       <r>    -4.4374     0.0000    38.0000 </r>
       <r>    -4.4015     0.0000    38.0000 </r>
       <r>    -4.3655     0.0000    38.0000 </r>
       <r>    -4.3296     0.0000    38.0000 </r>
       <r>    -4.2937     0.0000    38.0000 </r>
       <r>    -4.2578     0.0000    38.0000 </r>
       <r>    -4.2219     0.0000    38.0000 </r>
       <r>    -4.1860     0.0000    38.0000 </r>
       <r>    -4.1501     0.0000    38.0000 </r>
       <r>    -4.1142     0.0000    38.0000 </r>
       <r>    -4.0783     0.0000    38.0000 </r>
       <r>    -4.0424     0.0000    38.0000 </r>
       <r>    -4.0064     0.0000    38.0000 </r>
       <r>    -3.9705     0.0000    38.0000 </r>
       <r>    -3.9346     0.0000    38.0000 </r>
       <r>    -3.8987     0.0000    38.0000 </r>
       <r>    -3.8628     0.0000    38.0000 </r>
       <r>    -3.8269     0.0000    38.0000 </r>
       <r>    -3.7910     0.0000    38.0000 </r>
       <r>    -3.7551     0.0000    38.0000 </r>
       <r>    -3.7192     0.0000    38.0000 </r>
       <r>    -3.6833     0.0000    38.0000 </r>
       <r>    -3.6473     0.0000    38.0000 </r>
       <r>    -3.6114     0.0000    38.0000 </r>
       <r>    -3.5755     0.0000    38.0000 </r>
       <r>    -3.5396     0.0000    38.0000 </r>
       <r>    -3.5037     0.0000    38.0000 </r>
       <r>    -3.4678     0.0000    39.0000 </r>
       <r>    -3.4319     0.0000    39.0000 </r>
       <r>    -3.3960     0.0000    39.0000 </r>
       <r>    -3.3601     0.0000    39.0000 </r>
       <r>    -3.3242     0.0000    39.0000 </r>
       <r>    -3.2882     0.0000    39.0000 </r>
       <r>    -3.2523     0.0000    39.0000 </r>
       <r>    -3.2164     0.0000    39.0000 </r>
       <r>    -3.1805     0.0000    39.0000 </r>
       <r>    -3.1446     0.0000    39.0000 </r>
       <r>    -3.1087     0.0000    39.0000 </r>
       <r>    -3.0728     0.0000    39.0000 </r>
       <r>    -3.0369     0.0000    39.0000 </r>
       <r>    -3.0010     0.0000    39.0000 </r>
       <r>    -2.9651     0.0000    39.0000 </r>
       <r>    -2.9291     0.0000    39.0000 </r>
       <r>    -2.8932     0.0000    39.0000 </r>
       <r>    -2.8573     0.0000    39.0000 </r>
       <r>    -2.8214     0.0000    39.0000 </r>
       <r>    -2.7855     0.0000    39.0000 </r>
       <r>    -2.7496     0.0000    39.0000 </r>
       <r>    -2.7137     0.0000    39.0000 </r>
       <r>    -2.6778     0.0000    39.0000 </r>
       <r>    -2.6419     0.0000    39.0000 </r>
       <r>    -2.6060     0.0000    39.0000 </r>
       <r>    -2.5700     0.0000    39.0000 </r>
       <r>    -2.5341     0.0000    41.0000 </r>
       <r>    -2.4982     0.0000    41.0000 </r>
       <r>    -2.4623     0.0000    41.0000 </r>
       <r>    -2.4264     0.0000    41.0000 </r>
       <r>    -2.3905     0.0000    41.0000 </r>
       <r>    -2.3546     0.0000    42.0000 </r>
       <r>    -2.3187     0.0000    42.0000 </r>
       <r>    -2.2828     0.0000    42.0000 </r>
       <r>    -2.2469     0.0000    42.0000 </r>
       <r>    -2.2109     0.0000    42.0000 </r>
       <r>    -2.1750     0.0000    42.0000 </r>
       <r>    -2.1391     0.0000    42.0000 </r>
       <r>    -2.1032     0.0000    42.0000 </r>
       <r>    -2.0673     0.0000    42.0000 </r>
       <r>    -2.0314     0.0000    42.0000 </r>
       <r>    -1.9955     0.0000    42.0000 </r>
       <r>    -1.9596     0.0000    42.0000 </r>
       <r>    -1.9237     0.0000    42.0000 </r>
       <r>    -1.8877     0.0000    42.0000 </r>
       <r>    -1.8518     0.0000    42.0000 </r>
       <r>    -1.8159     0.0000    42.0000 </r>
       <r>    -1.7800     0.0000    42.0000 </r>
       <r>    -1.7441     0.0000    42.0000 </r>
       <r>    -1.7082     0.0000    42.0000 </r>
       <r>    -1.6723     0.0000    42.0000 </r>
       <r>    -1.6364     0.0000    42.0000 </r>
       <r>    -1.6005     0.0000    42.0000 </r>
       <r>    -1.5646     0.0000    42.0000 </r>
       <r>    -1.5286     0.0000    42.0000 </r>
       <r>    -1.4927     0.0000    42.0000 </r>
       <r>    -1.4568     0.0000    42.0000 </r>
       <r>    -1.4209     0.0000    42.0000 </r>
       <r>    -1.3850     0.0000    42.0000 </r>
       <r>    -1.3491     0.0000    42.0000 </r>
       <r>    -1.3132     0.0000    42.0000 </r>
       <r>    -1.2773     0.0000    42.0000 </r>
       <r>    -1.2414     0.0000    42.0000 </r>
       <r>    -1.2055     0.0000    42.0000 </r>
       <r>    -1.1695     0.0000    42.0000 </r>
       <r>    -1.1336     0.0000    42.0000 </r>
       <r>    -1.0977     0.0000    44.0000 </r>
       <r>    -1.0618     0.0000    44.0000 </r>
       <r>    -1.0259     0.0000    44.0000 </r>
       <r>    -0.9900     0.0000    44.0000 </r>
       <r>    -0.9541     0.0000    44.0000 </r>
       <r>    -0.9182     0.0000    44.0000 </r>
       <r>    -0.8823     0.0000    44.0000 </r>
       <r>    -0.8464     0.0000    44.0000 </r>
       <r>    -0.8104     0.0000    44.0000 </r>
       <r>    -0.7745     0.0000    45.0000 </r>
       <r>    -0.7386     0.0000    45.0000 </r>
       <r>    -0.7027     0.0000    45.0000 </r>
       <r>    -0.6668     0.0000    45.0000 </r>
       <r>    -0.6309     0.0000    45.0000 </r>
       <r>    -0.5950     0.0000    45.0000 </r>
       <r>    -0.5591     0.0000    45.0000 </r>
       <r>    -0.5232     0.0000    45.0000 </r>
       <r>    -0.4873     0.0000    45.0000 </r>
       <r>    -0.4513     0.0000    45.0000 </r>
       <r>    -0.4154     0.0000    45.0000 </r>
       <r>    -0.3795     0.0000    47.0000 </r>
       <r>    -0.3436     0.0000    47.0000 </r>
       <r>    -0.3077     0.0000    47.0000 </r>
       <r>    -0.2718     0.0000    47.0000 </r>
       <r>    -0.2359     0.0000    49.0000 </r>
       <r>    -0.2000     0.0000    49.0000 </r>
       <r>    -0.1641     0.0000    49.0000 </r>
       <r>    -0.1282     0.0000    49.0000 </r>
       <r>    -0.0922     0.0000    49.0000 </r>
       <r>    -0.0563     0.0000    49.0000 </r>
       <r>    -0.0204     0.0000    49.0000 </r>
       <r>     0.0155     0.0000    49.0000 </r>
       <r>     0.0514     0.0000    49.0000 </r>
       <r>     0.0873     0.0000    49.0000 </r>
       <r>     0.1232     0.0000    49.0000 </r>
       <r>     0.1591     0.0000    49.0000 </r>
       <r>     0.1950     0.0000    49.0000 </r>
       <r>     0.2309     0.0000    49.0000 </r>
       <r>     0.2669     0.0000    49.0000 </r>
       <r>     0.3028     0.0000    50.0000 </r>
       <r>     0.3387     0.0000    50.0000 </r>
       <r>     0.3746     0.0000    50.0000 </r>
       <r>     0.4105     0.0000    50.0000 </r>
       <r>     0.4464     0.0000    50.0000 </r>
       <r>     0.4823     0.0000    50.0000 </r>
       <r>     0.5182     0.0000    50.0000 </r>
       <r>     0.5541     0.0000    50.0000 </r>
       <r>     0.5901     0.0000    51.0000 </r>
       <r>     0.6260     0.0000    52.0000 </r>
       <r>     0.6619     0.0000    52.0000 </r>
       <r>     0.6978     0.0000    52.0000 </r>
       <r>     0.7337     0.0000    52.0000 </r>
       <r>     0.7696     0.0000    52.0000 </r>
       <r>     0.8055     0.0000    52.0000 </r>
       <r>     0.8414     0.0000    52.0000 </r>
       <r>     0.8773     0.0000    52.0000 </r>
       <r>     0.9132     0.0000    52.0000 </r>
       <r>     0.9492     0.0000    52.0000 </r>
       <r>     0.9851     0.0000    52.0000 </r>
       <r>     1.0210     0.0000    52.0000 </r>
       <r>     1.0569     0.0000    52.0000 </r>
       <r>     1.0928     0.0000    52.0000 </r>
      </set>
     </set>
    </array>
   </total>
  </dos>
 </calculation>
 <structure name="finalpos" >
  <crystal>
   <varray name="basis" >
    <v>      17.38849362       0.00000000       0.00000000 </v>
    <v>       0.00000000      17.38849362       0.00000000 </v>
    <v>       0.00000000       0.00000000      17.38849362 </v>
   </varray>
   <i name="volume">   5257.57989465 </i>
   <varray name="rec_basis" >
    <v>       0.05750929       0.00000000       0.00000000 </v>
    <v>       0.00000000       0.05750929       0.00000000 </v>
    <v>       0.00000000       0.00000000       0.05750929 </v>
   </varray>
  </crystal>
  <varray name="positions" >
   <v>       0.46071382       0.43545166       0.61008703 </v>
   <v>       0.57596571       0.54354468       0.57595477 </v>
   <v>       0.58254781       0.39783239       0.51201743 </v>
   <v>       0.61260068       0.52556382       0.41921601 </v>
   <v>       0.51582756       0.64380719       0.46603673 </v>
   <v>       0.46148028       0.49189616       0.46035666 </v>
   <v>       0.42197910       0.58840341       0.58344287 </v>
  </varray>
 </structure>
</modeling>
