18
Energy = -63.54185603 eV
Bi 11.874253571753915 13.830328419408266 15.544193401821895
Bi 14.137684249923673 15.302414085337107 17.137910751366423
Bi 8.7965484992635 11.858521306096579 13.935491493024147
Bi 15.461730878074613 9.862350211725602 11.237227562877527
Bi 14.519844268453696 12.143078514576732 15.28587109489566
Bi 13.697434377092913 9.620338772593445 13.654450376119852
Bi 8.973591211509625 14.14731556818853 11.998333903773602
Bi 10.108123934974454 9.426606588183184 10.25981769084648
Bi 7.262142190147264 10.517287605215031 11.74940687043049
Bi 11.704745323538749 11.081717004349823 8.064280255746628
Bi 13.177375403705286 8.90408106521998 9.40671114727239
Bi 15.507822740326445 12.797914999792058 10.506588849769836
Bi 16.55696530508772 15.042673968908215 15.678441598862465
Bi 11.461666324825785 11.21212350332331 12.413361004318032
Bi 8.66908783942299 12.2024162536966 9.633943720326354
Bi 14.879794674270851 14.254332181582738 13.157450646600726
Bi 11.77870358482096 15.312266972242899 12.895319747414602
Bi 12.514754149850427 13.26099136936712 10.330837988976366
