16
Energy = -58.145799 eV
Bi 9.022527535796476 11.69169913292151 8.309939215574245
Bi 9.542910114314896 14.383300263196306 7.082532810473748
Bi 11.71062647344733 10.399354663811142 8.136224211507098
Bi 13.619299929546704 12.510107611707912 9.048419966891688
Bi 9.195837612621286 14.087955948953816 10.120001893925343
Bi 10.903511127355879 8.641362933734472 10.496214805881948
Bi 12.570256695012182 14.80171391712834 7.357216991265281
Bi 13.27110326837897 8.338200445423363 12.412392536762825
Bi 12.15807574010602 14.740180200058402 10.414216492398898
Bi 10.795228416542026 8.115884910821627 14.140239602647783
Bi 14.007546781005372 11.214387346353853 12.84659905100171
Bi 9.40130105643523 10.315918160640154 12.570557021472217
Bi 11.317526518425057 12.573022915474732 13.088216135750162
Bi 14.153351234536817 11.070106017618475 15.926077871536064
Bi 11.69800920107536 9.492304230799808 16.691156246567413
Bi 11.447607019247805 12.439220025203182 16.1747138701902
