20
Energy = -73.01021098 eV
Bi 13.816209641656465 19.513906273496925 16.715080627157974
Bi 12.928979862394051 17.187972356991537 18.422795741858984
Bi 12.792394627790852 18.883388383547754 13.918638295181042
Bi 10.721294232878376 16.860592628115953 14.680637940002352
Bi 15.790745680313258 17.32287917121023 17.370769889555437
Bi 12.323092401457142 14.962019909996547 16.376928764901287
Bi 10.556988259517288 16.01684839791146 11.752258263998147
Bi 15.074554065417116 17.141031672565717 13.08978953553345
Bi 15.14805276715792 15.117553409248456 15.316571178650662
Bi 13.40692996782454 16.232274168483045 10.703098475054672
Bi 13.173255551362642 12.507088308276279 13.736184491773553
Bi 12.144174903736946 13.485758793854687 11.096585350379193
Bi 11.436116355491725 9.929941706292118 13.545779583132022
Bi 14.184414741888729 8.843871644900176 14.139045197545135
Bi 15.531162852289935 10.95372995269269 12.462707327296437
Bi 11.387659263097424 9.746793083014866 10.545664269257061
Bi 14.23187318407766 10.485901734390072 9.793690600007512
Bi 14.330454386933418 6.413718519028587 12.321264229592366
Bi 12.078356465767904 6.754163425665092 10.361402825839932
Bi 14.937811689279723 7.498759268908456 9.581770617188571
