27
Energy = -97.23615045 eV
Bi 16.702289731038622 0.21347839414027314 0.6231015968045457
Bi 15.384086765239925 14.139943872124903 2.922508027824844
Bi 18.23058515866887 15.02034244778798 3.553072209653136
Bi 18.565739320385738 17.258843127309518 1.4664738290336248
Bi 19.075467019346217 3.9669519710700483 17.01781357707251
Bi 16.244554018942633 3.2227239578687863 19.890508428631914
Bi 19.21029904673466 3.7978231267501363 0.25323688923639764
Bi 15.258715419078737 15.914767164654773 0.3952399288980949
Bi 18.218684775577245 19.789538834801714 3.2364287654701815
Bi 17.716460544600963 12.624055706301618 1.770183533672004
Bi 17.143863504687474 1.803104815891064 17.224963086214746
Bi 14.448374889992618 13.91182779255191 18.171749885103058
Bi 1.6374588726830384 16.536211935059153 1.2569185602785986
Bi 18.64415243923809 17.084908959370583 17.63066600205252
Bi 19.723053444769988 0.7841059416015963 0.7300671093542448
Bi 17.38478777624509 14.177072339568817 18.99937719335078
Bi 0.04056446275893161 2.5597015318405325 14.312120178612455
Bi 16.20308780702298 16.213947813848748 14.041443588224249
Bi 2.7835588805947284 17.82937284413798 18.667768271449393
Bi 15.082214460539268 16.563094416486734 16.843163008942646
Bi 0.5638850981242928 19.668246013918242 17.542321395505493
Bi 17.399486815807073 18.970657376688248 14.880323473466717
Bi 1.644094574528418 19.875253723440434 14.705181328507459
Bi 1.1575188873353488 15.280337015653442 18.440655951293696
Bi 16.966356850023217 2.0107757485936455 14.086227354163752
Bi 19.09608049365368 15.66645431057935 14.915026305511278
Bi 19.649280169807106 18.104816279695218 13.132528312527361
