29
Energy = -104.40299255 eV
Bi 14.120700633776728 12.28398091230863 14.372033671410449
Bi 12.804251633341117 14.680024028534419 17.31213544988445
Bi 11.332356031086968 12.233561693620993 11.925453154080342
Bi 17.167352943452507 11.413945144648908 14.094426789447152
Bi 9.400537282863759 15.458317205982357 13.375594867188601
Bi 13.409824286417892 17.02114932116645 15.167537584122686
Bi 17.98237000640252 12.676143432016298 11.499492838479245
Bi 10.469153422489239 17.606925137178177 11.546916939336105
Bi 17.368218633575715 9.759673169716036 11.566146775604762
Bi 16.397112652038743 16.28378309670502 11.74832797032087
Bi 8.781662538579777 15.369828881446164 10.393374487240855
Bi 15.404818218934006 13.611858212902767 20.642763333840755
Bi 10.920469817402411 12.372267758441682 15.395749047907543
Bi 10.892861672198602 9.359864499084566 15.391128044232904
Bi 14.042364272870808 16.14806713754592 19.747936857183948
Bi 9.050361493361603 10.871209487605062 13.488290781916158
Bi 10.336978561607701 13.053045235298857 9.117954583782911
Bi 11.991742627224037 9.278524682876515 11.587882045218864
Bi 15.281418294350896 18.756532639146194 13.07937424874839
Bi 14.862190544599173 12.13786305274656 7.890280048762817
Bi 17.91171403786568 17.645249521926612 13.977659393524917
Bi 12.408206724813153 15.537892548890877 12.691186446001666
Bi 14.871382830405516 12.799034064321525 10.953292102983418
Bi 13.035813472120944 14.33161892090846 8.855198604023943
Bi 15.338473877379043 13.0565052109934 17.46684989379655
Bi 16.839850396564138 15.474076817910783 18.838887780224614
Bi 14.600619319021947 9.855711779636573 9.949880165449745
Bi 15.969028063533832 15.368528378071792 14.705134810322837
Bi 13.694225530889467 9.274899761384749 14.0539268495303
