28
Energy = -100.77057356 eV
Bi 16.65752202033406 9.56790589003602 11.799982060410292
Bi 18.14437594024986 12.084868720899175 12.946713042303271
Bi 10.324328847166372 6.6334397421526115 12.597178325673156
Bi 12.37819467478527 8.872802494920796 12.698367163061722
Bi 14.788626068296105 11.549920950965848 14.85529335476015
Bi 17.26343429475336 11.284109862515258 9.418213341842595
Bi 18.45191380283988 13.964592068836073 15.410688995805913
Bi 13.423520182020665 11.986071497686847 17.607830526289682
Bi 14.402480433147312 10.606385694387223 10.019241909508011
Bi 11.606634931879038 12.071669136290136 14.961710210049459
Bi 10.302134254091118 8.56094637458501 14.914803022194977
Bi 16.51595008786345 13.897202928190746 11.229246371007218
Bi 15.50972779296462 14.103897479665651 16.201858996517874
Bi 9.459456941823989 9.504318535587986 12.161719139718672
Bi 17.292872181779597 15.970633116391863 13.461139135656206
Bi 13.321670744678205 13.055995154998131 11.725916523244003
Bi 12.021570990951501 14.570661161265274 16.568897910753666
Bi 13.408444813454087 15.082403082685934 9.377022178215846
Bi 10.950964272520807 11.843337880767816 9.66244486990335
Bi 8.967072994572412 14.242358135025802 17.11900802510537
Bi 8.263127868417683 12.552404488630316 14.723311970356622
Bi 14.191200444120366 15.89004092418234 13.53857553398433
Bi 14.218117955368827 17.62355273969497 11.051340937847106
Bi 10.588309084416242 14.91309587344288 12.884723564732186
Bi 11.297702530391618 16.990304965398963 10.655612462086754
Bi 10.486509691940691 14.447354968462363 8.249790561559402
Bi 8.828037584994291 13.696800861500272 10.717590707024232
Bi 8.055151093572386 15.551977794227515 14.56083168378128
