34
Energy = -122.60871907 eV
Bi 17.613013471680304 16.160306192164537 11.699918439913274
Bi 11.10231281944417 15.518777898630484 17.366640677908673
Bi 11.558592760771779 13.813071070218854 8.951238203073325
Bi 13.95538723952074 18.483908446022582 13.615986318332496
Bi 15.933756316948884 12.816183081282007 14.539356788138232
Bi 10.299879477565424 17.876605283835115 13.968958964208506
Bi 15.95844286703311 16.331026507703537 14.485777493623596
Bi 16.321603771981 19.31416101774575 15.29895254868076
Bi 18.245102883372507 7.630996991755036 10.626437452618287
Bi 18.811636981488455 12.529106274396902 10.798728788802437
Bi 14.610813765896928 14.034769379898888 8.536587761573326
Bi 7.539533658637385 17.91804982451217 15.246921539183
Bi 11.541679050388701 15.859066424125704 20.386548237760245
Bi 9.010886774032056 17.712169419107006 17.96161300771681
Bi 14.43242923703463 8.532612998434844 13.540972616714923
Bi 16.624968819976697 19.178336890267214 12.332603544646142
Bi 13.111091653968414 11.210483520873764 14.39784379230055
Bi 8.83608069147799 15.287048651180298 14.550818812437374
Bi 13.174218251660385 10.424432819984006 11.53379003034205
Bi 18.750395949448716 13.800797507001443 13.43003037119475
Bi 13.535329316455226 12.723223456789121 17.73059663554506
Bi 19.246786284778047 9.91123757347342 12.28997469481321
Bi 15.118187271049647 15.324059700744703 17.584784188203276
Bi 17.220525972304035 6.694142857309146 13.115179056918464
Bi 11.717421221835359 18.370671165917138 16.700884570659394
Bi 8.681259241696283 14.946263040599913 11.472558998490658
Bi 11.224347427465814 16.36584212537387 10.635840811312473
Bi 15.64870513861347 12.176008525624173 10.74690922817495
Bi 14.7507816655718 15.03838960347292 11.4068712551782
Bi 17.126154265345615 9.608281528248071 14.461067235968342
Bi 14.574923663528217 15.95209759656487 20.569220964789604
Bi 13.161587329197982 13.298016434591414 20.75383202384532
Bi 16.558332088121052 12.653009144896384 17.56111940524974
Bi 11.419386240066258 13.642715201378442 11.98778593600836
