38
Energy = -138.53967105 eV
Bi 17.349438171638436 12.189246155047325 10.954574285584041
Bi 16.497317036331438 9.570605801934004 14.72615415849238
Bi 16.907626324557203 15.037892666560976 9.979542269658118
Bi 15.58882081245007 10.806237712912269 8.77857296108795
Bi 17.98745387823359 12.239532171541594 14.720704072050845
Bi 17.021645595909323 15.834497178930503 12.929210928692225
Bi 13.893843632531947 13.357807087607172 8.483729796069719
Bi 18.758430803822108 11.581184765264696 17.653821308284027
Bi 15.07153683347329 9.456950199901412 11.59797227839052
Bi 16.60526922607561 9.456478259642948 17.831833871724303
Bi 13.896874300631504 11.12819115432062 14.091229010401367
Bi 10.384344426946749 15.415220775228667 8.009425651759951
Bi 14.933231312390886 13.862362465404857 11.963152462857911
Bi 12.125743516025468 13.954627590291484 5.981352232091129
Bi 11.24900919326943 11.229126705361729 11.455941247074104
Bi 15.332949014878317 13.421390597657924 15.834940636588284
Bi 15.915285369974592 12.292376895103358 18.618035491631876
Bi 15.20664419005671 18.26332343002194 12.476275784188166
Bi 10.755261608565657 8.285124132288844 10.978302221589567
Bi 11.640642816597785 14.821141124769833 10.801406601830053
Bi 12.27788834746806 9.017161691519306 15.596581366678132
Bi 13.578525733962183 18.18658543536509 15.035875242536392
Bi 12.56015620716064 11.721863170248717 17.693218549443497
Bi 12.313769789927262 14.809604064710825 17.534233142080133
Bi 11.89851742223454 11.0462978873384 8.505044275313052
Bi 12.732159423957578 17.724357854368062 10.722133648833914
Bi 12.453451249756066 15.378260007898549 14.53565920873523
Bi 11.34286362796015 19.087709621336955 13.108345787400085
Bi 9.63071850291066 12.636443971955925 7.132238857386516
Bi 13.020534644966089 7.536738465425924 12.838537085629554
Bi 8.220219849072215 8.744144497045992 12.633915040458783
Bi 9.335016765447266 9.767104561126866 15.284549407598153
Bi 9.730878118925565 16.799051196572417 14.341051054370858
Bi 10.116084113068352 12.605557473700959 14.581858042772529
Bi 8.225850434931461 11.324796997029765 10.938622296843572
Bi 9.81668601841528 13.052444190270936 17.58863128334529
Bi 8.804023013636995 15.731364158520568 11.663963181889878
Bi 7.544838014091626 13.350747228024053 13.122914600889523
