30
Energy = -110.0287821 eV
Bi 7.092580660969952 15.688891370716822 10.074816677974303
Bi 8.47665649057532 13.729928654519988 8.18463253744701
Bi 9.897042175787675 16.723348146423053 10.589303966865637
Bi 6.2356034199777 14.105871492703676 12.516628263612656
Bi 10.128975423853754 16.68391963477492 13.618665497138517
Bi 7.63167719744081 10.916723744367134 9.040144550555448
Bi 10.915744211841726 13.844699344929834 10.012173860774666
Bi 12.822126925702792 14.375227199544119 7.677824836743974
Bi 8.444607649594268 14.321271672612651 14.593977165576511
Bi 7.195449069250701 11.242675742138179 12.045066901097
Bi 15.407712165373418 13.303284826200757 8.887081555690308
Bi 10.457709910829918 10.357798888782131 10.081618893742723
Bi 13.821640937590205 11.62687499887696 6.897708649783166
Bi 9.982332496165515 12.13402219791487 13.027104190295491
Bi 12.496050210107882 14.753485170403787 13.244397835527275
Bi 9.648634622388615 9.427886138017325 14.515345683711097
Bi 9.761862271646256 7.881015609768553 11.836905706036264
Bi 12.29274003865587 9.169533043428945 7.9070897988020565
Bi 14.100963953532888 12.020538755042466 11.334433002745971
Bi 12.827519582937635 13.745861777385477 16.097446064836706
Bi 12.705240040710036 8.575207571663396 12.158061672223996
Bi 15.101862029400467 15.256655709773414 14.764399387858544
Bi 13.470655997812166 11.117768860985358 14.69419794516479
Bi 12.23355748539483 8.789967344327284 16.193766556401176
Bi 14.263680596535023 7.6606665345919405 9.7287139230611
Bi 16.477667472632874 13.110567194547503 13.014640264666104
Bi 16.151029132319465 9.784372909999412 10.840457686336448
Bi 13.904509911855289 6.964395896246916 14.395782767248388
Bi 16.416975579897475 11.06296518278606 15.281780186492398
Bi 16.505251669694402 8.492633717000396 13.61389330206474
