43
Energy = -156.16489954 eV
Bi 18.403714980448413 17.049162663120196 8.494644475622573
Bi 18.789935955859928 14.036567085616548 8.769184655410495
Bi 16.56117297958379 10.804997413556766 13.902099716347385
Bi 16.455293667460587 13.193792462735946 10.577725494415297
Bi 20.419267298854432 15.941317233057394 10.481864835467425
Bi 14.72559559639976 15.124377019107163 9.04250198783016
Bi 16.75946612561297 14.094650240517483 15.717351061092746
Bi 15.578133129455416 8.038182443587843 14.528689775641523
Bi 18.001350177552784 11.39480360716674 16.498355959721433
Bi 16.010768210045537 11.436944010996584 8.095991199668811
Bi 13.370248636640065 9.182859852890049 12.277731207915082
Bi 19.372470589595686 17.630169171140263 14.695988251059946
Bi 13.510141609664865 12.413315394141485 6.557293169703689
Bi 17.024661264126532 18.073305502434746 11.04951955427387
Bi 13.232359821961476 10.496023136253042 8.87758390422512
Bi 18.19306938800631 15.709544287954964 12.593742474936322
Bi 14.849020418462505 13.919348720044932 18.07725666243337
Bi 14.28125482431025 8.671482308341194 17.17262127338144
Bi 13.635437298432802 11.858227047839529 13.770643249752652
Bi 11.723318626312016 7.739617979872105 14.388469080618467
Bi 17.493257067448297 19.974218242589995 14.422954655160243
Bi 17.89826318876118 19.73254666593667 17.439087578504388
Bi 14.030494476546084 17.419407904089994 10.930862930910115
Bi 12.203240922428074 13.385858207059613 9.126727774937777
Bi 15.77936890345909 10.99797069562316 18.513334587040344
Bi 18.223036954814678 16.41217633008049 17.277795886447052
Bi 12.139128522533355 13.736411143117598 16.60691489098807
Bi 10.505531331154486 10.53879214493045 11.346851832485601
Bi 12.072529008123507 10.354565671069894 15.970206470886037
Bi 14.742373631784528 18.681287882681765 14.881857151358039
Bi 11.225012225899427 15.49627862032456 19.008070096994622
Bi 9.040853228725418 8.760957640905627 13.280310979363279
Bi 14.72007777366027 15.96421911078132 13.510863194628996
Bi 9.723002554984179 12.177552900143697 13.81559475056062
Bi 15.526732541045133 17.784643001733137 17.68199260428603
Bi 8.256856154923994 13.417122401311085 17.235984933716303
Bi 11.798607615635184 17.916826399216323 17.27100102001308
Bi 11.905513255607344 16.16418457941378 14.729552171096516
Bi 7.708636107844303 10.637897089282523 15.566027501920098
Bi 8.572327474158316 15.311721996836297 14.898615847587951
Bi 8.908533258227854 16.91307315928748 17.606509205077252
Bi 5.7756936277157465 14.297454019846128 15.679079765118857
Bi 6.485545843857055 12.359004723768935 13.440377350103923
