49
Energy = -178.90917183 eV
Bi 12.078259593601382 7.580111779760811 14.375975687527028
Bi 9.988593378022665 6.3710220922332095 12.389237691529882
Bi 12.308460233623627 9.831801835755773 11.072384280918786
Bi 10.11390339716793 17.298668093610424 16.1533794155914
Bi 11.804183058996093 16.035135368239473 13.033868293688261
Bi 17.4517113375837 9.675037865702237 10.705084311224173
Bi 19.251051287018768 13.311330867178754 13.578676406982673
Bi 10.248201931638988 11.433277512262105 8.15989564492456
Bi 7.4719118392492465 15.772083686048424 16.11620108684171
Bi 10.453423057599997 13.430579966553875 18.53295820223369
Bi 14.481052736872432 10.784142117744574 18.946941291371836
Bi 15.482188431338153 16.420926236073978 15.062102329274667
Bi 17.12662095600615 7.746784118628635 13.086997838197892
Bi 14.11671335869831 7.542352755914906 12.107863577308203
Bi 17.983866802320307 17.788204069061564 16.187175159014025
Bi 7.286509591644316 15.507735273975785 10.965145349357298
Bi 13.024338964514149 13.353183484774588 11.867943637220092
Bi 8.294693718150185 12.867075073624946 16.442507716606077
Bi 13.94718903180403 19.02577001018179 15.462405343343073
Bi 16.70542639103727 20.340071096502022 15.046079097022748
Bi 10.689653525829907 13.898439002164572 9.946195810872469
Bi 15.553622067486259 10.926347424941026 12.751307435785568
Bi 9.970609546062514 19.064267472005277 13.603755930893952
Bi 13.207857318449236 11.378641749329336 15.320730525802688
Bi 12.027393396689098 14.81149562014408 16.332967054722115
Bi 19.833236581936205 18.187147374249538 13.793394955419583
Bi 10.096284660734774 12.741264402194002 13.93968954627767
Bi 9.82505043113518 9.730204353966677 14.560517151818125
Bi 13.199313140798461 10.688389790917812 8.29249425309266
Bi 17.573318591513562 19.495453873540214 12.218168744388645
Bi 14.877312491992404 9.009309060969748 16.456951418674283
Bi 7.5952813236176 12.691284691445341 12.182490855853933
Bi 17.400111162657687 10.080952295929109 15.059874337864821
Bi 11.25722848307349 7.306012108766842 9.74156453376938
Bi 8.76957558122789 9.043229290179841 9.411913695388204
Bi 5.983970146910298 14.878448552360297 13.594640422725814
Bi 14.528358704854856 15.575055382013304 17.860778554075623
Bi 20.459609203987924 15.70558082900074 12.105783451242505
Bi 16.403211073482396 13.960451481464737 12.648141126202699
Bi 12.888818826246343 18.894276307726653 12.61759948631421
Bi 7.971086402711758 8.731407828593817 12.361754157459352
Bi 15.479851884295664 12.819295394016608 16.882494837821543
Bi 19.66373667086664 11.786703753212919 10.971973892575692
Bi 18.462905915318483 16.21357837025633 9.864977578266577
Bi 17.284602316925255 13.372772132067054 9.782646851924456
Bi 9.777867703054469 17.25701221574675 11.124186623115673
Bi 11.578262134598058 10.672168695592818 17.865217090619527
Bi 15.99579832557043 17.022999764951408 11.509467668432562
Bi 13.660099205543402 13.699081892187289 8.931240797165637
