43
Energy = -156.79575226 eV
Bi 17.06568388900397 13.792431914938287 8.398608202086708
Bi 18.009648258733996 15.39432821609262 12.620845021949323
Bi 18.35181904554322 9.165594131396483 10.58553009582236
Bi 19.67085958103957 9.81365686363712 13.27758447481924
Bi 15.95822631387785 15.798412270518073 10.419027544721663
Bi 19.74188080498972 12.875421241788835 13.319213468208144
Bi 14.097971868348273 13.170431080743198 7.848614100950109
Bi 17.764016847476146 14.95141567668452 17.241534477072605
Bi 12.30421839634442 17.061971018579204 14.905821385478255
Bi 13.70030479808009 14.355917074105303 14.533745381710931
Bi 15.279907266729406 10.381160508978649 8.320661652944485
Bi 15.997112281074877 7.995495689831843 12.224022883271424
Bi 16.7530569289791 11.7248203974575 10.688928737900172
Bi 16.19285811978163 16.123130844835355 14.902488591171785
Bi 10.621304356734283 18.16101384435375 10.726616311990487
Bi 17.255187523948926 8.848619933385482 14.900967712211436
Bi 13.381185718529055 14.032249970109376 10.742984187475372
Bi 18.882510765846853 12.358073297323628 16.115254996750913
Bi 15.8921346089101 11.628090556113568 15.259854852323976
Bi 12.541219015286034 16.496688171813418 9.055360648088238
Bi 10.90658932785591 10.785046198988585 8.996378302471395
Bi 15.799631483111039 12.79816224193828 18.168138997778883
Bi 8.16550881541761 17.565289747652038 14.576649761446017
Bi 11.060387368261205 11.763408137796908 13.639028245882454
Bi 13.066692885876797 8.654141332201327 9.586954967727657
Bi 7.637892739292809 12.801043705590397 8.236446782381732
Bi 10.244471681098549 16.111015734413787 12.905048891028684
Bi 13.209428192131506 14.265528352111373 17.55032165464382
Bi 13.900894579297784 9.694725900301737 16.734146911602064
Bi 9.733521763394231 13.698452847965482 10.398633177830924
Bi 9.524426212398946 16.20899466493586 8.657502034601006
Bi 10.014442008943664 16.703053469815636 16.91887290141665
Bi 13.937200167530609 10.277467102778223 11.998789750050822
Bi 9.845894163273972 9.688392677287167 11.629392643621898
Bi 5.663428440564906 12.417329390233638 10.53592948677718
Bi 11.846820497887412 11.58111117436084 18.042170663378876
Bi 9.42128140195907 11.449099545239376 16.17606431239461
Bi 6.428558253542481 15.033638051274997 14.696099155000283
Bi 8.080066770330568 9.773843426823337 8.171141732692211
Bi 12.254299135311923 9.02949717777155 14.257549261715045
Bi 8.288460201499277 14.152789325601768 16.972619623940254
Bi 7.70137480285822 13.047701155142477 12.730911896142121
Bi 6.839415333605135 9.619889050165687 10.98734097095371
