47
Energy = -170.93460098 eV
Bi 11.242667039119175 21.14800500357818 13.352669862967835
Bi 18.253689306492333 8.930834383075615 14.289456167392277
Bi 18.43931927064456 12.384053259236776 12.242642047834433
Bi 16.588379144889583 11.415871550756629 14.466933600652936
Bi 13.329188228605819 12.085070894405826 12.730149345108366
Bi 14.041946405562985 21.119425886607633 14.391164772957445
Bi 14.563596591746336 11.822475950314983 18.618522919948525
Bi 9.18584110488013 16.61687641363026 10.06858693227601
Bi 8.634163272135703 14.068844025389941 16.43143151511084
Bi 16.82522912290109 7.186063962157034 16.360625991000802
Bi 15.913542385930466 17.883315505146538 9.001676173438161
Bi 15.286654694500134 15.273096341338837 15.541148323631662
Bi 16.667131328226493 11.364395016451923 9.771151388834564
Bi 18.683624300940053 12.436759395945526 16.448630789199562
Bi 8.561267262321586 12.160758331361793 14.026785830008977
Bi 13.583531062027127 20.164493261761173 17.228834098026685
Bi 17.65575945088641 19.284182092020963 14.82054383304896
Bi 12.209685837064399 15.863922343043976 13.762556027194158
Bi 15.364785899519394 8.861949575557649 18.50433669216763
Bi 10.930956290013928 10.502890406170733 17.91226567601251
Bi 17.595283886367934 17.265796785497148 11.4491923904493
Bi 19.777195503920186 14.445023477968606 14.43183315528472
Bi 10.452984345083431 18.17865471833825 12.60216095039315
Bi 15.152678908553161 18.30518925851919 13.402826831077043
Bi 14.42437464947565 9.789687099637638 10.982184988803365
Bi 12.57537946448904 7.915069634873278 17.686940458726777
Bi 13.286502148203265 8.976302261082655 14.963738979400508
Bi 12.463042359866968 13.329301873355433 9.878361240409157
Bi 12.737103474192363 12.381394102414916 16.27135301204989
Bi 14.40265881465522 17.265634990243058 17.740814972895112
Bi 10.638036678424758 8.21700800116888 13.733344008829526
Bi 11.151712675620097 14.245612284857291 18.121428170439177
Bi 15.3908148416776 14.076566452642393 9.068784629691615
Bi 10.59044636980021 10.876993252774364 12.111865411586605
Bi 16.510081780479425 19.496574671731782 17.69459044337713
Bi 14.95973488695122 20.11504497144011 10.912608904351151
Bi 16.31397924621393 14.592836799827099 11.931490028495404
Bi 11.418495156677517 16.200472072824486 8.147901610369427
Bi 18.09342136756519 16.468268554981886 15.927127445411216
Bi 13.414684789116563 16.715500065528715 10.316076733165882
Bi 11.895787892677687 19.98312309595135 10.590046643209863
Bi 8.911635934432086 9.586481523929587 15.829519239417651
Bi 10.29443362646116 14.362368115101328 11.903885638694712
Bi 14.726444117737152 6.42057678971584 14.261763974651343
Bi 16.44709670603873 7.763676806493382 12.091400896142787
Bi 16.593712703895466 14.055559643032037 18.04347504184879
Bi 10.439508778555235 16.483705398293022 16.183483447286584
