55
Energy = -200.11164228 eV
Bi 13.305718634486063 15.488836895766322 13.48169402944129
Bi 7.307379843595532 8.17549501329112 12.219278514619903
Bi 14.062374792527297 7.95611534933586 15.98375341762371
Bi 9.087564233260412 15.421660297788113 15.181012542201106
Bi 14.004825650549302 12.29024362318682 10.931676447480886
Bi 15.378007243923971 13.33071340581655 16.412463247829546
Bi 15.122952675919413 18.947440764760323 15.430178445601763
Bi 15.29301220680994 17.681314060428456 12.614249061790822
Bi 17.95159732096169 17.923880103705926 15.866704835215323
Bi 14.683984485985922 10.190188633355518 13.895555418912393
Bi 14.093637917118386 8.068594576986245 11.665787289445863
Bi 10.573279527771954 13.804296090430384 17.3014208266637
Bi 7.6999865205335265 11.33078404542685 14.320908805326889
Bi 15.28739122033586 14.956693743222212 9.919821993989261
Bi 8.613385959557494 11.454087053386115 17.208385226787655
Bi 13.95626250233019 5.856691768049433 13.73828377952092
Bi 16.96701273970772 11.44502864555718 10.722200675097403
Bi 17.33575816765579 11.192811793229383 17.31867557222839
Bi 12.239043433081667 12.433133749094749 15.070691800007488
Bi 8.13945814643932 14.282045355099008 10.266603148674475
Bi 17.043999983246334 8.713855706772666 15.502915396128287
Bi 11.21273569465322 17.560820142183395 14.626444993414253
Bi 7.671150026288625 10.6331429323956 10.392818755997626
Bi 13.488513053967328 16.559364521113114 16.387915876412528
Bi 9.980745442078344 8.817542884172171 13.5432140188858
Bi 10.063164302083143 12.021855200064131 7.5491837420941605
Bi 18.01760183259056 14.910277253283985 15.925124787313942
Bi 16.1917190859818 13.368214230792635 12.951009068507027
Bi 16.794302300056543 13.7594722723077 7.546333726953265
Bi 8.868165030952277 11.191578171718918 4.9025780513077315
Bi 17.95557079198613 16.243835264908128 13.186679361471732
Bi 10.997571392360353 16.418361907950914 7.675717012523549
Bi 8.019936598905982 15.876896711268676 7.56824131942923
Bi 17.11509610500121 8.794069487858968 12.271982080724113
Bi 8.904274942854055 18.405622341472657 9.004179680117359
Bi 8.142772642240393 8.8014721129263 7.978284248493813
Bi 11.210652526398167 14.428487169369157 10.011647512006162
Bi 10.951144039752982 7.7822462233933605 9.33657599763813
Bi 10.931540162484108 13.488730431839794 4.94346303809678
Bi 11.374581499974724 17.280056998011304 11.162380889231919
Bi 8.339985437908952 6.40796255168161 9.903370175770247
Bi 11.311364139278782 9.715316881595713 5.979904053443805
Bi 10.669876847792665 10.388130144959634 10.989390694224461
Bi 14.352278132397913 15.446799199343413 6.926931736164015
Bi 13.257693135379913 11.61657583963225 4.414389398047564
Bi 11.312087641293653 6.2480568013911295 12.313701463603335
Bi 14.022080999288791 12.462658597640488 7.2457155141834155
Bi 15.649006306001244 12.4253836464308 21.20415825179838
Bi 9.788303982399663 13.15342708500902 13.208556980117871
Bi 11.328111193922608 9.974063215437651 16.63377557506504
Bi 15.390927617728963 14.67512620029615 19.191835602515145
Bi 8.408079574575002 17.003862289189907 11.710213188143237
Bi 12.875511332780091 13.493033050199909 20.337161028923088
Bi 15.514994089948381 9.922675694950525 19.393978247292303
Bi 12.569953215095913 10.609096192721374 19.359007777701606
