55
Energy = -199.25080126 eV
Bi 13.94371499176224 15.316920518735738 12.524404246193374
Bi 7.53612057576852 8.224654948867402 13.276017776536383
Bi 14.1135651808191 8.484318997094618 16.222167567587455
Bi 7.579815345199075 14.287489705594444 16.16518727500066
Bi 15.63376058656637 12.257707429211031 11.006830033584931
Bi 13.839817143247409 12.698416880075651 17.785446899221775
Bi 13.317590925563264 18.298177183961396 12.421349721993774
Bi 14.497360966514831 16.89914515706076 10.007644246394316
Bi 17.41081182871404 16.908801215384337 16.108610001569634
Bi 14.029706465010623 9.117422481720963 12.279968579897858
Bi 14.137853470758095 7.677633273392578 9.602717995342791
Bi 10.424493668551094 14.045302600984035 18.24057088860056
Bi 6.924215617417506 10.451559939676757 15.287509009514357
Bi 17.88575916924815 14.192584872505401 10.435388126565497
Bi 7.910291141424576 12.363669179819198 18.603193884206863
Bi 13.54882855524868 6.130489361891527 12.155801073037145
Bi 17.840469880619374 10.440358907552401 10.040492082623388
Bi 16.490692544786192 10.070056203995854 15.214022579565318
Bi 8.972989189543389 12.377744935504781 14.179799238262573
Bi 7.562304434828119 14.334871391253028 8.681881038846411
Bi 16.689443637819767 7.059739518050052 15.539352005138253
Bi 9.675274276154871 16.629594044478274 14.336025730785119
Bi 7.828728528749043 9.861649178969195 9.128694826360752
Bi 14.513510422660213 16.19797068313381 16.16791700951283
Bi 10.085186510343924 7.653851018861954 14.838771478326722
Bi 10.819097641604664 12.25192552714992 7.57438527825696
Bi 16.58901074312725 14.077367746620132 15.265728696871353
Bi 18.201573806073032 12.096361989266242 12.622653757114858
Bi 17.279892589318326 12.170078977097317 6.61150078429039
Bi 8.60756341857937 12.148969838682596 5.521000469587271
Bi 16.70902133193484 16.525712177248067 12.066839629454782
Bi 9.774145178521897 16.248223121182043 8.019746491212516
Bi 7.413123322710273 15.964335338445265 6.152883497412145
Bi 16.64167791434339 7.913494657176969 11.334176966355258
Bi 7.104464415185441 17.318644841182607 8.926600155182488
Bi 7.839753638153739 8.394538732116438 6.490835077624265
Bi 10.19672135997835 15.010076767893441 11.822780768858948
Bi 10.221717545672268 8.222382610405543 8.345124403004949
Bi 11.200720520820564 13.667231337938437 4.943701117350653
Bi 10.3263986196603 18.03605538382747 11.680227924947644
Bi 7.630812977131796 6.8571466800482685 9.13208681717824
Bi 11.218061465511866 10.630980912110088 5.065316692047615
Bi 10.20351801159991 9.350300539594134 12.33158562310242
Bi 14.810057348968293 13.717114955110231 7.3871279084597825
Bi 14.887160101133194 12.328996208996353 4.69018812295106
Bi 10.485515699752765 6.349179847265351 12.094754487014278
Bi 14.690893687368325 10.711864551203233 7.23904902484497
Bi 16.85970323271015 12.950847809386888 18.15211842064265
Bi 6.0737605207535665 13.153585092081432 13.75988892017816
Bi 10.308561790077757 11.147469475093105 17.163002090728238
Bi 16.197121125320194 15.896127779025335 18.729170947575952
Bi 7.384732200246488 15.941210971202215 12.412018186425536
Bi 12.382971531469003 13.17936515353866 20.418612004814076
Bi 16.534176762837 8.834293093426083 17.990689027463276
Bi 12.468253465284452 10.378475281078384 19.258930417548292
