  30  30   0   0
  0.3544167E+03  0.2198932E-08  0.2198932E-08  0.2198932E-08  0.1000000E-15
  1.000000000000000E-004
  CAR 
 unknown system                          
      1.69726538    -10.17943498  301     -3.47899652      1.00000000
    -10.179  0.0000E+00  0.0000E+00  0.0000E+00  0.0000E+00
    -10.140  0.0000E+00  0.0000E+00  0.0000E+00  0.0000E+00
    -10.100  0.0000E+00  0.0000E+00  0.0000E+00  0.0000E+00
    -10.061  0.0000E+00  0.0000E+00  0.0000E+00  0.0000E+00
    -10.021  0.0000E+00  0.0000E+00  0.0000E+00  0.0000E+00
     -9.981  0.0000E+00  0.0000E+00  0.0000E+00  0.0000E+00
     -9.942  0.0000E+00  0.0000E+00  0.0000E+00  0.0000E+00
     -9.902  0.0000E+00  0.0000E+00  0.0000E+00  0.0000E+00
     -9.863  0.0000E+00  0.0000E+00  0.0000E+00  0.0000E+00
     -9.823  0.0000E+00  0.0000E+00  0.0000E+00  0.0000E+00
     -9.784  0.0000E+00  0.0000E+00  0.0000E+00  0.0000E+00
     -9.744  0.0000E+00  0.0000E+00  0.0000E+00  0.0000E+00
     -9.704  0.0000E+00  0.0000E+00  0.0000E+00  0.0000E+00
     -9.665  0.0000E+00  0.0000E+00  0.0000E+00  0.0000E+00
     -9.625  0.0000E+00  0.0000E+00  0.1000E-02  0.0000E+00
     -9.586  0.0000E+00  0.0000E+00  0.1000E-02  0.1000E-02
     -9.546  0.0000E+00  0.0000E+00  0.1000E-02  0.1000E-02
     -9.506  0.0000E+00  0.0000E+00  0.1000E-02  0.1000E-02
     -9.467  0.0000E+00  0.0000E+00  0.1000E-02  0.1000E-02
     -9.427  0.0000E+00  0.0000E+00  0.1000E-02  0.1000E-02
     -9.388  0.0000E+00  0.0000E+00  0.1000E-02  0.1000E-02
     -9.348  0.0000E+00  0.0000E+00  0.1000E-02  0.1000E-02
     -9.308  0.0000E+00  0.0000E+00  0.1000E-02  0.1000E-02
     -9.269  0.0000E+00  0.0000E+00  0.1000E-02  0.1000E-02
     -9.229  0.0000E+00  0.0000E+00  0.1000E-02  0.1000E-02
     -9.190  0.0000E+00  0.0000E+00  0.2000E-02  0.1000E-02
     -9.150  0.0000E+00  0.0000E+00  0.3000E-02  0.2000E-02
     -9.111  0.0000E+00  0.0000E+00  0.3000E-02  0.3000E-02
     -9.071  0.0000E+00  0.2526E-01  0.4000E-02  0.4000E-02
     -9.031  0.0000E+00  0.0000E+00  0.6000E-02  0.5000E-02
     -8.992  0.0000E+00  0.0000E+00  0.8000E-02  0.7000E-02
     -8.952  0.0000E+00  0.0000E+00  0.9000E-02  0.8000E-02
     -8.913  0.0000E+00  0.0000E+00  0.9000E-02  0.9000E-02
     -8.873  0.0000E+00  0.0000E+00  0.1100E-01  0.1100E-01
     -8.833  0.0000E+00  0.0000E+00  0.1200E-01  0.1200E-01
     -8.794  0.0000E+00  0.0000E+00  0.1300E-01  0.1300E-01
     -8.754  0.0000E+00  0.0000E+00  0.1500E-01  0.1400E-01
     -8.715  0.0000E+00  0.0000E+00  0.1600E-01  0.1500E-01
     -8.675  0.0000E+00  0.0000E+00  0.1800E-01  0.1700E-01
     -8.635  0.0000E+00  0.0000E+00  0.2100E-01  0.1900E-01
     -8.596  0.0000E+00  0.0000E+00  0.2200E-01  0.2200E-01
     -8.556  0.0000E+00  0.0000E+00  0.2300E-01  0.2300E-01
     -8.517  0.0000E+00  0.0000E+00  0.2400E-01  0.2400E-01
     -8.477  0.0000E+00  0.0000E+00  0.2600E-01  0.2500E-01
     -8.438  0.0000E+00  0.0000E+00  0.2800E-01  0.2700E-01
     -8.398  0.0000E+00  0.0000E+00  0.3000E-01  0.2900E-01
     -8.358  0.2526E-01  0.0000E+00  0.3300E-01  0.3100E-01
     -8.319  0.0000E+00  0.0000E+00  0.3400E-01  0.3300E-01
     -8.279  0.0000E+00  0.0000E+00  0.3600E-01  0.3500E-01
     -8.240  0.0000E+00  0.0000E+00  0.3800E-01  0.3700E-01
     -8.200  0.0000E+00  0.0000E+00  0.3900E-01  0.3800E-01
     -8.160  0.0000E+00  0.0000E+00  0.4200E-01  0.4100E-01
     -8.121  0.0000E+00  0.0000E+00  0.4300E-01  0.4300E-01
     -8.081  0.0000E+00  0.0000E+00  0.4600E-01  0.4400E-01
     -8.042  0.2526E-01  0.0000E+00  0.4800E-01  0.4600E-01
     -8.002  0.2526E-01  0.0000E+00  0.5000E-01  0.4800E-01
     -7.962  0.0000E+00  0.1427E-01  0.5100E-01  0.5056E-01
     -7.923  0.0000E+00  0.0000E+00  0.5300E-01  0.5200E-01
     -7.883  0.0000E+00  0.0000E+00  0.5600E-01  0.5400E-01
     -7.844  0.0000E+00  0.0000E+00  0.5700E-01  0.5600E-01
     -7.804  0.0000E+00  0.0000E+00  0.5800E-01  0.5700E-01
     -7.765  0.0000E+00  0.0000E+00  0.6000E-01  0.6000E-01
     -7.725  0.2526E-01  0.0000E+00  0.6200E-01  0.6100E-01
     -7.685  0.0000E+00  0.0000E+00  0.6500E-01  0.6300E-01
     -7.646  0.0000E+00  0.0000E+00  0.6600E-01  0.6500E-01
     -7.606  0.0000E+00  0.0000E+00  0.6900E-01  0.6800E-01
     -7.567  0.0000E+00  0.0000E+00  0.7100E-01  0.7000E-01
     -7.527  0.3613E-06  0.0000E+00  0.7200E-01  0.7100E-01
     -7.487  0.2526E-01  0.0000E+00  0.7400E-01  0.7300E-01
     -7.448  0.0000E+00  0.2526E-01  0.7500E-01  0.7500E-01
     -7.408  0.0000E+00  0.0000E+00  0.7700E-01  0.7600E-01
     -7.369  0.0000E+00  0.0000E+00  0.7900E-01  0.7800E-01
     -7.329  0.0000E+00  0.0000E+00  0.8000E-01  0.8000E-01
     -7.289  0.0000E+00  0.0000E+00  0.8200E-01  0.8100E-01
     -7.250  0.0000E+00  0.0000E+00  0.8400E-01  0.8400E-01
     -7.210  0.0000E+00  0.0000E+00  0.8800E-01  0.8600E-01
     -7.171  0.0000E+00  0.0000E+00  0.9000E-01  0.8900E-01
     -7.131  0.0000E+00  0.0000E+00  0.9200E-01  0.9200E-01
     -7.091  0.0000E+00  0.0000E+00  0.9500E-01  0.9400E-01
     -7.052  0.0000E+00  0.0000E+00  0.9700E-01  0.9700E-01
     -7.012  0.0000E+00  0.0000E+00  0.1000E+00  0.9800E-01
     -6.973  0.0000E+00  0.0000E+00  0.1020E+00  0.1010E+00
     -6.933  0.0000E+00  0.0000E+00  0.1060E+00  0.1040E+00
     -6.894  0.0000E+00  0.0000E+00  0.1100E+00  0.1090E+00
     -6.854  0.0000E+00  0.1614E-01  0.1130E+00  0.1116E+00
     -6.814  0.0000E+00  0.0000E+00  0.1160E+00  0.1150E+00
     -6.775  0.0000E+00  0.0000E+00  0.1190E+00  0.1170E+00
     -6.735  0.0000E+00  0.0000E+00  0.1210E+00  0.1200E+00
     -6.696  0.0000E+00  0.0000E+00  0.1240E+00  0.1230E+00
     -6.656  0.0000E+00  0.0000E+00  0.1260E+00  0.1260E+00
     -6.616  0.0000E+00  0.0000E+00  0.1300E+00  0.1290E+00
     -6.577  0.0000E+00  0.0000E+00  0.1330E+00  0.1320E+00
     -6.537  0.0000E+00  0.0000E+00  0.1360E+00  0.1350E+00
     -6.498  0.0000E+00  0.4500E-13  0.1390E+00  0.1370E+00
     -6.458  0.0000E+00  0.2939E-02  0.1410E+00  0.1401E+00
     -6.418  0.2526E-01  0.0000E+00  0.1440E+00  0.1430E+00
     -6.379  0.0000E+00  0.0000E+00  0.1460E+00  0.1450E+00
     -6.339  0.0000E+00  0.0000E+00  0.1480E+00  0.1460E+00
     -6.300  0.2526E-01  0.0000E+00  0.1520E+00  0.1490E+00
     -6.260  0.0000E+00  0.0000E+00  0.1520E+00  0.1520E+00
     -6.221  0.0000E+00  0.0000E+00  0.1540E+00  0.1530E+00
     -6.181  0.0000E+00  0.0000E+00  0.1540E+00  0.1540E+00
     -6.141  0.0000E+00  0.0000E+00  0.1540E+00  0.1540E+00
     -6.102  0.0000E+00  0.0000E+00  0.1540E+00  0.1540E+00
     -6.062  0.0000E+00  0.0000E+00  0.1540E+00  0.1540E+00
     -6.023  0.0000E+00  0.0000E+00  0.1540E+00  0.1540E+00
     -5.983  0.0000E+00  0.0000E+00  0.1540E+00  0.1540E+00
     -5.943  0.0000E+00  0.0000E+00  0.1550E+00  0.1540E+00
     -5.904  0.0000E+00  0.0000E+00  0.1550E+00  0.1550E+00
     -5.864  0.0000E+00  0.0000E+00  0.1550E+00  0.1550E+00
     -5.825  0.0000E+00  0.0000E+00  0.1550E+00  0.1550E+00
     -5.785  0.0000E+00  0.0000E+00  0.1560E+00  0.1550E+00
     -5.745  0.0000E+00  0.0000E+00  0.1560E+00  0.1560E+00
     -5.706  0.0000E+00  0.0000E+00  0.1560E+00  0.1560E+00
     -5.666  0.0000E+00  0.0000E+00  0.1570E+00  0.1560E+00
     -5.627  0.0000E+00  0.0000E+00  0.1570E+00  0.1560E+00
     -5.587  0.0000E+00  0.0000E+00  0.1570E+00  0.1570E+00
     -5.548  0.0000E+00  0.0000E+00  0.1570E+00  0.1570E+00
     -5.508  0.0000E+00  0.0000E+00  0.1570E+00  0.1570E+00
     -5.468  0.0000E+00  0.0000E+00  0.1570E+00  0.1570E+00
     -5.429  0.0000E+00  0.0000E+00  0.1570E+00  0.1570E+00
     -5.389  0.0000E+00  0.0000E+00  0.1570E+00  0.1570E+00
     -5.350  0.0000E+00  0.0000E+00  0.1570E+00  0.1570E+00
     -5.310  0.0000E+00  0.0000E+00  0.1570E+00  0.1570E+00
     -5.270  0.0000E+00  0.0000E+00  0.1570E+00  0.1570E+00
     -5.231  0.0000E+00  0.0000E+00  0.1570E+00  0.1570E+00
     -5.191  0.0000E+00  0.0000E+00  0.1570E+00  0.1570E+00
     -5.152  0.0000E+00  0.0000E+00  0.1570E+00  0.1570E+00
     -5.112  0.0000E+00  0.0000E+00  0.1570E+00  0.1570E+00
     -5.072  0.0000E+00  0.0000E+00  0.1580E+00  0.1570E+00
     -5.033  0.0000E+00  0.0000E+00  0.1580E+00  0.1580E+00
     -4.993  0.0000E+00  0.0000E+00  0.1580E+00  0.1580E+00
     -4.954  0.0000E+00  0.0000E+00  0.1580E+00  0.1580E+00
     -4.914  0.0000E+00  0.0000E+00  0.1580E+00  0.1580E+00
     -4.875  0.0000E+00  0.0000E+00  0.1580E+00  0.1580E+00
     -4.835  0.0000E+00  0.0000E+00  0.1580E+00  0.1580E+00
     -4.795  0.0000E+00  0.0000E+00  0.1580E+00  0.1580E+00
     -4.756  0.0000E+00  0.0000E+00  0.1580E+00  0.1580E+00
     -4.716  0.0000E+00  0.0000E+00  0.1580E+00  0.1580E+00
     -4.677  0.0000E+00  0.0000E+00  0.1590E+00  0.1580E+00
     -4.637  0.0000E+00  0.0000E+00  0.1590E+00  0.1580E+00
     -4.597  0.0000E+00  0.0000E+00  0.1600E+00  0.1590E+00
     -4.558  0.0000E+00  0.0000E+00  0.1600E+00  0.1590E+00
     -4.518  0.0000E+00  0.0000E+00  0.1600E+00  0.1600E+00
     -4.479  0.0000E+00  0.0000E+00  0.1600E+00  0.1600E+00
     -4.439  0.0000E+00  0.0000E+00  0.1610E+00  0.1600E+00
     -4.399  0.0000E+00  0.0000E+00  0.1610E+00  0.1610E+00
     -4.360  0.0000E+00  0.0000E+00  0.1610E+00  0.1610E+00
     -4.320  0.0000E+00  0.0000E+00  0.1610E+00  0.1610E+00
     -4.281  0.0000E+00  0.0000E+00  0.1620E+00  0.1610E+00
     -4.241  0.0000E+00  0.0000E+00  0.1620E+00  0.1620E+00
     -4.201  0.0000E+00  0.0000E+00  0.1620E+00  0.1620E+00
     -4.162  0.0000E+00  0.0000E+00  0.1620E+00  0.1620E+00
     -4.122  0.0000E+00  0.0000E+00  0.1630E+00  0.1620E+00
     -4.083  0.0000E+00  0.0000E+00  0.1630E+00  0.1630E+00
     -4.043  0.0000E+00  0.0000E+00  0.1630E+00  0.1630E+00
     -4.004  0.0000E+00  0.0000E+00  0.1630E+00  0.1630E+00
     -3.964  0.0000E+00  0.0000E+00  0.1630E+00  0.1630E+00
     -3.924  0.0000E+00  0.0000E+00  0.1630E+00  0.1630E+00
     -3.885  0.0000E+00  0.0000E+00  0.1630E+00  0.1630E+00
     -3.845  0.0000E+00  0.0000E+00  0.1630E+00  0.1630E+00
     -3.806  0.0000E+00  0.0000E+00  0.1630E+00  0.1630E+00
     -3.766  0.0000E+00  0.0000E+00  0.1630E+00  0.1630E+00
     -3.726  0.0000E+00  0.0000E+00  0.1640E+00  0.1630E+00
     -3.687  0.0000E+00  0.0000E+00  0.1640E+00  0.1640E+00
     -3.647  0.0000E+00  0.0000E+00  0.1640E+00  0.1640E+00
     -3.608  0.0000E+00  0.0000E+00  0.1640E+00  0.1640E+00
     -3.568  0.0000E+00  0.0000E+00  0.1650E+00  0.1640E+00
     -3.528  0.0000E+00  0.0000E+00  0.1650E+00  0.1640E+00
     -3.489  0.0000E+00  0.0000E+00  0.1660E+00  0.1640E+00
     -3.449  0.0000E+00  0.0000E+00  0.1660E+00  0.1650E+00
     -3.410  0.0000E+00  0.0000E+00  0.1660E+00  0.1650E+00
     -3.370  0.0000E+00  0.0000E+00  0.1660E+00  0.1650E+00
     -3.331  0.0000E+00  0.0000E+00  0.1660E+00  0.1660E+00
     -3.291  0.0000E+00  0.0000E+00  0.1660E+00  0.1660E+00
     -3.251  0.0000E+00  0.0000E+00  0.1660E+00  0.1660E+00
     -3.212  0.0000E+00  0.0000E+00  0.1660E+00  0.1660E+00
     -3.172  0.0000E+00  0.0000E+00  0.1660E+00  0.1660E+00
     -3.133  0.0000E+00  0.0000E+00  0.1660E+00  0.1660E+00
     -3.093  0.0000E+00  0.0000E+00  0.1660E+00  0.1660E+00
     -3.053  0.0000E+00  0.0000E+00  0.1660E+00  0.1660E+00
     -3.014  0.0000E+00  0.0000E+00  0.1660E+00  0.1660E+00
     -2.974  0.0000E+00  0.0000E+00  0.1660E+00  0.1660E+00
     -2.935  0.0000E+00  0.0000E+00  0.1670E+00  0.1660E+00
     -2.895  0.0000E+00  0.2526E-01  0.1670E+00  0.1670E+00
     -2.855  0.0000E+00  0.0000E+00  0.1670E+00  0.1670E+00
     -2.816  0.0000E+00  0.0000E+00  0.1670E+00  0.1670E+00
     -2.776  0.0000E+00  0.0000E+00  0.1680E+00  0.1670E+00
     -2.737  0.0000E+00  0.0000E+00  0.1680E+00  0.1680E+00
     -2.697  0.0000E+00  0.0000E+00  0.1690E+00  0.1680E+00
     -2.658  0.0000E+00  0.0000E+00  0.1690E+00  0.1680E+00
     -2.618  0.0000E+00  0.0000E+00  0.1690E+00  0.1690E+00
     -2.578  0.0000E+00  0.0000E+00  0.1700E+00  0.1690E+00
     -2.539  0.0000E+00  0.0000E+00  0.1700E+00  0.1700E+00
     -2.499  0.0000E+00  0.0000E+00  0.1710E+00  0.1700E+00
     -2.460  0.0000E+00  0.0000E+00  0.1720E+00  0.1700E+00
     -2.420  0.0000E+00  0.0000E+00  0.1720E+00  0.1720E+00
     -2.380  0.0000E+00  0.0000E+00  0.1720E+00  0.1720E+00
     -2.341  0.0000E+00  0.0000E+00  0.1720E+00  0.1720E+00
     -2.301  0.0000E+00  0.0000E+00  0.1720E+00  0.1720E+00
     -2.262  0.0000E+00  0.0000E+00  0.1730E+00  0.1720E+00
     -2.222  0.0000E+00  0.0000E+00  0.1740E+00  0.1720E+00
     -2.182  0.0000E+00  0.0000E+00  0.1740E+00  0.1730E+00
     -2.143  0.0000E+00  0.0000E+00  0.1750E+00  0.1740E+00
     -2.103  0.0000E+00  0.0000E+00  0.1750E+00  0.1740E+00
     -2.064  0.0000E+00  0.0000E+00  0.1750E+00  0.1750E+00
     -2.024  0.0000E+00  0.0000E+00  0.1760E+00  0.1750E+00
     -1.985  0.0000E+00  0.2526E-01  0.1760E+00  0.1760E+00
     -1.945  0.0000E+00  0.0000E+00  0.1760E+00  0.1760E+00
     -1.905  0.0000E+00  0.0000E+00  0.1760E+00  0.1760E+00
     -1.866  0.0000E+00  0.0000E+00  0.1760E+00  0.1760E+00
     -1.826  0.0000E+00  0.0000E+00  0.1760E+00  0.1760E+00
     -1.787  0.0000E+00  0.0000E+00  0.1760E+00  0.1760E+00
     -1.747  0.0000E+00  0.0000E+00  0.1760E+00  0.1760E+00
     -1.707  0.0000E+00  0.0000E+00  0.1760E+00  0.1760E+00
     -1.668  0.0000E+00  0.0000E+00  0.1770E+00  0.1760E+00
     -1.628  0.0000E+00  0.0000E+00  0.1770E+00  0.1760E+00
     -1.589  0.0000E+00  0.0000E+00  0.1770E+00  0.1770E+00
     -1.549  0.0000E+00  0.0000E+00  0.1770E+00  0.1770E+00
     -1.509  0.0000E+00  0.0000E+00  0.1770E+00  0.1770E+00
     -1.470  0.0000E+00  0.0000E+00  0.1780E+00  0.1770E+00
     -1.430  0.0000E+00  0.0000E+00  0.1780E+00  0.1770E+00
     -1.391  0.0000E+00  0.0000E+00  0.1780E+00  0.1770E+00
     -1.351  0.0000E+00  0.0000E+00  0.1790E+00  0.1780E+00
     -1.311  0.0000E+00  0.0000E+00  0.1790E+00  0.1780E+00
     -1.272  0.0000E+00  0.0000E+00  0.1790E+00  0.1780E+00
     -1.232  0.0000E+00  0.0000E+00  0.1800E+00  0.1790E+00
     -1.193  0.0000E+00  0.0000E+00  0.1800E+00  0.1790E+00
     -1.153  0.0000E+00  0.0000E+00  0.1800E+00  0.1800E+00
     -1.114  0.0000E+00  0.0000E+00  0.1800E+00  0.1800E+00
     -1.074  0.0000E+00  0.0000E+00  0.1800E+00  0.1800E+00
     -1.034  0.0000E+00  0.0000E+00  0.1810E+00  0.1800E+00
     -0.995  0.0000E+00  0.0000E+00  0.1810E+00  0.1800E+00
     -0.955  0.0000E+00  0.0000E+00  0.1820E+00  0.1810E+00
     -0.916  0.0000E+00  0.0000E+00  0.1830E+00  0.1820E+00
     -0.876  0.0000E+00  0.0000E+00  0.1830E+00  0.1820E+00
     -0.836  0.0000E+00  0.0000E+00  0.1830E+00  0.1830E+00
     -0.797  0.0000E+00  0.0000E+00  0.1840E+00  0.1830E+00
     -0.757  0.0000E+00  0.0000E+00  0.1840E+00  0.1830E+00
     -0.718  0.0000E+00  0.0000E+00  0.1850E+00  0.1840E+00
     -0.678  0.0000E+00  0.0000E+00  0.1850E+00  0.1840E+00
     -0.638  0.0000E+00  0.0000E+00  0.1860E+00  0.1850E+00
     -0.599  0.0000E+00  0.0000E+00  0.1860E+00  0.1850E+00
     -0.559  0.0000E+00  0.0000E+00  0.1870E+00  0.1860E+00
     -0.520  0.0000E+00  0.0000E+00  0.1870E+00  0.1860E+00
     -0.480  0.0000E+00  0.0000E+00  0.1880E+00  0.1870E+00
     -0.441  0.0000E+00  0.0000E+00  0.1880E+00  0.1870E+00
     -0.401  0.0000E+00  0.0000E+00  0.1880E+00  0.1880E+00
     -0.361  0.0000E+00  0.0000E+00  0.1890E+00  0.1880E+00
     -0.322  0.0000E+00  0.0000E+00  0.1890E+00  0.1880E+00
     -0.282  0.0000E+00  0.0000E+00  0.1890E+00  0.1890E+00
     -0.243  0.0000E+00  0.0000E+00  0.1900E+00  0.1890E+00
     -0.203  0.0000E+00  0.0000E+00  0.1910E+00  0.1890E+00
     -0.163  0.0000E+00  0.0000E+00  0.1910E+00  0.1910E+00
     -0.124  0.0000E+00  0.0000E+00  0.1920E+00  0.1910E+00
     -0.084  0.0000E+00  0.0000E+00  0.1930E+00  0.1920E+00
     -0.045  0.0000E+00  0.0000E+00  0.1930E+00  0.1920E+00
     -0.005  0.0000E+00  0.0000E+00  0.1930E+00  0.1930E+00
      0.035  0.0000E+00  0.0000E+00  0.1940E+00  0.1930E+00
      0.074  0.0000E+00  0.0000E+00  0.1940E+00  0.1940E+00
      0.114  0.0000E+00  0.0000E+00  0.1940E+00  0.1940E+00
      0.153  0.0000E+00  0.0000E+00  0.1940E+00  0.1940E+00
      0.193  0.0000E+00  0.0000E+00  0.1940E+00  0.1940E+00
      0.232  0.0000E+00  0.0000E+00  0.1950E+00  0.1940E+00
      0.272  0.0000E+00  0.0000E+00  0.1950E+00  0.1940E+00
      0.312  0.0000E+00  0.0000E+00  0.1950E+00  0.1950E+00
      0.351  0.0000E+00  0.0000E+00  0.1950E+00  0.1950E+00
      0.391  0.0000E+00  0.0000E+00  0.1960E+00  0.1950E+00
      0.430  0.0000E+00  0.0000E+00  0.1960E+00  0.1960E+00
      0.470  0.0000E+00  0.0000E+00  0.1960E+00  0.1960E+00
      0.510  0.0000E+00  0.0000E+00  0.1970E+00  0.1960E+00
      0.549  0.0000E+00  0.0000E+00  0.1970E+00  0.1970E+00
      0.589  0.0000E+00  0.0000E+00  0.1980E+00  0.1970E+00
      0.628  0.0000E+00  0.0000E+00  0.1980E+00  0.1980E+00
      0.668  0.0000E+00  0.0000E+00  0.1980E+00  0.1980E+00
      0.708  0.0000E+00  0.0000E+00  0.1990E+00  0.1990E+00
      0.747  0.0000E+00  0.0000E+00  0.2020E+00  0.2000E+00
      0.787  0.0000E+00  0.0000E+00  0.2030E+00  0.2020E+00
      0.826  0.0000E+00  0.3023E-08  0.2040E+00  0.2020E+00
      0.866  0.0000E+00  0.0000E+00  0.2040E+00  0.2040E+00
      0.905  0.0000E+00  0.0000E+00  0.2060E+00  0.2050E+00
      0.945  0.0000E+00  0.0000E+00  0.2060E+00  0.2060E+00
      0.985  0.0000E+00  0.0000E+00  0.2080E+00  0.2070E+00
      1.024  0.0000E+00  0.0000E+00  0.2100E+00  0.2090E+00
      1.064  0.0000E+00  0.0000E+00  0.2120E+00  0.2110E+00
      1.103  0.0000E+00  0.0000E+00  0.2150E+00  0.2130E+00
      1.143  0.0000E+00  0.0000E+00  0.2150E+00  0.2150E+00
      1.183  0.0000E+00  0.0000E+00  0.2160E+00  0.2160E+00
      1.222  0.0000E+00  0.0000E+00  0.2160E+00  0.2160E+00
      1.262  0.0000E+00  0.0000E+00  0.2160E+00  0.2160E+00
      1.301  0.0000E+00  0.0000E+00  0.2160E+00  0.2160E+00
      1.341  0.0000E+00  0.0000E+00  0.2160E+00  0.2160E+00
      1.381  0.0000E+00  0.0000E+00  0.2160E+00  0.2160E+00
      1.420  0.0000E+00  0.0000E+00  0.2160E+00  0.2160E+00
      1.460  0.0000E+00  0.0000E+00  0.2160E+00  0.2160E+00
      1.499  0.0000E+00  0.0000E+00  0.2160E+00  0.2160E+00
      1.539  0.0000E+00  0.0000E+00  0.2160E+00  0.2160E+00
      1.578  0.0000E+00  0.0000E+00  0.2160E+00  0.2160E+00
      1.618  0.0000E+00  0.0000E+00  0.2160E+00  0.2160E+00
      1.658  0.0000E+00  0.0000E+00  0.2160E+00  0.2160E+00
      1.697  0.0000E+00  0.0000E+00  0.2160E+00  0.2160E+00
