<?xml version="1.0" encoding="ISO-8859-1"?>
<modeling>
 <generator>
  <i name="program" type="string">vasp </i>
  <i name="version" type="string">5.3.5  </i>
  <i name="subversion" type="string">31Mar14 (build Feb 01 2018 12:10:03) gamma-only                       parallel </i>
  <i name="platform" type="string">LinuxIFC </i>
  <i name="date" type="string">2019 03 22 </i>
  <i name="time" type="string">10:28:03 </i>
 </generator>
 <incar>
  <i type="string" name="PREC">normal</i>
  <i type="int" name="ISPIN">     2</i>
  <i type="int" name="IBRION">     2</i>
  <i type="int" name="NSW">  1000</i>
  <i type="int" name="ISIF">     2</i>
  <i name="POTIM">      0.10000000</i>
  <i type="logical" name="LPLANE"> T  </i>
  <i type="int" name="ISMEAR">     0</i>
  <i name="SIGMA">      0.00010000</i>
  <i type="logical" name="LWAVE"> F  </i>
  <i type="logical" name="LCHARG"> F  </i>
  <i type="logical" name="LVTOT"> F  </i>
  <i type="string" name="GGA"> PE</i>
 </incar>
 <kpoints>
  <varray name="kpointlist" >
   <v>       0.00000000       0.00000000       0.00000000 </v>
  </varray>
  <varray name="weights" >
   <v>       1.00000000 </v>
  </varray>
 </kpoints>
 <parameters>
  <separator name="general" >
   <i type="string" name="SYSTEM">unknown system</i>
   <i type="logical" name="LCOMPAT"> F  </i>
  </separator>
  <separator name="electronic" >
   <i type="string" name="PREC">normal</i>
   <i name="ENMAX">    249.84400000</i>
   <i name="ENAUG">    412.49600000</i>
   <i name="EDIFF">      0.00010000</i>
   <i type="int" name="IALGO">    38</i>
   <i type="int" name="IWAVPR">    11</i>
   <i type="int" name="NBANDS">   216</i>
   <i name="NELECT">    330.00000000</i>
   <i type="int" name="TURBO">     0</i>
   <i type="int" name="IRESTART">     0</i>
   <i type="int" name="NREBOOT">     0</i>
   <i type="int" name="NMIN">     0</i>
   <i name="EREF">      0.00000000</i>
   <separator name="electronic smearing" >
    <i type="int" name="ISMEAR">     0</i>
    <i name="SIGMA">      0.00010000</i>
    <i name="KSPACING">      0.50000000</i>
    <i type="logical" name="KGAMMA"> T  </i>
   </separator>
   <separator name="electronic projectors" >
    <i type="logical" name="LREAL"> F  </i>
    <v name="ROPT">      0.00000000</v>
    <i type="int" name="LMAXPAW">  -100</i>
    <i type="int" name="LMAXMIX">     2</i>
    <i type="logical" name="NLSPLINE"> F  </i>
   </separator>
   <separator name="electronic startup" >
    <i type="int" name="ISTART">     0</i>
    <i type="int" name="ICHARG">     2</i>
    <i type="int" name="INIWAV">     1</i>
   </separator>
   <separator name="electronic spin" >
    <i type="int" name="ISPIN">     2</i>
    <i type="logical" name="LNONCOLLINEAR"> F  </i>
    <v name="MAGMOM">      1.00000000      1.00000000      1.00000000      1.00000000      1.00000000      1.00000000      1.00000000      1.00000000      1.00000000      1.00000000      1.00000000      1.00000000      1.00000000      1.00000000      1.00000000      1.00000000      1.00000000      1.00000000      1.00000000      1.00000000
      1.00000000      1.00000000      1.00000000      1.00000000      1.00000000      1.00000000      1.00000000      1.00000000      1.00000000      1.00000000</v>
    <i name="NUPDOWN">     -1.00000000</i>
    <i type="logical" name="LSORBIT"> F  </i>
    <v name="SAXIS">      0.00000000      0.00000000      1.00000000</v>
    <i type="logical" name="LSPIRAL"> F  </i>
    <v name="QSPIRAL">      0.00000000      0.00000000      0.00000000</v>
    <i type="logical" name="LZEROZ"> F  </i>
   </separator>
   <separator name="electronic exchange-correlation" >
    <i type="logical" name="LASPH"> F  </i>
    <i type="logical" name="LMETAGGA"> F  </i>
   </separator>
   <separator name="electronic convergence" >
    <i type="int" name="NELM">    60</i>
    <i type="int" name="NELMDL">    -5</i>
    <i type="int" name="NELMIN">     2</i>
    <i name="ENINI">    249.84400000</i>
    <separator name="electronic convergence detail" >
     <i type="logical" name="LDIAG"> T  </i>
     <i type="logical" name="LSUBROT"> F  </i>
     <i name="WEIMIN">      0.00100000</i>
     <i name="EBREAK">      0.00000012</i>
     <i name="DEPER">      0.30000000</i>
     <i type="int" name="NRMM">     4</i>
     <i name="TIME">      0.40000000</i>
    </separator>
   </separator>
   <separator name="electronic mixer" >
    <i name="AMIX">      0.40000000</i>
    <i name="BMIX">      1.00000000</i>
    <i name="AMIN">      0.10000000</i>
    <i name="AMIX_MAG">      1.60000000</i>
    <i name="BMIX_MAG">      1.00000000</i>
    <separator name="electronic mixer details" >
     <i type="int" name="IMIX">     4</i>
     <i type="int" name="MAXMIX">   -45</i>
     <i name="WC">    100.00000000</i>
     <i type="int" name="INIMIX">     1</i>
     <i type="int" name="MIXPRE">     1</i>
     <i type="int" name="MREMOVE">     5</i>
    </separator>
   </separator>
   <separator name="electronic dipolcorrection" >
    <i type="logical" name="LDIPOL"> F  </i>
    <i type="logical" name="LMONO"> F  </i>
    <i type="int" name="IDIPOL">     0</i>
    <i name="EPSILON">      1.00000000</i>
    <v name="DIPOL">   -100.00000000   -100.00000000   -100.00000000</v>
    <i name="EFIELD">      0.00000000</i>
   </separator>
  </separator>
  <separator name="grids" >
   <i type="int" name="NGX">    84</i>
   <i type="int" name="NGY">    84</i>
   <i type="int" name="NGZ">    84</i>
   <i type="int" name="NGXF">   168</i>
   <i type="int" name="NGYF">   168</i>
   <i type="int" name="NGZF">   168</i>
   <i type="logical" name="ADDGRID"> F  </i>
  </separator>
  <separator name="ionic" >
   <i type="int" name="NSW">  1000</i>
   <i type="int" name="IBRION">     2</i>
   <i type="int" name="ISIF">     2</i>
   <i name="PSTRESS">      0.00000000</i>
   <i name="EDIFFG">      0.00100000</i>
   <i type="int" name="NFREE">     1</i>
   <i name="POTIM">      0.10000000</i>
   <i name="SMASS">     -3.00000000</i>
   <i name="SCALEE">      1.00000000</i>
  </separator>
  <separator name="ionic md" >
   <i name="TEBEG">      0.00010000</i>
   <i name="TEEND">      0.00010000</i>
   <i type="int" name="NBLOCK">     1</i>
   <i type="int" name="KBLOCK">  1000</i>
   <i type="int" name="NPACO">   256</i>
   <i name="APACO">     16.00000000</i>
  </separator>
  <separator name="symmetry" >
   <i type="int" name="ISYM">     2</i>
   <i name="SYMPREC">      0.00001000</i>
  </separator>
  <separator name="dos" >
   <i type="logical" name="LORBIT"> F  </i>
   <v name="RWIGS">     -1.00000000</v>
   <i type="int" name="NEDOS">   301</i>
   <i name="EMIN">     10.00000000</i>
   <i name="EMAX">    -10.00000000</i>
   <i name="EFERMI">      0.00000000</i>
  </separator>
  <separator name="writing" >
   <i type="int" name="NWRITE">     2</i>
   <i type="logical" name="LWAVE"> F  </i>
   <i type="logical" name="LCHARG"> F  </i>
   <i type="logical" name="LPARD"> F  </i>
   <i type="logical" name="LVTOT"> F  </i>
   <i type="logical" name="LVHAR"> F  </i>
   <i type="logical" name="LELF"> F  </i>
   <i type="logical" name="LOPTICS"> F  </i>
   <v name="STM">      0.00000000      0.00000000      0.00000000      0.00000000      0.00000000      0.00000000      0.00000000</v>
  </separator>
  <separator name="performance" >
   <i type="int" name="NPAR">     4</i>
   <i type="int" name="NSIM">     4</i>
   <i type="int" name="NBLK">    -1</i>
   <i type="logical" name="LPLANE"> T  </i>
   <i type="logical" name="LSCALAPACK"> T  </i>
   <i type="logical" name="LSCAAWARE"> F  </i>
   <i type="logical" name="LSCALU"> F  </i>
   <i type="logical" name="LASYNC"> F  </i>
   <i type="logical" name="LORBITALREAL"> F  </i>
  </separator>
  <separator name="miscellaneous" >
   <i type="int" name="IDIOT">     3</i>
   <i type="logical" name="LMUSIC"> F  </i>
   <v name="POMASS">    107.86800000</v>
   <v name="DARWINR">      0.00000000</v>
   <v name="DARWINV">      1.00000000</v>
   <i type="logical" name="LCORR"> T  </i>
  </separator>
  <i type="logical" name="GGA_COMPAT"> T  </i>
  <i type="logical" name="LBERRY"> F  </i>
  <i type="int" name="ICORELEVEL">     0</i>
  <i type="logical" name="LDAU"> F  </i>
  <i type="int" name="I_CONSTRAINED_M">     0</i>
  <separator name="electronic exchange-correlation" >
   <i type="string" name="GGA">PE</i>
   <i type="int" name="VOSKOWN">     0</i>
   <i type="logical" name="LHFCALC"> F  </i>
   <i type="string" name="PRECFOCK"></i>
   <i type="logical" name="LSYMGRAD"> F  </i>
   <i type="logical" name="LHFONE"> F  </i>
   <i type="logical" name="LRHFCALC"> F  </i>
   <i type="logical" name="LTHOMAS"> F  </i>
   <i type="logical" name="LMODELHF"> F  </i>
   <i name="ENCUT4O">     -1.00000000</i>
   <i type="int" name="EXXOEP">     0</i>
   <i type="int" name="FOURORBIT">     0</i>
   <i name="AEXX">      0.00000000</i>
   <i name="HFALPHA">      0.00000000</i>
   <i name="MCALPHA">      0.00000000</i>
   <i name="ALDAX">      1.00000000</i>
   <i name="AGGAX">      1.00000000</i>
   <i name="ALDAC">      1.00000000</i>
   <i name="AGGAC">      1.00000000</i>
   <i type="int" name="NKREDX">     1</i>
   <i type="int" name="NKREDY">     1</i>
   <i type="int" name="NKREDZ">     1</i>
   <i type="logical" name="SHIFTRED"> F  </i>
   <i type="logical" name="ODDONLY"> F  </i>
   <i type="logical" name="EVENONLY"> F  </i>
   <i type="int" name="LMAXFOCK">     0</i>
   <i type="int" name="NMAXFOCKAE">     0</i>
   <i type="logical" name="LFOCKAEDFT"> F  </i>
   <i name="HFSCREEN">      0.00000000</i>
   <i name="HFSCREENC">      0.00000000</i>
   <i type="int" name="NBANDSGWLOW">     0</i>
  </separator>
  <separator name="vdW DFT" >
   <i type="logical" name="LUSE_VDW"> F  </i>
   <i name="Zab_VDW">     -0.84910000</i>
   <i name="PARAM1">      0.12340000</i>
   <i name="PARAM2">      1.00000000</i>
   <i name="PARAM3">      0.00000000</i>
  </separator>
  <separator name="model GW" >
   <i type="int" name="MODEL_GW">     0</i>
   <i name="MODEL_EPS0">    194.05281542</i>
   <i name="MODEL_ALPHA">      1.00000000</i>
  </separator>
  <separator name="linear response parameters" >
   <i type="logical" name="LEPSILON"> F  </i>
   <i type="logical" name="LRPA"> F  </i>
   <i type="logical" name="LNABLA"> F  </i>
   <i type="logical" name="LVEL"> F  </i>
   <i type="int" name="KINTER">     0</i>
   <i name="CSHIFT">      0.10000000</i>
   <i name="OMEGAMAX">     -1.00000000</i>
   <i name="DEG_THRESHOLD">      0.00200000</i>
  </separator>
  <separator name="orbital magnetization" >
   <i type="logical" name="NUCIND"> F  </i>
   <v name="MAGPOS">      0.00000000      0.00000000      0.00000000</v>
   <i type="logical" name="LNICSALL"> T  </i>
   <i type="logical" name="ORBITALMAG"> F  </i>
   <i type="logical" name="LMAGBLOCH"> F  </i>
   <i type="logical" name="LCHIMAG"> F  </i>
   <i type="logical" name="LGAUGE"> T  </i>
   <i type="int" name="MAGATOM">     0</i>
   <v name="MAGDIPOL">      0.00000000      0.00000000      0.00000000</v>
   <v name="AVECCONST">      0.00000000      0.00000000      0.00000000</v>
  </separator>
  <separator name="response functions" >
   <i type="logical" name="LADDER"> F  </i>
   <i type="logical" name="LFXC"> F  </i>
   <i type="logical" name="LHARTREE"> T  </i>
   <i type="int" name="IBSE">     0</i>
   <i type="logical" name="LTCTE"> F  </i>
   <i type="logical" name="LTETE"> F  </i>
   <i type="logical" name="LTRIPLET"> F  </i>
   <i type="logical" name="LFXCEPS"> F  </i>
   <i type="logical" name="LFXHEG"> F  </i>
   <i type="logical" name="L2ORDER"> F  </i>
   <i type="logical" name="LUSEW"> F  </i>
   <i name="ENCUTGW">     -2.00000000</i>
   <i name="ENCUTGWSOFT">     -2.00000000</i>
   <i name="ENCUTLF">     -1.00000000</i>
   <i type="int" name="LMAXMP2">    -1</i>
   <i name="SCISSOR">      0.00000000</i>
   <i type="int" name="NOMEGA">     0</i>
   <i type="int" name="NOMEGAR">     0</i>
   <i type="int" name="NBANDSGW">    -1</i>
   <i type="int" name="NBANDSO">    -1</i>
   <i type="int" name="NBANDSV">    -1</i>
   <i type="int" name="NELM">     1</i>
   <i type="int" name="DIM">     3</i>
   <i type="int" name="ANTIRES">     0</i>
   <i name="OMEGAMAX">    -30.00000000</i>
   <i name="OMEGAMIN">    -30.00000000</i>
   <i name="OMEGATL">   -200.00000000</i>
   <i type="int" name="OMEGAGRID">     0</i>
   <i name="CSHIFT">     -0.10000000</i>
   <i type="logical" name="SELFENERGY"> F  </i>
   <i type="logical" name="LSPECTRAL"> F  </i>
   <i type="logical" name="ODDONLYGW"> F  </i>
   <i type="logical" name="EVENONLYGW"> F  </i>
   <i type="int" name="NKREDLFX">     1</i>
   <i type="int" name="NKREDLFY">     1</i>
   <i type="int" name="NKREDLFZ">     1</i>
   <i type="int" name="MAXMEM">  1800</i>
   <i type="int" name="TELESCOPE">     0</i>
   <i type="int" name="TAUPAR">     1</i>
  </separator>
  <separator name="External order field" >
   <i name="OFIELD_KAPPA">      0.00000000</i>
   <v name="OFIELD_K">      0.00000000      0.00000000      0.00000000</v>
   <i name="OFIELD_Q6_NEAR">      0.00000000</i>
   <i name="OFIELD_Q6_FAR">      0.00000000</i>
   <i name="OFIELD_A">      0.00000000</i>
  </separator>
 </parameters>
 <atominfo>
  <atoms>      30 </atoms>
  <types>       1 </types>
  <array name="atoms" >
   <dimension dim="1">ion</dimension>
   <field type="string">element</field>
   <field type="int">atomtype</field>
   <set>
    <rc><c>Ag</c><c>   1</c></rc>
    <rc><c>Ag</c><c>   1</c></rc>
    <rc><c>Ag</c><c>   1</c></rc>
    <rc><c>Ag</c><c>   1</c></rc>
    <rc><c>Ag</c><c>   1</c></rc>
    <rc><c>Ag</c><c>   1</c></rc>
    <rc><c>Ag</c><c>   1</c></rc>
    <rc><c>Ag</c><c>   1</c></rc>
    <rc><c>Ag</c><c>   1</c></rc>
    <rc><c>Ag</c><c>   1</c></rc>
    <rc><c>Ag</c><c>   1</c></rc>
    <rc><c>Ag</c><c>   1</c></rc>
    <rc><c>Ag</c><c>   1</c></rc>
    <rc><c>Ag</c><c>   1</c></rc>
    <rc><c>Ag</c><c>   1</c></rc>
    <rc><c>Ag</c><c>   1</c></rc>
    <rc><c>Ag</c><c>   1</c></rc>
    <rc><c>Ag</c><c>   1</c></rc>
    <rc><c>Ag</c><c>   1</c></rc>
    <rc><c>Ag</c><c>   1</c></rc>
    <rc><c>Ag</c><c>   1</c></rc>
    <rc><c>Ag</c><c>   1</c></rc>
    <rc><c>Ag</c><c>   1</c></rc>
    <rc><c>Ag</c><c>   1</c></rc>
    <rc><c>Ag</c><c>   1</c></rc>
    <rc><c>Ag</c><c>   1</c></rc>
    <rc><c>Ag</c><c>   1</c></rc>
    <rc><c>Ag</c><c>   1</c></rc>
    <rc><c>Ag</c><c>   1</c></rc>
    <rc><c>Ag</c><c>   1</c></rc>
   </set>
  </array>
  <array name="atomtypes" >
   <dimension dim="1">type</dimension>
   <field type="int">atomspertype</field>
   <field type="string">element</field>
   <field>mass</field>
   <field>valence</field>
   <field type="string">pseudopotential</field>
   <set>
    <rc><c>  30</c><c>Ag</c><c>    107.86800000</c><c>     11.00000000</c><c>  PAW_PBE Ag 02Apr2005                  </c></rc>
   </set>
  </array>
 </atominfo>
 <structure name="initialpos" >
  <crystal>
   <varray name="basis" >
    <v>      21.32864754       0.00000000       0.00000000 </v>
    <v>       0.00000000      21.32864754       0.00000000 </v>
    <v>       0.00000000       0.00000000      21.32864754 </v>
   </varray>
   <i name="volume">   9702.64077110 </i>
   <varray name="rec_basis" >
    <v>       0.04688530       0.00000000       0.00000000 </v>
    <v>       0.00000000       0.04688530       0.00000000 </v>
    <v>       0.00000000       0.00000000       0.04688530 </v>
   </varray>
  </crystal>
  <varray name="positions" >
   <v>       0.55897338       0.35858441       0.70414451 </v>
   <v>       0.44837038       0.32565634       0.63634309 </v>
   <v>       0.43988288       0.35855481       0.51189584 </v>
   <v>       0.55699163       0.37115894       0.57570617 </v>
   <v>       0.46972570       0.44722885       0.67686804 </v>
   <v>       0.59610687       0.47504581       0.65322490 </v>
   <v>       0.36869307       0.43335352       0.59475885 </v>
   <v>       0.54462260       0.40880037       0.45293865 </v>
   <v>       0.63821963       0.45728029       0.52727600 </v>
   <v>       0.43674407       0.37383406       0.38276811 </v>
   <v>       0.50680974       0.56883628       0.66005465 </v>
   <v>       0.49433080       0.49231761       0.54879554 </v>
   <v>       0.37519548       0.53274153       0.68133558 </v>
   <v>       0.66006441       0.46113630       0.39398974 </v>
   <v>       0.55215911       0.39765317       0.32432729 </v>
   <v>       0.70332154       0.56233135       0.48257687 </v>
   <v>       0.61348288       0.57831375       0.57557733 </v>
   <v>       0.38553497       0.46682787       0.46442614 </v>
   <v>       0.56822376       0.53936672       0.44984538 </v>
   <v>       0.47012515       0.49567073       0.36675507 </v>
   <v>       0.57900076       0.52255346       0.30333912 </v>
   <v>       0.37268407       0.55860110       0.55576557 </v>
   <v>       0.65992777       0.59652810       0.36851129 </v>
   <v>       0.43810157       0.58451678       0.45039326 </v>
   <v>       0.50548980       0.63713112       0.55194196 </v>
   <v>       0.40688386       0.65233951       0.64549519 </v>
   <v>       0.60119448       0.66283000       0.46663759 </v>
   <v>       0.51845023       0.62127374       0.35547441 </v>
   <v>       0.38823843       0.68305981       0.52315695 </v>
   <v>       0.48281872       0.71133416       0.44145569 </v>
  </varray>
 </structure>
 <calculation>
  <scstep>
   <time name="dav">    3.96    3.96</time>
   <time name="total">    4.26    4.29</time>
   <energy>
    <i name="alphaZ">     78.89813507 </i>
    <i name="ewald">  65596.33899510 </i>
    <i name="hartreedc"> -95459.27605783 </i>
    <i name="XCdc">   -328.13595255 </i>
    <i name="pawpsdc">  30101.16534209 </i>
    <i name="pawaedc"> -28717.93826637 </i>
    <i name="eentropy">     -0.00000000 </i>
    <i name="bandstr">    467.13433080 </i>
    <i name="atom">  31115.95890259 </i>
    <i name="e_fr_energy">   2854.14542890 </i>
    <i name="e_wo_entrp">   2854.14542890 </i>
    <i name="e_0_energy">   2854.14542890 </i>
   </energy>
  </scstep>
  <scstep>
   <time name="dav">    6.08    6.08</time>
   <time name="total">    6.08    6.57</time>
   <energy>
    <i name="e_fr_energy">    554.74675273 </i>
    <i name="e_wo_entrp">    554.74675273 </i>
    <i name="e_0_energy">    554.74675273 </i>
   </energy>
  </scstep>
  <scstep>
   <time name="dav">    4.84    4.84</time>
   <time name="total">    4.84    4.85</time>
   <energy>
    <i name="e_fr_energy">    -35.73894066 </i>
    <i name="e_wo_entrp">    -35.73894066 </i>
    <i name="e_0_energy">    -35.73894066 </i>
   </energy>
  </scstep>
  <scstep>
   <time name="dav">    4.28    4.29</time>
   <time name="total">    4.28    4.29</time>
   <energy>
    <i name="e_fr_energy">    -62.75973951 </i>
    <i name="e_wo_entrp">    -62.75973951 </i>
    <i name="e_0_energy">    -62.75973951 </i>
   </energy>
  </scstep>
  <scstep>
   <time name="dav">    4.36    4.36</time>
   <time name="total">    4.52    4.53</time>
   <energy>
    <i name="e_fr_energy">    -63.13933884 </i>
    <i name="e_wo_entrp">    -63.13933884 </i>
    <i name="e_0_energy">    -63.13933884 </i>
   </energy>
  </scstep>
  <scstep>
   <time name="dav">    4.00    4.00</time>
   <time name="total">    4.44    4.60</time>
   <energy>
    <i name="e_fr_energy">    -22.25963934 </i>
    <i name="e_wo_entrp">    -22.25963934 </i>
    <i name="e_0_energy">    -22.25963934 </i>
   </energy>
  </scstep>
  <scstep>
   <time name="dav">    4.20    4.20</time>
   <time name="total">    4.65    4.65</time>
   <energy>
    <i name="e_fr_energy">    -18.28360154 </i>
    <i name="e_wo_entrp">    -18.28360154 </i>
    <i name="e_0_energy">    -18.28360154 </i>
   </energy>
  </scstep>
  <scstep>
   <time name="dav">    4.11    4.12</time>
   <time name="total">    4.56    4.63</time>
   <energy>
    <i name="e_fr_energy">    -19.55443539 </i>
    <i name="e_wo_entrp">    -19.55443539 </i>
    <i name="e_0_energy">    -19.55443539 </i>
   </energy>
  </scstep>
  <scstep>
   <time name="dav">    4.20    4.20</time>
   <time name="total">    4.65    5.15</time>
   <energy>
    <i name="e_fr_energy">    -23.77694406 </i>
    <i name="e_wo_entrp">    -23.77694406 </i>
    <i name="e_0_energy">    -23.77694406 </i>
   </energy>
  </scstep>
  <scstep>
   <time name="dav">    4.31    4.31</time>
   <time name="total">    4.76    4.78</time>
   <energy>
    <i name="e_fr_energy">    -26.10087917 </i>
    <i name="e_wo_entrp">    -26.10087917 </i>
    <i name="e_0_energy">    -26.10087917 </i>
   </energy>
  </scstep>
  <scstep>
   <time name="dav">    3.98    3.98</time>
   <time name="total">    4.43    4.45</time>
   <energy>
    <i name="e_fr_energy">    -36.37795687 </i>
    <i name="e_wo_entrp">    -36.37795687 </i>
    <i name="e_0_energy">    -36.37795687 </i>
   </energy>
  </scstep>
  <scstep>
   <time name="dav">    4.04    4.04</time>
   <time name="total">    4.49    4.50</time>
   <energy>
    <i name="e_fr_energy">    -48.19884257 </i>
    <i name="e_wo_entrp">    -48.19884257 </i>
    <i name="e_0_energy">    -48.19884257 </i>
   </energy>
  </scstep>
  <scstep>
   <time name="dav">    4.52    4.52</time>
   <time name="total">    4.96    4.99</time>
   <energy>
    <i name="e_fr_energy">    -49.52428687 </i>
    <i name="e_wo_entrp">    -49.52428687 </i>
    <i name="e_0_energy">    -49.52428687 </i>
   </energy>
  </scstep>
  <scstep>
   <time name="dav">    4.07    4.08</time>
   <time name="total">    4.53    4.54</time>
   <energy>
    <i name="e_fr_energy">    -53.56361688 </i>
    <i name="e_wo_entrp">    -53.56361688 </i>
    <i name="e_0_energy">    -53.56361688 </i>
   </energy>
  </scstep>
  <scstep>
   <time name="dav">    4.21    4.21</time>
   <time name="total">    4.66    4.67</time>
   <energy>
    <i name="e_fr_energy">    -54.58657167 </i>
    <i name="e_wo_entrp">    -54.58657167 </i>
    <i name="e_0_energy">    -54.58657167 </i>
   </energy>
  </scstep>
  <scstep>
   <time name="dav">    4.01    4.02</time>
   <time name="total">    4.46    4.48</time>
   <energy>
    <i name="e_fr_energy">    -57.72050269 </i>
    <i name="e_wo_entrp">    -57.72050269 </i>
    <i name="e_0_energy">    -57.72050269 </i>
   </energy>
  </scstep>
  <scstep>
   <time name="dav">    4.04    4.05</time>
   <time name="total">    4.50    4.50</time>
   <energy>
    <i name="e_fr_energy">    -59.71492189 </i>
    <i name="e_wo_entrp">    -59.71492189 </i>
    <i name="e_0_energy">    -59.71492189 </i>
   </energy>
  </scstep>
  <scstep>
   <time name="dav">    4.16    4.16</time>
   <time name="total">    4.62    4.62</time>
   <energy>
    <i name="e_fr_energy">    -60.84931037 </i>
    <i name="e_wo_entrp">    -60.84931037 </i>
    <i name="e_0_energy">    -60.84931037 </i>
   </energy>
  </scstep>
  <scstep>
   <time name="dav">    4.10    4.10</time>
   <time name="total">    4.56    4.58</time>
   <energy>
    <i name="e_fr_energy">    -61.94877493 </i>
    <i name="e_wo_entrp">    -61.94877493 </i>
    <i name="e_0_energy">    -61.94877493 </i>
   </energy>
  </scstep>
  <scstep>
   <time name="dav">    4.16    4.16</time>
   <time name="total">    4.61    4.64</time>
   <energy>
    <i name="e_fr_energy">    -62.26427294 </i>
    <i name="e_wo_entrp">    -62.26427294 </i>
    <i name="e_0_energy">    -62.26427294 </i>
   </energy>
  </scstep>
  <scstep>
   <time name="dav">    4.00    4.00</time>
   <time name="total">    4.46    4.47</time>
   <energy>
    <i name="e_fr_energy">    -62.36044360 </i>
    <i name="e_wo_entrp">    -62.36044360 </i>
    <i name="e_0_energy">    -62.36044360 </i>
   </energy>
  </scstep>
  <scstep>
   <time name="dav">    3.72    3.72</time>
   <time name="total">    4.18    4.21</time>
   <energy>
    <i name="e_fr_energy">    -62.42714464 </i>
    <i name="e_wo_entrp">    -62.42714464 </i>
    <i name="e_0_energy">    -62.42714464 </i>
   </energy>
  </scstep>
  <scstep>
   <time name="dav">    3.28    3.29</time>
   <time name="total">    3.74    4.30</time>
   <energy>
    <i name="e_fr_energy">    -62.43233905 </i>
    <i name="e_wo_entrp">    -62.43233905 </i>
    <i name="e_0_energy">    -62.43233905 </i>
   </energy>
  </scstep>
  <scstep>
   <time name="dav">    3.17    3.17</time>
   <time name="total">    3.63    3.64</time>
   <energy>
    <i name="e_fr_energy">    -62.43993889 </i>
    <i name="e_wo_entrp">    -62.43993889 </i>
    <i name="e_0_energy">    -62.43993889 </i>
   </energy>
  </scstep>
  <scstep>
   <time name="dav">    3.15    3.15</time>
   <time name="total">    3.61    3.62</time>
   <energy>
    <i name="e_fr_energy">    -62.44395800 </i>
    <i name="e_wo_entrp">    -62.44395800 </i>
    <i name="e_0_energy">    -62.44395800 </i>
   </energy>
  </scstep>
  <scstep>
   <time name="dav">    3.20    3.20</time>
   <time name="total">    3.66    3.68</time>
   <energy>
    <i name="e_fr_energy">    -62.44665126 </i>
    <i name="e_wo_entrp">    -62.44665126 </i>
    <i name="e_0_energy">    -62.44665126 </i>
   </energy>
  </scstep>
  <scstep>
   <time name="dav">    3.06    3.07</time>
   <time name="total">    3.52    3.54</time>
   <energy>
    <i name="e_fr_energy">    -62.44826935 </i>
    <i name="e_wo_entrp">    -62.44826935 </i>
    <i name="e_0_energy">    -62.44826935 </i>
   </energy>
  </scstep>
  <scstep>
   <time name="dav">    3.12    3.12</time>
   <time name="total">    3.58    3.60</time>
   <energy>
    <i name="e_fr_energy">    -62.44856100 </i>
    <i name="e_wo_entrp">    -62.44856100 </i>
    <i name="e_0_energy">    -62.44856100 </i>
   </energy>
  </scstep>
  <scstep>
   <time name="dav">    2.98    2.98</time>
   <time name="total">    3.28    3.31</time>
   <energy>
    <i name="alphaZ">     78.89813507 </i>
    <i name="ewald">  65596.33899510 </i>
    <i name="hartreedc"> -95420.43573438 </i>
    <i name="XCdc">   -339.50991117 </i>
    <i name="pawpsdc">  32582.30587167 </i>
    <i name="pawaedc"> -31255.76698731 </i>
    <i name="eentropy">      0.00000000 </i>
    <i name="bandstr">  -2420.23781707 </i>
    <i name="atom">  31115.95890259 </i>
    <i name="e_fr_energy">    -62.44854549 </i>
    <i name="e_wo_entrp">    -62.44854549 </i>
    <i name="e_0_energy">    -62.44854549 </i>
   </energy>
  </scstep>
  <structure>
   <crystal>
    <varray name="basis" >
     <v>      21.32864754       0.00000000       0.00000000 </v>
     <v>       0.00000000      21.32864754       0.00000000 </v>
     <v>       0.00000000       0.00000000      21.32864754 </v>
    </varray>
    <i name="volume">   9702.64077110 </i>
    <varray name="rec_basis" >
     <v>       0.04688530       0.00000000       0.00000000 </v>
     <v>       0.00000000       0.04688530       0.00000000 </v>
     <v>       0.00000000       0.00000000       0.04688530 </v>
    </varray>
   </crystal>
   <varray name="positions" >
    <v>       0.55897338       0.35858441       0.70414451 </v>
    <v>       0.44837038       0.32565634       0.63634309 </v>
    <v>       0.43988288       0.35855481       0.51189584 </v>
    <v>       0.55699163       0.37115894       0.57570617 </v>
    <v>       0.46972570       0.44722885       0.67686804 </v>
    <v>       0.59610687       0.47504581       0.65322490 </v>
    <v>       0.36869307       0.43335352       0.59475885 </v>
    <v>       0.54462260       0.40880037       0.45293865 </v>
    <v>       0.63821963       0.45728029       0.52727600 </v>
    <v>       0.43674407       0.37383406       0.38276811 </v>
    <v>       0.50680974       0.56883628       0.66005465 </v>
    <v>       0.49433080       0.49231761       0.54879554 </v>
    <v>       0.37519548       0.53274153       0.68133558 </v>
    <v>       0.66006441       0.46113630       0.39398974 </v>
    <v>       0.55215911       0.39765317       0.32432729 </v>
    <v>       0.70332154       0.56233135       0.48257687 </v>
    <v>       0.61348288       0.57831375       0.57557733 </v>
    <v>       0.38553497       0.46682787       0.46442614 </v>
    <v>       0.56822376       0.53936672       0.44984538 </v>
    <v>       0.47012515       0.49567073       0.36675507 </v>
    <v>       0.57900076       0.52255346       0.30333912 </v>
    <v>       0.37268407       0.55860110       0.55576557 </v>
    <v>       0.65992777       0.59652810       0.36851129 </v>
    <v>       0.43810157       0.58451678       0.45039326 </v>
    <v>       0.50548980       0.63713112       0.55194196 </v>
    <v>       0.40688386       0.65233951       0.64549519 </v>
    <v>       0.60119448       0.66283000       0.46663759 </v>
    <v>       0.51845023       0.62127374       0.35547441 </v>
    <v>       0.38823843       0.68305981       0.52315695 </v>
    <v>       0.48281872       0.71133416       0.44145569 </v>
   </varray>
  </structure>
  <varray name="forces" >
   <v>      -0.04011425      -0.08407980       0.00559354 </v>
   <v>      -0.14275510       0.04330246       0.07350084 </v>
   <v>      -0.13968519      -0.18417234       0.20163200 </v>
   <v>      -0.09950560      -0.10490675       0.38613003 </v>
   <v>       0.03917315      -0.26528823       0.28387289 </v>
   <v>       0.14771789      -0.15295172      -0.11214663 </v>
   <v>       0.06598799      -0.16122953      -0.02554142 </v>
   <v>      -0.09094387      -0.15280480      -0.40766376 </v>
   <v>       0.43784690       0.09316719       0.25824884 </v>
   <v>      -0.04907820      -0.15166238       0.03413317 </v>
   <v>      -0.08896499       0.09521916       0.30863290 </v>
   <v>      -0.03371178       0.06415078      -0.12191061 </v>
   <v>      -0.09486832       0.04092954       0.14875334 </v>
   <v>      -0.17510693       0.22802619      -0.06926717 </v>
   <v>       0.14050591       0.08503070      -0.12586270 </v>
   <v>      -0.24109914      -0.22871752       0.06408075 </v>
   <v>       0.27273385      -0.13377965       0.08909164 </v>
   <v>       0.03764784      -0.15074537       0.06577406 </v>
   <v>       0.12826789       0.22088193      -0.11797644 </v>
   <v>       0.08119274      -0.06659240      -0.36123169 </v>
   <v>       0.21530743      -0.23668447      -0.24926543 </v>
   <v>      -0.24037971      -0.08886325       0.51000593 </v>
   <v>      -0.06931595       0.09632699      -0.25899549 </v>
   <v>       0.08969009       0.38601525      -0.15883595 </v>
   <v>      -0.27759943       0.25928547      -0.13012084 </v>
   <v>      -0.07187817      -0.04824132       0.12265931 </v>
   <v>       0.26499691       0.07650844      -0.07825356 </v>
   <v>       0.19972493       0.16029813      -0.03992410 </v>
   <v>      -0.23776078       0.25024806      -0.17582021 </v>
   <v>      -0.02802610       0.11132923      -0.11929324 </v>
  </varray>
  <varray name="stress" >
   <v>      -1.25834361       0.02560241      -0.44162686 </v>
   <v>       0.02560242      -0.92219013      -0.39999094 </v>
   <v>      -0.44162686      -0.39999093      -0.27358708 </v>
  </varray>
  <energy>
   <i name="e_fr_energy">    -62.44854549 </i>
   <i name="e_wo_entrp">    -62.44854549 </i>
   <i name="e_0_energy">      0.00000000 </i>
  </energy>
  <time name="totalsc">  134.06  136.22</time>
 </calculation>
 <calculation>
  <scstep>
   <time name="dav">    4.05    4.05</time>
   <time name="total">    4.50    4.51</time>
   <energy>
    <i name="alphaZ">     78.89813507 </i>
    <i name="ewald">  65543.20240902 </i>
    <i name="hartreedc"> -95367.55579558 </i>
    <i name="XCdc">   -339.56220688 </i>
    <i name="pawpsdc">  32582.50052788 </i>
    <i name="pawaedc"> -31255.96382544 </i>
    <i name="eentropy">      0.00000000 </i>
    <i name="bandstr">  -2419.95433425 </i>
    <i name="atom">  31115.95890259 </i>
    <i name="e_fr_energy">    -62.47618758 </i>
    <i name="e_wo_entrp">    -62.47618758 </i>
    <i name="e_0_energy">    -62.47618758 </i>
   </energy>
  </scstep>
  <scstep>
   <time name="dav">    4.16    4.16</time>
   <time name="total">    4.61    4.62</time>
   <energy>
    <i name="e_fr_energy">    -62.47715269 </i>
    <i name="e_wo_entrp">    -62.47715269 </i>
    <i name="e_0_energy">    -62.47715269 </i>
   </energy>
  </scstep>
  <scstep>
   <time name="dav">    2.90    2.90</time>
   <time name="total">    3.20    3.20</time>
   <energy>
    <i name="alphaZ">     78.89813507 </i>
    <i name="ewald">  65543.20240902 </i>
    <i name="hartreedc"> -95367.90132295 </i>
    <i name="XCdc">   -339.55517618 </i>
    <i name="pawpsdc">  32578.19541973 </i>
    <i name="pawaedc"> -31251.58642244 </i>
    <i name="eentropy">      0.00000000 </i>
    <i name="bandstr">  -2419.68911159 </i>
    <i name="atom">  31115.95890259 </i>
    <i name="e_fr_energy">    -62.47716675 </i>
    <i name="e_wo_entrp">    -62.47716675 </i>
    <i name="e_0_energy">    -62.47716675 </i>
   </energy>
  </scstep>
  <structure>
   <crystal>
    <varray name="basis" >
     <v>      21.32864754       0.00000000       0.00000000 </v>
     <v>       0.00000000      21.32864754       0.00000000 </v>
     <v>       0.00000000       0.00000000      21.32864754 </v>
    </varray>
    <i name="volume">   9702.64077110 </i>
    <varray name="rec_basis" >
     <v>       0.04688530       0.00000000       0.00000000 </v>
     <v>       0.00000000       0.04688530       0.00000000 </v>
     <v>       0.00000000       0.00000000       0.04688530 </v>
    </varray>
   </crystal>
   <varray name="positions" >
    <v>       0.55895524       0.35854638       0.70414704 </v>
    <v>       0.44830580       0.32567593       0.63637634 </v>
    <v>       0.43981969       0.35847150       0.51198706 </v>
    <v>       0.55694662       0.37111149       0.57588084 </v>
    <v>       0.46974342       0.44710885       0.67699646 </v>
    <v>       0.59617370       0.47497662       0.65317417 </v>
    <v>       0.36872292       0.43328058       0.59474729 </v>
    <v>       0.54458146       0.40873125       0.45275424 </v>
    <v>       0.63841770       0.45732244       0.52739282 </v>
    <v>       0.43672187       0.37376545       0.38278355 </v>
    <v>       0.50676949       0.56887936       0.66019427 </v>
    <v>       0.49431555       0.49234663       0.54874040 </v>
    <v>       0.37515256       0.53276004       0.68140288 </v>
    <v>       0.65998520       0.46123945       0.39395840 </v>
    <v>       0.55222267       0.39769164       0.32427035 </v>
    <v>       0.70321247       0.56222789       0.48260586 </v>
    <v>       0.61360626       0.57825323       0.57561764 </v>
    <v>       0.38555200       0.46675967       0.46445590 </v>
    <v>       0.56828179       0.53946664       0.44979201 </v>
    <v>       0.47016188       0.49564061       0.36659166 </v>
    <v>       0.57909815       0.52244639       0.30322636 </v>
    <v>       0.37257532       0.55856090       0.55599628 </v>
    <v>       0.65989642       0.59657168       0.36839413 </v>
    <v>       0.43814214       0.58469140       0.45032141 </v>
    <v>       0.50536422       0.63724842       0.55188310 </v>
    <v>       0.40685135       0.65231769       0.64555067 </v>
    <v>       0.60131436       0.66286461       0.46660219 </v>
    <v>       0.51854058       0.62134626       0.35545635 </v>
    <v>       0.38813087       0.68317302       0.52307742 </v>
    <v>       0.48280604       0.71138453       0.44140173 </v>
   </varray>
  </structure>
  <varray name="forces" >
   <v>      -0.03387748      -0.08681057       0.01600797 </v>
   <v>      -0.14234490       0.03348214       0.07675823 </v>
   <v>      -0.12536722      -0.17610987       0.18459730 </v>
   <v>      -0.09119280      -0.08345405       0.33800764 </v>
   <v>       0.03360692      -0.23417950       0.26883958 </v>
   <v>       0.13235862      -0.14253646      -0.10329465 </v>
   <v>       0.06503980      -0.15134414      -0.01724381 </v>
   <v>      -0.07439513      -0.13769696      -0.35128729 </v>
   <v>       0.39178325       0.06460890       0.23662352 </v>
   <v>      -0.04602160      -0.14398449       0.03342269 </v>
   <v>      -0.07892340       0.08044798       0.28497622 </v>
   <v>      -0.02881348       0.06385633      -0.11631206 </v>
   <v>      -0.08662799       0.02657667       0.15191295 </v>
   <v>      -0.16822197       0.21626750      -0.06394353 </v>
   <v>       0.13298570       0.07340504      -0.12807024 </v>
   <v>      -0.22506243      -0.21182872       0.04720552 </v>
   <v>       0.23202683      -0.11215423       0.08831342 </v>
   <v>       0.04738385      -0.12577904       0.06282725 </v>
   <v>       0.11461164       0.20038738      -0.10545662 </v>
   <v>       0.07278579      -0.05310016      -0.33381702 </v>
   <v>       0.20386265      -0.21441303      -0.24320130 </v>
   <v>      -0.21617926      -0.07547239       0.45438158 </v>
   <v>      -0.06290687       0.09302673      -0.24636540 </v>
   <v>       0.07044702       0.34227234      -0.14122923 </v>
   <v>      -0.24379429       0.23322387      -0.11155166 </v>
   <v>      -0.07164729      -0.04064654       0.10858941 </v>
   <v>       0.25242036       0.07650190      -0.06877935 </v>
   <v>       0.20166118       0.14454806      -0.04660694 </v>
   <v>      -0.23237062       0.23088093      -0.16065618 </v>
   <v>      -0.02322690       0.11002435      -0.11464800 </v>
  </varray>
  <varray name="stress" >
   <v>      -1.30588971       0.02571055      -0.43528914 </v>
   <v>       0.02571055      -0.96486455      -0.39312802 </v>
   <v>      -0.43528914      -0.39312802      -0.32067614 </v>
  </varray>
  <energy>
   <i name="e_fr_energy">    -62.47716675 </i>
   <i name="e_wo_entrp">    -62.47716675 </i>
   <i name="e_0_energy">      0.00000000 </i>
  </energy>
  <time name="totalsc">   19.80   19.86</time>
 </calculation>
 <calculation>
  <scstep>
   <time name="dav">    4.05    4.05</time>
   <time name="total">    4.50    4.51</time>
   <energy>
    <i name="alphaZ">     78.89813507 </i>
    <i name="ewald">  65384.37532704 </i>
    <i name="hartreedc"> -95210.02879382 </i>
    <i name="XCdc">   -339.70622474 </i>
    <i name="pawpsdc">  32575.07346219 </i>
    <i name="pawaedc"> -31248.41844723 </i>
    <i name="eentropy">      0.00000000 </i>
    <i name="bandstr">  -2418.69502377 </i>
    <i name="atom">  31115.95890259 </i>
    <i name="e_fr_energy">    -62.54266266 </i>
    <i name="e_wo_entrp">    -62.54266266 </i>
    <i name="e_0_energy">    -62.54266266 </i>
   </energy>
  </scstep>
  <scstep>
   <time name="dav">    4.16    4.16</time>
   <time name="total">    4.61    4.61</time>
   <energy>
    <i name="e_fr_energy">    -62.55074545 </i>
    <i name="e_wo_entrp">    -62.55074545 </i>
    <i name="e_0_energy">    -62.55074545 </i>
   </energy>
  </scstep>
  <scstep>
   <time name="dav">    4.24    4.24</time>
   <time name="total">    4.69    4.71</time>
   <energy>
    <i name="e_fr_energy">    -62.55057596 </i>
    <i name="e_wo_entrp">    -62.55057596 </i>
    <i name="e_0_energy">    -62.55057596 </i>
   </energy>
  </scstep>
  <scstep>
   <time name="dav">    4.13    4.13</time>
   <time name="total">    4.58    4.59</time>
   <energy>
    <i name="e_fr_energy">    -62.55046674 </i>
    <i name="e_wo_entrp">    -62.55046674 </i>
    <i name="e_0_energy">    -62.55046674 </i>
   </energy>
  </scstep>
  <scstep>
   <time name="dav">    2.90    2.90</time>
   <time name="total">    3.20    3.20</time>
   <energy>
    <i name="alphaZ">     78.89813507 </i>
    <i name="ewald">  65384.37532704 </i>
    <i name="hartreedc"> -95211.32052640 </i>
    <i name="XCdc">   -339.67912929 </i>
    <i name="pawpsdc">  32553.06589057 </i>
    <i name="pawaedc"> -31226.05730336 </i>
    <i name="eentropy">      0.00000000 </i>
    <i name="bandstr">  -2417.79175959 </i>
    <i name="atom">  31115.95890259 </i>
    <i name="e_fr_energy">    -62.55046337 </i>
    <i name="e_wo_entrp">    -62.55046337 </i>
    <i name="e_0_energy">    -62.55046337 </i>
   </energy>
  </scstep>
  <structure>
   <crystal>
    <varray name="basis" >
     <v>      21.32864754       0.00000000       0.00000000 </v>
     <v>       0.00000000      21.32864754       0.00000000 </v>
     <v>       0.00000000       0.00000000      21.32864754 </v>
    </varray>
    <i name="volume">   9702.64077110 </i>
    <varray name="rec_basis" >
     <v>       0.04688530       0.00000000       0.00000000 </v>
     <v>       0.00000000       0.04688530       0.00000000 </v>
     <v>       0.00000000       0.00000000       0.04688530 </v>
    </varray>
   </crystal>
   <varray name="positions" >
    <v>       0.55890080       0.35843227       0.70415463 </v>
    <v>       0.44811207       0.32573470       0.63647609 </v>
    <v>       0.43963012       0.35822155       0.51226070 </v>
    <v>       0.55681158       0.37096911       0.57640487 </v>
    <v>       0.46979658       0.44674882       0.67738171 </v>
    <v>       0.59637417       0.47476905       0.65302197 </v>
    <v>       0.36881248       0.43306178       0.59471263 </v>
    <v>       0.54445803       0.40852387       0.45220099 </v>
    <v>       0.63901191       0.45744888       0.52774330 </v>
    <v>       0.43665526       0.37355962       0.38282988 </v>
    <v>       0.50664876       0.56900858       0.66061312 </v>
    <v>       0.49426979       0.49243369       0.54857495 </v>
    <v>       0.37502381       0.53281559       0.68160475 </v>
    <v>       0.65974756       0.46154891       0.39386440 </v>
    <v>       0.55241336       0.39780703       0.32409954 </v>
    <v>       0.70288527       0.56191749       0.48269283 </v>
    <v>       0.61397639       0.57807168       0.57573854 </v>
    <v>       0.38560310       0.46655509       0.46454516 </v>
    <v>       0.56845586       0.53976641       0.44963191 </v>
    <v>       0.47027206       0.49555023       0.36610142 </v>
    <v>       0.57939035       0.52212518       0.30288807 </v>
    <v>       0.37224910       0.55844030       0.55668842 </v>
    <v>       0.65980235       0.59670240       0.36804264 </v>
    <v>       0.43826387       0.58521527       0.45010585 </v>
    <v>       0.50498748       0.63760030       0.55170651 </v>
    <v>       0.40675380       0.65225222       0.64571714 </v>
    <v>       0.60167400       0.66296844       0.46649599 </v>
    <v>       0.51881163       0.62156380       0.35540217 </v>
    <v>       0.38780820       0.68351263       0.52283881 </v>
    <v>       0.48276801       0.71153561       0.44123983 </v>
   </varray>
  </structure>
  <varray name="forces" >
   <v>      -0.01848663      -0.10031600       0.04693357 </v>
   <v>      -0.15133392       0.00849099       0.09095368 </v>
   <v>      -0.09444945      -0.16675417       0.15039424 </v>
   <v>      -0.07384103      -0.03234314       0.23287782 </v>
   <v>       0.02118692      -0.16673751       0.24582352 </v>
   <v>       0.10028657      -0.12371815      -0.08535764 </v>
   <v>       0.06652450      -0.13436640       0.00432704 </v>
   <v>      -0.03667278      -0.10548399      -0.22478938 </v>
   <v>       0.29249374      -0.00744216       0.19667682 </v>
   <v>      -0.04160394      -0.13353804       0.03390960 </v>
   <v>      -0.05855104       0.04464222       0.24416797 </v>
   <v>      -0.01928881       0.06895681      -0.11079765 </v>
   <v>      -0.07208031      -0.01050335       0.17099636 </v>
   <v>      -0.16149670       0.19919890      -0.05441754 </v>
   <v>       0.12314007       0.04695592      -0.14392440 </v>
   <v>      -0.19527798      -0.17941451       0.00403902 </v>
   <v>       0.13900617      -0.06306937       0.09340980 </v>
   <v>       0.07621242      -0.06903615       0.05915709 </v>
   <v>       0.08565568       0.15979914      -0.07863008 </v>
   <v>       0.06058117      -0.02169739      -0.28136042 </v>
   <v>       0.18722350      -0.16816199      -0.24425039 </v>
   <v>      -0.16335590      -0.04466978       0.33020698 </v>
   <v>      -0.05036799       0.09037719      -0.22872521 </v>
   <v>       0.02494544       0.24429555      -0.10478913 </v>
   <v>      -0.17020426       0.18123515      -0.06859923 </v>
   <v>      -0.07542086      -0.02288772       0.07864675 </v>
   <v>       0.23069650       0.08185107      -0.04849167 </v>
   <v>       0.22104313       0.11232769      -0.06762797 </v>
   <v>      -0.23396424       0.19813704      -0.13147993 </v>
   <v>      -0.01259997       0.11387214      -0.10927961 </v>
  </varray>
  <varray name="stress" >
   <v>      -1.41196387       0.02562384      -0.41438979 </v>
   <v>       0.02562384      -1.06199244      -0.37311982 </v>
   <v>      -0.41438980      -0.37311982      -0.43038494 </v>
  </varray>
  <energy>
   <i name="e_fr_energy">    -62.55046337 </i>
   <i name="e_wo_entrp">    -62.55046337 </i>
   <i name="e_0_energy">      0.00000000 </i>
  </energy>
  <time name="totalsc">   29.06   29.30</time>
 </calculation>
 <calculation>
  <scstep>
   <time name="dav">    3.99    3.99</time>
   <time name="total">    4.44    4.45</time>
   <energy>
    <i name="alphaZ">     78.89813507 </i>
    <i name="ewald">  65069.30977195 </i>
    <i name="hartreedc"> -94897.74371898 </i>
    <i name="XCdc">   -339.96164778 </i>
    <i name="pawpsdc">  32553.23978147 </i>
    <i name="pawaedc"> -31226.23468962 </i>
    <i name="eentropy">      0.00000000 </i>
    <i name="bandstr">  -2416.08042543 </i>
    <i name="atom">  31115.95890259 </i>
    <i name="e_fr_energy">    -62.61389073 </i>
    <i name="e_wo_entrp">    -62.61389073 </i>
    <i name="e_0_energy">    -62.61389073 </i>
   </energy>
  </scstep>
  <scstep>
   <time name="dav">    4.10    4.11</time>
   <time name="total">    4.55    4.57</time>
   <energy>
    <i name="e_fr_energy">    -62.64630562 </i>
    <i name="e_wo_entrp">    -62.64630562 </i>
    <i name="e_0_energy">    -62.64630562 </i>
   </energy>
  </scstep>
  <scstep>
   <time name="dav">    4.19    4.19</time>
   <time name="total">    4.64    4.64</time>
   <energy>
    <i name="e_fr_energy">    -62.64566915 </i>
    <i name="e_wo_entrp">    -62.64566915 </i>
    <i name="e_0_energy">    -62.64566915 </i>
   </energy>
  </scstep>
  <scstep>
   <time name="dav">    4.13    4.13</time>
   <time name="total">    4.58    4.60</time>
   <energy>
    <i name="e_fr_energy">    -62.64509281 </i>
    <i name="e_wo_entrp">    -62.64509281 </i>
    <i name="e_0_energy">    -62.64509281 </i>
   </energy>
  </scstep>
  <scstep>
   <time name="dav">    2.90    2.90</time>
   <time name="total">    3.19    3.20</time>
   <energy>
    <i name="alphaZ">     78.89813507 </i>
    <i name="ewald">  65069.30977195 </i>
    <i name="hartreedc"> -94900.30080222 </i>
    <i name="XCdc">   -339.91054702 </i>
    <i name="pawpsdc">  32515.55703433 </i>
    <i name="pawaedc"> -31187.91739330 </i>
    <i name="eentropy">      0.00000000 </i>
    <i name="bandstr">  -2414.24018964 </i>
    <i name="atom">  31115.95890259 </i>
    <i name="e_fr_energy">    -62.64508825 </i>
    <i name="e_wo_entrp">    -62.64508825 </i>
    <i name="e_0_energy">    -62.64508825 </i>
   </energy>
  </scstep>
  <structure>
   <crystal>
    <varray name="basis" >
     <v>      21.32864754       0.00000000       0.00000000 </v>
     <v>       0.00000000      21.32864754       0.00000000 </v>
     <v>       0.00000000       0.00000000      21.32864754 </v>
    </varray>
    <i name="volume">   9702.64077110 </i>
    <varray name="rec_basis" >
     <v>       0.04688530       0.00000000       0.00000000 </v>
     <v>       0.00000000       0.04688530       0.00000000 </v>
     <v>       0.00000000       0.00000000       0.04688530 </v>
    </varray>
   </crystal>
   <varray name="positions" >
    <v>       0.55879192       0.35820406       0.70416982 </v>
    <v>       0.44772459       0.32585223       0.63667559 </v>
    <v>       0.43925098       0.35772166       0.51280798 </v>
    <v>       0.55654150       0.37068437       0.57745292 </v>
    <v>       0.46990291       0.44602876       0.67815221 </v>
    <v>       0.59677511       0.47435390       0.65271758 </v>
    <v>       0.36899159       0.43262416       0.59464331 </v>
    <v>       0.54421119       0.40810912       0.45109449 </v>
    <v>       0.64020034       0.45770176       0.52844425 </v>
    <v>       0.43652205       0.37314797       0.38292252 </v>
    <v>       0.50640728       0.56926703       0.66145083 </v>
    <v>       0.49417829       0.49260781       0.54824405 </v>
    <v>       0.37476632       0.53292668       0.68200851 </v>
    <v>       0.65927227       0.46216783       0.39367639 </v>
    <v>       0.55279472       0.39803783       0.32375792 </v>
    <v>       0.70223087       0.56129669       0.48286676 </v>
    <v>       0.61471666       0.57770857       0.57598036 </v>
    <v>       0.38570528       0.46614593       0.46472369 </v>
    <v>       0.56880401       0.54036593       0.44931169 </v>
    <v>       0.47049244       0.49536949       0.36512095 </v>
    <v>       0.57997475       0.52148276       0.30221150 </v>
    <v>       0.37159665       0.55819910       0.55807271 </v>
    <v>       0.65961421       0.59696386       0.36733967 </v>
    <v>       0.43850731       0.58626301       0.44967473 </v>
    <v>       0.50423401       0.63830406       0.55135333 </v>
    <v>       0.40655870       0.65212128       0.64605006 </v>
    <v>       0.60239326       0.66317611       0.46628359 </v>
    <v>       0.51935373       0.62199889       0.35529380 </v>
    <v>       0.38716286       0.68419187       0.52236159 </v>
    <v>       0.48269194       0.71183779       0.44091604 </v>
   </varray>
  </structure>
  <varray name="forces" >
   <v>       0.01702290      -0.12671789       0.11450517 </v>
   <v>      -0.16847357      -0.04552624       0.11784265 </v>
   <v>      -0.02647139      -0.14480019       0.07076527 </v>
   <v>      -0.03739641       0.06105705       0.01947382 </v>
   <v>      -0.00571633      -0.02987254       0.19688039 </v>
   <v>       0.03298161      -0.08147621      -0.04256100 </v>
   <v>       0.06609672      -0.09184605       0.04777958 </v>
   <v>       0.02974277      -0.03833223       0.02236779 </v>
   <v>       0.09346855      -0.15404328       0.12163599 </v>
   <v>      -0.03246816      -0.10560011       0.03211105 </v>
   <v>      -0.01721303      -0.02928099       0.15649018 </v>
   <v>       0.00078925       0.08013513      -0.09726890 </v>
   <v>      -0.03872207      -0.08506793       0.21343952 </v>
   <v>      -0.13847495       0.15123499      -0.03291597 </v>
   <v>       0.10015123      -0.01268161      -0.17428188 </v>
   <v>      -0.11742160      -0.09582402      -0.09039123 </v>
   <v>      -0.04602729       0.03421343       0.10757197 </v>
   <v>       0.12869679       0.04150863       0.04830040 </v>
   <v>       0.01887345       0.07898042      -0.02300592 </v>
   <v>       0.03131238       0.03754925      -0.17313206 </v>
   <v>       0.14654405      -0.06488758      -0.23817604 </v>
   <v>      -0.06277021       0.01139377       0.07811025 </v>
   <v>      -0.02352156       0.08322752      -0.18570502 </v>
   <v>      -0.05666461       0.04540338      -0.04298903 </v>
   <v>      -0.02407533       0.07926891       0.01641438 </v>
   <v>      -0.07853576       0.01556091       0.01808736 </v>
   <v>       0.17505631       0.09037125      -0.00776440 </v>
   <v>       0.24916782       0.04737704      -0.10705498 </v>
   <v>      -0.22587876       0.12754083      -0.07002418 </v>
   <v>       0.00992720       0.12113436      -0.09650514 </v>
  </varray>
  <varray name="stress" >
   <v>      -1.60843300       0.02728102      -0.37623152 </v>
   <v>       0.02728101      -1.23575659      -0.33712946 </v>
   <v>      -0.37623152      -0.33712944      -0.62005744 </v>
  </varray>
  <energy>
   <i name="e_fr_energy">    -62.64508825 </i>
   <i name="e_wo_entrp">    -62.64508825 </i>
   <i name="e_0_energy">      0.00000000 </i>
  </energy>
  <time name="totalsc">   28.88   29.42</time>
 </calculation>
 <calculation>
  <scstep>
   <time name="dav">    3.99    3.99</time>
   <time name="total">    4.44    4.46</time>
   <energy>
    <i name="alphaZ">     78.89813507 </i>
    <i name="ewald">  64449.25762125 </i>
    <i name="hartreedc"> -94282.57475215 </i>
    <i name="XCdc">   -340.38973538 </i>
    <i name="pawpsdc">  32515.75116971 </i>
    <i name="pawaedc"> -31188.11669500 </i>
    <i name="eentropy">      0.00000000 </i>
    <i name="bandstr">  -2411.30529048 </i>
    <i name="atom">  31115.95890259 </i>
    <i name="e_fr_energy">    -62.52064438 </i>
    <i name="e_wo_entrp">    -62.52064438 </i>
    <i name="e_0_energy">    -62.52064438 </i>
   </energy>
  </scstep>
  <scstep>
   <time name="dav">    4.16    4.16</time>
   <time name="total">    4.61    4.62</time>
   <energy>
    <i name="e_fr_energy">    -62.65240622 </i>
    <i name="e_wo_entrp">    -62.65240622 </i>
    <i name="e_0_energy">    -62.65240622 </i>
   </energy>
  </scstep>
  <scstep>
   <time name="dav">    4.22    4.22</time>
   <time name="total">    4.66    4.67</time>
   <energy>
    <i name="e_fr_energy">    -62.65045015 </i>
    <i name="e_wo_entrp">    -62.65045015 </i>
    <i name="e_0_energy">    -62.65045015 </i>
   </energy>
  </scstep>
  <scstep>
   <time name="dav">    4.05    4.05</time>
   <time name="total">    4.50    4.52</time>
   <energy>
    <i name="e_fr_energy">    -62.64765467 </i>
    <i name="e_wo_entrp">    -62.64765467 </i>
    <i name="e_0_energy">    -62.64765467 </i>
   </energy>
  </scstep>
  <scstep>
   <time name="dav">    4.22    4.22</time>
   <time name="total">    4.51    4.61</time>
   <energy>
    <i name="alphaZ">     78.89813507 </i>
    <i name="ewald">  64449.25762125 </i>
    <i name="hartreedc"> -94287.01989121 </i>
    <i name="XCdc">   -340.29693205 </i>
    <i name="pawpsdc">  32462.14332728 </i>
    <i name="pawaedc"> -31133.50061047 </i>
    <i name="eentropy">      0.00000000 </i>
    <i name="bandstr">  -2408.08830307 </i>
    <i name="atom">  31115.95890259 </i>
    <i name="e_fr_energy">    -62.64775061 </i>
    <i name="e_wo_entrp">    -62.64775061 </i>
    <i name="e_0_energy">    -62.64775061 </i>
   </energy>
  </scstep>
  <structure>
   <crystal>
    <varray name="basis" >
     <v>      21.32864754       0.00000000       0.00000000 </v>
     <v>       0.00000000      21.32864754       0.00000000 </v>
     <v>       0.00000000       0.00000000      21.32864754 </v>
    </varray>
    <i name="volume">   9702.64077110 </i>
    <varray name="rec_basis" >
     <v>       0.04688530       0.00000000       0.00000000 </v>
     <v>       0.00000000       0.04688530       0.00000000 </v>
     <v>       0.00000000       0.00000000       0.04688530 </v>
    </varray>
   </crystal>
   <varray name="positions" >
    <v>       0.55857416       0.35774763       0.70420018 </v>
    <v>       0.44694965       0.32608730       0.63707459 </v>
    <v>       0.43849270       0.35672189       0.51390253 </v>
    <v>       0.55600133       0.37011489       0.57954902 </v>
    <v>       0.47011556       0.44458864       0.67969321 </v>
    <v>       0.59757699       0.47352360       0.65210879 </v>
    <v>       0.36934980       0.43174893       0.59450465 </v>
    <v>       0.54371750       0.40727963       0.44888149 </v>
    <v>       0.64257718       0.45820751       0.52984615 </v>
    <v>       0.43625563       0.37232468       0.38310781 </v>
    <v>       0.50592434       0.56978393       0.66312624 </v>
    <v>       0.49399529       0.49295605       0.54758226 </v>
    <v>       0.37425132       0.53314887       0.68281601 </v>
    <v>       0.65832171       0.46340567       0.39330037 </v>
    <v>       0.55355746       0.39849942       0.32307467 </v>
    <v>       0.70092206       0.56005510       0.48321462 </v>
    <v>       0.61619719       0.57698235       0.57646399 </v>
    <v>       0.38590965       0.46532762       0.46508074 </v>
    <v>       0.56950031       0.54156499       0.44867125 </v>
    <v>       0.47093320       0.49500799       0.36316001 </v>
    <v>       0.58114355       0.52019792       0.30085837 </v>
    <v>       0.37029175       0.55771671       0.56084127 </v>
    <v>       0.65923793       0.59748677       0.36593371 </v>
    <v>       0.43899419       0.58835849       0.44881249 </v>
    <v>       0.50272706       0.63971159       0.55064697 </v>
    <v>       0.40616851       0.65185940       0.64671592 </v>
    <v>       0.60383180       0.66359143       0.46585879 </v>
    <v>       0.52043794       0.62286907       0.35507707 </v>
    <v>       0.38587218       0.68555034       0.52140715 </v>
    <v>       0.48253980       0.71244214       0.44026846 </v>
   </varray>
  </structure>
  <varray name="forces" >
   <v>       0.09661094      -0.18871448       0.27811371 </v>
   <v>      -0.20256091      -0.16209226       0.17813554 </v>
   <v>       0.10394310      -0.11082582      -0.09757321 </v>
   <v>       0.02462060       0.20050312      -0.38627898 </v>
   <v>      -0.05990946       0.25750849       0.11597962 </v>
   <v>      -0.09398739      -0.00209529       0.05548281 </v>
   <v>       0.05796751      -0.00118863       0.13232420 </v>
   <v>       0.12131462       0.07999562       0.45220364 </v>
   <v>      -0.23596553      -0.44287246       0.01818136 </v>
   <v>      -0.02576169      -0.04908342       0.02552395 </v>
   <v>       0.04973756      -0.17119873      -0.02521716 </v>
   <v>       0.03287439       0.10248687      -0.07553806 </v>
   <v>       0.03304138      -0.22878584       0.33184715 </v>
   <v>      -0.06698439       0.04295623       0.01302524 </v>
   <v>       0.06690371      -0.14291512      -0.24293957 </v>
   <v>       0.07560616       0.09840231      -0.29241383 </v>
   <v>      -0.37073769       0.19676941       0.15682524 </v>
   <v>       0.21291902       0.22413158       0.02443699 </v>
   <v>      -0.12796815      -0.05518798       0.08054526 </v>
   <v>      -0.02073425       0.14222802      -0.00185372 </v>
   <v>       0.06795882       0.14208537      -0.22788302 </v>
   <v>       0.09196677       0.10545808      -0.36995800 </v>
   <v>       0.02716567       0.06784803      -0.10871124 </v>
   <v>      -0.18480197      -0.29830912       0.03248286 </v>
   <v>       0.22249968      -0.10184653       0.17103456 </v>
   <v>      -0.07809528       0.09310794      -0.08640021 </v>
   <v>       0.05938877       0.10800783       0.06435620 </v>
   <v>       0.28185309      -0.06255052      -0.17950130 </v>
   <v>      -0.21026589       0.01174073       0.03702764 </v>
   <v>       0.05140082       0.14443655      -0.07325768 </v>
  </varray>
  <varray name="stress" >
   <v>      -1.90011490       0.03820815      -0.31138835 </v>
   <v>       0.03820815      -1.47111048      -0.27919355 </v>
   <v>      -0.31138837      -0.27919354      -0.85155279 </v>
  </varray>
  <energy>
   <i name="e_fr_energy">    -62.64775061 </i>
   <i name="e_wo_entrp">    -62.64775061 </i>
   <i name="e_0_energy">      0.00000000 </i>
  </energy>
  <time name="totalsc">   30.20   30.71</time>
 </calculation>
 <calculation>
  <scstep>
   <time name="dav">    3.99    3.99</time>
   <time name="total">    4.44    4.46</time>
   <energy>
    <i name="alphaZ">     78.89813507 </i>
    <i name="ewald">  64739.94847944 </i>
    <i name="hartreedc"> -94576.92850551 </i>
    <i name="XCdc">   -340.07378380 </i>
    <i name="pawpsdc">  32461.80085832 </i>
    <i name="pawaedc"> -31133.15795935 </i>
    <i name="eentropy">      0.00000000 </i>
    <i name="bandstr">  -2409.09413108 </i>
    <i name="atom">  31115.95890259 </i>
    <i name="e_fr_energy">    -62.64800432 </i>
    <i name="e_wo_entrp">    -62.64800432 </i>
    <i name="e_0_energy">    -62.64800432 </i>
   </energy>
  </scstep>
  <scstep>
   <time name="dav">    4.11    4.11</time>
   <time name="total">    4.56    4.57</time>
   <energy>
    <i name="e_fr_energy">    -62.67691515 </i>
    <i name="e_wo_entrp">    -62.67691515 </i>
    <i name="e_0_energy">    -62.67691515 </i>
   </energy>
  </scstep>
  <scstep>
   <time name="dav">    4.27    4.27</time>
   <time name="total">    4.72    4.74</time>
   <energy>
    <i name="e_fr_energy">    -62.67631730 </i>
    <i name="e_wo_entrp">    -62.67631730 </i>
    <i name="e_0_energy">    -62.67631730 </i>
   </energy>
  </scstep>
  <scstep>
   <time name="dav">    4.05    4.05</time>
   <time name="total">    4.50    4.52</time>
   <energy>
    <i name="e_fr_energy">    -62.67579710 </i>
    <i name="e_wo_entrp">    -62.67579710 </i>
    <i name="e_0_energy">    -62.67579710 </i>
   </energy>
  </scstep>
  <scstep>
   <time name="dav">    3.02    3.01</time>
   <time name="total">    3.31    3.33</time>
   <energy>
    <i name="alphaZ">     78.89813507 </i>
    <i name="ewald">  64739.94847944 </i>
    <i name="hartreedc"> -94575.01227134 </i>
    <i name="XCdc">   -340.12402541 </i>
    <i name="pawpsdc">  32483.66842965 </i>
    <i name="pawaedc"> -31155.45857350 </i>
    <i name="eentropy">      0.00000000 </i>
    <i name="bandstr">  -2410.55490238 </i>
    <i name="atom">  31115.95890259 </i>
    <i name="e_fr_energy">    -62.67582589 </i>
    <i name="e_wo_entrp">    -62.67582589 </i>
    <i name="e_0_energy">    -62.67582589 </i>
   </energy>
  </scstep>
  <structure>
   <crystal>
    <varray name="basis" >
     <v>      21.32864754       0.00000000       0.00000000 </v>
     <v>       0.00000000      21.32864754       0.00000000 </v>
     <v>       0.00000000       0.00000000      21.32864754 </v>
    </varray>
    <i name="volume">   9702.64077110 </i>
    <varray name="rec_basis" >
     <v>       0.04688530       0.00000000       0.00000000 </v>
     <v>       0.00000000       0.04688530       0.00000000 </v>
     <v>       0.00000000       0.00000000       0.04688530 </v>
    </varray>
   </crystal>
   <varray name="positions" >
    <v>       0.55867682       0.35796282       0.70418586 </v>
    <v>       0.44731502       0.32597647       0.63688647 </v>
    <v>       0.43885021       0.35719326       0.51338648 </v>
    <v>       0.55625601       0.37038338       0.57856076 </v>
    <v>       0.47001530       0.44526762       0.67896667 </v>
    <v>       0.59719893       0.47391507       0.65239582 </v>
    <v>       0.36918091       0.43216158       0.59457002 </v>
    <v>       0.54395026       0.40767071       0.44992486 </v>
    <v>       0.64145656       0.45796906       0.52918519 </v>
    <v>       0.43638124       0.37271284       0.38302045 </v>
    <v>       0.50615203       0.56954022       0.66233632 </v>
    <v>       0.49408157       0.49279186       0.54789428 </v>
    <v>       0.37449413       0.53304411       0.68243529 </v>
    <v>       0.65876988       0.46282206       0.39347765 </v>
    <v>       0.55319785       0.39828179       0.32339680 </v>
    <v>       0.70153913       0.56064048       0.48305061 </v>
    <v>       0.61549916       0.57732474       0.57623597 </v>
    <v>       0.38581330       0.46571343       0.46491240 </v>
    <v>       0.56917203       0.54099967       0.44897320 </v>
    <v>       0.47072539       0.49517843       0.36408454 </v>
    <v>       0.58059249       0.52080369       0.30149634 </v>
    <v>       0.37090698       0.55794415       0.55953596 </v>
    <v>       0.65941533       0.59724023       0.36659658 </v>
    <v>       0.43876464       0.58737053       0.44921901 </v>
    <v>       0.50343755       0.63904798       0.55098000 </v>
    <v>       0.40635248       0.65198287       0.64640199 </v>
    <v>       0.60315356       0.66339562       0.46605907 </v>
    <v>       0.51992676       0.62245880       0.35517926 </v>
    <v>       0.38648070       0.68490985       0.52185714 </v>
    <v>       0.48261153       0.71215720       0.44057377 </v>
   </varray>
  </structure>
  <varray name="forces" >
   <v>       0.05861467      -0.15751766       0.19602018 </v>
   <v>      -0.18487692      -0.10687786       0.14854898 </v>
   <v>       0.04652250      -0.12351340      -0.01878158 </v>
   <v>      -0.00297018       0.14264435      -0.19939811 </v>
   <v>      -0.03320918       0.12309207       0.15003677 </v>
   <v>      -0.03756420      -0.03696117       0.00834024 </v>
   <v>       0.06325185      -0.04296978       0.09298519 </v>
   <v>       0.08458364       0.02824861       0.26339629 </v>
   <v>      -0.09872036      -0.30824255       0.05780395 </v>
   <v>      -0.02601750      -0.07410173       0.02899200 </v>
   <v>       0.02310794      -0.10751717       0.05465507 </v>
   <v>       0.02057049       0.09337464      -0.08432682 </v>
   <v>       0.00108205      -0.16328456       0.26903504 </v>
   <v>      -0.10276775       0.09336880      -0.00786909 </v>
   <v>       0.07829687      -0.08155662      -0.20836337 </v>
   <v>      -0.01956080       0.00553984      -0.19659714 </v>
   <v>      -0.22917175       0.12238283       0.12920698 </v>
   <v>       0.17708595       0.14682759       0.03509733 </v>
   <v>      -0.05868592       0.00307976       0.03430255 </v>
   <v>       0.00282325       0.09618873      -0.07453697 </v>
   <v>       0.10192948       0.04773959      -0.23060496 </v>
   <v>       0.02953969       0.06472345      -0.16879952 </v>
   <v>       0.00553634       0.07493738      -0.14108893 </v>
   <v>      -0.13020933      -0.15068462       0.00598339 </v>
   <v>       0.11571390      -0.02225064       0.10116424 </v>
   <v>      -0.07791904       0.05719183      -0.04203106 </v>
   <v>       0.11236883       0.09839495       0.03318681 </v>
   <v>       0.26958662      -0.01627155      -0.14571243 </v>
   <v>      -0.22264119       0.06291170      -0.00791998 </v>
   <v>       0.03370006       0.13110320      -0.08272503 </v>
  </varray>
  <varray name="stress" >
   <v>      -1.77394651       0.03116863      -0.33771092 </v>
   <v>       0.03116864      -1.37030734      -0.30255452 </v>
   <v>      -0.33771090      -0.30255452      -0.75532799 </v>
  </varray>
  <energy>
   <i name="e_fr_energy">    -62.67582589 </i>
   <i name="e_wo_entrp">    -62.67582589 </i>
   <i name="e_0_energy">      0.00000000 </i>
  </energy>
  <time name="totalsc">   29.02   29.16</time>
 </calculation>
 <calculation>
  <scstep>
   <time name="dav">    3.99    4.00</time>
   <time name="total">    4.44    4.46</time>
   <energy>
    <i name="alphaZ">     78.89813507 </i>
    <i name="ewald">  64559.78368053 </i>
    <i name="hartreedc"> -94396.00525649 </i>
    <i name="XCdc">   -340.34441916 </i>
    <i name="pawpsdc">  32483.35029433 </i>
    <i name="pawaedc"> -31155.13750107 </i>
    <i name="eentropy">      0.00000000 </i>
    <i name="bandstr">  -2409.21480808 </i>
    <i name="atom">  31115.95890259 </i>
    <i name="e_fr_energy">    -62.71097226 </i>
    <i name="e_wo_entrp">    -62.71097226 </i>
    <i name="e_0_energy">    -62.71097226 </i>
   </energy>
  </scstep>
  <scstep>
   <time name="dav">    4.11    4.11</time>
   <time name="total">    4.56    4.56</time>
   <energy>
    <i name="e_fr_energy">    -62.71986365 </i>
    <i name="e_wo_entrp">    -62.71986365 </i>
    <i name="e_0_energy">    -62.71986365 </i>
   </energy>
  </scstep>
  <scstep>
   <time name="dav">    4.21    4.22</time>
   <time name="total">    4.66    4.75</time>
   <energy>
    <i name="e_fr_energy">    -62.71972159 </i>
    <i name="e_wo_entrp">    -62.71972159 </i>
    <i name="e_0_energy">    -62.71972159 </i>
   </energy>
  </scstep>
  <scstep>
   <time name="dav">    4.10    4.11</time>
   <time name="total">    4.56    4.56</time>
   <energy>
    <i name="e_fr_energy">    -62.71946708 </i>
    <i name="e_wo_entrp">    -62.71946708 </i>
    <i name="e_0_energy">    -62.71946708 </i>
   </energy>
  </scstep>
  <scstep>
   <time name="dav">    2.74    2.74</time>
   <time name="total">    3.03    3.05</time>
   <energy>
    <i name="alphaZ">     78.89813507 </i>
    <i name="ewald">  64559.78368053 </i>
    <i name="hartreedc"> -94397.63057202 </i>
    <i name="XCdc">   -340.30231276 </i>
    <i name="pawpsdc">  32453.25178071 </i>
    <i name="pawaedc"> -31124.54778939 </i>
    <i name="eentropy">      0.00000000 </i>
    <i name="bandstr">  -2408.13129821 </i>
    <i name="atom">  31115.95890259 </i>
    <i name="e_fr_energy">    -62.71947348 </i>
    <i name="e_wo_entrp">    -62.71947348 </i>
    <i name="e_0_energy">    -62.71947348 </i>
   </energy>
  </scstep>
  <structure>
   <crystal>
    <varray name="basis" >
     <v>      21.32864754       0.00000000       0.00000000 </v>
     <v>       0.00000000      21.32864754       0.00000000 </v>
     <v>       0.00000000       0.00000000      21.32864754 </v>
    </varray>
    <i name="volume">   9702.64077110 </i>
    <varray name="rec_basis" >
     <v>       0.04688530       0.00000000       0.00000000 </v>
     <v>       0.00000000       0.04688530       0.00000000 </v>
     <v>       0.00000000       0.00000000       0.04688530 </v>
    </varray>
   </crystal>
   <varray name="positions" >
    <v>       0.55875275       0.35760593       0.70455109 </v>
    <v>       0.44686103       0.32581426       0.63721843 </v>
    <v>       0.43882455       0.35681921       0.51351254 </v>
    <v>       0.55617127       0.37056234       0.57850139 </v>
    <v>       0.46998539       0.44528282       0.67946895 </v>
    <v>       0.59724747       0.47372519       0.65232183 </v>
    <v>       0.36934989       0.43195405       0.59472081 </v>
    <v>       0.54403349       0.40760097       0.45008486 </v>
    <v>       0.64162369       0.45747597       0.52949731 </v>
    <v>       0.43629426       0.37245563       0.38310100 </v>
    <v>       0.50612369       0.56941820       0.66268279 </v>
    <v>       0.49409257       0.49301482       0.54764196 </v>
    <v>       0.37442054       0.53277620       0.68304895 </v>
    <v>       0.65844123       0.46317556       0.39340799 </v>
    <v>       0.55345389       0.39819943       0.32291305 </v>
    <v>       0.70131105       0.56046846       0.48273983 </v>
    <v>       0.61529465       0.57744341       0.57654475 </v>
    <v>       0.38616921       0.46586357       0.46502940 </v>
    <v>       0.56916620       0.54118130       0.44894235 </v>
    <v>       0.47079527       0.49530241       0.36365958 </v>
    <v>       0.58095161       0.52070300       0.30087334 </v>
    <v>       0.37076984       0.55799247       0.55963160 </v>
    <v>       0.65937030       0.59745489       0.36613058 </v>
    <v>       0.43859644       0.58740072       0.44910348 </v>
    <v>       0.50342936       0.63921359       0.55106253 </v>
    <v>       0.40615181       0.65204970       0.64642235 </v>
    <v>       0.60357149       0.66363766       0.46605781 </v>
    <v>       0.52058204       0.62255656       0.35487927 </v>
    <v>       0.38588152       0.68522500       0.52170250 </v>
    <v>       0.48265122       0.71248719       0.44032649 </v>
   </varray>
  </structure>
  <varray name="forces" >
   <v>       0.03123899      -0.13026267       0.13887800 </v>
   <v>      -0.15369442      -0.07716012       0.14791078 </v>
   <v>       0.04472520      -0.11004394      -0.02340198 </v>
   <v>      -0.03492487       0.10860738      -0.13789130 </v>
   <v>      -0.00944735       0.08791373       0.13443865 </v>
   <v>      -0.05358185      -0.03760200       0.02878736 </v>
   <v>       0.06906836      -0.01915681       0.08982488 </v>
   <v>       0.06670859       0.03273381       0.20262980 </v>
   <v>      -0.09070250      -0.24482568       0.03019231 </v>
   <v>       0.00696832      -0.03425895       0.02998231 </v>
   <v>       0.01128518      -0.09590474       0.03229515 </v>
   <v>       0.01644531       0.09467461      -0.05635503 </v>
   <v>       0.00568257      -0.12860822       0.20787328 </v>
   <v>      -0.09207620       0.07101352      -0.00794096 </v>
   <v>       0.05854729      -0.06915429      -0.14855923 </v>
   <v>      -0.04663294       0.00262941      -0.17520548 </v>
   <v>      -0.20066478       0.09765733       0.09114729 </v>
   <v>       0.18490707       0.11787064       0.03110169 </v>
   <v>      -0.06119972       0.01236936       0.04326373 </v>
   <v>       0.02414594       0.07471192      -0.06902077 </v>
   <v>       0.07610859       0.04626904      -0.21800769 </v>
   <v>       0.04213813       0.05555733      -0.12650477 </v>
   <v>       0.00751961       0.07188441      -0.12012191 </v>
   <v>      -0.09133326      -0.10857718      -0.00409781 </v>
   <v>       0.07663865      -0.01273182       0.07329476 </v>
   <v>      -0.07262267       0.02421267      -0.05247796 </v>
   <v>       0.08174976       0.08129143       0.03497719 </v>
   <v>       0.23702918      -0.01895594      -0.10602629 </v>
   <v>      -0.16084094       0.03451496      -0.01403766 </v>
   <v>       0.02681476       0.07333083      -0.05694835 </v>
  </varray>
  <varray name="stress" >
   <v>      -1.88669896       0.03019904      -0.30424831 </v>
   <v>       0.03019902      -1.50149465      -0.27883807 </v>
   <v>      -0.30424832      -0.27883806      -0.93679576 </v>
  </varray>
  <energy>
   <i name="e_fr_energy">    -62.71947348 </i>
   <i name="e_wo_entrp">    -62.71947348 </i>
   <i name="e_0_energy">      0.00000000 </i>
  </energy>
  <time name="totalsc">   28.76   28.95</time>
 </calculation>
 <calculation>
  <scstep>
   <time name="dav">    4.00    4.00</time>
   <time name="total">    4.44    4.46</time>
   <energy>
    <i name="alphaZ">     78.89813507 </i>
    <i name="ewald">  64022.37027061 </i>
    <i name="hartreedc"> -93863.27085071 </i>
    <i name="XCdc">   -340.93599806 </i>
    <i name="pawpsdc">  32453.54020979 </i>
    <i name="pawaedc"> -31124.83830702 </i>
    <i name="eentropy">      0.00000000 </i>
    <i name="bandstr">  -2404.43919984 </i>
    <i name="atom">  31115.95890259 </i>
    <i name="e_fr_energy">    -62.71683759 </i>
    <i name="e_wo_entrp">    -62.71683759 </i>
    <i name="e_0_energy">    -62.71683759 </i>
   </energy>
  </scstep>
  <scstep>
   <time name="dav">    4.22    4.22</time>
   <time name="total">    4.67    4.67</time>
   <energy>
    <i name="e_fr_energy">    -62.79720975 </i>
    <i name="e_wo_entrp">    -62.79720975 </i>
    <i name="e_0_energy">    -62.79720975 </i>
   </energy>
  </scstep>
  <scstep>
   <time name="dav">    4.07    4.07</time>
   <time name="total">    4.52    5.72</time>
   <energy>
    <i name="e_fr_energy">    -62.79658361 </i>
    <i name="e_wo_entrp">    -62.79658361 </i>
    <i name="e_0_energy">    -62.79658361 </i>
   </energy>
  </scstep>
  <scstep>
   <time name="dav">    4.16    4.16</time>
   <time name="total">    4.61    5.45</time>
   <energy>
    <i name="e_fr_energy">    -62.79416149 </i>
    <i name="e_wo_entrp">    -62.79416149 </i>
    <i name="e_0_energy">    -62.79416149 </i>
   </energy>
  </scstep>
  <scstep>
   <time name="dav">    4.16    4.16</time>
   <time name="total">    4.61    4.63</time>
   <energy>
    <i name="e_fr_energy">    -62.79418100 </i>
    <i name="e_wo_entrp">    -62.79418100 </i>
    <i name="e_0_energy">    -62.79418100 </i>
   </energy>
  </scstep>
  <scstep>
   <time name="dav">    2.90    2.90</time>
   <time name="total">    3.20    3.22</time>
   <energy>
    <i name="alphaZ">     78.89813507 </i>
    <i name="ewald">  64022.37027061 </i>
    <i name="hartreedc"> -93867.79357773 </i>
    <i name="XCdc">   -340.81323555 </i>
    <i name="pawpsdc">  32370.80359502 </i>
    <i name="pawaedc"> -31040.69870613 </i>
    <i name="eentropy">      0.00000000 </i>
    <i name="bandstr">  -2401.51948313 </i>
    <i name="atom">  31115.95890259 </i>
    <i name="e_fr_energy">    -62.79409926 </i>
    <i name="e_wo_entrp">    -62.79409926 </i>
    <i name="e_0_energy">    -62.79409926 </i>
   </energy>
  </scstep>
  <structure>
   <crystal>
    <varray name="basis" >
     <v>      21.32864754       0.00000000       0.00000000 </v>
     <v>       0.00000000      21.32864754       0.00000000 </v>
     <v>       0.00000000       0.00000000      21.32864754 </v>
    </varray>
    <i name="volume">   9702.64077110 </i>
    <varray name="rec_basis" >
     <v>       0.04688530       0.00000000       0.00000000 </v>
     <v>       0.00000000       0.04688530       0.00000000 </v>
     <v>       0.00000000       0.00000000       0.04688530 </v>
    </varray>
   </crystal>
   <varray name="positions" >
    <v>       0.55898051       0.35653527       0.70564676 </v>
    <v>       0.44549907       0.32532764       0.63821429 </v>
    <v>       0.43874757       0.35569707       0.51389074 </v>
    <v>       0.55591705       0.37109921       0.57832328 </v>
    <v>       0.46989565       0.44532843       0.68097582 </v>
    <v>       0.59739311       0.47315556       0.65209985 </v>
    <v>       0.36985684       0.43133145       0.59517318 </v>
    <v>       0.54428315       0.40739174       0.45056487 </v>
    <v>       0.64212506       0.45599671       0.53043369 </v>
    <v>       0.43603331       0.37168402       0.38334266 </v>
    <v>       0.50603865       0.56905213       0.66372219 </v>
    <v>       0.49412558       0.49368370       0.54688499 </v>
    <v>       0.37419978       0.53197246       0.68488992 </v>
    <v>       0.65745531       0.46423607       0.39319899 </v>
    <v>       0.55422200       0.39795234       0.32146178 </v>
    <v>       0.70062683       0.55995242       0.48180749 </v>
    <v>       0.61468113       0.57779940       0.57747108 </v>
    <v>       0.38723695       0.46631398       0.46538038 </v>
    <v>       0.56914873       0.54172621       0.44884978 </v>
    <v>       0.47100491       0.49567435       0.36238469 </v>
    <v>       0.58202899       0.52040091       0.29900433 </v>
    <v>       0.37035844       0.55813746       0.55991850 </v>
    <v>       0.65923520       0.59809887       0.36473258 </v>
    <v>       0.43809186       0.58749130       0.44875691 </v>
    <v>       0.50340481       0.63971042       0.55131011 </v>
    <v>       0.40554980       0.65225018       0.64648343 </v>
    <v>       0.60482526       0.66436379       0.46605402 </v>
    <v>       0.52254788       0.62284983       0.35397932 </v>
    <v>       0.38408399       0.68617046       0.52123856 </v>
    <v>       0.48277031       0.71347714       0.43958462 </v>
   </varray>
  </structure>
  <varray name="forces" >
   <v>      -0.04488583      -0.04980394      -0.01721534 </v>
   <v>      -0.07571017       0.00466013       0.13262771 </v>
   <v>       0.04299769      -0.06186074      -0.03886042 </v>
   <v>      -0.12551485       0.00385881       0.02737207 </v>
   <v>       0.05958320      -0.01203870       0.07376962 </v>
   <v>      -0.10480420      -0.03099476       0.09559338 </v>
   <v>       0.08222070       0.05470778       0.07992333 </v>
   <v>       0.01489785       0.05088153       0.04452875 </v>
   <v>      -0.06991556      -0.04430912      -0.06543776 </v>
   <v>       0.09387774       0.08364902       0.03347418 </v>
   <v>      -0.02209017      -0.06319398      -0.04911675 </v>
   <v>       0.00734137       0.10000986       0.02797795 </v>
   <v>       0.02036605      -0.03592888       0.06620027 </v>
   <v>      -0.05632269      -0.00399297      -0.01124698 </v>
   <v>       0.01059407      -0.03387098       0.00584787 </v>
   <v>      -0.10703291       0.00257817      -0.12769418 </v>
   <v>      -0.12701103       0.01810433      -0.00859588 </v>
   <v>       0.21353238       0.03247470       0.01375753 </v>
   <v>      -0.07901320       0.04199225       0.07157611 </v>
   <v>       0.08418147       0.01774386      -0.03933067 </v>
   <v>      -0.00684724       0.04708120      -0.16458478 </v>
   <v>       0.08468334       0.03189818      -0.02274013 </v>
   <v>       0.01549030       0.05720962      -0.05285845 </v>
   <v>       0.01591631       0.00414826      -0.02360408 </v>
   <v>      -0.02701672       0.00335837      -0.00357979 </v>
[...]
       <r>    -0.2976     0.0000   189.0000 </r>
       <r>    -0.2580     0.0000   189.0000 </r>
       <r>    -0.2184     0.0000   190.0000 </r>
       <r>    -0.1788     0.0000   190.0000 </r>
       <r>    -0.1391     0.0000   191.0000 </r>
       <r>    -0.0995     0.0000   191.0000 </r>
       <r>    -0.0599     0.0000   191.0000 </r>
       <r>    -0.0203     0.0000   191.0000 </r>
       <r>     0.0194     0.0000   191.0000 </r>
       <r>     0.0590     0.0000   192.0000 </r>
       <r>     0.0986     0.0000   192.0000 </r>
       <r>     0.1382     0.0000   192.0000 </r>
       <r>     0.1779     0.0000   192.0000 </r>
       <r>     0.2175     0.0000   193.0000 </r>
       <r>     0.2571     0.0000   193.0000 </r>
       <r>     0.2967     0.0000   194.0000 </r>
       <r>     0.3364     0.0000   194.0000 </r>
       <r>     0.3760     0.0000   194.0000 </r>
       <r>     0.4156     0.0000   194.0000 </r>
       <r>     0.4552     0.0000   195.0000 </r>
       <r>     0.4949     0.0000   195.0000 </r>
       <r>     0.5345     0.0000   196.0000 </r>
       <r>     0.5741     0.0000   197.0000 </r>
       <r>     0.6137     0.0000   197.0000 </r>
       <r>     0.6534     0.0000   197.0000 </r>
       <r>     0.6930     0.0000   198.0000 </r>
       <r>     0.7326     0.0000   199.0000 </r>
       <r>     0.7722     0.0000   200.0000 </r>
       <r>     0.8119     0.0000   201.0000 </r>
       <r>     0.8515     0.0000   201.0000 </r>
       <r>     0.8911     0.0000   203.0000 </r>
       <r>     0.9307     0.0000   205.0000 </r>
       <r>     0.9704     0.0000   205.0000 </r>
       <r>     1.0100     0.0000   207.0000 </r>
       <r>     1.0496     0.0000   209.0000 </r>
       <r>     1.0892     0.0000   211.0000 </r>
       <r>     1.1289     0.0000   211.0000 </r>
       <r>     1.1685     0.0000   214.0000 </r>
       <r>     1.2081     0.0000   215.0000 </r>
       <r>     1.2477     0.0000   216.0000 </r>
       <r>     1.2874     0.0000   216.0000 </r>
       <r>     1.3270     0.0000   216.0000 </r>
       <r>     1.3666     0.0000   216.0000 </r>
       <r>     1.4062     0.0000   216.0000 </r>
       <r>     1.4458     0.0000   216.0000 </r>
       <r>     1.4855     0.0000   216.0000 </r>
       <r>     1.5251     0.0000   216.0000 </r>
       <r>     1.5647     0.0000   216.0000 </r>
       <r>     1.6043     0.0000   216.0000 </r>
       <r>     1.6440     0.0000   216.0000 </r>
       <r>     1.6836     0.0000   216.0000 </r>
       <r>     1.7232     0.0000   216.0000 </r>
       <r>     1.7628     0.0000   216.0000 </r>
      </set>
      <set comment="spin 2">
       <r>   -10.1246     0.0000     0.0000 </r>
       <r>   -10.0849     0.0000     0.0000 </r>
       <r>   -10.0453     0.0000     0.0000 </r>
       <r>   -10.0057     0.0000     0.0000 </r>
       <r>    -9.9661     0.0000     0.0000 </r>
       <r>    -9.9264     0.0000     0.0000 </r>
       <r>    -9.8868     0.0000     0.0000 </r>
       <r>    -9.8472     0.0000     0.0000 </r>
       <r>    -9.8076     0.0000     0.0000 </r>
       <r>    -9.7679     0.0000     0.0000 </r>
       <r>    -9.7283     0.0000     0.0000 </r>
       <r>    -9.6887     0.0000     0.0000 </r>
       <r>    -9.6491     0.0000     0.0000 </r>
       <r>    -9.6094     0.0000     0.0000 </r>
       <r>    -9.5698     0.0000     1.0000 </r>
       <r>    -9.5302     0.0000     1.0000 </r>
       <r>    -9.4906     0.0000     1.0000 </r>
       <r>    -9.4509     0.0000     1.0000 </r>
       <r>    -9.4113     0.0000     1.0000 </r>
       <r>    -9.3717     0.0000     1.0000 </r>
       <r>    -9.3321     0.0000     1.0000 </r>
       <r>    -9.2924     0.0000     1.0000 </r>
       <r>    -9.2528     0.0000     1.0000 </r>
       <r>    -9.2132     0.0000     1.0000 </r>
       <r>    -9.1736     0.0000     1.0000 </r>
       <r>    -9.1339     0.0000     1.0000 </r>
       <r>    -9.0943     0.0000     2.0000 </r>
       <r>    -9.0547     0.0000     3.0000 </r>
       <r>    -9.0151     0.0000     4.0000 </r>
       <r>    -8.9754    25.2368     7.0000 </r>
       <r>    -8.9358     0.0000     8.0000 </r>
       <r>    -8.8962     0.0003     8.0000 </r>
       <r>    -8.8566     0.0000    10.0000 </r>
       <r>    -8.8169     0.0000    11.0000 </r>
       <r>    -8.7773     0.0000    13.0000 </r>
       <r>    -8.7377     0.0000    14.0000 </r>
       <r>    -8.6981     0.0000    16.0000 </r>
       <r>    -8.6585     0.0000    17.0000 </r>
       <r>    -8.6188     0.0000    17.0000 </r>
       <r>    -8.5792     0.0000    19.0000 </r>
       <r>    -8.5396     0.0000    20.0000 </r>
       <r>    -8.5000     0.0000    22.0000 </r>
       <r>    -8.4603     0.0000    25.0000 </r>
       <r>    -8.4207     0.0000    26.0000 </r>
       <r>    -8.3811     0.0000    28.0000 </r>
       <r>    -8.3415     0.0000    30.0000 </r>
       <r>    -8.3018     0.0000    33.0000 </r>
       <r>    -8.2622     0.0000    35.0000 </r>
       <r>    -8.2226     0.0000    37.0000 </r>
       <r>    -8.1830     0.0000    39.0000 </r>
       <r>    -8.1433     0.0000    41.0000 </r>
       <r>    -8.1037     0.0000    43.0000 </r>
       <r>    -8.0641     0.0000    44.0000 </r>
       <r>    -8.0245     0.0000    46.0000 </r>
       <r>    -7.9848     0.0000    49.0000 </r>
       <r>    -7.9452     0.0000    51.0000 </r>
       <r>    -7.9056     0.0000    53.0000 </r>
       <r>    -7.8660     0.0000    54.0000 </r>
       <r>    -7.8263     0.0000    55.0000 </r>
       <r>    -7.7867     0.0000    56.0000 </r>
       <r>    -7.7471     0.0000    58.0000 </r>
       <r>    -7.7075     0.0000    60.0000 </r>
       <r>    -7.6678     0.0000    62.0000 </r>
       <r>    -7.6282     0.0000    63.0000 </r>
       <r>    -7.5886     0.0000    66.0000 </r>
       <r>    -7.5490     0.0000    68.0000 </r>
       <r>    -7.5093     0.0000    70.0000 </r>
       <r>    -7.4697     0.0000    72.0000 </r>
       <r>    -7.4301     0.0000    74.0000 </r>
       <r>    -7.3905     0.0000    75.0000 </r>
       <r>    -7.3508     0.0000    77.0000 </r>
       <r>    -7.3112     0.0000    79.0000 </r>
       <r>    -7.2716     0.0000    81.0000 </r>
       <r>    -7.2320     0.0000    83.0000 </r>
       <r>    -7.1923     0.0000    84.0000 </r>
       <r>    -7.1527     0.0000    86.0000 </r>
       <r>    -7.1131     0.0000    89.0000 </r>
       <r>    -7.0735     0.0000    92.0000 </r>
       <r>    -7.0338     0.0000    95.0000 </r>
       <r>    -6.9942     0.0000    97.0000 </r>
       <r>    -6.9546     0.0000    99.0000 </r>
       <r>    -6.9150     0.0000   103.0000 </r>
       <r>    -6.8753     0.0000   106.0000 </r>
       <r>    -6.8357     0.0000   110.0000 </r>
       <r>    -6.7961     0.0000   112.0000 </r>
       <r>    -6.7565     0.0000   115.0000 </r>
       <r>    -6.7168     0.0000   118.0000 </r>
       <r>    -6.6772    25.2368   121.0000 </r>
       <r>    -6.6376     0.0000   123.0000 </r>
       <r>    -6.5980     0.0000   126.0000 </r>
       <r>    -6.5583     0.0000   130.0000 </r>
       <r>    -6.5187     0.0000   132.0000 </r>
       <r>    -6.4791     0.0000   136.0000 </r>
       <r>    -6.4395     0.0000   138.0000 </r>
       <r>    -6.3998     0.0000   141.0000 </r>
       <r>    -6.3602     0.0000   144.0000 </r>
       <r>    -6.3206     0.0000   146.0000 </r>
       <r>    -6.2810     0.0000   148.0000 </r>
       <r>    -6.2413     0.0000   150.0000 </r>
       <r>    -6.2017     0.0000   151.0000 </r>
       <r>    -6.1621     0.0000   153.0000 </r>
       <r>    -6.1225     0.0000   154.0000 </r>
       <r>    -6.0828     0.0000   154.0000 </r>
       <r>    -6.0432     0.0000   154.0000 </r>
       <r>    -6.0036     0.0000   154.0000 </r>
       <r>    -5.9640     0.0000   154.0000 </r>
       <r>    -5.9243     0.0000   154.0000 </r>
       <r>    -5.8847     0.0000   154.0000 </r>
       <r>    -5.8451     0.0000   154.0000 </r>
       <r>    -5.8055     0.0000   155.0000 </r>
       <r>    -5.7658     0.0000   155.0000 </r>
       <r>    -5.7262     0.0000   156.0000 </r>
       <r>    -5.6866     0.0000   156.0000 </r>
       <r>    -5.6470     0.0000   156.0000 </r>
       <r>    -5.6073     0.0000   156.0000 </r>
       <r>    -5.5677     0.0000   156.0000 </r>
       <r>    -5.5281     0.0000   156.0000 </r>
       <r>    -5.4885     0.0000   156.0000 </r>
       <r>    -5.4488     0.0000   156.0000 </r>
       <r>    -5.4092     0.0000   156.0000 </r>
       <r>    -5.3696     0.0000   157.0000 </r>
       <r>    -5.3300     0.0000   157.0000 </r>
       <r>    -5.2904     0.0000   157.0000 </r>
       <r>    -5.2507     0.0000   157.0000 </r>
       <r>    -5.2111     0.0000   157.0000 </r>
       <r>    -5.1715     0.0000   157.0000 </r>
       <r>    -5.1319     0.0000   157.0000 </r>
       <r>    -5.0922     0.0000   158.0000 </r>
       <r>    -5.0526     0.0000   158.0000 </r>
       <r>    -5.0130     0.0000   158.0000 </r>
       <r>    -4.9734     0.0000   158.0000 </r>
       <r>    -4.9337     0.0000   159.0000 </r>
       <r>    -4.8941     0.0000   159.0000 </r>
       <r>    -4.8545     0.0000   159.0000 </r>
       <r>    -4.8149     0.0000   159.0000 </r>
       <r>    -4.7752     0.0000   159.0000 </r>
       <r>    -4.7356     0.0000   159.0000 </r>
       <r>    -4.6960     0.0000   159.0000 </r>
       <r>    -4.6564     0.0000   159.0000 </r>
       <r>    -4.6167     0.0000   159.0000 </r>
       <r>    -4.5771     0.0000   159.0000 </r>
       <r>    -4.5375     0.0000   159.0000 </r>
       <r>    -4.4979     0.0000   159.0000 </r>
       <r>    -4.4582     0.0000   159.0000 </r>
       <r>    -4.4186     0.0000   159.0000 </r>
       <r>    -4.3790     0.0000   160.0000 </r>
       <r>    -4.3394     0.0000   160.0000 </r>
       <r>    -4.2997     0.0000   160.0000 </r>
       <r>    -4.2601     0.0000   160.0000 </r>
       <r>    -4.2205     0.0000   161.0000 </r>
       <r>    -4.1809     0.0000   162.0000 </r>
       <r>    -4.1412     0.0000   162.0000 </r>
       <r>    -4.1016     0.0000   162.0000 </r>
       <r>    -4.0620     0.0000   162.0000 </r>
       <r>    -4.0224     0.0000   162.0000 </r>
       <r>    -3.9827     0.0000   163.0000 </r>
       <r>    -3.9431     0.0000   163.0000 </r>
       <r>    -3.9035     0.0000   163.0000 </r>
       <r>    -3.8639     0.0000   163.0000 </r>
       <r>    -3.8242     0.0000   163.0000 </r>
       <r>    -3.7846     0.0000   163.0000 </r>
       <r>    -3.7450     0.0000   164.0000 </r>
       <r>    -3.7054     0.0000   164.0000 </r>
       <r>    -3.6657     0.0000   164.0000 </r>
       <r>    -3.6261     0.0000   164.0000 </r>
       <r>    -3.5865     0.0000   164.0000 </r>
       <r>    -3.5469     0.0000   165.0000 </r>
       <r>    -3.5072     0.0000   165.0000 </r>
       <r>    -3.4676     0.0000   165.0000 </r>
       <r>    -3.4280     0.0000   165.0000 </r>
       <r>    -3.3884     0.0000   165.0000 </r>
       <r>    -3.3487     0.0000   165.0000 </r>
       <r>    -3.3091     0.0000   165.0000 </r>
       <r>    -3.2695     0.0000   165.0000 </r>
       <r>    -3.2299     0.0000   165.0000 </r>
       <r>    -3.1902     0.0000   165.0000 </r>
       <r>    -3.1506     0.0000   165.0000 </r>
       <r>    -3.1110     0.0000   165.0000 </r>
       <r>    -3.0714     0.0000   166.0000 </r>
       <r>    -3.0317     0.0000   166.0000 </r>
       <r>    -2.9921     0.0000   167.0000 </r>
       <r>    -2.9525     0.0000   167.0000 </r>
       <r>    -2.9129     0.0000   167.0000 </r>
       <r>    -2.8732     0.0000   167.0000 </r>
       <r>    -2.8336     0.0000   167.0000 </r>
       <r>    -2.7940     0.0000   168.0000 </r>
       <r>    -2.7544     0.0000   168.0000 </r>
       <r>    -2.7147     0.0000   168.0000 </r>
       <r>    -2.6751     0.0000   168.0000 </r>
       <r>    -2.6355     0.0000   168.0000 </r>
       <r>    -2.5959     0.0000   169.0000 </r>
       <r>    -2.5562     0.0000   169.0000 </r>
       <r>    -2.5166     0.0000   170.0000 </r>
       <r>    -2.4770     0.0000   170.0000 </r>
       <r>    -2.4374     0.0000   170.0000 </r>
       <r>    -2.3977     0.0000   171.0000 </r>
       <r>    -2.3581     0.0000   171.0000 </r>
       <r>    -2.3185     0.0000   171.0000 </r>
       <r>    -2.2789     0.0000   172.0000 </r>
       <r>    -2.2392     0.0000   172.0000 </r>
       <r>    -2.1996     0.0000   173.0000 </r>
       <r>    -2.1600     0.0000   173.0000 </r>
       <r>    -2.1204     0.0000   173.0000 </r>
       <r>    -2.0807     0.0000   173.0000 </r>
       <r>    -2.0411     0.0000   173.0000 </r>
       <r>    -2.0015     0.0000   174.0000 </r>
       <r>    -1.9619     0.0000   175.0000 </r>
       <r>    -1.9223     0.0000   175.0000 </r>
       <r>    -1.8826     0.0000   175.0000 </r>
       <r>    -1.8430     0.0000   175.0000 </r>
       <r>    -1.8034     0.0000   176.0000 </r>
       <r>    -1.7638     0.0000   176.0000 </r>
       <r>    -1.7241     0.0000   177.0000 </r>
       <r>    -1.6845     0.0000   177.0000 </r>
       <r>    -1.6449     0.0000   177.0000 </r>
       <r>    -1.6053     0.0000   177.0000 </r>
       <r>    -1.5656     0.0000   177.0000 </r>
       <r>    -1.5260     0.0000   177.0000 </r>
       <r>    -1.4864     0.0000   177.0000 </r>
       <r>    -1.4468     0.0000   177.0000 </r>
       <r>    -1.4071     0.0000   178.0000 </r>
       <r>    -1.3675     0.0000   178.0000 </r>
       <r>    -1.3279     0.0000   178.0000 </r>
       <r>    -1.2883     0.0000   178.0000 </r>
       <r>    -1.2486     0.0000   179.0000 </r>
       <r>    -1.2090     0.0000   180.0000 </r>
       <r>    -1.1694     0.0000   180.0000 </r>
       <r>    -1.1298     0.0000   180.0000 </r>
       <r>    -1.0901     0.0000   180.0000 </r>
       <r>    -1.0505     0.0000   180.0000 </r>
       <r>    -1.0109     0.0000   180.0000 </r>
       <r>    -0.9713     0.0000   181.0000 </r>
       <r>    -0.9316     0.0000   182.0000 </r>
       <r>    -0.8920     0.0000   182.0000 </r>
       <r>    -0.8524     0.0000   182.0000 </r>
       <r>    -0.8128     0.0000   182.0000 </r>
       <r>    -0.7731     0.0000   182.0000 </r>
       <r>    -0.7335     0.0000   182.0000 </r>
       <r>    -0.6939     0.0000   183.0000 </r>
       <r>    -0.6543     0.0000   184.0000 </r>
       <r>    -0.6146    25.2368   185.0000 </r>
       <r>    -0.5750     0.0000   185.0000 </r>
       <r>    -0.5354     0.0000   185.0000 </r>
       <r>    -0.4958     0.0000   186.0000 </r>
       <r>    -0.4561     0.0000   186.0000 </r>
       <r>    -0.4165     0.0000   187.0000 </r>
       <r>    -0.3769     0.0000   188.0000 </r>
       <r>    -0.3373     0.0000   188.0000 </r>
       <r>    -0.2976     0.0000   189.0000 </r>
       <r>    -0.2580     0.0000   189.0000 </r>
       <r>    -0.2184     0.0000   190.0000 </r>
       <r>    -0.1788     0.0000   190.0000 </r>
       <r>    -0.1391     0.0000   191.0000 </r>
       <r>    -0.0995     0.0000   191.0000 </r>
       <r>    -0.0599     0.0000   191.0000 </r>
       <r>    -0.0203     0.0000   191.0000 </r>
       <r>     0.0194     0.0000   191.0000 </r>
       <r>     0.0590     0.0000   192.0000 </r>
       <r>     0.0986     0.0000   192.0000 </r>
       <r>     0.1382     0.0000   192.0000 </r>
       <r>     0.1779     0.0000   192.0000 </r>
       <r>     0.2175     0.0000   193.0000 </r>
       <r>     0.2571     0.0000   193.0000 </r>
       <r>     0.2967     0.0000   194.0000 </r>
       <r>     0.3364     0.0000   194.0000 </r>
       <r>     0.3760     0.0000   194.0000 </r>
       <r>     0.4156     0.0000   194.0000 </r>
       <r>     0.4552     0.0000   195.0000 </r>
       <r>     0.4949     0.0000   195.0000 </r>
       <r>     0.5345     0.0000   196.0000 </r>
       <r>     0.5741     0.0000   197.0000 </r>
       <r>     0.6137     0.0000   197.0000 </r>
       <r>     0.6534     0.0000   197.0000 </r>
       <r>     0.6930     0.0000   198.0000 </r>
       <r>     0.7326     0.0000   199.0000 </r>
       <r>     0.7722     0.0000   200.0000 </r>
       <r>     0.8119     0.0000   201.0000 </r>
       <r>     0.8515     0.0000   201.0000 </r>
       <r>     0.8911     0.0000   203.0000 </r>
       <r>     0.9307     0.0000   205.0000 </r>
       <r>     0.9704     0.0000   205.0000 </r>
       <r>     1.0100     0.0000   207.0000 </r>
       <r>     1.0496     0.0000   209.0000 </r>
       <r>     1.0892     0.0000   211.0000 </r>
       <r>     1.1289     0.0000   211.0000 </r>
       <r>     1.1685     0.0000   214.0000 </r>
       <r>     1.2081     0.0000   215.0000 </r>
       <r>     1.2477     0.0000   216.0000 </r>
       <r>     1.2874     0.0000   216.0000 </r>
       <r>     1.3270     0.0000   216.0000 </r>
       <r>     1.3666     0.0000   216.0000 </r>
       <r>     1.4062     0.0000   216.0000 </r>
       <r>     1.4458     0.0000   216.0000 </r>
       <r>     1.4855     0.0000   216.0000 </r>
       <r>     1.5251     0.0000   216.0000 </r>
       <r>     1.5647     0.0000   216.0000 </r>
       <r>     1.6043     0.0000   216.0000 </r>
       <r>     1.6440     0.0000   216.0000 </r>
       <r>     1.6836     0.0000   216.0000 </r>
       <r>     1.7232     0.0000   216.0000 </r>
       <r>     1.7628     0.0000   216.0000 </r>
      </set>
     </set>
    </array>
   </total>
  </dos>
 </calculation>
 <structure name="finalpos" >
  <crystal>
   <varray name="basis" >
    <v>      21.32864754       0.00000000       0.00000000 </v>
    <v>       0.00000000      21.32864754       0.00000000 </v>
    <v>       0.00000000       0.00000000      21.32864754 </v>
   </varray>
   <i name="volume">   9702.64077110 </i>
   <varray name="rec_basis" >
    <v>       0.04688530       0.00000000       0.00000000 </v>
    <v>       0.00000000       0.04688530       0.00000000 </v>
    <v>       0.00000000       0.00000000       0.04688530 </v>
   </varray>
  </crystal>
  <varray name="positions" >
   <v>       0.55838049       0.34917249       0.70597774 </v>
   <v>       0.44122160       0.32454464       0.64358154 </v>
   <v>       0.43621191       0.34477642       0.51339341 </v>
   <v>       0.54760314       0.37093873       0.58098570 </v>
   <v>       0.47241990       0.44416893       0.69326454 </v>
   <v>       0.59519548       0.47082077       0.65676753 </v>
   <v>       0.38136580       0.43260414       0.59616331 </v>
   <v>       0.53805540       0.41094457       0.45369848 </v>
   <v>       0.63501817       0.45580977       0.53155922 </v>
   <v>       0.43915400       0.37173040       0.38083891 </v>
   <v>       0.50464553       0.57076951       0.66848912 </v>
   <v>       0.50074017       0.49721014       0.55898536 </v>
   <v>       0.37661163       0.53160220       0.68459658 </v>
   <v>       0.64644983       0.46747682       0.39213434 </v>
   <v>       0.55646818       0.39962922       0.32022455 </v>
   <v>       0.69282422       0.55980415       0.47969369 </v>
   <v>       0.61154712       0.57823505       0.58117310 </v>
   <v>       0.40916391       0.46583844       0.46784960 </v>
   <v>       0.56163953       0.54639920       0.45359493 </v>
   <v>       0.47743151       0.49753926       0.35684386 </v>
   <v>       0.58376003       0.52164208       0.28490446 </v>
   <v>       0.37879889       0.55837890       0.55762583 </v>
   <v>       0.65631199       0.59741637       0.36116208 </v>
   <v>       0.43507040       0.59087638       0.43966536 </v>
   <v>       0.50049808       0.63892015       0.55018868 </v>
   <v>       0.40275443       0.65253117       0.64368672 </v>
   <v>       0.60612233       0.66587944       0.46738299 </v>
   <v>       0.52637304       0.62253070       0.34871411 </v>
   <v>       0.38268025       0.68513286       0.51478949 </v>
   <v>       0.48585079       0.71153762       0.43784356 </v>
  </varray>
 </structure>
</modeling>
