   15   15 1000    2
  0.5264208E+03  0.1991322E-08  0.1991322E-08  0.1991322E-08  0.1000000E-15
  1.000000000000000E-004
  CAR 
 unknown system                          
    165      1    108
 
  0.0000000E+00  0.0000000E+00  0.0000000E+00  0.1000000E+01
    1       -9.169258     -9.147962
    2       -9.024389     -9.004927
    3       -8.973023     -8.952104
    4       -8.929492     -8.909123
    5       -8.912078     -8.896291
    6       -8.814578     -8.789972
    7       -8.791167     -8.769678
    8       -8.748542     -8.726194
    9       -8.690622     -8.667431
   10       -8.675280     -8.656976
   11       -8.647125     -8.628487
   12       -8.609534     -8.587899
   13       -8.586008     -8.566259
   14       -8.583516     -8.557251
   15       -8.452866     -8.436300
   16       -8.432502     -8.405887
   17       -8.404129     -8.386598
   18       -8.363571     -8.342911
   19       -8.299272     -8.277355
   20       -8.287146     -8.266301
   21       -8.175697     -8.158285
   22       -8.155792     -8.138307
   23       -8.113271     -8.095842
   24       -8.062944     -8.044776
   25       -7.991815     -7.977536
   26       -7.936274     -7.921488
   27       -7.903475     -7.883048
   28       -7.869512     -7.852935
   29       -7.820412     -7.802639
   30       -7.783669     -7.767310
   31       -7.742216     -7.725712
   32       -7.717107     -7.698881
   33       -7.708535     -7.687639
   34       -7.671158     -7.651989
   35       -7.604041     -7.588266
   36       -7.532985     -7.506575
   37       -7.455705     -7.435473
   38       -7.416926     -7.391020
   39       -7.395937     -7.378573
   40       -7.380697     -7.362571
   41       -7.331474     -7.313271
   42       -7.306374     -7.289751
   43       -7.260070     -7.241878
   44       -7.231680     -7.214267
   45       -7.190910     -7.178249
   46       -7.160349     -7.140777
   47       -7.146452     -7.130174
   48       -7.134961     -7.119145
   49       -7.102234     -7.082540
   50       -7.077480     -7.061037
   51       -7.066340     -7.048135
   52       -7.044890     -7.027662
   53       -7.037354     -7.023469
   54       -7.017223     -7.003499
   55       -6.995273     -6.979412
   56       -6.992483     -6.975547
   57       -6.965711     -6.946822
   58       -6.915548     -6.893973
   59       -6.900506     -6.885619
   60       -6.882900     -6.867386
   61       -6.820346     -6.804257
   62       -6.817536     -6.798303
   63       -6.780417     -6.763755
   64       -6.754234     -6.735057
   65       -6.730737     -6.714727
   66       -6.683323     -6.666505
   67       -6.655094     -6.638159
   68       -6.621670     -6.609241
   69       -6.614119     -6.597511
   70       -6.584494     -6.563956
   71       -6.548735     -6.534188
   72       -6.499110     -6.484836
   73       -6.474960     -6.459318
   74       -6.446120     -6.428184
   75       -6.426906     -6.411981
   76       -6.394393     -6.380427
   77       -6.281677     -6.251234
   78       -6.063654     -6.013264
   79       -5.518638     -5.456341
   80       -4.646605     -4.601164
   81       -4.436280     -4.403449
   82       -3.963230     -3.910358
   83       -3.724395     -3.558392
   84       -3.292916     -3.239964
   85       -2.876323     -2.822224
   86       -2.412887     -2.371135
   87       -2.250889     -2.203763
   88       -2.230653     -2.188312
   89       -1.942492     -1.858026
   90       -1.554917     -1.487067
   91       -1.396985     -1.302731
   92       -1.302803     -1.252675
   93       -1.082274     -0.978426
   94       -0.810303     -0.742947
   95       -0.668697     -0.620078
   96       -0.538802     -0.488627
   97       -0.485534     -0.452809
   98       -0.398089     -0.341721
   99       -0.254818     -0.187133
  100        0.085881      0.165060
  101        0.242667      0.277132
  102        0.380252      0.413189
  103        0.510645      0.564126
  104        0.545439      0.567780
  105        0.647519      0.667263
  106        0.666315      0.682857
  107        0.687615      0.705820
  108        0.715318      0.726029
