 running on   32 total cores
 distrk:  each k-point on   32 cores,    1 groups
 distr:  one band on    8 cores,    4 groups
 using from now: INCAR     
 vasp.5.3.5 31Mar14 (build Feb 01 2018 12:10:03) gamma-only                     
  
 POSCAR found type information on POSCAR  Ag
 POSCAR found :  1 types and       7 ions
 scaLAPACK will be used
 LDA part: xc-table for Pade appr. of Perdew
 POSCAR, INCAR and KPOINTS ok, starting setup
 WARNING: small aliasing (wrap around) errors must be expected
 FFT: planning ...
 WAVECAR not read
 entering main loop
       N       E                     dE             d eps       ncg     rms          rms(c)
DAV:   1     0.664760369988E+03    0.66476E+03   -0.11151E+04   208   0.511E+02
DAV:   2     0.282284355377E+03   -0.38248E+03   -0.33339E+03   384   0.881E+01
DAV:   3     0.176581328993E+02   -0.26463E+03   -0.24389E+03   336   0.841E+01
DAV:   4    -0.111006129861E+02   -0.28759E+02   -0.27707E+02   244   0.354E+01
DAV:   5    -0.116424652714E+02   -0.54185E+00   -0.54102E+00   216   0.541E+00    0.133E+01
DAV:   6    -0.251384643779E+01    0.91286E+01   -0.25220E+01   216   0.126E+01    0.638E+00
DAV:   7     0.781571804632E+00    0.32954E+01   -0.11859E+00   216   0.330E+00    0.353E+00
DAV:   8    -0.200403796185E+01   -0.27856E+01   -0.12323E+00   244   0.279E+00    0.177E+00
DAV:   9    -0.504143151677E+01   -0.30374E+01   -0.11443E+00   224   0.232E+00    0.103E+00
DAV:  10    -0.824683765128E+01   -0.32054E+01   -0.14307E+00   216   0.268E+00    0.667E-01
DAV:  11    -0.958023511892E+01   -0.13334E+01   -0.40677E-01   232   0.113E+00    0.444E-01
DAV:  12    -0.109531104114E+02   -0.13729E+01   -0.35280E-01   208   0.110E+00    0.200E-01
DAV:  13    -0.113286783630E+02   -0.37557E+00   -0.36419E-02   224   0.342E-01    0.114E-01
DAV:  14    -0.115099797902E+02   -0.18130E+00   -0.78678E-03   228   0.151E-01    0.661E-02
DAV:  15    -0.115676962257E+02   -0.57716E-01   -0.26151E-03   204   0.833E-02    0.302E-02
DAV:  16    -0.115877915463E+02   -0.20095E-01   -0.13490E-03   188   0.553E-02    0.160E-02
DAV:  17    -0.115915585695E+02   -0.37670E-02   -0.59139E-04   188   0.341E-02    0.938E-03
DAV:  18    -0.115937634555E+02   -0.22049E-02   -0.39272E-04   164   0.256E-02    0.608E-03
DAV:  19    -0.115947955956E+02   -0.10321E-02   -0.96315E-05   152   0.142E-02    0.364E-03
DAV:  20    -0.115951516698E+02   -0.35607E-03   -0.41391E-05   164   0.935E-03    0.206E-03
DAV:  21    -0.115952158940E+02   -0.64224E-04   -0.97382E-06   152   0.511E-03
   1 F= -.11595216E+02 E0= -.11595216E+02  d E =-.115952E+02  mag=     1.0004
 curvature:   0.00 expect dE= 0.000E+00 dE for cont linesearch  0.000E+00
 trial: gam= 0.00000 g(F)=  0.801E-02 g(S)=  0.000E+00 ort = 0.000E+00 (trialstep = 0.100E+01)
 search vector abs. value=  0.801E-02
 bond charge predicted
       N       E                     dE             d eps       ncg     rms          rms(c)
DAV:   1    -0.116026863811E+02   -0.75347E-02   -0.54667E-01   212   0.269E+00    0.714E-02
DAV:   2    -0.116029553879E+02   -0.26901E-03   -0.27085E-03   228   0.253E-01    0.435E-02
DAV:   3    -0.116029938325E+02   -0.38445E-04   -0.48960E-05   140   0.306E-02
   2 F= -.11602994E+02 E0= -.11602994E+02  d E =-.777794E-02  mag=     1.0002
 ZBRENT: can't locate minimum, use default step
 trial-energy change:   -0.007778  1 .order   -0.007599   -0.008008   -0.007190
 step:   4.0000(harm=  9.7925)  dis= 0.01550  next Energy=   -11.634423 (dE=-0.392E-01)
 bond charge predicted
       N       E                     dE             d eps       ncg     rms          rms(c)
DAV:   1    -0.116199619110E+02   -0.17007E-01   -0.49302E+00   212   0.808E+00    0.228E-01
DAV:   2    -0.116222112943E+02   -0.22494E-02   -0.24758E-02   220   0.761E-01    0.132E-01
DAV:   3    -0.116222470880E+02   -0.35794E-04   -0.50525E-04   224   0.923E-02
   3 F= -.11622247E+02 E0= -.11622247E+02  d E =-.270312E-01  mag=     1.0001
 curvature:  -2.77 expect dE=-0.998E-02 dE for cont linesearch -0.998E-02
 ZBRENT: increasing intervall
 opt :  10.0000  next Energy=   -11.643543 (dE=-0.483E-01)
 bond charge predicted
       N       E                     dE             d eps       ncg     rms          rms(c)
DAV:   1    -0.116332090683E+02   -0.10998E-01   -0.19723E+01   208   0.162E+01    0.502E-01
DAV:   2    -0.116423961791E+02   -0.91871E-02   -0.10116E-01   216   0.153E+00    0.276E-01
DAV:   3    -0.116424745200E+02   -0.78341E-04   -0.21672E-03   224   0.188E-01    0.147E-01
DAV:   4    -0.116425053848E+02   -0.30865E-04   -0.28114E-04   172   0.683E-02
   4 F= -.11642505E+02 E0= -.11642505E+02  d E =-.472895E-01  mag=     1.0000
 curvature:  -5.91 expect dE=-0.120E-02 dE for cont linesearch -0.116E-02
 ZBRENT: extrapolating
 opt :  11.8310  next Energy=   -11.643655 (dE=-0.484E-01)
 bond charge predicted
       N       E                     dE             d eps       ncg     rms          rms(c)
DAV:   1    -0.116426338011E+02   -0.15928E-03   -0.18289E+00   212   0.493E+00    0.154E-01
DAV:   2    -0.116434834198E+02   -0.84962E-03   -0.93457E-03   216   0.465E-01    0.917E-02
DAV:   3    -0.116435413071E+02   -0.57887E-04   -0.18222E-04   176   0.571E-02
   5 F= -.11643541E+02 E0= -.11643541E+02  d E =-.483254E-01  mag=     1.0000
 curvature:  -5.84 expect dE=-0.138E-03 dE for cont linesearch -0.997E-04
 trial: gam= 0.00000 g(F)=  0.236E-04 g(S)=  0.000E+00 ort =-0.370E-03 (trialstep = 0.317E+01)
 search vector abs. value=  0.236E-04
 reached required accuracy - stopping structural energy minimisation
Application 91033383 resources: utime ~696s, stime ~35s, Rss ~51068, inblocks ~81095, outblocks ~149748
