    7    7 1000    2
  0.7760030E+03  0.1757872E-08  0.1757872E-08  0.1757872E-08  0.1000000E-15
  1.000000000000000E-004
  CAR 
 unknown system                          
     77      1     52
 
  0.0000000E+00  0.0000000E+00  0.0000000E+00  0.1000000E+01
    1       -9.198645     -9.156123
    2       -8.884572     -8.847966
    3       -8.881870     -8.845244
    4       -8.584659     -8.558949
    5       -8.582124     -8.556313
    6       -8.423732     -8.358796
    7       -8.329291     -8.282136
    8       -8.329185     -8.281954
    9       -8.210759     -8.196378
   10       -8.205665     -8.167244
   11       -8.205561     -8.162066
   12       -7.919498     -7.913772
   13       -7.909407     -7.903647
   14       -7.826613     -7.726591
   15       -7.691169     -7.654208
   16       -7.689354     -7.652230
   17       -7.531494     -7.508485
   18       -7.531084     -7.508174
   19       -7.228277     -7.203835
   20       -7.225005     -7.200382
   21       -7.196387     -7.172774
   22       -7.193323     -7.169816
   23       -7.179102     -7.169658
   24       -7.178600     -7.169197
   25       -7.071973     -6.999954
   26       -6.939523     -6.915356
   27       -6.926379     -6.850250
   28       -6.885526     -6.849191
   29       -6.884555     -6.845808
   30       -6.856249     -6.787843
   31       -6.854805     -6.786240
   32       -6.703785     -6.666471
   33       -6.703034     -6.663292
   34       -6.672259     -6.662479
   35       -6.644991     -6.626372
   36       -6.644406     -6.625840
   37       -4.865636     -4.784020
   38       -4.863957     -4.782533
   39       -3.820161     -3.492415
   40       -2.599571     -2.569501
   41       -2.597672     -2.567536
   42       -2.442523     -2.377064
   43       -1.301391     -1.109420
   44       -1.298869     -1.107111
   45       -1.215951     -0.808195
   46       -0.459541     -0.394667
   47       -0.458339     -0.393634
   48       -0.281721     -0.259969
   49       -0.280482     -0.259061
   50        0.225587      0.275411
   51        0.405291      0.529116
   52        0.548145      0.577323
