 running on   32 total cores
 distrk:  each k-point on   32 cores,    1 groups
 distr:  one band on    8 cores,    4 groups
 using from now: INCAR     
 vasp.5.3.5 31Mar14 (build Feb 01 2018 12:10:03) gamma-only                     
  
 POSCAR found type information on POSCAR  Ag
 POSCAR found :  1 types and       4 ions
 scaLAPACK will be used
 LDA part: xc-table for Pade appr. of Perdew
 POSCAR, INCAR and KPOINTS ok, starting setup
 WARNING: small aliasing (wrap around) errors must be expected
 FFT: planning ...
 WAVECAR not read
 entering main loop
       N       E                     dE             d eps       ncg     rms          rms(c)
DAV:   1     0.352182626850E+03    0.35218E+03   -0.56896E+03   112   0.508E+02
DAV:   2     0.223988575160E+03   -0.12819E+03   -0.12022E+03   192   0.696E+01
DAV:   3     0.358343836314E+02   -0.18815E+03   -0.18066E+03   192   0.703E+01
DAV:   4    -0.259906197282E+01   -0.38433E+02   -0.37902E+02   148   0.504E+01
DAV:   5    -0.380493237010E+01   -0.12059E+01   -0.12034E+01   120   0.102E+01    0.927E+00
DAV:   6     0.296933012018E+01    0.67743E+01   -0.17425E+01   112   0.116E+01    0.341E+00
DAV:   7     0.407042272444E+01    0.11011E+01   -0.51980E-01   128   0.333E+00    0.189E+00
DAV:   8     0.193686518182E+01   -0.21336E+01   -0.81180E-01   116   0.261E+00    0.108E+00
DAV:   9    -0.510946000714E+00   -0.24478E+01   -0.10846E+00   124   0.277E+00    0.676E-01
DAV:  10    -0.236672791807E+01   -0.18558E+01   -0.78986E-01   116   0.233E+00    0.452E-01
DAV:  11    -0.288879122299E+01   -0.52206E+00   -0.11986E-01   112   0.832E-01    0.308E-01
DAV:  12    -0.370632270926E+01   -0.81753E+00   -0.21107E-01   120   0.107E+00    0.136E-01
DAV:  13    -0.391208406276E+01   -0.20576E+00   -0.26271E-02   112   0.338E-01    0.799E-02
DAV:  14    -0.398811000112E+01   -0.76026E-01   -0.57318E-03   108   0.154E-01    0.480E-02
DAV:  15    -0.402359624223E+01   -0.35486E-01   -0.40185E-03   116   0.124E-01    0.174E-02
DAV:  16    -0.402632954252E+01   -0.27333E-02   -0.79376E-04    88   0.565E-02    0.120E-02
DAV:  17    -0.402799157739E+01   -0.16620E-02   -0.21902E-04    80   0.347E-02    0.730E-03
DAV:  18    -0.402918023170E+01   -0.11887E-02   -0.14948E-04    80   0.256E-02    0.518E-03
DAV:  19    -0.402988979033E+01   -0.70956E-03   -0.52277E-05    80   0.169E-02    0.308E-03
DAV:  20    -0.403024185053E+01   -0.35206E-03   -0.31701E-05    84   0.120E-02    0.207E-03
DAV:  21    -0.403035169883E+01   -0.10985E-03   -0.10662E-05    72   0.751E-03    0.138E-03
DAV:  22    -0.403041234569E+01   -0.60647E-04   -0.49170E-06    76   0.539E-03
   1 F= -.40304123E+01 E0= -.40304123E+01  d E =-.403041E+01  mag=    -0.0000
 curvature:   0.00 expect dE= 0.000E+00 dE for cont linesearch  0.000E+00
 trial: gam= 0.00000 g(F)=  0.364E-01 g(S)=  0.000E+00 ort = 0.000E+00 (trialstep = 0.100E+01)
 search vector abs. value=  0.364E-01
 bond charge predicted
       N       E                     dE             d eps       ncg     rms          rms(c)
DAV:   1    -0.406543471167E+01   -0.35083E-01   -0.24801E+00   112   0.765E+00    0.740E-02
DAV:   2    -0.406661011295E+01   -0.11754E-02   -0.13090E-02   112   0.735E-01    0.299E-02
DAV:   3    -0.406664393036E+01   -0.33817E-04   -0.19695E-04    96   0.829E-02
   2 F= -.40666439E+01 E0= -.40666439E+01  d E =-.362316E-01  mag=    -0.0000
 ZBRENT: can't locate minimum, use default step
 trial-energy change:   -0.036232  1 .order   -0.036099   -0.036443   -0.035755
 step:   4.0000(harm= 52.9981)  dis= 0.03473  next Energy=    -4.996119 (dE=-0.966E+00)
 bond charge predicted
       N       E                     dE             d eps       ncg     rms          rms(c)
DAV:   1    -0.416092957748E+01   -0.94319E-01   -0.22399E+01   112   0.231E+01    0.256E-01
DAV:   2    -0.417150185478E+01   -0.10572E-01   -0.11900E-01   112   0.223E+00    0.964E-02
DAV:   3    -0.417174948156E+01   -0.24763E-03   -0.20060E-03   144   0.259E-01    0.690E-02
DAV:   4    -0.417180869711E+01   -0.59216E-04   -0.96569E-05    64   0.546E-02
   3 F= -.41718087E+01 E0= -.41718087E+01  d E =-.141396E+00  mag=    -0.0000
 curvature:  -2.97 expect dE=-0.953E-01 dE for cont linesearch -0.943E-01
 ZBRENT: increasing intervall
 opt :  10.0000  next Energy=    -4.365539 (dE=-0.335E+00)
 bond charge predicted
       N       E                     dE             d eps       ncg     rms          rms(c)
DAV:   1    -0.431560537898E+01   -0.14386E+00   -0.90468E+01   112   0.469E+01    0.653E-01
DAV:   2    -0.435901898174E+01   -0.43414E-01   -0.48754E-01   112   0.460E+00    0.222E-01
DAV:   3    -0.435986485242E+01   -0.84587E-03   -0.88190E-03   136   0.576E-01    0.143E-01
DAV:   4    -0.436001474011E+01   -0.14989E-03   -0.38324E-04   112   0.102E-01    0.736E-02
DAV:   5    -0.436010347475E+01   -0.88735E-04   -0.14779E-04    72   0.663E-02
   4 F= -.43601035E+01 E0= -.43601035E+01  d E =-.329691E+00  mag=    -0.0000
 curvature:  -6.10 expect dE=-0.150E+00 dE for cont linesearch -0.132E+00
 ZBRENT: increasing intervall
 opt :  22.0000  next Energy=    -4.625805 (dE=-0.595E+00)
 bond charge predicted
       N       E                     dE             d eps       ncg     rms          rms(c)
DAV:   1    -0.434684653451E+01    0.13168E-01   -0.37625E+02   112   0.998E+01    0.226E+00
DAV:   2    -0.454352705316E+01   -0.19668E+00   -0.21484E+00   112   0.104E+01    0.717E-01
DAV:   3    -0.454437704507E+01   -0.84999E-03   -0.51376E-02   120   0.156E+00    0.392E-01
DAV:   4    -0.454477727943E+01   -0.40023E-03   -0.30250E-03   120   0.266E-01    0.196E-01
DAV:   5    -0.454505332948E+01   -0.27605E-03   -0.31666E-04   104   0.980E-02    0.409E-02
DAV:   6    -0.454507943871E+01   -0.26109E-04   -0.10356E-04    80   0.595E-02
   5 F= -.45450794E+01 E0= -.45450794E+01  d E =-.514667E+00  mag=    -0.0000
 curvature: -12.28 expect dE=-0.270E+00 dE for cont linesearch -0.150E-02
 trial: gam= 0.66099 g(F)=  0.220E-01 g(S)=  0.000E+00 ort =-0.211E-02 (trialstep = 0.520E+01)
 search vector abs. value=  0.351E-01
 bond charge predicted
       N       E                     dE             d eps       ncg     rms          rms(c)
DAV:   1    -0.457162168417E+01   -0.26568E-01   -0.65212E+01   112   0.405E+01    0.809E-01
DAV:   2    -0.460289259128E+01   -0.31271E-01   -0.34374E-01   120   0.393E+00    0.416E-01
DAV:   3    -0.460326286616E+01   -0.37027E-03   -0.64218E-03   136   0.506E-01    0.234E-01
DAV:   4    -0.460335631476E+01   -0.93449E-04   -0.81731E-04   120   0.170E-01
   6 F= -.46033563E+01 E0= -.46033563E+01  d E =-.582769E-01  mag=    -0.0000
 trial-energy change:   -0.058277  1 .order   -0.056093   -0.107020   -0.005167
 step:   5.4325(harm=  5.4638)  dis= 0.04279  next Energy=    -4.603472 (dE=-0.584E-01)
 bond charge predicted
       N       E                     dE             d eps       ncg     rms          rms(c)
DAV:   1    -0.460337097821E+01   -0.10811E-03   -0.12767E-01   112   0.177E+00    0.374E-02
DAV:   2    -0.460344122724E+01   -0.70249E-04   -0.73193E-04   112   0.175E-01
   7 F= -.46034412E+01 E0= -.46034412E+01  d E =-.583618E-01  mag=    -0.0000
 curvature:  -4.59 expect dE=-0.491E-01 dE for cont linesearch -0.789E-04
 trial: gam= 0.11860 g(F)=  0.107E-01 g(S)=  0.000E+00 ort =-0.776E-03 (trialstep = 0.525E+01)
 search vector abs. value=  0.110E-01
 bond charge predicted
       N       E                     dE             d eps       ncg     rms          rms(c)
DAV:   1    -0.463601919463E+01   -0.32648E-01   -0.20648E+01   112   0.228E+01    0.343E-01
DAV:   2    -0.464558639762E+01   -0.95672E-02   -0.10622E-01   112   0.220E+00    0.250E-01
DAV:   3    -0.464567320681E+01   -0.86809E-04   -0.18091E-03   120   0.260E-01    0.146E-01
DAV:   4    -0.464567037616E+01    0.28307E-05   -0.39394E-04   112   0.121E-01
   8 F= -.46456704E+01 E0= -.46456704E+01  d E =-.422291E-01  mag=    -0.0000
 trial-energy change:   -0.042229  1 .order   -0.042660   -0.055545   -0.029775
 step:  13.3970(harm= 11.3084)  dis= 0.07067  next Energy=    -4.667182 (dE=-0.637E-01)
 bond charge predicted
       N       E                     dE             d eps       ncg     rms          rms(c)
DAV:   1    -0.464202498061E+01    0.36482E-02   -0.50065E+01   112   0.358E+01    0.434E-01
DAV:   2    -0.466512357541E+01   -0.23099E-01   -0.25999E-01   112   0.348E+00    0.345E-01
DAV:   3    -0.466545021658E+01   -0.32664E-03   -0.43505E-03   144   0.407E-01    0.226E-01
DAV:   4    -0.466538579209E+01    0.64424E-04   -0.93860E-04   112   0.184E-01
   9 F= -.46653858E+01 E0= -.46653858E+01  d E =-.619446E-01  mag=    -0.0000
 curvature:  -5.17 expect dE=-0.325E-01 dE for cont linesearch -0.484E-04
 trial: gam= 0.67185 g(F)=  0.627E-02 g(S)=  0.000E+00 ort =-0.321E-03 (trialstep = 0.688E+01)
 search vector abs. value=  0.108E-01
 bond charge predicted
       N       E                     dE             d eps       ncg     rms          rms(c)
DAV:   1    -0.468975983719E+01   -0.24310E-01   -0.34960E+01   112   0.297E+01    0.216E-01
DAV:   2    -0.470692611671E+01   -0.17166E-01   -0.17928E-01   112   0.288E+00    0.126E-01
DAV:   3    -0.470706711566E+01   -0.14100E-03   -0.29239E-03   144   0.330E-01    0.879E-02
DAV:   4    -0.470697917339E+01    0.87942E-04   -0.22955E-04    96   0.851E-02
  10 F= -.47069792E+01 E0= -.47069792E+01  d E =-.415934E-01  mag=    -0.0000
 ZBRENT: can't locate minimum, use default step
 trial-energy change:   -0.041593  1 .order   -0.042436   -0.041663   -0.043210
 step:  27.5064(harm= 27.5064)  dis= 0.21223  next Energy=    -4.844410 (dE=-0.179E+00)
 bond charge predicted
       N       E                     dE             d eps       ncg     rms          rms(c)
DAV:   1    -0.466190328673E+01    0.45164E-01   -0.33582E+02   112   0.962E+01    0.122E+00
DAV:   2    -0.483977593140E+01   -0.17787E+00   -0.18431E+00   120   0.990E+00    0.699E-01
DAV:   3    -0.484126615086E+01   -0.14902E-02   -0.34443E-02   128   0.123E+00    0.364E-01
DAV:   4    -0.484056958164E+01    0.69657E-03   -0.16561E-03   120   0.236E-01    0.251E-01
DAV:   5    -0.484036434662E+01    0.20524E-03   -0.27096E-03   120   0.290E-01    0.439E-02
DAV:   6    -0.484044864471E+01   -0.84298E-04   -0.10615E-04    80   0.683E-02
  11 F= -.48404486E+01 E0= -.48404486E+01  d E =-.175063E+00  mag=    -0.0000
 curvature: -37.37 expect dE=-0.385E+00 dE for cont linesearch -0.143E+00
 ZBRENT: increasing intervall
 opt :  68.7660  next Energy=    -5.112285 (dE=-0.447E+00)
 bond charge predicted
       N       E                     dE             d eps       ncg     rms          rms(c)
DAV:   1    -0.343687115812E+01    0.14035E+01   -0.15864E+03   112   0.230E+02    0.754E+00
DAV:   2    -0.488689553864E+01   -0.14500E+01   -0.15980E+01   112   0.295E+01    0.385E+00
DAV:   3    -0.482288388852E+01    0.64012E-01   -0.44309E-01   120   0.478E+00    0.178E+00
DAV:   4    -0.481102130206E+01    0.11863E-01   -0.39383E-02   120   0.115E+00    0.912E-01
DAV:   5    -0.481025832813E+01    0.76297E-03   -0.12364E-02   120   0.688E-01    0.177E-01
DAV:   6    -0.481066155731E+01   -0.40323E-03   -0.61511E-04   112   0.180E-01    0.458E-02
DAV:   7    -0.481087926903E+01   -0.21771E-03   -0.20146E-04    80   0.890E-02    0.260E-02
DAV:   8    -0.481115379628E+01   -0.27453E-03   -0.57185E-05    80   0.321E-02    0.906E-03
DAV:   9    -0.481132864601E+01   -0.17485E-03   -0.21766E-05    88   0.202E-02    0.660E-03
DAV:  10    -0.481161933962E+01   -0.29069E-03   -0.63967E-05    80   0.186E-02    0.768E-03
DAV:  11    -0.481174015025E+01   -0.12081E-03   -0.20770E-05    88   0.167E-02    0.448E-03
DAV:  12    -0.481180825488E+01   -0.68105E-04   -0.90812E-06    88   0.894E-03
  12 F= -.48118083E+01 E0= -.48118083E+01  d E =-.146422E+00  mag=     0.0000
 curvature: -70.90 expect dE=-0.366E+01 dE for cont linesearch -0.202E+01
 ZBRENT: bracketing found
 ZBRENT: interpolating
 opt :  38.5785  next Energy=    -4.876079 (dE=-0.211E+00)
 bond charge predicted
       N       E                     dE             d eps       ncg     rms          rms(c)
DAV:   1    -0.445259874473E+01    0.35914E+00   -0.77253E+02   112   0.151E+02    0.232E+00
DAV:   2    -0.490640328533E+01   -0.45380E+00   -0.49071E+00   112   0.166E+01    0.224E+00
DAV:   3    -0.490568702429E+01    0.71626E-03   -0.87837E-02   128   0.204E+00    0.145E+00
DAV:   4    -0.490290371267E+01    0.27833E-02   -0.10266E-02   112   0.787E-01    0.855E-01
DAV:   5    -0.490301758307E+01   -0.11387E-03   -0.88331E-03   120   0.594E-01    0.860E-02
DAV:   6    -0.490292876309E+01    0.88820E-04   -0.50338E-04   112   0.113E-01
  13 F= -.49029288E+01 E0= -.49029288E+01  d E =-.237543E+00  mag=     0.0000
 curvature:  -1.25 expect dE=-0.129E-01 dE for cont linesearch -0.262E-02
 ZBRENT: bisectioning
 opt :  53.6723  next Energy=    -4.957508 (dE=-0.292E+00)
 bond charge predicted
       N       E                     dE             d eps       ncg     rms          rms(c)
DAV:   1    -0.484778146262E+01    0.55236E-01   -0.17385E+02   112   0.670E+01    0.928E-01
DAV:   2    -0.493553956659E+01   -0.87758E-01   -0.92691E-01   112   0.669E+00    0.395E-01
DAV:   3    -0.493620546753E+01   -0.66590E-03   -0.15871E-02   128   0.814E-01    0.244E-01
DAV:   4    -0.493603725153E+01    0.16822E-03   -0.15274E-03   112   0.217E-01    0.104E-01
DAV:   5    -0.493611807968E+01   -0.80828E-04   -0.35629E-04   120   0.107E-01
  14 F= -.49361181E+01 E0= -.49361181E+01  d E =-.270732E+00  mag=     0.0000
 curvature: -26.03 expect dE=-0.303E+00 dE for cont linesearch -0.430E-02
 trial: gam= 1.09528 g(F)=  0.116E-01 g(S)=  0.000E+00 ort =-0.134E-02 (trialstep = 0.809E+01)
 search vector abs. value=  0.217E-01
 bond charge predicted
       N       E                     dE             d eps       ncg     rms          rms(c)
DAV:   1    -0.493630060747E+01   -0.26336E-03   -0.97695E+01   112   0.507E+01    0.868E-01
DAV:   2    -0.498558731061E+01   -0.49287E-01   -0.51441E-01   112   0.500E+00    0.347E-01
DAV:   3    -0.498554806175E+01    0.39249E-04   -0.97818E-03   128   0.638E-01    0.245E-01
DAV:   4    -0.498545407758E+01    0.93984E-04   -0.17063E-03   112   0.224E-01    0.600E-02
DAV:   5    -0.498546643230E+01   -0.12355E-04   -0.66313E-05    88   0.480E-02
  15 F= -.49854664E+01 E0= -.49854664E+01  d E =-.493484E-01  mag=     0.0000
 trial-energy change:   -0.049348  1 .order   -0.048000   -0.082356   -0.013645
 step:   9.5053(harm=  9.7005)  dis= 0.06729  next Energy=    -4.986664 (dE=-0.505E-01)
 bond charge predicted
       N       E                     dE             d eps       ncg     rms          rms(c)
DAV:   1    -0.498508089207E+01    0.37319E-03   -0.29256E+00   112   0.869E+00    0.138E-01
DAV:   2    -0.498650584780E+01   -0.14250E-02   -0.14863E-02   112   0.841E-01    0.859E-02
DAV:   3    -0.498650463037E+01    0.12174E-05   -0.27389E-04   104   0.984E-02
  16 F= -.49865046E+01 E0= -.49865046E+01  d E =-.503866E-01  mag=     0.0000
 curvature: -10.18 expect dE=-0.113E+00 dE for cont linesearch -0.103E-03
 trial: gam= 0.31001 g(F)=  0.111E-01 g(S)=  0.000E+00 ort =-0.468E-03 (trialstep = 0.838E+01)
 search vector abs. value=  0.129E-01
 bond charge predicted
       N       E                     dE             d eps       ncg     rms          rms(c)
DAV:   1    -0.500781034072E+01   -0.21304E-01   -0.62106E+01   112   0.403E+01    0.593E-01
DAV:   2    -0.503674280804E+01   -0.28932E-01   -0.32306E-01   112   0.392E+00    0.322E-01
DAV:   3    -0.503686793663E+01   -0.12513E-03   -0.57610E-03   120   0.489E-01    0.198E-01
DAV:   4    -0.503681616871E+01    0.51768E-04   -0.10044E-03   112   0.191E-01    0.455E-02
DAV:   5    -0.503682851786E+01   -0.12349E-04   -0.44443E-05    72   0.525E-02
  17 F= -.50368285E+01 E0= -.50368285E+01  d E =-.503239E-01  mag=    -0.0000
 trial-energy change:   -0.050324  1 .order   -0.049261   -0.091911   -0.006611
 step:   8.9767(harm=  9.0249)  dis= 0.04490  next Energy=    -5.037066 (dE=-0.506E-01)
 bond charge predicted
       N       E                     dE             d eps       ncg     rms          rms(c)
DAV:   1    -0.503688633357E+01   -0.70165E-04   -0.31466E-01   112   0.285E+00    0.415E-02
DAV:   2    -0.503703822905E+01   -0.15190E-03   -0.16201E-03   120   0.275E-01    0.266E-02
DAV:   3    -0.503704884293E+01   -0.10614E-04   -0.25703E-05    64   0.328E-02
  18 F= -.50370488E+01 E0= -.50370488E+01  d E =-.505442E-01  mag=    -0.0000
 curvature:  -5.28 expect dE=-0.125E-01 dE for cont linesearch -0.251E-04
 trial: gam= 0.18487 g(F)=  0.236E-02 g(S)=  0.000E+00 ort =-0.248E-03 (trialstep = 0.850E+01)
 search vector abs. value=  0.271E-02
 bond charge predicted
       N       E                     dE             d eps       ncg     rms          rms(c)
DAV:   1    -0.504853648241E+01   -0.11498E-01   -0.13237E+01   112   0.185E+01    0.170E-01
DAV:   2    -0.505482605723E+01   -0.62896E-02   -0.66596E-02   120   0.183E+00    0.144E-01
DAV:   3    -0.505479574999E+01    0.30307E-04   -0.11515E-03   120   0.233E-01    0.989E-02
DAV:   4    -0.505467929397E+01    0.11646E-03   -0.38468E-04   120   0.113E-01    0.409E-02
DAV:   5    -0.505467873476E+01    0.55921E-06   -0.79664E-05    72   0.596E-02
  19 F= -.50546787E+01 E0= -.50546787E+01  d E =-.176299E-01  mag=    -0.0000
 ZBRENT: can't locate minimum, use default step
 trial-energy change:   -0.017630  1 .order   -0.017701   -0.019649   -0.015754
 step:  33.9836(harm= 42.8609)  dis= 0.10166  next Energy=    -5.086612 (dE=-0.496E-01)
 bond charge predicted
       N       E                     dE             d eps       ncg     rms          rms(c)
DAV:   1    -0.502405329543E+01    0.30626E-01   -0.12103E+02   112   0.569E+01    0.500E-01
DAV:   2    -0.508227487988E+01   -0.58222E-01   -0.61276E-01   120   0.569E+00    0.474E-01
DAV:   3    -0.508241060420E+01   -0.13572E-03   -0.10593E-02   120   0.710E-01    0.323E-01
DAV:   4    -0.508140979934E+01    0.10008E-02   -0.23508E-03   120   0.286E-01    0.191E-01
DAV:   5    -0.508130629664E+01    0.10350E-03   -0.14915E-03   120   0.216E-01    0.563E-02
DAV:   6    -0.508134950810E+01   -0.43211E-04   -0.12644E-04    80   0.556E-02
  20 F= -.50813495E+01 E0= -.50813495E+01  d E =-.443007E-01  mag=     0.0000
 curvature: -23.42 expect dE=-0.484E-01 dE for cont linesearch -0.123E-02
 trial: gam= 0.88509 g(F)=  0.207E-02 g(S)=  0.000E+00 ort = 0.378E-03 (trialstep = 0.758E+01)
 search vector abs. value=  0.486E-02
 bond charge predicted
       N       E                     dE             d eps       ncg     rms          rms(c)
DAV:   1    -0.509033106060E+01   -0.90248E-02   -0.18927E+01   112   0.218E+01    0.152E-01
DAV:   2    -0.509950471683E+01   -0.91737E-02   -0.94698E-02   120   0.215E+00    0.108E-01
DAV:   3    -0.509948993244E+01    0.14784E-04   -0.15413E-03   120   0.254E-01    0.785E-02
DAV:   4    -0.509938612227E+01    0.10381E-03   -0.30211E-04   104   0.989E-02    0.374E-02
DAV:   5    -0.509943242958E+01   -0.46307E-04   -0.24149E-04    96   0.894E-02
  21 F= -.50994324E+01 E0= -.50994324E+01  d E =-.180829E-01  mag=     0.0000
 ZBRENT: can't locate minimum, use default step
 trial-energy change:   -0.018083  1 .order   -0.018264   -0.018198   -0.018329
 step:  30.3190(harm= 30.3190)  dis= 0.14271  next Energy=    -5.155194 (dE=-0.738E-01)
 bond charge predicted
       N       E                     dE             d eps       ncg     rms          rms(c)
DAV:   1    -0.506171502365E+01    0.37671E-01   -0.17569E+02   112   0.680E+01    0.728E-01
DAV:   2    -0.515049233507E+01   -0.88777E-01   -0.91020E-01   128   0.687E+00    0.407E-01
DAV:   3    -0.515023319248E+01    0.25914E-03   -0.15817E-02   120   0.841E-01    0.244E-01
DAV:   4    -0.514921637513E+01    0.10168E-02   -0.17248E-03   120   0.242E-01    0.147E-01
DAV:   5    -0.514895678677E+01    0.25959E-03   -0.18799E-03   120   0.235E-01    0.298E-02
DAV:   6    -0.514907050323E+01   -0.11372E-03   -0.88984E-05    80   0.493E-02    0.151E-02
DAV:   7    -0.514922405724E+01   -0.15355E-03   -0.25748E-05    80   0.239E-02    0.641E-03
DAV:   8    -0.514940648124E+01   -0.18242E-03   -0.21179E-05    80   0.163E-02    0.350E-03
DAV:   9    -0.514953296934E+01   -0.12649E-03   -0.12649E-05    88   0.106E-02    0.296E-03
DAV:  10    -0.514967422710E+01   -0.14126E-03   -0.20540E-05    80   0.900E-03    0.124E-03
DAV:  11    -0.514972408831E+01   -0.49861E-04   -0.42421E-06    88   0.479E-03
  22 F= -.51497241E+01 E0= -.51497241E+01  d E =-.683746E-01  mag=    -0.0000
 curvature: -46.16 expect dE=-0.873E-01 dE for cont linesearch -0.358E-01
 ZBRENT: increasing intervall
 opt :  75.7975  next Energy=    -5.216179 (dE=-0.135E+00)
 bond charge predicted
       N       E                     dE             d eps       ncg     rms          rms(c)
DAV:   1    -0.470670683211E+01    0.44297E+00   -0.77273E+02   112   0.152E+02    0.318E+00
DAV:   2    -0.518245754154E+01   -0.47575E+00   -0.49762E+00   128   0.169E+01    0.177E+00
DAV:   3    -0.517335997555E+01    0.90976E-02   -0.11230E-01   120   0.243E+00    0.848E-01
DAV:   4    -0.516937998474E+01    0.39800E-02   -0.80276E-03   128   0.493E-01    0.545E-01
DAV:   5    -0.516832578522E+01    0.10542E-02   -0.84572E-03   120   0.513E-01    0.998E-02
DAV:   6    -0.516851766433E+01   -0.19188E-03   -0.26590E-04    80   0.954E-02    0.380E-02
DAV:   7    -0.516871206063E+01   -0.19440E-03   -0.68146E-05    88   0.376E-02    0.170E-02
DAV:   8    -0.516895888378E+01   -0.24682E-03   -0.47234E-05    80   0.282E-02    0.678E-03
DAV:   9    -0.516919075841E+01   -0.23187E-03   -0.34063E-05    88   0.176E-02    0.553E-03
DAV:  10    -0.516938949523E+01   -0.19874E-03   -0.32804E-05    88   0.134E-02    0.212E-03
DAV:  11    -0.516949346096E+01   -0.10397E-03   -0.12993E-05    88   0.750E-03    0.148E-03
DAV:  12    -0.516953709933E+01   -0.43638E-04   -0.34336E-06    72   0.508E-03
  23 F= -.51695371E+01 E0= -.51695371E+01  d E =-.881876E-01  mag=    -0.0000
 curvature: -85.78 expect dE=-0.605E+00 dE for cont linesearch -0.636E-01
 ZBRENT: bracketing found
 ZBRENT: interpolating
 opt :  53.3085  next Energy=    -5.190873 (dE=-0.110E+00)
 bond charge predicted
       N       E                     dE             d eps       ncg     rms          rms(c)
DAV:   1    -0.509707827170E+01    0.72415E-01   -0.17171E+02   112   0.671E+01    0.620E-01
DAV:   2    -0.518165865624E+01   -0.84580E-01   -0.86700E-01   128   0.676E+00    0.546E-01
DAV:   3    -0.518172138590E+01   -0.62730E-04   -0.14328E-02   120   0.810E-01    0.358E-01
DAV:   4    -0.518055921443E+01    0.11622E-02   -0.25682E-03   120   0.293E-01    0.234E-01
DAV:   5    -0.518039023778E+01    0.16898E-03   -0.23777E-03   112   0.263E-01    0.697E-02
DAV:   6    -0.518041618164E+01   -0.25944E-04   -0.99162E-05    88   0.524E-02
  24 F= -.51804162E+01 E0= -.51804162E+01  d E =-.990667E-01  mag=    -0.0000
 curvature: -28.78 expect dE=-0.656E-01 dE for cont linesearch -0.182E-02
 ZBRENT: interpolating
 opt :  58.3889  next Energy=    -5.181823 (dE=-0.100E+00)
 bond charge predicted
       N       E                     dE             d eps       ncg     rms          rms(c)
DAV:   1    -0.517848669009E+01    0.19035E-02   -0.84961E+00   112   0.146E+01    0.107E-01
DAV:   2    -0.518262178239E+01   -0.41351E-02   -0.42083E-02   128   0.143E+00    0.833E-02
DAV:   3    -0.518264128205E+01   -0.19500E-04   -0.66768E-04   112   0.168E-01
  25 F= -.51826413E+01 E0= -.51826413E+01  d E =-.101292E+00  mag=    -0.0000
 curvature: -22.28 expect dE=-0.614E-01 dE for cont linesearch -0.180E-03
 trial: gam= 0.81028 g(F)=  0.276E-02 g(S)=  0.000E+00 ort = 0.198E-03 (trialstep = 0.137E+02)
 search vector abs. value=  0.627E-02
 bond charge predicted
       N       E                     dE             d eps       ncg     rms          rms(c)
DAV:   1    -0.516472884445E+01    0.17893E-01   -0.81236E+01   112   0.459E+01    0.510E-01
DAV:   2    -0.520565699471E+01   -0.40928E-01   -0.41821E-01   128   0.454E+00    0.314E-01
DAV:   3    -0.520540960232E+01    0.24739E-03   -0.67854E-03   120   0.531E-01    0.217E-01
DAV:   4    -0.520497183771E+01    0.43776E-03   -0.25613E-03   112   0.251E-01    0.629E-02
DAV:   5    -0.520501362378E+01   -0.41786E-04   -0.12412E-04    96   0.697E-02
  26 F= -.52050136E+01 E0= -.52050136E+01  d E =-.223723E-01  mag=    -0.0000
 trial-energy change:   -0.022372  1 .order   -0.022588   -0.040119   -0.005056
 step:  15.7316(harm= 15.7316)  dis= 0.06123  next Energy=    -5.205593 (dE=-0.230E-01)
 bond charge predicted
       N       E                     dE             d eps       ncg     rms          rms(c)
DAV:   1    -0.520440124268E+01    0.57060E-03   -0.16602E+00   112   0.651E+00    0.645E-02
DAV:   2    -0.520522128014E+01   -0.82004E-03   -0.84423E-03   128   0.636E-01    0.456E-02
DAV:   3    -0.520521770140E+01    0.35787E-05   -0.11731E-04    64   0.708E-02
  27 F= -.52052177E+01 E0= -.52052177E+01  d E =-.225764E-01  mag=    -0.0000
 curvature: -16.89 expect dE=-0.158E-01 dE for cont linesearch -0.306E-03
 trial: gam= 0.40834 g(F)=  0.935E-03 g(S)=  0.000E+00 ort =-0.337E-03 (trialstep = 0.141E+02)
 search vector abs. value=  0.171E-02
 bond charge predicted
       N       E                     dE             d eps       ncg     rms          rms(c)
DAV:   1    -0.520267829755E+01    0.25430E-02   -0.23226E+01   112   0.240E+01    0.268E-01
DAV:   2    -0.521418609743E+01   -0.11508E-01   -0.11819E-01   128   0.235E+00    0.160E-01
DAV:   3    -0.521403458244E+01    0.15151E-03   -0.19816E-03   120   0.274E-01    0.109E-01
DAV:   4    -0.521393395634E+01    0.10063E-03   -0.10071E-03   128   0.158E-01    0.226E-02
DAV:   5    -0.521394506119E+01   -0.11105E-04   -0.15409E-05    64   0.352E-02
  28 F= -.52139451E+01 E0= -.52139451E+01  d E =-.872736E-02  mag=    -0.0000
 trial-energy change:   -0.008727  1 .order   -0.008316   -0.011283   -0.005350
 step:  21.9059(harm= 26.9016)  dis= 0.06057  next Energy=    -5.215480 (dE=-0.103E-01)
 bond charge predicted
       N       E                     dE             d eps       ncg     rms          rms(c)
DAV:   1    -0.521216703898E+01    0.17669E-02   -0.69484E+00   112   0.131E+01    0.143E-01
DAV:   2    -0.521558185305E+01   -0.34148E-02   -0.35137E-02   128   0.128E+00    0.964E-02
DAV:   3    -0.521553617718E+01    0.45676E-04   -0.58400E-04   120   0.148E-01
  29 F= -.52155362E+01 E0= -.52155362E+01  d E =-.103185E-01  mag=    -0.0000
 curvature: -24.34 expect dE=-0.134E-01 dE for cont linesearch -0.328E-04
 trial: gam= 0.50956 g(F)=  0.550E-03 g(S)=  0.000E+00 ort = 0.479E-04 (trialstep = 0.157E+02)
 search vector abs. value=  0.104E-02
 bond charge predicted
       N       E                     dE             d eps       ncg     rms          rms(c)
DAV:   1    -0.521424117600E+01    0.13407E-02   -0.17376E+01   112   0.212E+01    0.152E-01
DAV:   2    -0.522270826931E+01   -0.84671E-02   -0.86617E-02   128   0.209E+00    0.142E-01
DAV:   3    -0.522269752007E+01    0.10749E-04   -0.13885E-03   120   0.246E-01    0.105E-01
DAV:   4    -0.522251575153E+01    0.18177E-03   -0.43013E-04   112   0.111E-01    0.555E-02
DAV:   5    -0.522252371790E+01   -0.79664E-05   -0.27118E-04    96   0.865E-02
  30 F= -.52225237E+01 E0= -.52225237E+01  d E =-.698754E-02  mag=    -0.0000
 trial-energy change:   -0.006988  1 .order   -0.007356   -0.009010   -0.005702
 step:  42.7550(harm= 42.7550)  dis= 0.07189  next Energy=    -5.227806 (dE=-0.123E-01)
 bond charge predicted
       N       E                     dE             d eps       ncg     rms          rms(c)
DAV:   1    -0.520125430058E+01    0.21261E-01   -0.51876E+01   112   0.367E+01    0.271E-01
DAV:   2    -0.522653376289E+01   -0.25279E-01   -0.25931E-01   128   0.364E+00    0.258E-01
DAV:   3    -0.522649492798E+01    0.38835E-04   -0.42315E-03   120   0.431E-01    0.188E-01
DAV:   4    -0.522594344716E+01    0.55148E-03   -0.11361E-03   128   0.178E-01    0.108E-01
DAV:   5    -0.522590666613E+01    0.36781E-04   -0.79516E-04   128   0.139E-01
  31 F= -.52259067E+01 E0= -.52259067E+01  d E =-.103705E-01  mag=     0.0000
 curvature: -38.78 expect dE=-0.310E-01 dE for cont linesearch -0.659E-04
 trial: gam= 1.57104 g(F)=  0.799E-03 g(S)=  0.000E+00 ort =-0.421E-04 (trialstep = 0.679E+01)
 search vector abs. value=  0.324E-02
 bond charge predicted
       N       E                     dE             d eps       ncg     rms          rms(c)
DAV:   1    -0.522480176750E+01    0.11417E-02   -0.10076E+01   112   0.160E+01    0.102E-01
DAV:   2    -0.522983250306E+01   -0.50307E-02   -0.50396E-02   128   0.157E+00    0.856E-02
DAV:   3    -0.522981696409E+01    0.15539E-04   -0.76614E-04   120   0.173E-01
  32 F= -.52298170E+01 E0= -.52298170E+01  d E =-.391030E-02  mag=     0.0000
 trial-energy change:   -0.003910  1 .order   -0.004206   -0.004978   -0.003434
 step:  21.8936(harm= 21.8936)  dis= 0.04343  next Energy=    -5.233931 (dE=-0.802E-02)
 bond charge predicted
       N       E                     dE             d eps       ncg     rms          rms(c)
DAV:   1    -0.520852720855E+01    0.21305E-01   -0.50314E+01   112   0.360E+01    0.260E-01
DAV:   2    -0.523349534566E+01   -0.24968E-01   -0.25004E-01   128   0.352E+00    0.223E-01
DAV:   3    -0.523332414590E+01    0.17120E-03   -0.39195E-03   120   0.397E-01    0.169E-01
DAV:   4    -0.523273357656E+01    0.59057E-03   -0.12974E-03   128   0.179E-01    0.846E-02
DAV:   5    -0.523270886813E+01    0.24708E-04   -0.70217E-04   112   0.130E-01
  33 F= -.52327089E+01 E0= -.52327089E+01  d E =-.680220E-02  mag=     0.0000
 curvature: -48.33 expect dE=-0.134E-01 dE for cont linesearch -0.544E-04
 trial: gam=-0.06029 g(F)=  0.277E-03 g(S)=  0.000E+00 ort = 0.604E-04 (trialstep = 0.981E+01)
 search vector abs. value=  0.282E-03
 bond charge predicted
       N       E                     dE             d eps       ncg     rms          rms(c)
DAV:   1    -0.523405298901E+01   -0.13194E-02   -0.18364E+00   112   0.659E+00    0.699E-02
DAV:   2    -0.523491825102E+01   -0.86526E-03   -0.93475E-03   112   0.660E-01    0.524E-02
DAV:   3    -0.523494321718E+01   -0.24966E-04   -0.15349E-04    72   0.892E-02
  34 F= -.52349432E+01 E0= -.52349432E+01  d E =-.223435E-02  mag=     0.0000
 trial-energy change:   -0.002234  1 .order   -0.001845   -0.002685   -0.001004
 step:  15.6712(harm= 15.6712)  dis= 0.01000  next Energy=    -5.234854 (dE=-0.214E-02)
 bond charge predicted
       N       E                     dE             d eps       ncg     rms          rms(c)
DAV:   1    -0.523541947858E+01   -0.50123E-03   -0.66030E-01   112   0.396E+00    0.496E-02
DAV:   2    -0.523572775403E+01   -0.30828E-03   -0.32978E-03   112   0.390E-01    0.372E-02
DAV:   3    -0.523574339966E+01   -0.15646E-04   -0.54176E-05    80   0.520E-02
  35 F= -.52357434E+01 E0= -.52357434E+01  d E =-.303453E-02  mag=    -0.0000
 curvature:  -8.07 expect dE=-0.612E-03 dE for cont linesearch -0.900E-04
 trial: gam= 0.07823 g(F)=  0.758E-04 g(S)=  0.000E+00 ort = 0.561E-04 (trialstep = 0.110E+02)
 search vector abs. value=  0.863E-04
 bond charge predicted
       N       E                     dE             d eps       ncg     rms          rms(c)
DAV:   1    -0.523613975955E+01   -0.41201E-03   -0.70626E-01   112   0.419E+00    0.487E-02
DAV:   2    -0.523647659652E+01   -0.33684E-03   -0.35480E-03   112   0.410E-01    0.358E-02
DAV:   3    -0.523648553669E+01   -0.89402E-05   -0.53153E-05    72   0.507E-02
  36 F= -.52364855E+01 E0= -.52364855E+01  d E =-.742137E-03  mag=     0.0000
 trial-energy change:   -0.000742  1 .order   -0.000545   -0.000881   -0.000209
 step:  14.4084(harm= 14.4084)  dis= 0.00725  next Energy=    -5.236321 (dE=-0.578E-03)
 bond charge predicted
       N       E                     dE             d eps       ncg     rms          rms(c)
DAV:   1    -0.523657614370E+01   -0.99547E-04   -0.69691E-02   112   0.132E+00    0.203E-02
DAV:   2    -0.523661121965E+01   -0.35076E-04   -0.34144E-04    96   0.127E-01
  37 F= -.52366112E+01 E0= -.52366112E+01  d E =-.867820E-03  mag=     0.0000
 curvature:  -7.75 expect dE=-0.404E-03 dE for cont linesearch -0.274E-05
 trial: gam= 0.70286 g(F)=  0.521E-04 g(S)=  0.000E+00 ort = 0.552E-05 (trialstep = 0.982E+01)
 search vector abs. value=  0.103E-03
 reached required accuracy - stopping structural energy minimisation
Application 90858342 resources: utime ~2682s, stime ~92s, Rss ~49856, inblocks ~81927, outblocks ~151604
