   4   4   0   0
  0.1175699E+04  0.1675401E-08  0.1675401E-08  0.1675401E-08  0.1000000E-15
  1.000000000000000E-004
  CAR 
 unknown system                          
     -0.08237986     -9.36926362  301     -4.30791197      1.00000000
     -9.369  0.0000E+00  0.0000E+00  0.0000E+00  0.0000E+00
     -9.338  0.0000E+00  0.0000E+00  0.0000E+00  0.0000E+00
     -9.307  0.0000E+00  0.0000E+00  0.0000E+00  0.0000E+00
     -9.276  0.0000E+00  0.0000E+00  0.0000E+00  0.0000E+00
     -9.245  0.0000E+00  0.0000E+00  0.0000E+00  0.0000E+00
     -9.214  0.0000E+00  0.0000E+00  0.0000E+00  0.0000E+00
     -9.184  0.0000E+00  0.0000E+00  0.0000E+00  0.0000E+00
     -9.153  0.0000E+00  0.0000E+00  0.0000E+00  0.0000E+00
     -9.122  0.0000E+00  0.0000E+00  0.0000E+00  0.0000E+00
     -9.091  0.0000E+00  0.0000E+00  0.0000E+00  0.0000E+00
     -9.060  0.0000E+00  0.0000E+00  0.0000E+00  0.0000E+00
     -9.029  0.0000E+00  0.0000E+00  0.0000E+00  0.0000E+00
     -8.998  0.0000E+00  0.0000E+00  0.0000E+00  0.0000E+00
     -8.967  0.0000E+00  0.0000E+00  0.0000E+00  0.0000E+00
     -8.936  0.0000E+00  0.0000E+00  0.1000E-02  0.1000E-02
     -8.905  0.0000E+00  0.0000E+00  0.1000E-02  0.1000E-02
     -8.874  0.0000E+00  0.0000E+00  0.1000E-02  0.1000E-02
     -8.843  0.0000E+00  0.0000E+00  0.1000E-02  0.1000E-02
     -8.812  0.0000E+00  0.0000E+00  0.1000E-02  0.1000E-02
     -8.781  0.0000E+00  0.0000E+00  0.1000E-02  0.1000E-02
     -8.750  0.0000E+00  0.0000E+00  0.1000E-02  0.1000E-02
     -8.719  0.0000E+00  0.0000E+00  0.1000E-02  0.1000E-02
     -8.688  0.0000E+00  0.0000E+00  0.1000E-02  0.1000E-02
     -8.657  0.0000E+00  0.0000E+00  0.1000E-02  0.1000E-02
     -8.626  0.0000E+00  0.0000E+00  0.2000E-02  0.2000E-02
     -8.595  0.0000E+00  0.0000E+00  0.2000E-02  0.2000E-02
     -8.564  0.0000E+00  0.0000E+00  0.2000E-02  0.2000E-02
     -8.533  0.0000E+00  0.0000E+00  0.2000E-02  0.2000E-02
     -8.502  0.0000E+00  0.0000E+00  0.2000E-02  0.2000E-02
     -8.472  0.0000E+00  0.0000E+00  0.2000E-02  0.2000E-02
     -8.441  0.0000E+00  0.0000E+00  0.2000E-02  0.2000E-02
     -8.410  0.0000E+00  0.0000E+00  0.2000E-02  0.2000E-02
     -8.379  0.0000E+00  0.0000E+00  0.2000E-02  0.2000E-02
     -8.348  0.0000E+00  0.0000E+00  0.2000E-02  0.2000E-02
     -8.317  0.0000E+00  0.0000E+00  0.3000E-02  0.3000E-02
     -8.286  0.0000E+00  0.0000E+00  0.3000E-02  0.3000E-02
     -8.255  0.0000E+00  0.0000E+00  0.3000E-02  0.3000E-02
     -8.224  0.0000E+00  0.0000E+00  0.3000E-02  0.3000E-02
     -8.193  0.0000E+00  0.0000E+00  0.3000E-02  0.3000E-02
     -8.162  0.0000E+00  0.0000E+00  0.4000E-02  0.4000E-02
     -8.131  0.0000E+00  0.0000E+00  0.4000E-02  0.4000E-02
     -8.100  0.0000E+00  0.0000E+00  0.4000E-02  0.4000E-02
     -8.069  0.0000E+00  0.0000E+00  0.4000E-02  0.4000E-02
     -8.038  0.0000E+00  0.0000E+00  0.4000E-02  0.4000E-02
     -8.007  0.0000E+00  0.0000E+00  0.4000E-02  0.4000E-02
     -7.976  0.0000E+00  0.0000E+00  0.4000E-02  0.4000E-02
     -7.945  0.3230E-01  0.3230E-01  0.5000E-02  0.5000E-02
     -7.914  0.0000E+00  0.0000E+00  0.6000E-02  0.6000E-02
     -7.883  0.0000E+00  0.0000E+00  0.6000E-02  0.6000E-02
     -7.852  0.0000E+00  0.0000E+00  0.6000E-02  0.6000E-02
     -7.821  0.0000E+00  0.0000E+00  0.6000E-02  0.6000E-02
     -7.790  0.0000E+00  0.0000E+00  0.6000E-02  0.6000E-02
     -7.760  0.0000E+00  0.0000E+00  0.6000E-02  0.6000E-02
     -7.729  0.0000E+00  0.0000E+00  0.6000E-02  0.6000E-02
     -7.698  0.0000E+00  0.0000E+00  0.6000E-02  0.6000E-02
     -7.667  0.0000E+00  0.0000E+00  0.7000E-02  0.7000E-02
     -7.636  0.0000E+00  0.0000E+00  0.7000E-02  0.7000E-02
     -7.605  0.0000E+00  0.0000E+00  0.7000E-02  0.7000E-02
     -7.574  0.0000E+00  0.0000E+00  0.7000E-02  0.7000E-02
     -7.543  0.0000E+00  0.0000E+00  0.7000E-02  0.7000E-02
     -7.512  0.0000E+00  0.0000E+00  0.8000E-02  0.8000E-02
     -7.481  0.0000E+00  0.0000E+00  0.8000E-02  0.8000E-02
     -7.450  0.0000E+00  0.0000E+00  0.8000E-02  0.8000E-02
     -7.419  0.0000E+00  0.0000E+00  0.8000E-02  0.8000E-02
     -7.388  0.0000E+00  0.0000E+00  0.9000E-02  0.9000E-02
     -7.357  0.0000E+00  0.0000E+00  0.9000E-02  0.9000E-02
     -7.326  0.0000E+00  0.0000E+00  0.9000E-02  0.9000E-02
     -7.295  0.0000E+00  0.0000E+00  0.1000E-01  0.1000E-01
     -7.264  0.0000E+00  0.0000E+00  0.1100E-01  0.1100E-01
     -7.233  0.0000E+00  0.0000E+00  0.1200E-01  0.1200E-01
     -7.202  0.0000E+00  0.0000E+00  0.1200E-01  0.1200E-01
     -7.171  0.0000E+00  0.0000E+00  0.1200E-01  0.1200E-01
     -7.140  0.0000E+00  0.0000E+00  0.1200E-01  0.1200E-01
     -7.109  0.0000E+00  0.0000E+00  0.1300E-01  0.1300E-01
     -7.078  0.0000E+00  0.0000E+00  0.1300E-01  0.1300E-01
     -7.048  0.0000E+00  0.0000E+00  0.1300E-01  0.1300E-01
     -7.017  0.0000E+00  0.0000E+00  0.1300E-01  0.1300E-01
     -6.986  0.0000E+00  0.0000E+00  0.1300E-01  0.1300E-01
     -6.955  0.0000E+00  0.0000E+00  0.1400E-01  0.1400E-01
     -6.924  0.0000E+00  0.0000E+00  0.1400E-01  0.1400E-01
     -6.893  0.0000E+00  0.0000E+00  0.1500E-01  0.1500E-01
     -6.862  0.0000E+00  0.0000E+00  0.1500E-01  0.1500E-01
     -6.831  0.0000E+00  0.0000E+00  0.1500E-01  0.1500E-01
     -6.800  0.0000E+00  0.0000E+00  0.1500E-01  0.1500E-01
     -6.769  0.0000E+00  0.0000E+00  0.1500E-01  0.1500E-01
     -6.738  0.0000E+00  0.0000E+00  0.1500E-01  0.1500E-01
     -6.707  0.0000E+00  0.0000E+00  0.1500E-01  0.1500E-01
     -6.676  0.0000E+00  0.0000E+00  0.1500E-01  0.1500E-01
     -6.645  0.0000E+00  0.0000E+00  0.1500E-01  0.1500E-01
     -6.614  0.0000E+00  0.0000E+00  0.1500E-01  0.1500E-01
     -6.583  0.0000E+00  0.0000E+00  0.1500E-01  0.1500E-01
     -6.552  0.0000E+00  0.0000E+00  0.1500E-01  0.1500E-01
     -6.521  0.0000E+00  0.0000E+00  0.1500E-01  0.1500E-01
     -6.490  0.0000E+00  0.0000E+00  0.1500E-01  0.1500E-01
     -6.459  0.0000E+00  0.0000E+00  0.1500E-01  0.1500E-01
     -6.428  0.0000E+00  0.0000E+00  0.1500E-01  0.1500E-01
     -6.397  0.0000E+00  0.0000E+00  0.1700E-01  0.1700E-01
     -6.367  0.0000E+00  0.0000E+00  0.1700E-01  0.1700E-01
     -6.336  0.0000E+00  0.0000E+00  0.1700E-01  0.1700E-01
     -6.305  0.0000E+00  0.0000E+00  0.1800E-01  0.1800E-01
     -6.274  0.0000E+00  0.0000E+00  0.1900E-01  0.1900E-01
     -6.243  0.0000E+00  0.0000E+00  0.1900E-01  0.1900E-01
     -6.212  0.0000E+00  0.0000E+00  0.1900E-01  0.1900E-01
     -6.181  0.0000E+00  0.0000E+00  0.2000E-01  0.2000E-01
     -6.150  0.0000E+00  0.0000E+00  0.2000E-01  0.2000E-01
     -6.119  0.0000E+00  0.0000E+00  0.2000E-01  0.2000E-01
     -6.088  0.0000E+00  0.0000E+00  0.2000E-01  0.2000E-01
     -6.057  0.0000E+00  0.0000E+00  0.2000E-01  0.2000E-01
     -6.026  0.0000E+00  0.0000E+00  0.2100E-01  0.2100E-01
     -5.995  0.0000E+00  0.0000E+00  0.2100E-01  0.2100E-01
     -5.964  0.0000E+00  0.0000E+00  0.2100E-01  0.2100E-01
     -5.933  0.0000E+00  0.0000E+00  0.2100E-01  0.2100E-01
     -5.902  0.0000E+00  0.0000E+00  0.2100E-01  0.2100E-01
     -5.871  0.0000E+00  0.0000E+00  0.2100E-01  0.2100E-01
     -5.840  0.0000E+00  0.0000E+00  0.2100E-01  0.2100E-01
     -5.809  0.0000E+00  0.0000E+00  0.2100E-01  0.2100E-01
     -5.778  0.0000E+00  0.0000E+00  0.2100E-01  0.2100E-01
     -5.747  0.0000E+00  0.0000E+00  0.2100E-01  0.2100E-01
     -5.716  0.0000E+00  0.0000E+00  0.2100E-01  0.2100E-01
     -5.685  0.0000E+00  0.0000E+00  0.2100E-01  0.2100E-01
     -5.655  0.0000E+00  0.0000E+00  0.2100E-01  0.2100E-01
     -5.624  0.0000E+00  0.0000E+00  0.2100E-01  0.2100E-01
     -5.593  0.0000E+00  0.0000E+00  0.2100E-01  0.2100E-01
     -5.562  0.0000E+00  0.0000E+00  0.2100E-01  0.2100E-01
     -5.531  0.0000E+00  0.0000E+00  0.2100E-01  0.2100E-01
     -5.500  0.0000E+00  0.0000E+00  0.2100E-01  0.2100E-01
     -5.469  0.0000E+00  0.0000E+00  0.2100E-01  0.2100E-01
     -5.438  0.0000E+00  0.0000E+00  0.2100E-01  0.2100E-01
     -5.407  0.0000E+00  0.0000E+00  0.2100E-01  0.2100E-01
     -5.376  0.0000E+00  0.0000E+00  0.2100E-01  0.2100E-01
     -5.345  0.0000E+00  0.0000E+00  0.2100E-01  0.2100E-01
     -5.314  0.0000E+00  0.0000E+00  0.2100E-01  0.2100E-01
     -5.283  0.0000E+00  0.0000E+00  0.2100E-01  0.2100E-01
     -5.252  0.0000E+00  0.0000E+00  0.2100E-01  0.2100E-01
     -5.221  0.0000E+00  0.0000E+00  0.2100E-01  0.2100E-01
     -5.190  0.0000E+00  0.0000E+00  0.2100E-01  0.2100E-01
     -5.159  0.0000E+00  0.0000E+00  0.2100E-01  0.2100E-01
     -5.128  0.0000E+00  0.0000E+00  0.2100E-01  0.2100E-01
     -5.097  0.0000E+00  0.0000E+00  0.2100E-01  0.2100E-01
     -5.066  0.0000E+00  0.0000E+00  0.2100E-01  0.2100E-01
     -5.035  0.0000E+00  0.0000E+00  0.2100E-01  0.2100E-01
     -5.004  0.0000E+00  0.0000E+00  0.2100E-01  0.2100E-01
     -4.973  0.0000E+00  0.0000E+00  0.2100E-01  0.2100E-01
     -4.943  0.0000E+00  0.0000E+00  0.2100E-01  0.2100E-01
     -4.912  0.0000E+00  0.0000E+00  0.2100E-01  0.2100E-01
     -4.881  0.0000E+00  0.0000E+00  0.2100E-01  0.2100E-01
     -4.850  0.0000E+00  0.0000E+00  0.2100E-01  0.2100E-01
     -4.819  0.0000E+00  0.0000E+00  0.2100E-01  0.2100E-01
     -4.788  0.0000E+00  0.0000E+00  0.2100E-01  0.2100E-01
     -4.757  0.0000E+00  0.0000E+00  0.2100E-01  0.2100E-01
     -4.726  0.0000E+00  0.0000E+00  0.2100E-01  0.2100E-01
     -4.695  0.0000E+00  0.0000E+00  0.2100E-01  0.2100E-01
     -4.664  0.0000E+00  0.0000E+00  0.2100E-01  0.2100E-01
     -4.633  0.0000E+00  0.0000E+00  0.2100E-01  0.2100E-01
     -4.602  0.0000E+00  0.0000E+00  0.2100E-01  0.2100E-01
     -4.571  0.0000E+00  0.0000E+00  0.2100E-01  0.2100E-01
     -4.540  0.0000E+00  0.0000E+00  0.2100E-01  0.2100E-01
     -4.509  0.0000E+00  0.0000E+00  0.2100E-01  0.2100E-01
     -4.478  0.0000E+00  0.0000E+00  0.2100E-01  0.2100E-01
     -4.447  0.0000E+00  0.0000E+00  0.2100E-01  0.2100E-01
     -4.416  0.0000E+00  0.0000E+00  0.2100E-01  0.2100E-01
     -4.385  0.0000E+00  0.0000E+00  0.2100E-01  0.2100E-01
     -4.354  0.0000E+00  0.0000E+00  0.2100E-01  0.2100E-01
     -4.323  0.0000E+00  0.0000E+00  0.2100E-01  0.2100E-01
     -4.292  0.0000E+00  0.0000E+00  0.2200E-01  0.2200E-01
     -4.261  0.0000E+00  0.0000E+00  0.2200E-01  0.2200E-01
     -4.231  0.0000E+00  0.0000E+00  0.2200E-01  0.2200E-01
     -4.200  0.0000E+00  0.0000E+00  0.2200E-01  0.2200E-01
     -4.169  0.0000E+00  0.0000E+00  0.2200E-01  0.2200E-01
     -4.138  0.0000E+00  0.0000E+00  0.2200E-01  0.2200E-01
     -4.107  0.0000E+00  0.0000E+00  0.2200E-01  0.2200E-01
     -4.076  0.0000E+00  0.0000E+00  0.2200E-01  0.2200E-01
     -4.045  0.0000E+00  0.0000E+00  0.2200E-01  0.2200E-01
     -4.014  0.0000E+00  0.0000E+00  0.2200E-01  0.2200E-01
     -3.983  0.0000E+00  0.0000E+00  0.2200E-01  0.2200E-01
     -3.952  0.0000E+00  0.0000E+00  0.2200E-01  0.2200E-01
     -3.921  0.0000E+00  0.0000E+00  0.2200E-01  0.2200E-01
     -3.890  0.0000E+00  0.0000E+00  0.2200E-01  0.2200E-01
     -3.859  0.0000E+00  0.0000E+00  0.2200E-01  0.2200E-01
     -3.828  0.0000E+00  0.0000E+00  0.2200E-01  0.2200E-01
     -3.797  0.0000E+00  0.0000E+00  0.2200E-01  0.2200E-01
     -3.766  0.0000E+00  0.0000E+00  0.2200E-01  0.2200E-01
     -3.735  0.0000E+00  0.0000E+00  0.2200E-01  0.2200E-01
     -3.704  0.0000E+00  0.0000E+00  0.2200E-01  0.2200E-01
     -3.673  0.0000E+00  0.0000E+00  0.2200E-01  0.2200E-01
     -3.642  0.0000E+00  0.0000E+00  0.2200E-01  0.2200E-01
     -3.611  0.0000E+00  0.0000E+00  0.2200E-01  0.2200E-01
     -3.580  0.0000E+00  0.0000E+00  0.2200E-01  0.2200E-01
     -3.549  0.0000E+00  0.0000E+00  0.2200E-01  0.2200E-01
     -3.519  0.0000E+00  0.0000E+00  0.2200E-01  0.2200E-01
     -3.488  0.0000E+00  0.0000E+00  0.2200E-01  0.2200E-01
     -3.457  0.0000E+00  0.0000E+00  0.2300E-01  0.2300E-01
     -3.426  0.0000E+00  0.0000E+00  0.2300E-01  0.2300E-01
     -3.395  0.0000E+00  0.0000E+00  0.2300E-01  0.2300E-01
     -3.364  0.0000E+00  0.0000E+00  0.2300E-01  0.2300E-01
     -3.333  0.0000E+00  0.0000E+00  0.2300E-01  0.2300E-01
     -3.302  0.0000E+00  0.0000E+00  0.2300E-01  0.2300E-01
     -3.271  0.0000E+00  0.0000E+00  0.2300E-01  0.2300E-01
     -3.240  0.0000E+00  0.0000E+00  0.2300E-01  0.2300E-01
     -3.209  0.0000E+00  0.0000E+00  0.2300E-01  0.2300E-01
     -3.178  0.0000E+00  0.0000E+00  0.2300E-01  0.2300E-01
     -3.147  0.0000E+00  0.0000E+00  0.2300E-01  0.2300E-01
     -3.116  0.0000E+00  0.0000E+00  0.2300E-01  0.2300E-01
     -3.085  0.0000E+00  0.0000E+00  0.2300E-01  0.2300E-01
     -3.054  0.0000E+00  0.0000E+00  0.2300E-01  0.2300E-01
     -3.023  0.0000E+00  0.0000E+00  0.2300E-01  0.2300E-01
     -2.992  0.0000E+00  0.0000E+00  0.2300E-01  0.2300E-01
     -2.961  0.0000E+00  0.0000E+00  0.2300E-01  0.2300E-01
     -2.930  0.0000E+00  0.0000E+00  0.2300E-01  0.2300E-01
     -2.899  0.0000E+00  0.0000E+00  0.2300E-01  0.2300E-01
     -2.868  0.0000E+00  0.0000E+00  0.2300E-01  0.2300E-01
     -2.837  0.0000E+00  0.0000E+00  0.2300E-01  0.2300E-01
     -2.807  0.0000E+00  0.0000E+00  0.2300E-01  0.2300E-01
     -2.776  0.0000E+00  0.0000E+00  0.2300E-01  0.2300E-01
     -2.745  0.0000E+00  0.0000E+00  0.2300E-01  0.2300E-01
     -2.714  0.0000E+00  0.0000E+00  0.2300E-01  0.2300E-01
     -2.683  0.0000E+00  0.0000E+00  0.2300E-01  0.2300E-01
     -2.652  0.0000E+00  0.0000E+00  0.2300E-01  0.2300E-01
     -2.621  0.0000E+00  0.0000E+00  0.2300E-01  0.2300E-01
     -2.590  0.0000E+00  0.0000E+00  0.2300E-01  0.2300E-01
     -2.559  0.0000E+00  0.0000E+00  0.2300E-01  0.2300E-01
     -2.528  0.0000E+00  0.0000E+00  0.2300E-01  0.2300E-01
     -2.497  0.0000E+00  0.0000E+00  0.2300E-01  0.2300E-01
     -2.466  0.0000E+00  0.0000E+00  0.2300E-01  0.2300E-01
     -2.435  0.0000E+00  0.0000E+00  0.2400E-01  0.2400E-01
     -2.404  0.0000E+00  0.0000E+00  0.2400E-01  0.2400E-01
     -2.373  0.0000E+00  0.0000E+00  0.2400E-01  0.2400E-01
     -2.342  0.0000E+00  0.0000E+00  0.2400E-01  0.2400E-01
     -2.311  0.0000E+00  0.0000E+00  0.2400E-01  0.2400E-01
     -2.280  0.0000E+00  0.0000E+00  0.2400E-01  0.2400E-01
     -2.249  0.0000E+00  0.0000E+00  0.2400E-01  0.2400E-01
     -2.218  0.0000E+00  0.0000E+00  0.2400E-01  0.2400E-01
     -2.187  0.0000E+00  0.0000E+00  0.2400E-01  0.2400E-01
     -2.156  0.0000E+00  0.0000E+00  0.2400E-01  0.2400E-01
     -2.125  0.0000E+00  0.0000E+00  0.2400E-01  0.2400E-01
     -2.095  0.0000E+00  0.0000E+00  0.2400E-01  0.2400E-01
     -2.064  0.0000E+00  0.0000E+00  0.2400E-01  0.2400E-01
     -2.033  0.0000E+00  0.0000E+00  0.2400E-01  0.2400E-01
     -2.002  0.0000E+00  0.0000E+00  0.2400E-01  0.2400E-01
     -1.971  0.0000E+00  0.0000E+00  0.2400E-01  0.2400E-01
     -1.940  0.0000E+00  0.0000E+00  0.2400E-01  0.2400E-01
     -1.909  0.0000E+00  0.0000E+00  0.2400E-01  0.2400E-01
     -1.878  0.0000E+00  0.0000E+00  0.2400E-01  0.2400E-01
     -1.847  0.0000E+00  0.0000E+00  0.2400E-01  0.2400E-01
     -1.816  0.0000E+00  0.0000E+00  0.2400E-01  0.2400E-01
     -1.785  0.0000E+00  0.0000E+00  0.2400E-01  0.2400E-01
     -1.754  0.0000E+00  0.0000E+00  0.2400E-01  0.2400E-01
     -1.723  0.0000E+00  0.0000E+00  0.2400E-01  0.2400E-01
     -1.692  0.0000E+00  0.0000E+00  0.2400E-01  0.2400E-01
     -1.661  0.0000E+00  0.0000E+00  0.2400E-01  0.2400E-01
     -1.630  0.0000E+00  0.0000E+00  0.2400E-01  0.2400E-01
     -1.599  0.0000E+00  0.0000E+00  0.2400E-01  0.2400E-01
     -1.568  0.0000E+00  0.0000E+00  0.2500E-01  0.2500E-01
     -1.537  0.0000E+00  0.0000E+00  0.2500E-01  0.2500E-01
     -1.506  0.0000E+00  0.0000E+00  0.2500E-01  0.2500E-01
     -1.475  0.0000E+00  0.0000E+00  0.2500E-01  0.2500E-01
     -1.444  0.0000E+00  0.0000E+00  0.2500E-01  0.2500E-01
     -1.413  0.0000E+00  0.0000E+00  0.2500E-01  0.2500E-01
     -1.383  0.0000E+00  0.0000E+00  0.2500E-01  0.2500E-01
     -1.352  0.0000E+00  0.0000E+00  0.2500E-01  0.2500E-01
     -1.321  0.0000E+00  0.0000E+00  0.2500E-01  0.2500E-01
     -1.290  0.0000E+00  0.0000E+00  0.2500E-01  0.2500E-01
     -1.259  0.0000E+00  0.0000E+00  0.2500E-01  0.2500E-01
     -1.228  0.0000E+00  0.0000E+00  0.2500E-01  0.2500E-01
     -1.197  0.0000E+00  0.0000E+00  0.2500E-01  0.2500E-01
     -1.166  0.0000E+00  0.0000E+00  0.2500E-01  0.2500E-01
     -1.135  0.0000E+00  0.0000E+00  0.2500E-01  0.2500E-01
     -1.104  0.0000E+00  0.0000E+00  0.2500E-01  0.2500E-01
     -1.073  0.0000E+00  0.0000E+00  0.2500E-01  0.2500E-01
     -1.042  0.0000E+00  0.0000E+00  0.2500E-01  0.2500E-01
     -1.011  0.0000E+00  0.0000E+00  0.2500E-01  0.2500E-01
     -0.980  0.0000E+00  0.0000E+00  0.2500E-01  0.2500E-01
     -0.949  0.0000E+00  0.0000E+00  0.2500E-01  0.2500E-01
     -0.918  0.0000E+00  0.0000E+00  0.2500E-01  0.2500E-01
     -0.887  0.0000E+00  0.0000E+00  0.2500E-01  0.2500E-01
     -0.856  0.0000E+00  0.0000E+00  0.2500E-01  0.2500E-01
     -0.825  0.0000E+00  0.0000E+00  0.2600E-01  0.2600E-01
     -0.794  0.0000E+00  0.0000E+00  0.2600E-01  0.2600E-01
     -0.763  0.0000E+00  0.0000E+00  0.2700E-01  0.2700E-01
     -0.732  0.0000E+00  0.0000E+00  0.2700E-01  0.2700E-01
     -0.702  0.0000E+00  0.0000E+00  0.2700E-01  0.2700E-01
     -0.671  0.0000E+00  0.0000E+00  0.2700E-01  0.2700E-01
     -0.640  0.0000E+00  0.0000E+00  0.2700E-01  0.2700E-01
     -0.609  0.0000E+00  0.0000E+00  0.2700E-01  0.2700E-01
     -0.578  0.0000E+00  0.0000E+00  0.2700E-01  0.2700E-01
     -0.547  0.0000E+00  0.0000E+00  0.2700E-01  0.2700E-01
     -0.516  0.0000E+00  0.0000E+00  0.2700E-01  0.2700E-01
     -0.485  0.0000E+00  0.0000E+00  0.2800E-01  0.2800E-01
     -0.454  0.0000E+00  0.0000E+00  0.2800E-01  0.2800E-01
     -0.423  0.0000E+00  0.0000E+00  0.2800E-01  0.2800E-01
     -0.392  0.0000E+00  0.0000E+00  0.2800E-01  0.2800E-01
     -0.361  0.0000E+00  0.0000E+00  0.2800E-01  0.2800E-01
     -0.330  0.0000E+00  0.0000E+00  0.2800E-01  0.2800E-01
     -0.299  0.0000E+00  0.0000E+00  0.2800E-01  0.2800E-01
     -0.268  0.0000E+00  0.0000E+00  0.2800E-01  0.2800E-01
     -0.237  0.0000E+00  0.0000E+00  0.2800E-01  0.2800E-01
     -0.206  0.0000E+00  0.0000E+00  0.2800E-01  0.2800E-01
     -0.175  0.0000E+00  0.0000E+00  0.2800E-01  0.2800E-01
     -0.144  0.0000E+00  0.0000E+00  0.2800E-01  0.2800E-01
     -0.113  0.0000E+00  0.0000E+00  0.2800E-01  0.2800E-01
     -0.082  0.0000E+00  0.0000E+00  0.2800E-01  0.2800E-01
