    4    4 1000    2
  0.1175699E+04  0.1675401E-08  0.1675401E-08  0.1675401E-08  0.1000000E-15
  1.000000000000000E-004
  CAR 
 unknown system                          
     44      1     28
 
  0.0000000E+00  0.0000000E+00  0.0000000E+00  0.1000000E+01
    1       -8.947133     -8.947133
    2       -8.637370     -8.637370
    3       -8.322069     -8.322069
    4       -8.188340     -8.188340
    5       -7.945560     -7.945560
    6       -7.934939     -7.934939
    7       -7.672400     -7.672400
    8       -7.519316     -7.519316
    9       -7.416397     -7.416397
   10       -7.319008     -7.319008
   11       -7.294584     -7.294584
   12       -7.244608     -7.244608
   13       -7.112017     -7.112017
   14       -6.982920     -6.982920
   15       -6.917684     -6.917684
   16       -6.420351     -6.420351
   17       -6.420083     -6.420083
   18       -6.320295     -6.320295
   19       -6.285876     -6.285876
   20       -6.189158     -6.189158
   21       -6.049934     -6.049934
   22       -4.315887     -4.315887
   23       -3.457747     -3.457747
   24       -2.455452     -2.455452
   25       -1.572445     -1.572445
   26       -0.850292     -0.850292
   27       -0.772131     -0.772131
   28       -0.504511     -0.504511
