 vasp.5.3.5 31Mar14 (build Feb 01 2018 12:10:03) gamma-only                     
  
 executed on             LinuxIFC date 2019.03.20  17:27:22
 running on   32 total cores
 distrk:  each k-point on   32 cores,    1 groups
 distr:  one band on NCORES_PER_BAND=   8 cores,    4 groups


--------------------------------------------------------------------------------------------------------


 INCAR:
 POTCAR:    PAW_PBE Ag 02Apr2005                  
 POTCAR:    PAW_PBE Ag 02Apr2005                  
   VRHFIN =Ag : s1 d10                                                          
   LEXCH  = PE                                                                  
   EATOM  =  1037.2675 eV,   76.2370 Ry                                         
                                                                                
   TITEL  = PAW_PBE Ag 02Apr2005                                                
   LULTRA =        F    use ultrasoft PP ?                                      
   IUNSCR =        1    unscreen: 0-lin 1-nonlin 2-no                           
   RPACOR =    2.000    partial core radius                                     
   POMASS =  107.868; ZVAL   =   11.000    mass and valenz                      
   RCORE  =    2.500    outmost cutoff radius                                   
   RWIGS  =    2.840; RWIGS  =    1.503    wigner-seitz radius (au A)           
   ENMAX  =  249.844; ENMIN  =  187.383 eV                                      
   ICORE  =        3    local potential                                         
   LCOR   =        T    correct aug charges                                     
   LPAW   =        T    paw PP                                                  
   EAUG   =  412.496                                                            
   DEXC   =    0.000                                                            
   RMAX   =    2.560    core radius for proj-oper                               
   RAUG   =    1.300    factor for augmentation sphere                          
   RDEP   =    2.576    radius for radial grids                                 
   RDEPT  =    2.072    core radius for aug-charge                              
                                                                                
   Atomic configuration                                                         
   12 entries                                                                   
     n  l   j            E        occ.                                          
     1  0  0.50    -25324.9161   2.0000                                         
     2  0  0.50     -3728.5341   2.0000                                         
     2  1  1.50     -3344.0404   6.0000                                         
     3  0  0.50      -683.5581   2.0000                                         
     3  1  1.50      -557.3225   6.0000                                         
     3  2  2.50      -358.3853  10.0000                                         
     4  0  0.50       -95.0341   2.0000                                         
     4  1  1.50       -58.5511   6.0000                                         
     4  2  2.50        -7.4440  10.0000                                         
     5  0  0.50        -4.4045   1.0000                                         
     5  1  0.50        -1.3606   0.0000                                         
     4  3  2.50        -1.3606   0.0000                                         
   Description                                                                  
     l       E           TYP  RCUT    TYP  RCUT                                 
     2     -7.4439781     23  2.400                                             
     2     -8.8045607     23  2.400                                             
     0     -4.4044681     23  2.400                                             
     0      1.9520038     23  2.400                                             
     1     -1.3605826     23  2.500                                             
     1     27.2116520     23  2.500                                             
     3     -4.0817478     23  2.400                                             
  local pseudopotential read in
  partial core-charges read in
  partial kinetic energy density read in
  atomic valenz-charges read in
  non local Contribution for L=           2  read in
    real space projection operators read in
  non local Contribution for L=           2  read in
    real space projection operators read in
  non local Contribution for L=           0  read in
    real space projection operators read in
  non local Contribution for L=           0  read in
    real space projection operators read in
  non local Contribution for L=           1  read in
    real space projection operators read in
  non local Contribution for L=           1  read in
    real space projection operators read in
    PAW grid and wavefunctions read in
 
   number of l-projection  operators is LMAX  =           6
   number of lm-projection operators is LMMAX =          18
 
  PAW_PBE Ag 02Apr2005                  :
 energy of atom  1       EATOM=-1037.2675
 kinetic energy error for atom=    0.0689 (will be added to EATOM!!)
 
 
 POSCAR: Be4, -2.03946873 <s> Ag </s>            
  positions in direct lattice
  No initial velocities read in
 exchange correlation table for  LEXCH =        8
   RHO(1)=    0.500       N(1)  =     2000
   RHO(2)=  100.500       N(2)  =     4000
 


--------------------------------------------------------------------------------------------------------


 ion  position               nearest neighbor table
   1  0.583  0.616  0.532-   3 2.73
   2  0.572  0.660  0.750-   4 3.12
   3  0.624  0.460  0.516-   1 2.73
   4  0.720  0.751  0.685-   2 3.12
 
  LATTYP: Found a simple cubic cell.
 ALAT       =    16.7540064664
  
  Lattice vectors:
  
 A1 = (  16.7540064664,   0.0000000000,   0.0000000000)
 A2 = (   0.0000000000,  16.7540064664,   0.0000000000)
 A3 = (   0.0000000000,   0.0000000000,  16.7540064664)


Analysis of symmetry for initial positions (statically):
=====================================================================
 Subroutine PRICEL returns:
 Original cell was already a primitive cell.
 

 Routine SETGRP: Setting up the symmetry group for a 
 simple cubic supercell.


 Subroutine GETGRP returns: Found  1 space group operations
 (whereof  1 operations were pure point group operations)
 out of a pool of 48 trial point group operations.


The static configuration has the point symmetry C_1 .


Analysis of symmetry for dynamics (positions and initial velocities):
=====================================================================
 Subroutine PRICEL returns:
 Original cell was already a primitive cell.
 

 Routine SETGRP: Setting up the symmetry group for a 
 simple cubic supercell.


 Subroutine GETGRP returns: Found  1 space group operations
 (whereof  1 operations were pure point group operations)
 out of a pool of 48 trial point group operations.


The dynamic configuration has the point symmetry C_1 .


Analysis of magnetic symmetry:
=====================================================================
 Subroutine PRICEL returns:
 Original cell was already a primitive cell.
 

 Subroutine MAGSYM returns: Found  1 space group operations
 (whereof  1 operations were pure point group operations)
 out of a pool of  1 trial space group operations
 (whereof  1 operations were pure point group operations)
 and found also     1 'primitive' translations


The magnetic configuration has the point symmetry C_1 .
 
 
 KPOINTS: Gamma-point only                        
  k-points in reciprocal lattice
Space group operators:
 irot       det(A)        alpha          n_x          n_y          n_z        tau_x        tau_y        tau_z
    1     1.000000     0.000001     1.000000     0.000000     0.000000     0.000000     0.000000     0.000000


--------------------------------------------------------------------------------------------------------




 Dimension of arrays:
   k-points           NKPTS =      1   k-points in BZ     NKDIM =      1   number of bands    NBANDS=     28
   number of dos      NEDOS =    301   number of ions     NIONS =      4
   non local maximal  LDIM  =      6   non local SUM 2l+1 LMDIM =     18
   total plane-waves  NPLWV = 343000
   max r-space proj   IRMAX =      1   max aug-charges    IRDMAX=   3785
   dimension x,y,z NGX =    70 NGY =   70 NGZ =   70
   dimension x,y,z NGXF=   140 NGYF=  140 NGZF=  140
   support grid    NGXF=   140 NGYF=  140 NGZF=  140
   ions per type =               4
 NGX,Y,Z   is equivalent  to a cutoff of   6.95,  6.95,  6.95 a.u.
 NGXF,Y,Z  is equivalent  to a cutoff of  13.89, 13.89, 13.89 a.u.


 I would recommend the setting:
   dimension x,y,z NGX =    65 NGY =   65 NGZ =   65
 SYSTEM =  unknown system                          
 POSCAR =  Be4, -2.03946873 <s> Ag </s>            

 Startparameter for this run:
   NWRITE =      2    write-flag & timer
   PREC   = normal    normal or accurate (medium, high low for compatibility)
   ISTART =      0    job   : 0-new  1-cont  2-samecut
   ICHARG =      2    charge: 1-file 2-atom 10-const
   ISPIN  =      2    spin polarized calculation?
   LNONCOLLINEAR =      F non collinear calculations
   LSORBIT =      F    spin-orbit coupling
   INIWAV =      1    electr: 0-lowe 1-rand  2-diag
   LASPH  =      F    aspherical Exc in radial PAW
   METAGGA=      F    non-selfconsistent MetaGGA calc.

 Electronic Relaxation 1
   ENCUT  =  249.8 eV  18.36 Ry    4.29 a.u.  21.59 21.59 21.59*2*pi/ulx,y,z
   ENINI  =  249.8     initial cutoff
   ENAUG  =  412.5 eV  augmentation charge cutoff
   NELM   =     60;   NELMIN=  2; NELMDL= -5     # of ELM steps 
   EDIFF  = 0.1E-03   stopping-criterion for ELM
   LREAL  =      F    real-space projection
   NLSPLINE    = F    spline interpolate recip. space projectors
   LCOMPAT=      F    compatible to vasp.4.4
   GGA_COMPAT  = T    GGA compatible to vasp.4.4-vasp.4.6
   LMAXPAW     = -100 max onsite density
   LMAXMIX     =    2 max onsite mixed and CHGCAR
   VOSKOWN=      0    Vosko Wilk Nusair interpolation
   ROPT   =    0.00000
 Ionic relaxation
   EDIFFG = 0.1E-02   stopping-criterion for IOM
   NSW    =   1000    number of steps for IOM
   NBLOCK =      1;   KBLOCK =   1000    inner block; outer block 
   IBRION =      2    ionic relax: 0-MD 1-quasi-New 2-CG
   NFREE  =      1    steps in history (QN), initial steepest desc. (CG)
   ISIF   =      2    stress and relaxation
   IWAVPR =     11    prediction:  0-non 1-charg 2-wave 3-comb
   ISYM   =      2    0-nonsym 1-usesym 2-fastsym
   LCORR  =      T    Harris-Foulkes like correction to forces

   POTIM  = 0.1000    time-step for ionic-motion
   TEIN   =    0.0    initial temperature
   TEBEG  =    0.0;   TEEND  =   0.0 temperature during run
   SMASS  =  -3.00    Nose mass-parameter (am)
   estimated Nose-frequenzy (Omega)   =  0.10E-29 period in steps =****** mass=  -0.641E-26a.u.
   SCALEE = 1.0000    scale energy and forces
   NPACO  =    256;   APACO  = 16.0  distance and # of slots for P.C.
   PSTRESS=    0.0 pullay stress

  Mass of Ions in am
   POMASS = 107.87
  Ionic Valenz
   ZVAL   =  11.00
  Atomic Wigner-Seitz radii
   RWIGS  =  -1.00
  virtual crystal weights 
   VCA    =   1.00
   NELECT =      44.0000    total number of electrons
   NUPDOWN=      -1.0000    fix difference up-down

 DOS related values:
   EMIN   =  10.00;   EMAX   =-10.00  energy-range for DOS
   EFERMI =   0.00
   ISMEAR =     0;   SIGMA  =   0.00  broadening in eV -4-tet -1-fermi 0-gaus

 Electronic relaxation 2 (details)
   IALGO  =     38    algorithm
   LDIAG  =      T    sub-space diagonalisation (order eigenvalues)
   LSUBROT=      F    optimize rotation matrix (better conditioning)
   TURBO    =      0    0=normal 1=particle mesh
   IRESTART =      0    0=no restart 2=restart with 2 vectors
   NREBOOT  =      0    no. of reboots
   NMIN     =      0    reboot dimension
   EREF     =   0.00    reference energy to select bands
   IMIX   =      4    mixing-type and parameters
     AMIX     =   0.40;   BMIX     =  1.00
     AMIX_MAG =   1.60;   BMIX_MAG =  1.00
     AMIN     =   0.10
     WC   =   100.;   INIMIX=   1;  MIXPRE=   1;  MAXMIX= -45

 Intra band minimization:
   WEIMIN = 0.0010     energy-eigenvalue tresh-hold
   EBREAK =  0.89E-06  absolut break condition
   DEPER  =   0.30     relativ break condition  

   TIME   =   0.40     timestep for ELM

  volume/ion in A,a.u.               =    1175.70      7934.01
  Fermi-wavevector in a.u.,A,eV,Ry     =   0.344964  0.651887  1.619095  0.119000
  Thomas-Fermi vector in A             =   1.252393
 
 Write flags
   LWAVE  =      F    write WAVECAR
   LCHARG =      F    write CHGCAR
   LVTOT  =      F    write LOCPOT, total local potential
   LVHAR  =      F    write LOCPOT, Hartree potential only
   LELF   =      F    write electronic localiz. function (ELF)
   LORBIT =      0    0 simple, 1 ext, 2 COOP (PROOUT)


 Dipole corrections
   LMONO  =      F    monopole corrections only (constant potential shift)
   LDIPOL =      F    correct potential (dipole corrections)
   IDIPOL =      0    1-x, 2-y, 3-z, 4-all directions 
   EPSILON=  1.0000000 bulk dielectric constant

 Exchange correlation treatment:
   GGA     =    PE    GGA type
   LEXCH   =     8    internal setting for exchange type
   VOSKOWN=      0    Vosko Wilk Nusair interpolation
   LHFCALC =     F    Hartree Fock is set to
   LHFONE  =     F    Hartree Fock one center treatment
   AEXX    =    0.0000 exact exchange contribution

 Linear response parameters
   LEPSILON=     F    determine dielectric tensor
   LRPA    =     F    only Hartree local field effects (RPA)
   LNABLA  =     F    use nabla operator in PAW spheres
   LVEL    =     F    velocity operator in full k-point grid
   LINTERFAST=   F  fast interpolation
   KINTER  =     0    interpolate to denser k-point grid
   CSHIFT  =0.1000    complex shift for real part using Kramers Kronig
   OMEGAMAX=  -1.0    maximum frequency
   DEG_THRESHOLD= 0.2000000E-02 threshold for treating states as degnerate
   RTIME   =    0.100 relaxation time in fs

 Orbital magnetization related:
   ORBITALMAG=     F  switch on orbital magnetization
   LCHIMAG   =     F  perturbation theory with respect to B field
   DQ        =  0.001000  dq finite difference perturbation B field



--------------------------------------------------------------------------------------------------------


 conjugate gradient relaxation of ions
 charge density and potential will be updated during run
 spin polarized calculation
 Variant of blocked Davidson
 Davidson routine will perform the subspace rotation
 perform sub-space diagonalisation
    after iterative eigenvector-optimisation
 modified Broyden-mixing scheme, WC =      100.0
 initial mixing is a Kerker type mixing with AMIX =  0.4000 and BMIX =      1.0000
 Hartree-type preconditioning will be used
 using additional bands            6
 reciprocal scheme for non local part
 use partial core corrections
 calculate Harris-corrections to forces 
   (improved forces if not selfconsistent)
 use gradient corrections 
 use of overlap-Matrix (Vanderbilt PP)
 Gauss-broadening in eV      SIGMA  =   0.00


--------------------------------------------------------------------------------------------------------


  energy-cutoff  :      249.84
  volume of cell :     4702.79
      direct lattice vectors                 reciprocal lattice vectors
    16.754006466  0.000000000  0.000000000     0.059687216  0.000000000  0.000000000
     0.000000000 16.754006466  0.000000000     0.000000000  0.059687216  0.000000000
     0.000000000  0.000000000 16.754006466     0.000000000  0.000000000  0.059687216

  length of vectors
    16.754006466 16.754006466 16.754006466     0.059687216  0.059687216  0.059687216


 
 k-points in units of 2pi/SCALE and weight: Gamma-point only                        
   0.00000000  0.00000000  0.00000000       1.000
 
 k-points in reciprocal lattice and weights: Gamma-point only                        
   0.00000000  0.00000000  0.00000000       1.000
 
 position of ions in fractional coordinates (direct lattice) 
   0.58251573  0.61643114  0.53183970
   0.57185272  0.65973123  0.74951148
   0.62385329  0.45964215  0.51571335
   0.72043858  0.75112775  0.68504461
 
 position of ions in cartesian coordinates  (Angst):
   9.75947233 10.32769131  8.91044573
   9.58082423 11.05314124 12.55732014
  10.45204205  7.70084761  8.64026474
  12.07023267 12.58439918 11.47724185
 


--------------------------------------------------------------------------------------------------------


 use parallel FFT for wavefunctions z direction half grid
 k-point  1 :   0.0000 0.0000 0.0000  plane waves:   21106

 maximum and minimum number of plane-waves per node :      2646     2635

 maximum number of plane-waves:     21106
 maximum index in each direction: 
   IXMAX=   21   IYMAX=   21   IZMAX=   21
   IXMIN=  -21   IYMIN=  -21   IZMIN=    0

 WARNING: aliasing errors must be expected set NGX to  86 to avoid them
 WARNING: aliasing errors must be expected set NGY to  86 to avoid them
 WARNING: aliasing errors must be expected set NGZ to  86 to avoid them
 aliasing errors are usually negligible using standard VASP settings
 and one can safely disregard these warnings

 parallel 3D FFT for wavefunctions:
    minimum data exchange during FFTs selected (reduces bandwidth)
 parallel 3D FFT for charge:
    minimum data exchange during FFTs selected (reduces bandwidth)


 total amount of memory used by VASP on root node    46039. kBytes
========================================================================

   base      :      30000. kBytes
   nonl-proj :        549. kBytes
   fftplans  :       4200. kBytes
   grid      :      10682. kBytes
   one-center:         15. kBytes
   wavefun   :        593. kBytes
 
     INWAV:  cpu time    0.00: real time    0.00
 Broyden mixing: mesh for mixing (old mesh)
   NGX = 43   NGY = 43   NGZ = 43
  (NGX  =140   NGY  =140   NGZ  =140)
  gives a total of  79507 points

 initial charge density was supplied:
 charge density of overlapping atoms calculated
 number of electron      44.0000000 magnetization       4.0000000
 keeping initial charge density in first step


--------------------------------------------------------------------------------------------------------


 Maximum index for augmentation-charges          202 (set IRDMAX)


--------------------------------------------------------------------------------------------------------


 First call to EWALD:  gamma=   0.106
 Maximum number of real-space cells 3x 3x 3
 Maximum number of reciprocal cells 3x 3x 3

 FEWALD executed in parallel
    FEWALD:  cpu time    0.00: real time    0.00


----------------------------------------- Iteration    1(   1)  ---------------------------------------


    POTLOK:  cpu time    0.16: real time    0.16
    SETDIJ:  cpu time    0.00: real time    0.01
     EDDAV:  cpu time    0.14: real time    0.14
       DOS:  cpu time    0.00: real time    0.00
    --------------------------------------------
      LOOP:  cpu time    0.31: real time    0.33

 eigenvalue-minimisations  :   112
 total energy-change (2. order) : 0.3521826E+03  (-0.5689649E+03)
 number of electron      44.0000000 magnetization       4.0000000
 augmentation part       44.0000000 magnetization       4.0000000

 Free energy of the ion-electron system (eV)
  ---------------------------------------------------
  alpha Z        PSCENC =         2.89386407
  Ewald energy   TEWEN  =       440.51557005
  -Hartree energ DENC   =     -4417.49423032
  -exchange      EXHF   =         0.00000000
  -V(xc)+E(xc)   XCENC  =       -47.52336237
  PAW double counting   =      4013.48871228    -3829.05843552
  entropy T*S    EENTRO =         0.00000000
  eigenvalues    EBANDS =        40.56598831
  atomic energy  EATOM  =      4148.79452035
  ---------------------------------------------------
  free energy    TOTEN  =       352.18262685 eV

  energy without entropy =      352.18262685  energy(sigma->0) =      352.18262685


--------------------------------------------------------------------------------------------------------




----------------------------------------- Iteration    1(   2)  ---------------------------------------


     EDDAV:  cpu time    0.21: real time    0.21
       DOS:  cpu time    0.00: real time    0.00
    --------------------------------------------
      LOOP:  cpu time    0.21: real time    0.22

 eigenvalue-minimisations  :   192
 total energy-change (2. order) :-0.1281941E+03  (-0.1202188E+03)
 number of electron      44.0000000 magnetization       4.0000000
 augmentation part       44.0000000 magnetization       4.0000000

 Free energy of the ion-electron system (eV)
  ---------------------------------------------------
  alpha Z        PSCENC =         2.89386407
  Ewald energy   TEWEN  =       440.51557005
  -Hartree energ DENC   =     -4417.49423032
  -exchange      EXHF   =         0.00000000
  -V(xc)+E(xc)   XCENC  =       -47.52336237
  PAW double counting   =      4013.48871228    -3829.05843552
  entropy T*S    EENTRO =         0.00000000
  eigenvalues    EBANDS =       -87.62806338
  atomic energy  EATOM  =      4148.79452035
  ---------------------------------------------------
  free energy    TOTEN  =       223.98857516 eV

  energy without entropy =      223.98857516  energy(sigma->0) =      223.98857516


--------------------------------------------------------------------------------------------------------




----------------------------------------- Iteration    1(   3)  ---------------------------------------


     EDDAV:  cpu time    0.21: real time    0.21
       DOS:  cpu time    0.00: real time    0.00
    --------------------------------------------
      LOOP:  cpu time    0.21: real time    0.26

 eigenvalue-minimisations  :   192
 total energy-change (2. order) :-0.1881542E+03  (-0.1806570E+03)
 number of electron      44.0000000 magnetization       4.0000000
 augmentation part       44.0000000 magnetization       4.0000000

 Free energy of the ion-electron system (eV)
  ---------------------------------------------------
  alpha Z        PSCENC =         2.89386407
  Ewald energy   TEWEN  =       440.51557005
  -Hartree energ DENC   =     -4417.49423032
  -exchange      EXHF   =         0.00000000
  -V(xc)+E(xc)   XCENC  =       -47.52336237
  PAW double counting   =      4013.48871228    -3829.05843552
  entropy T*S    EENTRO =         0.00000000
  eigenvalues    EBANDS =      -275.78225491
  atomic energy  EATOM  =      4148.79452035
  ---------------------------------------------------
  free energy    TOTEN  =        35.83438363 eV

  energy without entropy =       35.83438363  energy(sigma->0) =       35.83438363


--------------------------------------------------------------------------------------------------------




----------------------------------------- Iteration    1(   4)  ---------------------------------------


     EDDAV:  cpu time    0.17: real time    0.17
       DOS:  cpu time    0.00: real time    0.00
    --------------------------------------------
      LOOP:  cpu time    0.18: real time    0.18

 eigenvalue-minimisations  :   148
 total energy-change (2. order) :-0.3843345E+02  (-0.3790155E+02)
 number of electron      44.0000000 magnetization       4.0000000
 augmentation part       44.0000000 magnetization       4.0000000

 Free energy of the ion-electron system (eV)
  ---------------------------------------------------
  alpha Z        PSCENC =         2.89386407
  Ewald energy   TEWEN  =       440.51557005
  -Hartree energ DENC   =     -4417.49423032
  -exchange      EXHF   =         0.00000000
  -V(xc)+E(xc)   XCENC  =       -47.52336237
  PAW double counting   =      4013.48871228    -3829.05843552
  entropy T*S    EENTRO =         0.00000000
  eigenvalues    EBANDS =      -314.21570051
  atomic energy  EATOM  =      4148.79452035
  ---------------------------------------------------
  free energy    TOTEN  =        -2.59906197 eV

  energy without entropy =       -2.59906197  energy(sigma->0) =       -2.59906197


--------------------------------------------------------------------------------------------------------




----------------------------------------- Iteration    1(   5)  ---------------------------------------


     EDDAV:  cpu time    0.14: real time    0.15
       DOS:  cpu time    0.00: real time    0.00
    CHARGE:  cpu time    0.02: real time    0.02
    MIXING:  cpu time    0.00: real time    0.00
    --------------------------------------------
      LOOP:  cpu time    0.17: real time    0.18

 eigenvalue-minimisations  :   120
 total energy-change (2. order) :-0.1205870E+01  (-0.1203401E+01)
 number of electron      44.0000050 magnetization       3.2108636
 augmentation part       21.3066869 magnetization       3.2868802

 Broyden mixing:
  rms(total) = 0.92685E+00    rms(broyden)= 0.92668E+00
  rms(prec ) = 0.94620E+00
  weight for this iteration     100.00

 Free energy of the ion-electron system (eV)
  ---------------------------------------------------
  alpha Z        PSCENC =         2.89386407
  Ewald energy   TEWEN  =       440.51557005
  -Hartree energ DENC   =     -4417.49423032
  -exchange      EXHF   =         0.00000000
  -V(xc)+E(xc)   XCENC  =       -47.52336237
  PAW double counting   =      4013.48871228    -3829.05843552
  entropy T*S    EENTRO =         0.00000000
  eigenvalues    EBANDS =      -315.42157091
  atomic energy  EATOM  =      4148.79452035
  ---------------------------------------------------
  free energy    TOTEN  =        -3.80493237 eV

  energy without entropy =       -3.80493237  energy(sigma->0) =       -3.80493237


--------------------------------------------------------------------------------------------------------




----------------------------------------- Iteration    1(   6)  ---------------------------------------


    POTLOK:  cpu time    0.15: real time    0.15
    SETDIJ:  cpu time    0.00: real time    0.01
     EDDAV:  cpu time    0.14: real time    0.14
       DOS:  cpu time    0.00: real time    0.00
    CHARGE:  cpu time    0.02: real time    0.02
    MIXING:  cpu time    0.00: real time    0.00
    --------------------------------------------
      LOOP:  cpu time    0.32: real time    0.33

 eigenvalue-minimisations  :   112
 total energy-change (2. order) : 0.6774262E+01  (-0.1742499E+01)
 number of electron      44.0000050 magnetization       2.6719948
 augmentation part       21.4380866 magnetization       2.4613340

 Broyden mixing:
  rms(total) = 0.34119E+00    rms(broyden)= 0.34115E+00
  rms(prec ) = 0.36392E+00
  weight for this iteration     100.00

 eigenvalues of (default mixing * dielectric matrix)
  average eigenvalue GAMMA=   0.8152
  0.8152

 Free energy of the ion-electron system (eV)
  ---------------------------------------------------
  alpha Z        PSCENC =         2.89386407
  Ewald energy   TEWEN  =       440.51557005
  -Hartree energ DENC   =     -4416.25824492
  -exchange      EXHF   =         0.00000000
  -V(xc)+E(xc)   XCENC  =       -43.11743519
  PAW double counting   =      4041.20781278    -3857.26566417
  entropy T*S    EENTRO =         0.00000000
  eigenvalues    EBANDS =      -313.80109284
  atomic energy  EATOM  =      4148.79452035
  ---------------------------------------------------
  free energy    TOTEN  =         2.96933012 eV

  energy without entropy =        2.96933012  energy(sigma->0) =        2.96933012


--------------------------------------------------------------------------------------------------------




----------------------------------------- Iteration    1(   7)  ---------------------------------------


    POTLOK:  cpu time    0.15: real time    0.15
    SETDIJ:  cpu time    0.01: real time    0.01
     EDDAV:  cpu time    0.15: real time    0.15
       DOS:  cpu time    0.00: real time    0.00
    CHARGE:  cpu time    0.02: real time    0.02
    MIXING:  cpu time    0.00: real time    0.00
    --------------------------------------------
      LOOP:  cpu time    0.34: real time    0.34

 eigenvalue-minimisations  :   128
 total energy-change (2. order) : 0.1101093E+01  (-0.5198001E-01)
 number of electron      44.0000050 magnetization       2.1962103
 augmentation part       21.3869478 magnetization       2.0706269

 Broyden mixing:
  rms(total) = 0.18935E+00    rms(broyden)= 0.18935E+00
  rms(prec ) = 0.20487E+00
  weight for this iteration     100.00

 eigenvalues of (default mixing * dielectric matrix)
  average eigenvalue GAMMA=   0.7523
  0.6314  0.8733

 Free energy of the ion-electron system (eV)
  ---------------------------------------------------
  alpha Z        PSCENC =         2.89386407
  Ewald energy   TEWEN  =       440.51557005
  -Hartree energ DENC   =     -4424.92694000
  -exchange      EXHF   =         0.00000000
  -V(xc)+E(xc)   XCENC  =       -41.66137211
  PAW double counting   =      4064.84101359    -3881.51973713
  entropy T*S    EENTRO =         0.00000000
  eigenvalues    EBANDS =      -304.86649608
  atomic energy  EATOM  =      4148.79452035
  ---------------------------------------------------
  free energy    TOTEN  =         4.07042272 eV

  energy without entropy =        4.07042272  energy(sigma->0) =        4.07042272


--------------------------------------------------------------------------------------------------------




----------------------------------------- Iteration    1(   8)  ---------------------------------------


    POTLOK:  cpu time    0.15: real time    0.15
    SETDIJ:  cpu time    0.01: real time    0.01
     EDDAV:  cpu time    0.14: real time    0.14
       DOS:  cpu time    0.00: real time    0.00
    CHARGE:  cpu time    0.02: real time    0.02
    MIXING:  cpu time    0.00: real time    0.00
    --------------------------------------------
      LOOP:  cpu time    0.32: real time    0.33

 eigenvalue-minimisations  :   116
 total energy-change (2. order) :-0.2133558E+01  (-0.8118038E-01)
 number of electron      44.0000050 magnetization       1.5826463
 augmentation part       21.3515199 magnetization       1.4930195

 Broyden mixing:
  rms(total) = 0.10835E+00    rms(broyden)= 0.10834E+00
  rms(prec ) = 0.11885E+00
  weight for this iteration     100.00

 eigenvalues of (default mixing * dielectric matrix)
  average eigenvalue GAMMA=   0.9470
  0.6226  0.9982  1.2201

 Free energy of the ion-electron system (eV)
  ---------------------------------------------------
  alpha Z        PSCENC =         2.89386407
  Ewald energy   TEWEN  =       440.51557005
  -Hartree energ DENC   =     -4430.01745288
  -exchange      EXHF   =         0.00000000
  -V(xc)+E(xc)   XCENC  =       -43.07069619
  PAW double counting   =      4083.37942260    -3900.41891763
  entropy T*S    EENTRO =         0.00000000
  eigenvalues    EBANDS =      -300.13944518
  atomic energy  EATOM  =      4148.79452035
  ---------------------------------------------------
  free energy    TOTEN  =         1.93686518 eV

  energy without entropy =        1.93686518  energy(sigma->0) =        1.93686518


--------------------------------------------------------------------------------------------------------




----------------------------------------- Iteration    1(   9)  ---------------------------------------


    POTLOK:  cpu time    0.15: real time    0.15
    SETDIJ:  cpu time    0.00: real time    0.01
     EDDAV:  cpu time    0.15: real time    0.15
       DOS:  cpu time    0.00: real time    0.00
    CHARGE:  cpu time    0.02: real time    0.02
    MIXING:  cpu time    0.00: real time    0.00
    --------------------------------------------
      LOOP:  cpu time    0.33: real time    0.40

 eigenvalue-minimisations  :   124
 total energy-change (2. order) :-0.2447811E+01  (-0.1084584E+00)
 number of electron      44.0000050 magnetization       0.9887473
 augmentation part       21.3494472 magnetization       0.9360959

 Broyden mixing:
  rms(total) = 0.67638E-01    rms(broyden)= 0.67634E-01
  rms(prec ) = 0.74122E-01
  weight for this iteration     100.00

 eigenvalues of (default mixing * dielectric matrix)
  average eigenvalue GAMMA=   1.1847
  1.9197  1.3767  0.8145  0.6279

 Free energy of the ion-electron system (eV)
  ---------------------------------------------------
  alpha Z        PSCENC =         2.89386407
  Ewald energy   TEWEN  =       440.51557005
  -Hartree energ DENC   =     -4432.57920474
  -exchange      EXHF   =         0.00000000
  -V(xc)+E(xc)   XCENC  =       -44.85295187
  PAW double counting   =      4097.94081260    -3915.17745391
  entropy T*S    EENTRO =        -0.00000000
  eigenvalues    EBANDS =      -298.04610254
  atomic energy  EATOM  =      4148.79452035
  ---------------------------------------------------
  free energy    TOTEN  =        -0.51094600 eV

  energy without entropy =       -0.51094600  energy(sigma->0) =       -0.51094600


--------------------------------------------------------------------------------------------------------




----------------------------------------- Iteration    1(  10)  ---------------------------------------


    POTLOK:  cpu time    0.15: real time    0.15
    SETDIJ:  cpu time    0.00: real time    0.01
     EDDAV:  cpu time    0.14: real time    0.14
       DOS:  cpu time    0.00: real time    0.00
    CHARGE:  cpu time    0.02: real time    0.02
    MIXING:  cpu time    0.00: real time    0.00
    --------------------------------------------
      LOOP:  cpu time    0.33: real time    0.33

 eigenvalue-minimisations  :   116
 total energy-change (2. order) :-0.1855782E+01  (-0.7898559E-01)
 number of electron      44.0000050 magnetization       0.7275820
 augmentation part       21.3773732 magnetization       0.7037200

 Broyden mixing:
  rms(total) = 0.45203E-01    rms(broyden)= 0.45198E-01
  rms(prec ) = 0.49399E-01
  weight for this iteration     100.00

 eigenvalues of (default mixing * dielectric matrix)
  average eigenvalue GAMMA=   1.1493
  2.0881  0.6297  1.1686  0.9302  0.9302

 Free energy of the ion-electron system (eV)
  ---------------------------------------------------
  alpha Z        PSCENC =         2.89386407
  Ewald energy   TEWEN  =       440.51557005
  -Hartree energ DENC   =     -4431.58413117
  -exchange      EXHF   =         0.00000000
  -V(xc)+E(xc)   XCENC  =       -46.36381581
  PAW double counting   =      4098.38889508    -3915.52141313
  entropy T*S    EENTRO =         0.00000000
  eigenvalues    EBANDS =      -299.49021734
  atomic energy  EATOM  =      4148.79452035
  ---------------------------------------------------
  free energy    TOTEN  =        -2.36672792 eV

  energy without entropy =       -2.36672792  energy(sigma->0) =       -2.36672792


--------------------------------------------------------------------------------------------------------




----------------------------------------- Iteration    1(  11)  ---------------------------------------


    POTLOK:  cpu time    0.15: real time    0.15
    SETDIJ:  cpu time    0.00: real time    0.01
     EDDAV:  cpu time    0.14: real time    0.14
       DOS:  cpu time    0.00: real time    0.00
    CHARGE:  cpu time    0.02: real time    0.02
    MIXING:  cpu time    0.00: real time    0.00
    --------------------------------------------
      LOOP:  cpu time    0.32: real time    0.33

 eigenvalue-minimisations  :   112
 total energy-change (2. order) :-0.5220633E+00  (-0.1198645E-01)
 number of electron      44.0000050 magnetization       0.2897597
 augmentation part       21.3714680 magnetization       0.2742449

 Broyden mixing:
  rms(total) = 0.30778E-01    rms(broyden)= 0.30777E-01
  rms(prec ) = 0.35085E-01
  weight for this iteration     100.00

 eigenvalues of (default mixing * dielectric matrix)
  average eigenvalue GAMMA=   1.4286
  2.5206  2.5206  1.2050  0.9626  0.6390  0.7239

 Free energy of the ion-electron system (eV)
  ---------------------------------------------------
  alpha Z        PSCENC =         2.89386407
  Ewald energy   TEWEN  =       440.51557005
  -Hartree energ DENC   =     -4431.54961637
  -exchange      EXHF   =         0.00000000
  -V(xc)+E(xc)   XCENC  =       -46.79267601
  PAW double counting   =      4095.28487219    -3912.33537157
  entropy T*S    EENTRO =         0.00000000
  eigenvalues    EBANDS =      -299.69995393
  atomic energy  EATOM  =      4148.79452035
  ---------------------------------------------------
  free energy    TOTEN  =        -2.88879122 eV

  energy without entropy =       -2.88879122  energy(sigma->0) =       -2.88879122


--------------------------------------------------------------------------------------------------------




----------------------------------------- Iteration    1(  12)  ---------------------------------------


    POTLOK:  cpu time    0.15: real time    0.15
    SETDIJ:  cpu time    0.00: real time    0.01
     EDDAV:  cpu time    0.15: real time    0.15
       DOS:  cpu time    0.00: real time    0.00
    CHARGE:  cpu time    0.02: real time    0.02
    MIXING:  cpu time    0.00: real time    0.00
    --------------------------------------------
      LOOP:  cpu time    0.33: real time    0.34

 eigenvalue-minimisations  :   120
 total energy-change (2. order) :-0.8175315E+00  (-0.2110692E-01)
 number of electron      44.0000050 magnetization       0.1430906
 augmentation part       21.3899109 magnetization       0.1368585

 Broyden mixing:
  rms(total) = 0.13632E-01    rms(broyden)= 0.13626E-01
  rms(prec ) = 0.15988E-01
  weight for this iteration     100.00

 eigenvalues of (default mixing * dielectric matrix)
  average eigenvalue GAMMA=   1.4524
  3.4646  2.3100  1.1666  1.1666  0.8139  0.6227  0.6227

 Free energy of the ion-electron system (eV)
  ---------------------------------------------------
  alpha Z        PSCENC =         2.89386407
  Ewald energy   TEWEN  =       440.51557005
  -Hartree energ DENC   =     -4429.47331326
  -exchange      EXHF   =         0.00000000
  -V(xc)+E(xc)   XCENC  =       -47.59272379
  PAW double counting   =      4083.08402707    -3899.88265701
  entropy T*S    EENTRO =         0.00000000
  eigenvalues    EBANDS =      -302.04561018
  atomic energy  EATOM  =      4148.79452035
  ---------------------------------------------------
  free energy    TOTEN  =        -3.70632271 eV

  energy without entropy =       -3.70632271  energy(sigma->0) =       -3.70632271


--------------------------------------------------------------------------------------------------------




----------------------------------------- Iteration    1(  13)  ---------------------------------------


    POTLOK:  cpu time    0.15: real time    0.15
    SETDIJ:  cpu time    0.01: real time    0.01
     EDDAV:  cpu time    0.14: real time    0.14
       DOS:  cpu time    0.00: real time    0.00
    CHARGE:  cpu time    0.02: real time    0.02
    MIXING:  cpu time    0.00: real time    0.01
    --------------------------------------------
      LOOP:  cpu time    0.32: real time    0.34

 eigenvalue-minimisations  :   112
 total energy-change (2. order) :-0.2057614E+00  (-0.2627071E-02)
 number of electron      44.0000050 magnetization       0.0710125
 augmentation part       21.3887460 magnetization       0.0690857

 Broyden mixing:
  rms(total) = 0.79950E-02    rms(broyden)= 0.79933E-02
  rms(prec ) = 0.99971E-02
  weight for this iteration     100.00

 eigenvalues of (default mixing * dielectric matrix)
  average eigenvalue GAMMA=   1.4882
  3.8835  2.4002  1.4939  1.2018  0.9534  0.7674  0.6349  0.5708

 Free energy of the ion-electron system (eV)
  ---------------------------------------------------
  alpha Z        PSCENC =         2.89386407
  Ewald energy   TEWEN  =       440.51557005
  -Hartree energ DENC   =     -4429.00504202
  -exchange      EXHF   =         0.00000000
  -V(xc)+E(xc)   XCENC  =       -47.79775227
  PAW double counting   =      4080.59884138    -3897.34273529
  entropy T*S    EENTRO =        -0.00000000
  eigenvalues    EBANDS =      -302.56935033
  atomic energy  EATOM  =      4148.79452035
  ---------------------------------------------------
  free energy    TOTEN  =        -3.91208406 eV

  energy without entropy =       -3.91208406  energy(sigma->0) =       -3.91208406


--------------------------------------------------------------------------------------------------------




----------------------------------------- Iteration    1(  14)  ---------------------------------------


    POTLOK:  cpu time    0.15: real time    0.15
    SETDIJ:  cpu time    0.01: real time    0.01
     EDDAV:  cpu time    0.14: real time    0.14
       DOS:  cpu time    0.00: real time    0.00
    CHARGE:  cpu time    0.02: real time    0.02
    MIXING:  cpu time    0.00: real time    0.01
    --------------------------------------------
      LOOP:  cpu time    0.32: real time    0.33

 eigenvalue-minimisations  :   108
 total energy-change (2. order) :-0.7602594E-01  (-0.5731832E-03)
 number of electron      44.0000050 magnetization       0.0223319
 augmentation part       21.3883104 magnetization       0.0213236

 Broyden mixing:
  rms(total) = 0.47964E-02    rms(broyden)= 0.47959E-02
  rms(prec ) = 0.64503E-02
  weight for this iteration     100.00

 eigenvalues of (default mixing * dielectric matrix)
  average eigenvalue GAMMA=   1.5606
  4.1879  2.7028  1.8977  1.3800  1.0554  0.8469  0.7287  0.6313  0.6147

 Free energy of the ion-electron system (eV)
  ---------------------------------------------------
  alpha Z        PSCENC =         2.89386407
  Ewald energy   TEWEN  =       440.51557005
  -Hartree energ DENC   =     -4428.65160887
  -exchange      EXHF   =         0.00000000
  -V(xc)+E(xc)   XCENC  =       -47.87918885
  PAW double counting   =      4079.57089207    -3896.29758461
  entropy T*S    EENTRO =         0.00000000
  eigenvalues    EBANDS =      -302.93457420
  atomic energy  EATOM  =      4148.79452035
  ---------------------------------------------------
  free energy    TOTEN  =        -3.98811000 eV

  energy without entropy =       -3.98811000  energy(sigma->0) =       -3.98811000


--------------------------------------------------------------------------------------------------------




----------------------------------------- Iteration    1(  15)  ---------------------------------------


    POTLOK:  cpu time    0.15: real time    0.15
    SETDIJ:  cpu time    0.01: real time    0.01
     EDDAV:  cpu time    0.14: real time    0.14
       DOS:  cpu time    0.00: real time    0.00
    CHARGE:  cpu time    0.02: real time    0.02
    MIXING:  cpu time    0.00: real time    0.01
    --------------------------------------------
      LOOP:  cpu time    0.33: real time    0.33

 eigenvalue-minimisations  :   116
 total energy-change (2. order) :-0.3548624E-01  (-0.4018524E-03)
 number of electron      44.0000050 magnetization       0.0014911
 augmentation part       21.3905549 magnetization       0.0009537

 Broyden mixing:
  rms(total) = 0.17419E-02    rms(broyden)= 0.17412E-02
  rms(prec ) = 0.30491E-02
  weight for this iteration     100.00

 eigenvalues of (default mixing * dielectric matrix)
  average eigenvalue GAMMA=   1.6046
  4.6912  3.0195  2.0592  1.5199  0.9993  0.9993  0.7924  0.7231  0.6365  0.6060

 Free energy of the ion-electron system (eV)
  ---------------------------------------------------
  alpha Z        PSCENC =         2.89386407
  Ewald energy   TEWEN  =       440.51557005
  -Hartree energ DENC   =     -4428.08952993
  -exchange      EXHF   =         0.00000000
  -V(xc)+E(xc)   XCENC  =       -47.92726717
  PAW double counting   =      4078.25878572    -3894.97192077
  entropy T*S    EENTRO =         0.00000000
  eigenvalues    EBANDS =      -303.49761854
  atomic energy  EATOM  =      4148.79452035
  ---------------------------------------------------
  free energy    TOTEN  =        -4.02359624 eV

  energy without entropy =       -4.02359624  energy(sigma->0) =       -4.02359624


--------------------------------------------------------------------------------------------------------




----------------------------------------- Iteration    1(  16)  ---------------------------------------


    POTLOK:  cpu time    0.15: real time    0.15
    SETDIJ:  cpu time    0.01: real time    0.01
     EDDAV:  cpu time    0.12: real time    0.12
       DOS:  cpu time    0.00: real time    0.00
    CHARGE:  cpu time    0.02: real time    0.02
    MIXING:  cpu time    0.00: real time    0.01
    --------------------------------------------
      LOOP:  cpu time    0.30: real time    0.31

 eigenvalue-minimisations  :    88
 total energy-change (2. order) :-0.2733300E-02  (-0.7937639E-04)
 number of electron      44.0000050 magnetization      -0.0025248
 augmentation part       21.3908669 magnetization      -0.0028352

 Broyden mixing:
  rms(total) = 0.12012E-02    rms(broyden)= 0.12011E-02
  rms(prec ) = 0.21129E-02
  weight for this iteration     100.00

 eigenvalues of (default mixing * dielectric matrix)
  average eigenvalue GAMMA=   1.5970
  4.8409  3.1576  2.1976  1.4080  1.3396  1.0362  0.9157  0.6056  0.6378  0.7143
  0.7143

 Free energy of the ion-electron system (eV)
  ---------------------------------------------------
  alpha Z        PSCENC =         2.89386407
  Ewald energy   TEWEN  =       440.51557005
  -Hartree energ DENC   =     -4427.86344259
  -exchange      EXHF   =         0.00000000
  -V(xc)+E(xc)   XCENC  =       -47.93482276
  PAW double counting   =      4077.76661410    -3894.47740336
  entropy T*S    EENTRO =         0.00000000
  eigenvalues    EBANDS =      -303.72122939
  atomic energy  EATOM  =      4148.79452035
  ---------------------------------------------------
  free energy    TOTEN  =        -4.02632954 eV

  energy without entropy =       -4.02632954  energy(sigma->0) =       -4.02632954


--------------------------------------------------------------------------------------------------------




----------------------------------------- Iteration    1(  17)  ---------------------------------------


    POTLOK:  cpu time    0.15: real time    0.15
    SETDIJ:  cpu time    0.01: real time    0.01
     EDDAV:  cpu time    0.11: real time    0.11
       DOS:  cpu time    0.00: real time    0.00
    CHARGE:  cpu time    0.02: real time    0.02
    MIXING:  cpu time    0.01: real time    0.01
    --------------------------------------------
      LOOP:  cpu time    0.30: real time    0.30

 eigenvalue-minimisations  :    80
 total energy-change (2. order) :-0.1662035E-02  (-0.2190227E-04)
 number of electron      44.0000050 magnetization      -0.0031190
 augmentation part       21.3906975 magnetization      -0.0031707

 Broyden mixing:
  rms(total) = 0.73009E-03    rms(broyden)= 0.73004E-03
  rms(prec ) = 0.14071E-02
  weight for this iteration     100.00

 eigenvalues of (default mixing * dielectric matrix)
  average eigenvalue GAMMA=   1.6454
  4.9444  3.5582  2.4504  1.6257  1.6257  1.0016  1.0016  0.9055  0.7489  0.5984
  0.6420  0.6420

 Free energy of the ion-electron system (eV)
  ---------------------------------------------------
  alpha Z        PSCENC =         2.89386407
  Ewald energy   TEWEN  =       440.51557005
  -Hartree energ DENC   =     -4427.79767614
  -exchange      EXHF   =         0.00000000
  -V(xc)+E(xc)   XCENC  =       -47.93646857
  PAW double counting   =      4077.68552116    -3894.40204678
  entropy T*S    EENTRO =         0.00000000
  eigenvalues    EBANDS =      -303.78127570
  atomic energy  EATOM  =      4148.79452035
  ---------------------------------------------------
  free energy    TOTEN  =        -4.02799158 eV

  energy without entropy =       -4.02799158  energy(sigma->0) =       -4.02799158


--------------------------------------------------------------------------------------------------------




----------------------------------------- Iteration    1(  18)  ---------------------------------------


    POTLOK:  cpu time    0.15: real time    0.15
    SETDIJ:  cpu time    0.00: real time    0.01
     EDDAV:  cpu time    0.12: real time    0.11
       DOS:  cpu time    0.00: real time    0.00
    CHARGE:  cpu time    0.02: real time    0.02
    MIXING:  cpu time    0.00: real time    0.01
    --------------------------------------------
      LOOP:  cpu time    0.30: real time    0.30

 eigenvalue-minimisations  :    80
 total energy-change (2. order) :-0.1188654E-02  (-0.1494782E-04)
 number of electron      44.0000050 magnetization      -0.0028362
 augmentation part       21.3907089 magnetization      -0.0029364

 Broyden mixing:
  rms(total) = 0.51774E-03    rms(broyden)= 0.51771E-03
  rms(prec ) = 0.91489E-03
  weight for this iteration     100.00

 eigenvalues of (default mixing * dielectric matrix)
  average eigenvalue GAMMA=   1.6523
  4.9855  3.9407  2.6001  2.0073  1.5407  1.1520  0.9256  0.9256  0.7660  0.7660
  0.5958  0.6371  0.6371

 Free energy of the ion-electron system (eV)
  ---------------------------------------------------
  alpha Z        PSCENC =         2.89386407
  Ewald energy   TEWEN  =       440.51557005
  -Hartree energ DENC   =     -4427.70846160
  -exchange      EXHF   =         0.00000000
  -V(xc)+E(xc)   XCENC  =       -47.93867178
  PAW double counting   =      4077.42201823    -3894.13982418
  entropy T*S    EENTRO =         0.00000000
  eigenvalues    EBANDS =      -303.86819537
  atomic energy  EATOM  =      4148.79452035
  ---------------------------------------------------
  free energy    TOTEN  =        -4.02918023 eV

  energy without entropy =       -4.02918023  energy(sigma->0) =       -4.02918023


--------------------------------------------------------------------------------------------------------




----------------------------------------- Iteration    1(  19)  ---------------------------------------


    POTLOK:  cpu time    0.15: real time    0.15
    SETDIJ:  cpu time    0.01: real time    0.01
     EDDAV:  cpu time    0.11: real time    0.11
       DOS:  cpu time    0.00: real time    0.00
    CHARGE:  cpu time    0.02: real time    0.02
    MIXING:  cpu time    0.01: real time    0.01
    --------------------------------------------
      LOOP:  cpu time    0.30: real time    0.30

 eigenvalue-minimisations  :    80
 total energy-change (2. order) :-0.7095586E-03  (-0.5227711E-05)
 number of electron      44.0000050 magnetization      -0.0019664
 augmentation part       21.3908511 magnetization      -0.0019747

 Broyden mixing:
  rms(total) = 0.30791E-03    rms(broyden)= 0.30790E-03
  rms(prec ) = 0.58042E-03
  weight for this iteration     100.00

 eigenvalues of (default mixing * dielectric matrix)
  average eigenvalue GAMMA=   1.7116
  5.1932  4.4348  2.5885  2.5885  1.4827  1.4827  1.0070  1.0070  0.8066  0.8066
  0.7046  0.6345  0.6345  0.5917

 Free energy of the ion-electron system (eV)
  ---------------------------------------------------
  alpha Z        PSCENC =         2.89386407
  Ewald energy   TEWEN  =       440.51557005
  -Hartree energ DENC   =     -4427.64828501
  -exchange      EXHF   =         0.00000000
  -V(xc)+E(xc)   XCENC  =       -47.94055898
  PAW double counting   =      4077.19925658    -3893.91406882
  entropy T*S    EENTRO =         0.00000000
  eigenvalues    EBANDS =      -303.93018802
  atomic energy  EATOM  =      4148.79452035
  ---------------------------------------------------
  free energy    TOTEN  =        -4.02988979 eV

  energy without entropy =       -4.02988979  energy(sigma->0) =       -4.02988979


--------------------------------------------------------------------------------------------------------




----------------------------------------- Iteration    1(  20)  ---------------------------------------


    POTLOK:  cpu time    0.15: real time    0.15
    SETDIJ:  cpu time    0.00: real time    0.01
     EDDAV:  cpu time    0.12: real time    0.12
       DOS:  cpu time    0.00: real time    0.00
    CHARGE:  cpu time    0.02: real time    0.02
    MIXING:  cpu time    0.01: real time    0.01
    --------------------------------------------
      LOOP:  cpu time    0.30: real time    0.31

 eigenvalue-minimisations  :    84
 total energy-change (2. order) :-0.3520602E-03  (-0.3170090E-05)
 number of electron      44.0000050 magnetization      -0.0008479
 augmentation part       21.3909619 magnetization      -0.0008654

 Broyden mixing:
  rms(total) = 0.20743E-03    rms(broyden)= 0.20742E-03
  rms(prec ) = 0.37156E-03
  weight for this iteration     100.00

 eigenvalues of (default mixing * dielectric matrix)
  average eigenvalue GAMMA=   1.7525
  5.7229  4.7887  2.6937  2.6937  1.5701  1.4767  1.2488  0.9668  0.9668  0.8086
  0.8086  0.6788  0.6348  0.6348  0.5938

 Free energy of the ion-electron system (eV)
  ---------------------------------------------------
  alpha Z        PSCENC =         2.89386407
  Ewald energy   TEWEN  =       440.51557005
  -Hartree energ DENC   =     -4427.60922837
  -exchange      EXHF   =         0.00000000
  -V(xc)+E(xc)   XCENC  =       -47.94172204
  PAW double counting   =      4077.09806272    -3893.81052984
  entropy T*S    EENTRO =         0.00000000
  eigenvalues    EBANDS =      -303.97077878
  atomic energy  EATOM  =      4148.79452035
  ---------------------------------------------------
  free energy    TOTEN  =        -4.03024185 eV

  energy without entropy =       -4.03024185  energy(sigma->0) =       -4.03024185


--------------------------------------------------------------------------------------------------------




----------------------------------------- Iteration    1(  21)  ---------------------------------------


    POTLOK:  cpu time    0.15: real time    0.15
    SETDIJ:  cpu time    0.00: real time    0.01
     EDDAV:  cpu time    0.10: real time    0.11
       DOS:  cpu time    0.00: real time    0.00
    CHARGE:  cpu time    0.02: real time    0.02
    MIXING:  cpu time    0.01: real time    0.01
    --------------------------------------------
      LOOP:  cpu time    0.29: real time    0.30

 eigenvalue-minimisations  :    72
 total energy-change (2. order) :-0.1098483E-03  (-0.1066168E-05)
 number of electron      44.0000050 magnetization      -0.0002402
 augmentation part       21.3909459 magnetization      -0.0002300

 Broyden mixing:
  rms(total) = 0.13804E-03    rms(broyden)= 0.13803E-03
  rms(prec ) = 0.25352E-03
  weight for this iteration     100.00

 eigenvalues of (default mixing * dielectric matrix)
  average eigenvalue GAMMA=   1.7807
  6.3388  4.8733  2.7886  2.7886  1.9015  1.4515  1.4515  1.0017  1.0017  0.8618
  0.7576  0.7576  0.5915  0.6551  0.6350  0.6350

 Free energy of the ion-electron system (eV)
  ---------------------------------------------------
  alpha Z        PSCENC =         2.89386407
  Ewald energy   TEWEN  =       440.51557005
  -Hartree energ DENC   =     -4427.60824609
  -exchange      EXHF   =         0.00000000
  -V(xc)+E(xc)   XCENC  =       -47.94170386
  PAW double counting   =      4077.16184702    -3893.87484109
  entropy T*S    EENTRO =         0.00000000
  eigenvalues    EBANDS =      -303.97136213
  atomic energy  EATOM  =      4148.79452035
  ---------------------------------------------------
  free energy    TOTEN  =        -4.03035170 eV

  energy without entropy =       -4.03035170  energy(sigma->0) =       -4.03035170


--------------------------------------------------------------------------------------------------------




----------------------------------------- Iteration    1(  22)  ---------------------------------------


    POTLOK:  cpu time    0.15: real time    0.15
    SETDIJ:  cpu time    0.00: real time    0.01
     EDDAV:  cpu time    0.11: real time    0.11
       DOS:  cpu time    0.00: real time    0.00
    --------------------------------------------
      LOOP:  cpu time    0.27: real time    0.27

 eigenvalue-minimisations  :    76
 total energy-change (2. order) :-0.6064686E-04  (-0.4916982E-06)
 number of electron      44.0000050 magnetization      -0.0002402
 augmentation part       21.3909459 magnetization      -0.0002300

 Free energy of the ion-electron system (eV)
  ---------------------------------------------------
  alpha Z        PSCENC =         2.89386407
  Ewald energy   TEWEN  =       440.51557005
  -Hartree energ DENC   =     -4427.60283859
  -exchange      EXHF   =         0.00000000
  -V(xc)+E(xc)   XCENC  =       -47.94183694
  PAW double counting   =      4077.19240982    -3893.90543031
  entropy T*S    EENTRO =         0.00000000
  eigenvalues    EBANDS =      -303.97667079
  atomic energy  EATOM  =      4148.79452035
  ---------------------------------------------------
  free energy    TOTEN  =        -4.03041235 eV

  energy without entropy =       -4.03041235  energy(sigma->0) =       -4.03041235


--------------------------------------------------------------------------------------------------------




 average (electrostatic) potential at core
  the test charge radii are     1.1249
  (the norm of the test charge is              1.0000)
       1 -81.7973       2 -82.1354       3 -81.6738       4 -82.0829
 
 
 
 E-fermi :  -4.4991     XC(G=0):  -0.5843     alpha+bet : -0.1952


 spin component 1

 k-point     1 :       0.0000    0.0000    0.0000
  band No.  band energies     occupation 
      1      -7.6780      1.00000
      2      -7.6580      1.00000
      3      -7.4757      1.00000
      4      -7.4492      1.00000
      5      -7.3345      1.00000
      6      -7.3067      1.00000
      7      -7.2878      1.00000
      8      -7.2471      1.00000
      9      -7.2250      1.00000
     10      -7.2159      1.00000
     11      -7.1316      1.00000
     12      -7.1247      1.00000
     13      -7.0658      1.00000
     14      -6.9358      1.00000
     15      -6.9222      1.00000
     16      -6.7624      1.00000
     17      -6.7622      1.00000
     18      -6.5847      1.00000
     19      -6.5803      1.00000
     20      -6.4604      1.00000
     21      -5.2703      1.00000
     22      -4.5099      1.00000
     23      -3.4753      0.00000
     24      -2.8833      0.00000
     25      -1.1860      0.00000
     26      -1.0151      0.00000
     27      -0.9181      0.00000
     28      -0.7355      0.00000

 spin component 2

 k-point     1 :       0.0000    0.0000    0.0000
  band No.  band energies     occupation 
      1      -7.6780      1.00000
      2      -7.6580      1.00000
      3      -7.4757      1.00000
      4      -7.4492      1.00000
      5      -7.3345      1.00000
      6      -7.3068      1.00000
      7      -7.2878      1.00000
      8      -7.2472      1.00000
      9      -7.2251      1.00000
     10      -7.2159      1.00000
     11      -7.1316      1.00000
     12      -7.1248      1.00000
     13      -7.0658      1.00000
     14      -6.9359      1.00000
     15      -6.9222      1.00000
     16      -6.7625      1.00000
     17      -6.7622      1.00000
     18      -6.5847      1.00000
     19      -6.5803      1.00000
     20      -6.4604      1.00000
     21      -5.2704      1.00000
     22      -4.5099      1.00000
     23      -3.4753      0.00000
     24      -2.8833      0.00000
     25      -1.1856      0.00000
     26      -1.0144      0.00000
     27      -0.9177      0.00000
     28      -0.7348      0.00000


--------------------------------------------------------------------------------------------------------


 soft charge-density along one line, spin component           1
         0         1         2         3         4         5         6         7         8         9
 total charge-density along one line
 
 soft charge-density along one line, spin component           2
         0         1         2         3         4         5         6         7         8         9
 total charge-density along one line
 
 pseudopotential strength for first ion, spin component:           1
-10.118   0.003  -0.005   0.001  -0.002 -10.102   0.003  -0.005
  0.003 -10.116   0.002   0.004  -0.001   0.003 -10.099   0.002
 -0.005   0.002 -10.111   0.002  -0.008  -0.005   0.002 -10.094
  0.001   0.004   0.002 -10.105   0.002   0.001   0.003   0.002
 -0.002  -0.001  -0.008   0.002 -10.120  -0.002  -0.001  -0.008
-10.102   0.003  -0.005   0.001  -0.002 -10.061   0.003  -0.004
  0.003 -10.099   0.002   0.003  -0.001   0.003 -10.058   0.001
 -0.005   0.002 -10.094   0.002  -0.008  -0.004   0.001 -10.054
  0.001   0.003   0.002 -10.089   0.002   0.001   0.003   0.002
 -0.002  -0.001  -0.008   0.002 -10.104  -0.002  -0.001  -0.008
 -0.003   0.001  -0.003  -0.001  -0.005  -0.003   0.001  -0.003
 -0.005   0.002  -0.005  -0.002  -0.009  -0.005   0.002  -0.005
 -0.011  -0.002  -0.023  -0.000  -0.040  -0.011  -0.002  -0.022
 -0.000   0.040  -0.003  -0.012   0.000  -0.000   0.039  -0.002
  0.040  -0.000   0.007  -0.002  -0.012   0.039  -0.000   0.006
 -0.014  -0.003  -0.029  -0.000  -0.050  -0.014  -0.003  -0.028
 -0.000   0.050  -0.003  -0.015   0.000  -0.000   0.048  -0.003
  0.050  -0.000   0.008  -0.003  -0.015   0.049  -0.000   0.008
 pseudopotential strength for first ion, spin component:           2
-10.118   0.003  -0.005   0.001  -0.002 -10.102   0.003  -0.005
  0.003 -10.116   0.002   0.004  -0.001   0.003 -10.099   0.002
 -0.005   0.002 -10.111   0.002  -0.008  -0.005   0.002 -10.094
  0.001   0.004   0.002 -10.105   0.002   0.001   0.003   0.002
 -0.002  -0.001  -0.008   0.002 -10.120  -0.002  -0.001  -0.008
-10.102   0.003  -0.005   0.001  -0.002 -10.061   0.003  -0.004
  0.003 -10.099   0.002   0.003  -0.001   0.003 -10.058   0.001
 -0.005   0.002 -10.094   0.002  -0.008  -0.004   0.001 -10.054
  0.001   0.003   0.002 -10.089   0.002   0.001   0.003   0.002
 -0.002  -0.001  -0.008   0.002 -10.104  -0.002  -0.001  -0.008
 -0.003   0.001  -0.003  -0.001  -0.005  -0.003   0.001  -0.003
 -0.005   0.002  -0.005  -0.002  -0.009  -0.005   0.002  -0.005
 -0.011  -0.002  -0.023  -0.000  -0.040  -0.011  -0.002  -0.022
 -0.000   0.040  -0.003  -0.012   0.000  -0.000   0.039  -0.002
  0.040  -0.000   0.007  -0.002  -0.012   0.039  -0.000   0.006
 -0.014  -0.003  -0.029  -0.000  -0.050  -0.014  -0.003  -0.028
 -0.000   0.050  -0.003  -0.015   0.000  -0.000   0.048  -0.003
  0.050  -0.000   0.008  -0.003  -0.015   0.049  -0.000   0.008
 total augmentation occupancy for first ion, spin component:           1
  2.194   0.001   0.072   0.021   0.070  -0.204   0.008  -0.096  -0.025  -0.091   0.302  -0.034  -0.045  -0.014   0.007  -0.003
  0.001   2.170   0.020  -0.002  -0.023   0.008  -0.166  -0.012   0.016   0.036  -0.145   0.014   0.004  -0.012  -0.004  -0.002
  0.072   0.020   2.198   0.033   0.093  -0.096  -0.012  -0.189  -0.023  -0.144   0.282  -0.030  -0.056  -0.021   0.005  -0.009
  0.021  -0.002   0.033   2.115   0.020  -0.025   0.016  -0.023  -0.072  -0.017   0.045  -0.007  -0.011  -0.007   0.003   0.000
  0.070  -0.023   0.093   0.020   2.270  -0.091   0.037  -0.143  -0.017  -0.302   0.550  -0.063  -0.067  -0.012   0.014  -0.017
 -0.204   0.008  -0.096  -0.025  -0.091   0.203  -0.016   0.117   0.027   0.110  -0.252   0.026   0.056   0.012  -0.030  -0.004
  0.008  -0.166  -0.012   0.016   0.037  -0.016   0.151   0.004  -0.028  -0.047   0.121  -0.016  -0.009  -0.012   0.005   0.001
 -0.096  -0.012  -0.189  -0.023  -0.143   0.117   0.004   0.166   0.016   0.187  -0.239   0.023   0.074   0.022  -0.013  -0.005
 -0.025   0.016  -0.023  -0.072  -0.017   0.027  -0.028   0.016   0.024   0.014  -0.034   0.002   0.010   0.010  -0.002  -0.001
 -0.091   0.036  -0.144  -0.017  -0.302   0.110  -0.047   0.187   0.014   0.320  -0.455   0.049   0.101   0.012  -0.013  -0.008
  0.302  -0.145   0.282   0.045   0.550  -0.252   0.121  -0.239  -0.034  -0.455   1.402  -0.112  -0.173  -0.000   0.046   0.013
 -0.034   0.014  -0.030  -0.007  -0.063   0.026  -0.016   0.023   0.002   0.049  -0.112   0.012   0.014  -0.002  -0.005  -0.001
 -0.045   0.004  -0.056  -0.011  -0.067   0.056  -0.009   0.074   0.010   0.101  -0.173   0.014   0.040   0.010  -0.007  -0.003
 -0.014  -0.012  -0.021  -0.007  -0.012   0.012  -0.012   0.022   0.010   0.012  -0.000  -0.002   0.010   0.013   0.000  -0.000
  0.007  -0.004   0.005   0.003   0.014  -0.030   0.005  -0.013  -0.002  -0.013   0.046  -0.005  -0.007   0.000   0.006   0.001
 -0.003  -0.002  -0.009   0.000  -0.017  -0.004   0.001  -0.005  -0.001  -0.008   0.013  -0.001  -0.003  -0.000   0.001   0.001
  0.001   0.023  -0.000  -0.006   0.000  -0.001   0.001  -0.001  -0.001  -0.001  -0.001   0.000  -0.000  -0.001  -0.000   0.000
  0.022   0.000   0.003  -0.001  -0.008   0.002  -0.001   0.001   0.000   0.001  -0.004   0.000   0.001  -0.000  -0.001  -0.000
 total augmentation occupancy for first ion, spin component:           2
  0.000  -0.000   0.000  -0.000   0.000  -0.000   0.000  -0.000   0.000  -0.000  -0.000   0.000  -0.000   0.000  -0.000  -0.000
 -0.000   0.000   0.000   0.000  -0.000   0.000  -0.000  -0.000  -0.000   0.000   0.000  -0.000   0.000  -0.000  -0.000  -0.000
  0.000   0.000   0.000   0.000   0.000  -0.000  -0.000  -0.000  -0.000  -0.000  -0.000   0.000  -0.000   0.000   0.000  -0.000
 -0.000   0.000   0.000   0.000   0.000   0.000  -0.000  -0.000  -0.000  -0.000  -0.000   0.000  -0.000   0.000   0.000   0.000
  0.000  -0.000   0.000   0.000   0.000  -0.000   0.000  -0.000  -0.000  -0.000  -0.000   0.000  -0.000   0.000   0.000  -0.000
 -0.000   0.000  -0.000   0.000  -0.000   0.000  -0.000   0.000   0.000   0.000   0.000  -0.000   0.000  -0.000  -0.000   0.000
  0.000  -0.000  -0.000  -0.000   0.000  -0.000  -0.000   0.000   0.000  -0.000  -0.000   0.000  -0.000   0.000   0.000   0.000
 -0.000  -0.000  -0.000  -0.000  -0.000   0.000   0.000   0.000   0.000   0.000   0.000  -0.000   0.000   0.000  -0.000   0.000
  0.000  -0.000  -0.000  -0.000  -0.000   0.000   0.000   0.000   0.000   0.000   0.000  -0.000   0.000   0.000  -0.000   0.000
 -0.000   0.000  -0.000  -0.000  -0.000   0.000  -0.000   0.000   0.000   0.000   0.000  -0.000   0.000  -0.000  -0.000   0.000
 -0.000   0.000  -0.000  -0.000  -0.000   0.000  -0.000   0.000   0.000   0.000  -0.000   0.000   0.000   0.000  -0.000  -0.000
  0.000  -0.000   0.000   0.000   0.000  -0.000   0.000  -0.000  -0.000  -0.000   0.000  -0.000  -0.000  -0.000   0.000   0.000
 -0.000   0.000  -0.000  -0.000  -0.000   0.000  -0.000   0.000   0.000   0.000   0.000  -0.000   0.000  -0.000  -0.000   0.000
  0.000  -0.000   0.000   0.000   0.000  -0.000   0.000   0.000   0.000  -0.000   0.000  -0.000  -0.000  -0.000   0.000   0.000
 -0.000  -0.000   0.000   0.000   0.000  -0.000   0.000  -0.000  -0.000  -0.000  -0.000   0.000  -0.000   0.000   0.000   0.000
 -0.000  -0.000  -0.000   0.000  -0.000   0.000   0.000   0.000   0.000   0.000  -0.000   0.000   0.000   0.000   0.000   0.000
 -0.000   0.000  -0.000   0.000  -0.000   0.000  -0.000   0.000   0.000   0.000  -0.000  -0.000   0.000   0.000  -0.000  -0.000
  0.000   0.000  -0.000  -0.000   0.000  -0.000  -0.000  -0.000   0.000   0.000   0.000  -0.000   0.000  -0.000   0.000  -0.000


------------------------ aborting loop because EDIFF is reached ----------------------------------------


    CHARGE:  cpu time    0.02: real time    0.02
    FORLOC:  cpu time    0.00: real time    0.00
    FORNL :  cpu time    0.03: real time    0.03
    STRESS:  cpu time    0.04: real time    0.04
    FORCOR:  cpu time    0.15: real time    0.15
    FORHAR:  cpu time    0.02: real time    0.02
    MIXING:  cpu time    0.00: real time    0.01
    OFIELD:  cpu time    0.00: real time    0.00

  FORCE on cell =-STRESS in cart. coord.  units (eV):
  Direction    XX          YY          ZZ          XY          YZ          ZX
  --------------------------------------------------------------------------------------
  Alpha Z     2.89386     2.89386     2.89386
  Ewald    -231.37931   473.88058   198.01338   194.85360   402.03514   -53.23587
  Hartree  1136.23243  1736.02956  1555.34190   177.27138   368.31331   -31.11124
  E(xc)    -231.07472  -230.66578  -231.20106     0.06851     0.04279    -0.15033
  Local   -1539.22791 -2840.01293 -2389.85962  -372.29890  -770.68705    82.92833
  n-local   -59.99756   -61.45807   -58.38186    -0.60197     0.23208     1.08724
  augment   367.14553   366.31438   367.29549     0.11181     0.01138     0.17110
  Kinetic   551.62070   549.07978   553.06506    -0.35875     0.25464     1.21583
  Fock        0.00000     0.00000     0.00000     0.00000     0.00000     0.00000
  -------------------------------------------------------------------------------------
  Total      -3.78697    -3.93861    -2.83283    -0.95433     0.20228     0.90506
  in kB      -1.29017    -1.34183    -0.96511    -0.32513     0.06891     0.30834
  external pressure =       -1.20 kB  Pullay stress =        0.00 kB


 VOLUME and BASIS-vectors are now :
 -----------------------------------------------------------------------------
  energy-cutoff  :      249.84
  volume of cell :     4702.79
      direct lattice vectors                 reciprocal lattice vectors
    16.754006466  0.000000000  0.000000000     0.059687216  0.000000000  0.000000000
     0.000000000 16.754006466  0.000000000     0.000000000  0.059687216  0.000000000
     0.000000000  0.000000000 16.754006466     0.000000000  0.000000000  0.059687216

  length of vectors
    16.754006466 16.754006466 16.754006466     0.059687216  0.059687216  0.059687216


 FORCES acting on ions
    electron-ion (+dipol)            ewald-force                    non-local-force                 convergence-correction
 -----------------------------------------------------------------------------------------------
   0.109E+03 -.151E+03 0.154E+03   -.107E+03 0.144E+03 -.154E+03   -.154E+01 0.613E+01 0.148E+00   0.496E-04 -.527E-03 0.167E-02
   0.160E+03 0.290E+02 -.222E+03   -.155E+03 -.260E+02 0.219E+03   -.373E+01 -.244E+01 0.214E+01   -.145E-03 0.815E-03 -.185E-02
   -.575E+02 0.298E+03 0.866E+02   0.556E+02 -.291E+03 -.861E+02   0.173E+01 -.615E+01 -.484E+00   0.848E-04 -.594E-03 -.207E-03
   -.211E+03 -.176E+03 -.189E+02   0.206E+03 0.173E+03 0.208E+02   0.386E+01 0.218E+01 -.159E+01   -.938E-03 0.122E-03 -.612E-03
 -----------------------------------------------------------------------------------------------
   -.315E+00 0.270E+00 -.209E+00   0.284E-13 -.284E-13 -.355E-14   0.323E+00 -.293E+00 0.212E+00   -.949E-03 -.183E-03 -.998E-03
 
 
 POSITION                                       TOTAL-FORCE (eV/Angst)
 -----------------------------------------------------------------------------------
      9.75947     10.32769      8.91045         0.248965     -0.584621      0.286757
      9.58082     11.05314     12.55732         0.899977      0.501479     -0.650107
     10.45204      7.70085      8.64026        -0.199943      0.652965      0.024603
     12.07023     12.58440     11.47724        -0.948998     -0.569822      0.338747
 -----------------------------------------------------------------------------------
    total drift:                                0.007934     -0.022430      0.001884


--------------------------------------------------------------------------------------------------------



  FREE ENERGIE OF THE ION-ELECTRON SYSTEM (eV)
  ---------------------------------------------------
  free  energy   TOTEN  =        -4.03041235 eV

  energy  without entropy=       -4.03041235  energy(sigma->0) =       -4.03041235
 


--------------------------------------------------------------------------------------------------------


    POTLOK:  cpu time    0.16: real time    0.16


--------------------------------------------------------------------------------------------------------




--------------------------------------------------------------------------------------------------------


    WAVPRE:  cpu time    0.01: real time    0.01
 FEWALD executed in parallel
    FEWALD:  cpu time    0.00: real time    0.00
    ORTHCH:  cpu time    0.00: real time    0.00
     LOOP+:  cpu time    6.85: real time    7.25


----------------------------------------- Iteration    2(   1)  ---------------------------------------


    POTLOK:  cpu time    0.15: real time    0.15
    SETDIJ:  cpu time    0.01: real time    0.01
     EDDAV:  cpu time    0.14: real time    0.14
       DOS:  cpu time    0.00: real time    0.00
    CHARGE:  cpu time    0.02: real time    0.02
    MIXING:  cpu time    0.00: real time    0.00
    --------------------------------------------
      LOOP:  cpu time    0.32: real time    0.33

 eigenvalue-minimisations  :   112
 total energy-change (2. order) :-0.3508301E-01  (-0.2480073E+00)
 number of electron      44.0000012 magnetization      -0.0000332
 augmentation part       21.3876223 magnetization      -0.0000260

 Broyden mixing:
  rms(total) = 0.74031E-02    rms(broyden)= 0.73067E-02
  rms(prec ) = 0.80989E-02
  weight for this iteration     100.00

 Free energy of the ion-electron system (eV)
  ---------------------------------------------------
  alpha Z        PSCENC =         2.89386407
  Ewald energy   TEWEN  =       449.63136373
  -Hartree energ DENC   =     -4436.83689521
  -exchange      EXHF   =         0.00000000
  -V(xc)+E(xc)   XCENC  =       -47.91438128
  PAW double counting   =      4077.19173036    -3893.90475647
  entropy T*S    EENTRO =         0.00000000
  eigenvalues    EBANDS =      -303.92088025
  atomic energy  EATOM  =      4148.79452035
  ---------------------------------------------------
  free energy    TOTEN  =        -4.06543471 eV

  energy without entropy =       -4.06543471  energy(sigma->0) =       -4.06543471


--------------------------------------------------------------------------------------------------------




----------------------------------------- Iteration    2(   2)  ---------------------------------------


    POTLOK:  cpu time    0.15: real time    0.15
    SETDIJ:  cpu time    0.00: real time    0.01
     EDDAV:  cpu time    0.14: real time    0.14
       DOS:  cpu time    0.00: real time    0.00
    CHARGE:  cpu time    0.02: real time    0.02
    MIXING:  cpu time    0.00: real time    0.00
    --------------------------------------------
      LOOP:  cpu time    0.32: real time    0.33

 eigenvalue-minimisations  :   112
 total energy-change (2. order) :-0.1175401E-02  (-0.1308989E-02)
 number of electron      44.0000012 magnetization      -0.0000274
 augmentation part       21.3872330 magnetization      -0.0000299

 Broyden mixing:
  rms(total) = 0.29899E-02    rms(broyden)= 0.29757E-02
  rms(prec ) = 0.31771E-02
  weight for this iteration     100.00

 eigenvalues of (default mixing * dielectric matrix)
  average eigenvalue GAMMA=   0.9152
  0.9152

 Free energy of the ion-electron system (eV)
  ---------------------------------------------------
  alpha Z        PSCENC =         2.89386407
  Ewald energy   TEWEN  =       449.63136373
  -Hartree energ DENC   =     -4436.78785120
  -exchange      EXHF   =         0.00000000
  -V(xc)+E(xc)   XCENC  =       -47.91836873
  PAW double counting   =      4078.57734737    -3895.31259456
  entropy T*S    EENTRO =         0.00000000
  eigenvalues    EBANDS =      -303.94489114
  atomic energy  EATOM  =      4148.79452035
  ---------------------------------------------------
  free energy    TOTEN  =        -4.06661011 eV

  energy without entropy =       -4.06661011  energy(sigma->0) =       -4.06661011


--------------------------------------------------------------------------------------------------------




----------------------------------------- Iteration    2(   3)  ---------------------------------------


    POTLOK:  cpu time    0.15: real time    0.15
    SETDIJ:  cpu time    0.00: real time    0.01
     EDDAV:  cpu time    0.13: real time    0.13
       DOS:  cpu time    0.00: real time    0.00
    --------------------------------------------
      LOOP:  cpu time    0.28: real time    0.60

 eigenvalue-minimisations  :    96
 total energy-change (2. order) :-0.3381742E-04  (-0.1969475E-04)
 number of electron      44.0000012 magnetization      -0.0000274
 augmentation part       21.3872330 magnetization      -0.0000299

 Free energy of the ion-electron system (eV)
  ---------------------------------------------------
  alpha Z        PSCENC =         2.89386407
  Ewald energy   TEWEN  =       449.63136373
  -Hartree energ DENC   =     -4436.71842926
  -exchange      EXHF   =         0.00000000
  -V(xc)+E(xc)   XCENC  =       -47.92009975
  PAW double counting   =      4079.04722019    -3895.79382164
  entropy T*S    EENTRO =         0.00000000
  eigenvalues    EBANDS =      -304.00126163
  atomic energy  EATOM  =      4148.79452035
  ---------------------------------------------------
  free energy    TOTEN  =        -4.06664393 eV

  energy without entropy =       -4.06664393  energy(sigma->0) =       -4.06664393


--------------------------------------------------------------------------------------------------------




 average (electrostatic) potential at core
  the test charge radii are     1.1249
  (the norm of the test charge is              1.0000)
       1 -81.7975       2 -82.1333       3 -81.6746       4 -82.0814
 
 
 
 E-fermi :  -4.5062     XC(G=0):  -0.5838     alpha+bet : -0.1952


 spin component 1

 k-point     1 :       0.0000    0.0000    0.0000
  band No.  band energies     occupation 
      1      -7.6958      1.00000
      2      -7.6721      1.00000
      3      -7.4818      1.00000
      4      -7.4549      1.00000
      5      -7.3377      1.00000
      6      -7.3068      1.00000
      7      -7.2956      1.00000
      8      -7.2516      1.00000
      9      -7.2225      1.00000
     10      -7.2125      1.00000
     11      -7.1231      1.00000
     12      -7.1162      1.00000
     13      -7.0567      1.00000
     14      -6.9364      1.00000
     15      -6.9210      1.00000
     16      -6.7606      1.00000
     17      -6.7603      1.00000
     18      -6.5775      1.00000
     19      -6.5732      1.00000
     20      -6.4513      1.00000
     21      -5.2783      1.00000
     22      -4.5147      1.00000
     23      -3.4618      0.00000
     24      -2.8755      0.00000
     25      -1.1888      0.00000
     26      -1.0154      0.00000
     27      -0.9157      0.00000
     28      -0.7294      0.00000

 spin component 2

 k-point     1 :       0.0000    0.0000    0.0000
  band No.  band energies     occupation 
      1      -7.6958      1.00000
      2      -7.6721      1.00000
      3      -7.4818      1.00000
      4      -7.4549      1.00000
      5      -7.3377      1.00000
      6      -7.3068      1.00000
      7      -7.2956      1.00000
      8      -7.2516      1.00000
      9      -7.2225      1.00000
     10      -7.2125      1.00000
     11      -7.1231      1.00000
     12      -7.1162      1.00000
     13      -7.0567      1.00000
     14      -6.9364      1.00000
     15      -6.9210      1.00000
     16      -6.7606      1.00000
     17      -6.7603      1.00000
     18      -6.5775      1.00000
     19      -6.5732      1.00000
     20      -6.4513      1.00000
     21      -5.2783      1.00000
     22      -4.5147      1.00000
     23      -3.4618      0.00000
     24      -2.8755      0.00000
     25      -1.1885      0.00000
     26      -1.0150      0.00000
     27      -0.9155      0.00000
     28      -0.7290      0.00000


--------------------------------------------------------------------------------------------------------


 soft charge-density along one line, spin component           1
         0         1         2         3         4         5         6         7         8         9
 total charge-density along one line
 
 soft charge-density along one line, spin component           2
         0         1         2         3         4         5         6         7         8         9
[...]
  (g-gl).g = 0.217E-04      g.g   = 0.758E-04  gl.gl    = 0.277E-03
 g(Force)  = 0.758E-04   g(Stress)= 0.000E+00 ortho     = 0.561E-04
 gamma     =   0.07823
 trial     =  10.98286
 opt step  =  14.40839  (harmonic =  14.40839) maximal distance =0.00725304
 next E    =    -5.236321   (d E  =  -0.00058)


--------------------------------------------------------------------------------------------------------


    WAVPRE:  cpu time    0.01: real time    0.01
 FEWALD executed in parallel
    FEWALD:  cpu time    0.00: real time    0.00
    ORTHCH:  cpu time    0.00: real time    0.00
     LOOP+:  cpu time    1.36: real time    1.49


----------------------------------------- Iteration   37(   1)  ---------------------------------------


    POTLOK:  cpu time    0.15: real time    0.15
    SETDIJ:  cpu time    0.01: real time    0.01
     EDDAV:  cpu time    0.14: real time    0.14
       DOS:  cpu time    0.00: real time    0.00
    CHARGE:  cpu time    0.02: real time    0.02
    MIXING:  cpu time    0.00: real time    0.00
    --------------------------------------------
      LOOP:  cpu time    0.32: real time    0.33

 eigenvalue-minimisations  :   112
 total energy-change (2. order) :-0.9954718E-04  (-0.6969136E-02)
 number of electron      43.9999906 magnetization       0.0000000
 augmentation part       21.2456656 magnetization      -0.0000000

 Broyden mixing:
  rms(total) = 0.20312E-02    rms(broyden)= 0.20217E-02
  rms(prec ) = 0.21109E-02
  weight for this iteration     100.00

 Free energy of the ion-electron system (eV)
  ---------------------------------------------------
  alpha Z        PSCENC =         2.89386407
  Ewald energy   TEWEN  =       981.22850141
  -Hartree energ DENC   =     -4956.55450602
  -exchange      EXHF   =         0.00000000
  -V(xc)+E(xc)   XCENC  =       -47.04279205
  PAW double counting   =      4204.53036155    -4024.17091486
  entropy T*S    EENTRO =         0.00000000
  eigenvalues    EBANDS =      -314.91561060
  atomic energy  EATOM  =      4148.79452035
  ---------------------------------------------------
  free energy    TOTEN  =        -5.23657614 eV

  energy without entropy =       -5.23657614  energy(sigma->0) =       -5.23657614


--------------------------------------------------------------------------------------------------------




----------------------------------------- Iteration   37(   2)  ---------------------------------------


    POTLOK:  cpu time    0.15: real time    0.15
    SETDIJ:  cpu time    0.00: real time    0.01
     EDDAV:  cpu time    0.13: real time    0.13
       DOS:  cpu time    0.00: real time    0.00
    --------------------------------------------
      LOOP:  cpu time    0.29: real time    0.29

 eigenvalue-minimisations  :    96
 total energy-change (2. order) :-0.3507595E-04  (-0.3414431E-04)
 number of electron      43.9999906 magnetization       0.0000000
 augmentation part       21.2456656 magnetization      -0.0000000

 Free energy of the ion-electron system (eV)
  ---------------------------------------------------
  alpha Z        PSCENC =         2.89386407
  Ewald energy   TEWEN  =       981.22850141
  -Hartree energ DENC   =     -4956.56227022
  -exchange      EXHF   =         0.00000000
  -V(xc)+E(xc)   XCENC  =       -47.04239527
  PAW double counting   =      4204.27793128    -4023.91490643
  entropy T*S    EENTRO =         0.00000000
  eigenvalues    EBANDS =      -314.91185640
  atomic energy  EATOM  =      4148.79452035
  ---------------------------------------------------
  free energy    TOTEN  =        -5.23661122 eV

  energy without entropy =       -5.23661122  energy(sigma->0) =       -5.23661122


--------------------------------------------------------------------------------------------------------




 average (electrostatic) potential at core
  the test charge radii are     1.1249
  (the norm of the test charge is              1.0000)
       1 -82.0278       2 -82.6525       3 -81.3508       4 -82.5395
 
 
 
 E-fermi :  -4.3079     XC(G=0):  -0.5426     alpha+bet : -0.1952


 spin component 1

 k-point     1 :       0.0000    0.0000    0.0000
  band No.  band energies     occupation 
      1      -8.9471      1.00000
      2      -8.6374      1.00000
      3      -8.3221      1.00000
      4      -8.1883      1.00000
      5      -7.9456      1.00000
      6      -7.9349      1.00000
      7      -7.6724      1.00000
      8      -7.5193      1.00000
      9      -7.4164      1.00000
     10      -7.3190      1.00000
     11      -7.2946      1.00000
     12      -7.2446      1.00000
     13      -7.1120      1.00000
     14      -6.9829      1.00000
     15      -6.9177      1.00000
     16      -6.4204      1.00000
     17      -6.4201      1.00000
     18      -6.3203      1.00000
     19      -6.2859      1.00000
     20      -6.1892      1.00000
     21      -6.0499      1.00000
     22      -4.3159      1.00000
     23      -3.4577      0.00000
     24      -2.4555      0.00000
     25      -1.5724      0.00000
     26      -0.8503      0.00000
     27      -0.7721      0.00000
     28      -0.5045      0.00000

 spin component 2

 k-point     1 :       0.0000    0.0000    0.0000
  band No.  band energies     occupation 
      1      -8.9471      1.00000
      2      -8.6374      1.00000
      3      -8.3221      1.00000
      4      -8.1883      1.00000
      5      -7.9456      1.00000
      6      -7.9349      1.00000
      7      -7.6724      1.00000
      8      -7.5193      1.00000
      9      -7.4164      1.00000
     10      -7.3190      1.00000
     11      -7.2946      1.00000
     12      -7.2446      1.00000
     13      -7.1120      1.00000
     14      -6.9829      1.00000
     15      -6.9177      1.00000
     16      -6.4204      1.00000
     17      -6.4201      1.00000
     18      -6.3203      1.00000
     19      -6.2859      1.00000
     20      -6.1892      1.00000
     21      -6.0499      1.00000
     22      -4.3159      1.00000
     23      -3.4577      0.00000
     24      -2.4555      0.00000
     25      -1.5724      0.00000
     26      -0.8503      0.00000
     27      -0.7721      0.00000
     28      -0.5045      0.00000


--------------------------------------------------------------------------------------------------------


 soft charge-density along one line, spin component           1
         0         1         2         3         4         5         6         7         8         9
 total charge-density along one line
 
 soft charge-density along one line, spin component           2
         0         1         2         3         4         5         6         7         8         9
 total charge-density along one line
 
 pseudopotential strength for first ion, spin component:           1
-10.216   0.009   0.014  -0.013   0.004 -10.194   0.008   0.014
  0.009 -10.227  -0.004  -0.010   0.013   0.008 -10.205  -0.004
  0.014  -0.004 -10.227   0.012  -0.006   0.014  -0.004 -10.205
 -0.013  -0.010   0.012 -10.222   0.014  -0.012  -0.010   0.011
  0.004   0.013  -0.006   0.014 -10.216   0.003   0.012  -0.005
-10.194   0.008   0.014  -0.012   0.003 -10.149   0.008   0.013
  0.008 -10.205  -0.004  -0.010   0.012   0.008 -10.159  -0.004
  0.014  -0.004 -10.205   0.011  -0.005   0.013  -0.004 -10.159
 -0.012  -0.010   0.011 -10.200   0.014  -0.012  -0.009   0.011
  0.003   0.012  -0.005   0.014 -10.195   0.003   0.012  -0.005
  0.006   0.011   0.003  -0.004  -0.005   0.005   0.011   0.003
  0.009   0.018   0.005  -0.007  -0.009   0.009   0.018   0.005
  0.009   0.005  -0.013  -0.000  -0.023   0.009   0.005  -0.013
 -0.000   0.023   0.009   0.008   0.001  -0.000   0.022   0.008
  0.024  -0.000  -0.006   0.007   0.009   0.023  -0.000  -0.006
  0.011   0.008  -0.017  -0.001  -0.029   0.011   0.008  -0.016
 -0.001   0.029   0.011   0.010   0.001  -0.001   0.028   0.011
  0.030  -0.001  -0.007   0.009   0.011   0.029  -0.001  -0.007
 pseudopotential strength for first ion, spin component:           2
-10.216   0.009   0.014  -0.013   0.004 -10.194   0.008   0.014
  0.009 -10.227  -0.004  -0.010   0.013   0.008 -10.205  -0.004
  0.014  -0.004 -10.227   0.012  -0.006   0.014  -0.004 -10.205
 -0.013  -0.010   0.012 -10.222   0.014  -0.012  -0.010   0.011
  0.004   0.013  -0.006   0.014 -10.216   0.003   0.012  -0.005
-10.194   0.008   0.014  -0.012   0.003 -10.149   0.008   0.013
  0.008 -10.205  -0.004  -0.010   0.012   0.008 -10.159  -0.004
  0.014  -0.004 -10.205   0.011  -0.005   0.013  -0.004 -10.159
 -0.012  -0.010   0.011 -10.200   0.014  -0.012  -0.009   0.011
  0.003   0.012  -0.005   0.014 -10.195   0.003   0.012  -0.005
  0.006   0.011   0.003  -0.004  -0.005   0.005   0.011   0.003
  0.009   0.018   0.005  -0.007  -0.009   0.009   0.018   0.005
  0.009   0.005  -0.013  -0.000  -0.023   0.009   0.005  -0.013
 -0.000   0.023   0.009   0.008   0.001  -0.000   0.022   0.008
  0.024  -0.000  -0.006   0.007   0.009   0.023  -0.000  -0.006
  0.011   0.008  -0.017  -0.001  -0.029   0.011   0.008  -0.016
 -0.001   0.029   0.011   0.010   0.001  -0.001   0.028   0.011
  0.030  -0.001  -0.007   0.009   0.011   0.029  -0.001  -0.007
 total augmentation occupancy for first ion, spin component:           1
  2.424   0.081   0.030   0.049  -0.021  -0.408  -0.103   0.033  -0.149   0.065  -0.285   0.050   0.011   0.002   0.011   0.004
  0.081   2.837   0.162  -0.045  -0.240  -0.104  -0.898  -0.183   0.016   0.345  -1.036   0.151  -0.011  -0.043   0.018   0.001
  0.030   0.162   2.485   0.009   0.003   0.033  -0.183  -0.510   0.057  -0.068  -0.242   0.052  -0.057  -0.058   0.002  -0.004
  0.049  -0.045   0.009   2.380   0.050  -0.149   0.015   0.057  -0.376   0.000   0.140  -0.048   0.034   0.044  -0.001  -0.003
 -0.021  -0.240   0.003   0.050   2.519   0.065   0.345  -0.068   0.000  -0.504   0.545  -0.067  -0.035  -0.006  -0.009  -0.009
 -0.408  -0.104   0.033  -0.149   0.065   0.367   0.123  -0.083   0.228  -0.101   0.239  -0.034  -0.015  -0.011  -0.007   0.001
 -0.103  -0.898  -0.183   0.015   0.345   0.123   0.931   0.203   0.007  -0.436   0.930  -0.147   0.001   0.026  -0.020   0.001
  0.033  -0.183  -0.510   0.057  -0.068  -0.083   0.203   0.502  -0.111   0.120   0.207  -0.043   0.052   0.074  -0.011  -0.003
 -0.149   0.016   0.057  -0.376   0.000   0.228   0.007  -0.111   0.345  -0.041  -0.090   0.020  -0.033  -0.064   0.018   0.002
  0.065   0.345  -0.068   0.000  -0.504  -0.101  -0.436   0.120  -0.041   0.466  -0.497   0.072   0.048   0.018  -0.003  -0.003
 -0.285  -1.036  -0.242   0.140   0.545   0.239   0.930   0.207  -0.090  -0.497   1.777  -0.199  -0.052   0.042  -0.051   0.003
  0.050   0.151   0.052  -0.048  -0.067  -0.034  -0.147  -0.043   0.020   0.072  -0.199   0.033  -0.014  -0.024   0.004   0.001
  0.011  -0.011  -0.057   0.034  -0.035  -0.015   0.001   0.052  -0.033   0.048  -0.052  -0.014   0.100   0.072   0.015  -0.006
  0.002  -0.043  -0.058   0.044  -0.006  -0.011   0.026   0.074  -0.064   0.018   0.042  -0.024   0.072   0.081   0.005  -0.004
  0.011   0.018   0.002  -0.001  -0.009  -0.007  -0.020  -0.011   0.018  -0.003  -0.051   0.004   0.015   0.005   0.019  -0.001
  0.004   0.001  -0.004  -0.003  -0.009   0.001   0.001  -0.003   0.002  -0.003   0.003   0.001  -0.006  -0.004  -0.001   0.000
 -0.001   0.015   0.007   0.004   0.001   0.001  -0.002  -0.005   0.004  -0.001  -0.005   0.001  -0.004  -0.005  -0.000   0.000
  0.012  -0.002  -0.004   0.002   0.008  -0.000   0.002   0.001  -0.001  -0.001   0.004  -0.000  -0.001  -0.000  -0.001   0.000
 total augmentation occupancy for first ion, spin component:           2
 -0.000   0.000  -0.000   0.000  -0.000  -0.000  -0.000   0.000  -0.000   0.000  -0.000  -0.000   0.000   0.000  -0.000   0.000
  0.000  -0.000  -0.000  -0.000   0.000   0.000   0.000   0.000   0.000  -0.000   0.000  -0.000  -0.000  -0.000  -0.000   0.000
 -0.000  -0.000   0.000  -0.000   0.000   0.000  -0.000  -0.000  -0.000  -0.000   0.000  -0.000  -0.000  -0.000  -0.000   0.000
  0.000  -0.000  -0.000  -0.000   0.000  -0.000   0.000   0.000   0.000  -0.000   0.000   0.000   0.000   0.000  -0.000  -0.000
 -0.000   0.000   0.000   0.000  -0.000   0.000  -0.000  -0.000  -0.000   0.000  -0.000   0.000  -0.000  -0.000   0.000   0.000
 -0.000   0.000   0.000  -0.000   0.000   0.000  -0.000  -0.000  -0.000   0.000   0.000  -0.000  -0.000  -0.000  -0.000   0.000
 -0.000   0.000  -0.000   0.000  -0.000  -0.000  -0.000  -0.000  -0.000   0.000  -0.000   0.000   0.000   0.000   0.000  -0.000
  0.000   0.000  -0.000   0.000  -0.000  -0.000  -0.000   0.000   0.000   0.000  -0.000   0.000   0.000   0.000   0.000  -0.000
 -0.000   0.000  -0.000   0.000  -0.000  -0.000  -0.000   0.000   0.000   0.000  -0.000   0.000   0.000  -0.000   0.000   0.000
  0.000  -0.000  -0.000  -0.000   0.000   0.000   0.000   0.000   0.000  -0.000   0.000  -0.000  -0.000   0.000  -0.000  -0.000
 -0.000   0.000   0.000   0.000  -0.000   0.000  -0.000  -0.000  -0.000   0.000   0.000   0.000  -0.000   0.000  -0.000   0.000
 -0.000  -0.000  -0.000   0.000   0.000  -0.000   0.000   0.000   0.000  -0.000   0.000   0.000  -0.000  -0.000   0.000   0.000
  0.000  -0.000  -0.000   0.000  -0.000  -0.000   0.000   0.000   0.000  -0.000  -0.000  -0.000   0.000   0.000  -0.000  -0.000
  0.000  -0.000  -0.000   0.000  -0.000  -0.000   0.000   0.000  -0.000   0.000   0.000  -0.000   0.000   0.000  -0.000  -0.000
 -0.000  -0.000  -0.000  -0.000   0.000  -0.000   0.000   0.000   0.000  -0.000  -0.000   0.000  -0.000  -0.000   0.000  -0.000
  0.000   0.000   0.000  -0.000   0.000   0.000  -0.000  -0.000   0.000  -0.000   0.000   0.000  -0.000  -0.000  -0.000   0.000
 -0.000   0.000   0.000  -0.000   0.000   0.000  -0.000  -0.000   0.000  -0.000  -0.000   0.000  -0.000  -0.000  -0.000   0.000
  0.000  -0.000   0.000  -0.000  -0.000   0.000  -0.000   0.000  -0.000   0.000   0.000  -0.000   0.000   0.000  -0.000   0.000


------------------------ aborting loop because EDIFF is reached ----------------------------------------


    CHARGE:  cpu time    0.02: real time    0.02
    FORLOC:  cpu time    0.00: real time    0.00
    FORNL :  cpu time    0.03: real time    0.03
    STRESS:  cpu time    0.04: real time    0.04
    FORCOR:  cpu time    0.15: real time    0.15
    FORHAR:  cpu time    0.02: real time    0.02
    MIXING:  cpu time    0.00: real time    0.00
    OFIELD:  cpu time    0.00: real time    0.00

  FORCE on cell =-STRESS in cart. coord.  units (eV):
  Direction    XX          YY          ZZ          XY          YZ          ZX
  --------------------------------------------------------------------------------------
  Alpha Z     2.89386     2.89386     2.89386
  Ewald    -235.26094   753.82632   462.66220   487.16123   813.29106  -216.42863
  Hartree  1175.58040  2010.23516  1770.79527   367.89845   665.26739  -150.99836
  E(xc)    -231.89110  -231.30621  -231.53437     0.47525     0.55204    -0.25086
  Local   -1581.89498 -3401.79215 -2873.11514  -849.50687 -1474.66933   363.64125
  n-local   -49.86441   -50.22877   -49.66432    -1.17091    -0.29223     0.82151
  augment   367.25514   366.07939   366.49929    -1.37389    -1.23466     0.90127
  Kinetic   551.77711   548.82143   550.09446    -3.53372    -2.94343     2.28534
  Fock        0.00000     0.00000     0.00000     0.00000     0.00000     0.00000
  -------------------------------------------------------------------------------------
  Total      -1.40491    -1.47096    -1.36874    -0.05046    -0.02916    -0.02847
  in kB      -0.47863    -0.50114    -0.46631    -0.01719    -0.00993    -0.00970
  external pressure =       -0.48 kB  Pullay stress =        0.00 kB


 VOLUME and BASIS-vectors are now :
 -----------------------------------------------------------------------------
  energy-cutoff  :      249.84
  volume of cell :     4702.79
      direct lattice vectors                 reciprocal lattice vectors
    16.754006466  0.000000000  0.000000000     0.059687216  0.000000000  0.000000000
     0.000000000 16.754006466  0.000000000     0.000000000  0.059687216  0.000000000
     0.000000000  0.000000000 16.754006466     0.000000000  0.000000000  0.059687216

  length of vectors
    16.754006466 16.754006466 16.754006466     0.059687216  0.059687216  0.059687216


 FORCES acting on ions
    electron-ion (+dipol)            ewald-force                    non-local-force                 convergence-correction
 -----------------------------------------------------------------------------------------------
   -.554E+02 0.375E+02 0.164E+03   0.537E+02 -.407E+02 -.164E+03   0.167E+01 0.323E+01 0.324E+00   0.272E-01 0.142E-02 0.389E-02
   0.282E+03 0.184E+02 -.363E+03   -.276E+03 -.156E+02 0.357E+03   -.610E+01 -.282E+01 0.530E+01   -.256E-01 -.628E-03 0.343E-01
   0.542E+02 0.301E+03 0.219E+03   -.529E+02 -.295E+03 -.215E+03   -.130E+01 -.604E+01 -.381E+01   -.885E-02 0.793E-02 -.411E-02
   -.281E+03 -.356E+03 -.206E+02   0.275E+03 0.351E+03 0.224E+02   0.563E+01 0.511E+01 -.178E+01   0.340E-03 -.826E-02 -.292E-01
 -----------------------------------------------------------------------------------------------
   0.818E-01 0.518E+00 -.387E-01   0.568E-13 -.568E-13 0.142E-13   -.982E-01 -.526E+00 0.311E-01   -.688E-02 0.456E-03 0.483E-02
 
 
 POSITION                                       TOTAL-FORCE (eV/Angst)
 -----------------------------------------------------------------------------------
     10.57141     10.14128      9.82260         0.018505      0.017536      0.028508
      9.62745     11.05924     12.18993         0.018864      0.014812     -0.006856
     10.11399      8.00486      8.43295        -0.001584      0.009070     -0.010704
     11.54972     12.46070     11.13979        -0.035785     -0.041418     -0.010948
 -----------------------------------------------------------------------------------
    total drift:                               -0.023279     -0.007620     -0.002765


--------------------------------------------------------------------------------------------------------



  FREE ENERGIE OF THE ION-ELECTRON SYSTEM (eV)
  ---------------------------------------------------
  free  energy   TOTEN  =        -5.23661122 eV

  energy  without entropy=       -5.23661122  energy(sigma->0) =       -5.23661122
 
 d Force = 0.4211414E-04[ 0.189E-04, 0.653E-04]  d Energy = 0.1256830E-03-0.836E-04
 d Force = 0.6463367E+00[ 0.646E+00, 0.647E+00]  d Ewald  = 0.6463369E+00-0.252E-06


--------------------------------------------------------------------------------------------------------


    POTLOK:  cpu time    0.16: real time    0.16


--------------------------------------------------------------------------------------------------------




--------------------------------------------------------------------------------------------------------


  
 reached required accuracy - stopping structural energy minimisation
     LOOP+:  cpu time    1.04: real time    1.07
    4ORBIT:  cpu time    0.00: real time    0.00

 total amount of memory used by VASP on root node    46039. kBytes
========================================================================

   base      :      30000. kBytes
   nonl-proj :        549. kBytes
   fftplans  :       4200. kBytes
   grid      :      10682. kBytes
   one-center:         15. kBytes
   wavefun   :        593. kBytes
 
  
  
 General timing and accounting informations for this job:
 ========================================================
  
                  Total CPU time used (sec):       78.369
                            User time (sec):       74.953
                          System time (sec):        3.416
                         Elapsed time (sec):       88.235
  
                   Maximum memory used (kb):       49856.
                   Average memory used (kb):           0.
  
                          Minor page faults:       558498
                          Major page faults:            0
                 Voluntary context switches:         6985
