17
Energy = -65.67234088 eV
Sb 15.84611739939759 13.134538672147537 14.601519758850182
Sb 14.146029608632274 14.368396852064524 10.425983023296663
Sb 14.229231537390307 15.471432405731768 14.962350229860776
Sb 14.544303655646885 8.856201723036737 14.661928022312727
Sb 14.228337270621719 13.398672186400933 16.944018361164435
Sb 14.932617510456677 11.058553914335528 12.820410383181011
Sb 13.530446217825533 14.797031425703443 7.645173174138161
Sb 12.899164233516212 12.277707864870877 8.895428614112074
Sb 12.111680214408265 16.17793885062376 11.341932234288839
Sb 12.163306317948019 11.003399472092546 12.118686942599737
Sb 11.82624183657956 8.551003387513392 13.66323703319047
Sb 11.510332449177648 15.322700536809872 14.038827041717024
Sb 12.2964054257748 9.38001741846145 16.3567704224873
Sb 11.63951007710832 12.156463896801903 16.539554437914262
Sb 10.625497248905386 12.612207911301349 13.915460451162788
Sb 10.770225999718521 13.964886079961953 7.9290790224239265
Sb 9.758678643802586 15.013057249137024 10.346228290819848
