13
Energy = -49.18990958 eV
Sb 8.741564016361021 10.165419181456745 7.6805850713114
Sb 11.516619765985752 10.946847337603494 7.838965587687175
Sb 10.346771511018463 13.451350677763658 7.175363567924575
Sb 11.252044769069794 7.75014834165421 10.70558329363466
Sb 6.6560009040893116 11.351142259198657 9.275935903281027
Sb 11.854139536905025 13.181974499241031 9.579660371497313
Sb 10.20247573443269 12.811382461228336 11.89173591987309
Sb 13.338732832952893 7.289476688118138 12.619946823255827
Sb 7.764675498156817 8.806095354357334 10.041453873551063
Sb 10.872512606054036 8.55777891150396 13.44637232232216
Sb 12.215472574780778 11.111821671792075 13.130061258880918
Sb 7.959822738763596 11.055027894509141 11.825444173035468
Sb 13.41233297386875 9.654700184012675 10.92205729618437
