19
Energy = -73.34975301 eV
Sb 14.447727634335797 11.082974002471229 13.078401599773745
Sb 12.944359843810616 8.552075308208208 13.306914068894452
Sb 12.486270619932297 13.072983087222054 13.83696288842512
Sb 14.517103672612095 12.395101786677921 10.481055361278653
Sb 12.81519921171092 14.5756658851404 11.380808717606241
Sb 10.700028766709087 8.97470744332784 15.08905408716748
Sb 11.966466864493222 7.258837109418202 10.918932764766302
Sb 10.965334260119347 11.350027303558583 11.992415713489489
Sb 8.361874792228896 8.144215642301058 13.672498120452829
Sb 13.276883553684987 11.094180408052033 8.234062368701764
Sb 11.511353264620496 8.833258399730774 8.532500134823874
Sb 8.909676276672386 10.958242338636373 13.964026634846329
Sb 9.082509968630688 7.292601748948395 11.003159747746725
Sb 10.094315625644189 13.676405711346066 10.502479355053936
Sb 9.217383073879384 9.947351104994203 9.846875825138493
Sb 11.33190735608127 13.194892268023565 7.967125187590874
Sb 7.338033937716486 13.17811189041367 8.473166371620119
Sb 7.342658239500062 10.43171511207825 7.7047397643670905
Sb 9.043790331871907 12.339530743704382 6.3676985825093855
