11
Energy = -42.01646231 eV
Sb 12.625973690437176 12.56976064000255 13.461377101636272
Sb 10.232261396589953 10.850683694911675 13.173602678289763
Sb 11.177716798257306 14.527176299604434 11.988552942290541
Sb 14.178467329607242 11.908519789818993 11.122331932214617
Sb 13.208827444306063 14.403111358848399 10.041446017024159
Sb 8.313652819515347 8.486818891320333 11.965265590321486
Sb 9.761118163287046 12.114030391556685 10.642285855135308
Sb 11.161205787107642 8.273685811190584 12.367840121852549
Sb 12.12557355700272 11.415027134417356 9.190008697502625
Sb 8.67552876637622 9.497770429003529 9.361978496751
Sb 11.360722446427596 8.573801960492293 9.499642320980339
