12
Energy = -46.44004448 eV
Sb 14.833423878804282 9.413575769304519 12.969532625478054
Sb 13.725446472779044 9.236630949766543 10.350949703837776
Sb 13.270923589295018 13.45364630073024 11.749743366184974
Sb 12.590386454093453 11.752506820076466 9.55484648040945
Sb 13.58034459704089 11.79527095229953 14.04794230971499
Sb 12.237088099653764 8.137902069496862 12.528918788489875
Sb 11.135114247058077 10.270795642909349 14.15734995549998
Sb 9.132012446151885 13.487916683745503 8.723367070053593
Sb 9.855817726414534 11.011278863983023 9.96462289227361
Sb 10.717229405018605 14.242807016863356 12.812811867650401
Sb 9.72518502446241 15.464389557585854 10.421529819411347
Sb 9.246537798636965 11.805924699302782 12.61263513815948
