18
Energy = -69.08414128 eV
Sb 14.737428510729499 10.770871752578092 8.555997754374566
Sb 12.263469608527796 9.837631215056723 7.328269476165351
Sb 11.16100326847964 12.351000154549661 6.387738665731023
Sb 14.880421055951953 8.915237788815025 10.792102456409193
Sb 13.350009417776493 12.72493003799234 10.18511204049613
Sb 8.709336322540102 10.923012613859411 6.125885621479652
Sb 8.971926833814953 12.493966156170067 8.317762675316995
Sb 14.168891460639141 11.135519021498721 12.5054088869527
Sb 11.168953814688406 10.870392973917975 9.783789767784901
Sb 7.089476253671103 5.947045890204359 10.573986794604725
Sb 12.227143608463118 9.071722348356968 11.870113812553212
Sb 6.5770738206667705 8.760551559753187 10.560485362555639
Sb 9.189893664552088 7.798150890277993 9.937569168968126
Sb 10.962441189732376 12.973144461869516 13.285389989802157
Sb 8.511625438840207 12.140068792905247 12.023263092855117
Sb 8.186819962254582 7.614840066165041 12.61533727496
Sb 9.090426259313535 11.35985574508234 14.708070855982552
Sb 8.455355776576093 14.091475224810377 14.118400475594527
