11
Energy = -41.98367356 eV
Sb 10.846695022810252 9.083399116082404 13.579211216174293
Sb 10.062290756624162 11.774451140558964 14.289256920550905
Sb 13.606649354437115 9.928024922703889 13.49057903272686
Sb 12.87042150070231 12.467525529393678 14.421043519078088
Sb 10.849606020140028 9.106467196197109 10.689714741313953
Sb 9.948672957090848 13.24286841338127 11.765900132124122
Sb 12.763898521049123 13.211134487554425 11.362303655186176
Sb 13.320033274600807 10.546546934399684 10.407284636295893
Sb 9.129975868741615 11.234605122429281 9.869378609697439
Sb 11.606065100506518 14.197693733950453 8.809082747968509
Sb 11.438021921827522 11.525335299697065 8.128710954445134
