15
Energy = -58.32103777 eV
Sb 8.63692299244991 9.995979233301556 8.898152061588672
Sb 11.431371572574232 10.77562481010387 8.72773138570972
Sb 8.709027386143383 7.686687491150027 10.634234282175772
Sb 12.402188041085203 8.94996637606116 10.695053839741172
Sb 14.387557676656762 10.333505045995375 12.246483662789311
Sb 15.65983912301362 12.190461058808069 10.444722333634804
Sb 11.087913203482433 13.399689206913678 9.807783320539572
Sb 13.817182328226039 14.254965493133984 9.691814182183323
Sb 6.231513984652299 8.991949663988594 11.29778423539498
Sb 10.398644803982018 8.700529009798602 12.717803427882695
Sb 7.407608303366482 11.585631190585536 10.971794104043925
Sb 14.905554899293078 14.288108804750985 12.341955617956772
Sb 10.827930316678746 13.414272703999295 12.647985384497192
Sb 13.225493200742939 12.440894787880818 13.81841111711182
Sb 9.083690705363367 11.20417366123864 13.270729582460623
