22
Energy = -86.25197011 eV
Sb 13.164506207023972 6.154624728010008 12.868633701857505
Sb 10.896436405754269 6.987740753099807 14.432610513478735
Sb 13.54523227290843 6.969918481194854 15.60227308680899
Sb 14.052961037130244 8.399575237829678 11.291423393540741
Sb 11.064931350005777 9.875765987102877 14.16963826186257
Sb 13.694873485687284 9.861537073664104 15.36676373664479
Sb 11.430431767443297 9.597623739276619 11.38007554197955
Sb 15.635206127919487 9.662952593353346 13.301158766720752
Sb 11.008755879580557 12.50153163895794 11.066876138446926
Sb 14.743521851248504 11.946393096067418 11.743255155544993
Sb 16.946987075931183 12.267395007959816 9.919133804927796
Sb 9.081452599705342 14.276482806048408 13.49346037163484
Sb 12.638919994675499 13.94206983070531 9.165103126297666
Sb 11.80379347848029 13.432534454237402 13.695802895279526
Sb 16.57176564178666 14.16378568382372 12.041278503654347
Sb 9.185301969243524 15.798504569710655 11.041169829130094
Sb 11.919770293900887 16.41421681674409 10.471164054814473
Sb 15.451090696298692 14.677701919774403 9.455935685921688
Sb 13.112048553848595 15.903875562844146 13.00994131282565
Sb 9.053651589228558 16.6605142810751 15.129420090878446
Sb 9.114662505348122 18.209905738453486 12.670964619882872
Sb 11.491790331726206 17.903441114942733 14.292008522743144
