20
Energy = -77.48628293 eV
Sb 18.430248294384178 14.35145321462049 10.140840558439484
Sb 21.160573379716286 16.344823801592423 16.99989015229942
Sb 16.28710324589073 16.639522966333764 13.418002828690296
Sb 20.972584584778506 17.711092132787833 19.5008921060139
Sb 16.319630247265223 16.239293786820973 10.592487950579331
Sb 15.693304029476437 13.49047811267523 10.060713391794295
Sb 18.901289571462037 17.999818561210382 17.553072691704912
Sb 17.4421409481408 12.521217608882424 12.120709089674854
Sb 19.230259906201486 15.520130780235995 18.93352676703978
Sb 16.709628569586172 13.991404005158548 14.456681965430075
Sb 13.886363589112813 13.42442107834906 14.119605480963287
Sb 13.423764130976608 16.194881035725842 13.497403254292498
Sb 14.579587487336214 15.764193203512571 17.97044244389576
Sb 13.199347976298302 17.4084172876342 16.06766819270358
Sb 13.444952285139737 13.333349595606311 16.936602527577197
Sb 10.017230888076341 12.48593323450226 12.874902447171511
Sb 11.723328045058715 15.516321095154597 17.64036844906393
Sb 8.929488381062665 11.396963135263597 15.275611166889169
Sb 8.488339295138104 14.140301678101467 14.629822603289112
Sb 7.1905677394379 12.093277661780512 13.122364597056864
