28
Energy = -108.7756849 eV
Sb 13.821408349071708 16.379679172534427 14.701321799840395
Sb 16.2199201171993 17.448829333635896 15.724146363649396
Sb 13.09353501495671 18.608079850912716 13.006678004732198
Sb 18.257026409507393 16.34738382981705 11.9403136243618
Sb 16.609718607701407 15.248142404003573 14.041877146992194
Sb 13.197117598678632 11.988823260508953 18.09144923592299
Sb 11.03871865243726 16.74756877703895 15.83616226865096
Sb 10.59835130991034 13.084386014787732 18.625539094637276
Sb 16.351767598582427 17.150848378343323 9.962945821674706
Sb 10.575623318528434 17.12327413217013 13.02532321150584
Sb 13.493625473086803 17.196780910390057 10.527779674745986
Sb 17.3424664052061 14.451649213907954 9.934164077927278
Sb 13.63416814020618 12.999074614142918 15.460588267095861
Sb 12.37944463894832 14.953440287579134 11.989963904331471
Sb 9.626056401587052 14.251856918196955 16.142652131520624
Sb 10.888758118974867 10.295268388849871 17.938147489833472
Sb 15.5482133809835 10.863183611614135 15.186388889639131
Sb 15.18741352942124 13.350784419219423 11.544532019437225
Sb 16.76238829226367 11.09608556169303 12.551477472686997
Sb 11.03815447837493 12.697649892895974 14.222200255181733
Sb 11.473738504043713 13.944076099534865 9.385671294910388
Sb 14.0339678917933 12.722567811196297 8.873404152641232
Sb 12.83242858409351 10.81795440638573 12.092867445955571
Sb 9.904605968314302 10.301973171530662 15.24391275911801
Sb 14.326154330146085 8.312798845669386 14.465840637267696
Sb 14.99739243118756 8.95089527515903 11.684855633914001
Sb 11.729781206569395 11.0743400617637 9.466943759491826
Sb 11.603263983981591 8.640066518965972 13.545104104720142
