29
Energy = -111.99187406 eV
Sb 15.948378576754767 13.480954193803175 8.72882566170625
Sb 11.415660957245619 16.420950127802804 18.20305526704299
Sb 14.1476491535915 13.389119665123198 6.478026323885122
Sb 12.267813142441334 13.800507441858102 14.723812018641787
Sb 12.738159545513625 16.57018719741202 15.696269204135772
Sb 10.83439525605769 15.01283535610768 12.522627847828337
Sb 12.224771083684491 8.725174516716068 6.754350934839892
Sb 7.9508892518886105 12.617206229713746 14.987675451272118
Sb 11.581984761004122 9.551751813160925 11.143358310261837
Sb 15.034385376462588 10.848146186776138 9.639055038144162
Sb 9.446098889743133 7.331014035007702 9.312190760331962
Sb 11.36524806575621 8.722516481332049 15.641649068967016
Sb 9.988751800876637 10.937692671576873 13.886009886529768
Sb 13.550919409021793 15.034832196109745 8.787631863310523
Sb 9.900113594058428 17.108338474746347 15.875111560679104
Sb 16.033930660141305 13.02306252081743 15.541341420983509
Sb 16.206809427043734 13.96064998461382 12.847854082394228
Sb 12.754468859997461 11.278473753015183 7.944825948911735
Sb 8.597002473807702 13.244863064767248 12.276132583947788
Sb 11.553190414949404 13.350011526254054 10.18031544465534
Sb 13.373181804671244 11.81984546731282 11.790139745944822
Sb 9.982732444916373 14.271932414253673 16.430798778147814
Sb 11.35822923324867 7.357911188398349 13.199205730816633
Sb 18.532028098524123 14.000947842631598 14.533741840411384
Sb 9.042269971175342 10.210303617866138 9.905543166005389
Sb 12.38366889569084 7.429724515055982 9.31172711613213
Sb 9.399886008322426 9.282488018788177 7.201013076793213
Sb 16.363802094924818 15.811963098559644 15.02971802776755
Sb 8.891974257776502 8.263613054750904 14.31633298668941
