21
Energy = -81.72843126 eV
Sb 9.119672478425604 10.339358587752022 14.07035275036882
Sb 10.422723194531008 6.497966297469353 16.405548992362885
Sb 8.673277140899524 9.961133567288607 11.150476011191914
Sb 10.587601663399928 7.960139143323116 10.66549691195479
Sb 12.292768774463797 8.665962092387408 16.467352258889445
Sb 11.379040715004106 12.093591582643535 14.224865755944842
Sb 9.593050658448345 12.562563801959227 10.199252697748726
Sb 12.143417516096902 11.460297195025783 9.616280103278328
Sb 9.880716595214373 13.97121106138148 12.690651755874411
Sb 13.339114702777742 11.320389587021884 12.238740396634116
Sb 10.896228264472434 8.01504333971388 13.8263757358867
Sb 13.484424232948255 13.804837723440599 8.525512902497784
Sb 13.111119770676071 8.47049777469064 11.93345354107545
Sb 12.086694072075 16.08764847684638 9.502083641195009
Sb 9.579850322426296 9.098373410518539 17.015806417867253
Sb 15.625052334536012 13.58283767335134 10.352096962359497
Sb 12.06971466874278 15.86631953792685 12.322894390410791
Sb 14.371439885641296 17.838379193256323 9.66883799958955
Sb 16.718989498144396 16.194730512097376 9.69856781634897
Sb 14.552928202142205 14.579161596780715 12.829324024601052
Sb 15.658508237272214 17.215890773463574 12.18236186225813
