28
Energy = -108.35048612 eV
Sb 19.20454754453368 11.670763909128683 14.354520821366265
Sb 18.83633215630681 13.218548641944519 16.749777669370175
Sb 19.30085145321352 14.541049945825964 14.264564963418799
Sb 16.5209392544734 10.697343842748847 13.839764105455657
Sb 15.973503774216303 13.305191461886281 17.233083840215848
Sb 16.56371055054515 14.785515103765016 13.367685938283294
Sb 16.13569347614733 16.216405373089078 17.263527387712177
Sb 16.94055736814115 13.901470459897467 10.640659779394138
Sb 14.888853318945445 17.107731001526343 13.024440105600256
Sb 16.386454821913087 11.08052238806256 10.986771956522144
Sb 14.849076310683397 12.87388146230499 14.630884601851916
Sb 13.945865606041135 17.31806356392756 15.775521853167925
Sb 14.508570696788592 16.485064372549807 19.65181379344441
Sb 14.52456861700151 15.10796148938161 9.662559291046104
Sb 13.63732598149052 10.553989902038701 10.189270399598492
Sb 13.230540002527029 12.827007547083836 8.492526151694673
Sb 12.320891949560085 14.98184536080622 16.20215052402204
Sb 11.483544232281629 12.462936223024027 13.940560657111728
Sb 13.166935588285364 14.911152241956907 12.177637834531122
Sb 9.868664361778452 11.333675463408092 15.993379445308864
Sb 11.439499097988818 10.26452226761069 12.03207135425259
Sb 11.982252468440963 16.00550925118827 18.866889559869172
Sb 10.664417117606092 15.792448456272776 11.129422212972056
Sb 10.534826260338638 13.664107884568146 9.065576874861895
Sb 8.751162565784512 13.599091367951184 16.968991141599815
Sb 9.262927461568806 13.960387314412728 12.877652321893091
Sb 9.451416869313922 11.468436001367696 10.455129762134742
Sb 9.67318264029263 15.71347536376493 15.278820649898236
