26
Energy = -101.5100611 eV
Sb 15.194936473528992 8.630109664307819 14.999911187328916
Sb 15.747897817367466 9.264544675957152 12.151275086261268
Sb 16.6282503552535 12.953918425498587 14.511119037060354
Sb 11.841149096024028 6.754710184395881 12.819214789746555
Sb 15.181922816662638 11.167575721948175 16.33269513450605
Sb 15.974101175939811 12.069108136066607 11.9220223121025
Sb 9.180746961146033 6.7660218120721085 11.685018581580444
Sb 11.640401740089878 9.627459098186208 12.881210116478828
Sb 14.919154062469472 15.354701366911632 14.43438754371616
Sb 11.4864015363041 6.351708316924015 9.994063599032728
Sb 12.84614552533466 13.506211009065273 13.775702019496793
Sb 12.732596272696801 9.860192090694683 15.691392392266225
Sb 14.068330082794525 15.022960167146252 11.670735351912336
Sb 10.532347268136366 15.290706571968082 13.799656191738569
Sb 9.519787223626667 13.120111324885416 12.204135960956302
Sb 12.000522279545956 8.844532680044226 8.681982913566703
Sb 8.89105822394746 9.686166877729455 11.826544577066127
Sb 13.404630165331131 10.427433373765892 10.792866041831186
Sb 11.881664153038146 17.00627526331698 11.896857242673
Sb 7.164387750912725 14.428519182429238 11.277679196417514
Sb 11.352999803658223 13.273439072636789 10.014946657489805
Sb 9.291068881655214 9.657925465057874 8.99787836340734
Sb 11.030282679179916 16.023960695296505 9.333918202178204
Sb 8.17400090258472 16.316934686162146 9.3825718471851
Sb 9.640140485970486 12.34774141681953 7.939929388961588
Sb 7.18444656990925 13.756403023821807 8.491656568147903
