31
Energy = -120.73804903 eV
Sb 16.13262852316227 9.948380464504961 12.175460537897171
Sb 16.980020511037452 11.725039812767559 14.255292698543744
Sb 13.81447514313819 10.808933279324343 17.905943408514467
Sb 14.361026728843944 10.543334815137555 14.635107585774783
Sb 14.38668596001508 11.573696773449699 10.609890841949605
Sb 11.279256245452082 12.010677921380637 18.503677401168083
Sb 15.979704127537028 14.260267827889088 13.312043434016955
Sb 18.892457069689517 12.66147963105571 17.49929859942448
Sb 15.78306733110137 14.10098416194839 10.422286558329718
Sb 13.740721733756445 13.525319218408244 18.714425027580425
Sb 18.015653668712744 15.991862451985964 14.39766256461329
Sb 11.089698710994826 12.440293667271566 15.661472727941552
Sb 19.96213368208932 14.087658552073396 15.258457552989439
Sb 10.542966280539812 11.374153597517044 11.954330994101777
Sb 12.979518062250724 12.542248267914953 13.0180041780254
Sb 21.09967380494438 13.932821102452861 19.016055171823666
Sb 8.799097845001633 11.3111819162412 14.25654233813219
Sb 17.323211490030747 14.729781193996589 18.723659431259108
Sb 14.087768024915633 14.385534866411906 15.907793109141826
Sb 21.368783197367367 15.933817115894751 16.953803417832123
Sb 13.147960172959204 15.312340985796965 10.814236373746342
Sb 13.664825373849984 17.192246737742785 8.695514850242276
Sb 16.186770442693945 16.3129318154413 16.644421190553693
Sb 9.922588510846513 14.982953394035915 15.066595348436085
Sb 19.60889674260666 16.407869964915307 19.180056125829942
Sb 8.9488347950569 13.682708012628115 12.61768705510551
Sb 13.950236649639074 17.082366693953425 12.912762778679243
Sb 12.337964278910421 16.602177156488796 15.284479260146453
Sb 14.201335135793522 19.833673214073954 9.762918940111087
Sb 11.503246531783377 18.9796581302563 9.352963179201511
Sb 12.495703115425842 19.419800615745945 12.031502149787247
