30
Energy = -117.74928588 eV
Sb 11.058074828004433 8.379141543972382 14.617508668963552
Sb 14.750667234365059 10.702030346424174 15.32822454973533
Sb 8.814170797135253 10.007380147076264 15.596414933754032
Sb 10.833932212085589 7.072211280655441 11.990428152361028
Sb 12.242267817114188 10.921873328242043 13.858125131167476
Sb 14.053144604664086 7.971823814010624 8.76076983160931
Sb 10.85092257640995 11.967446178099843 16.17704194704564
Sb 7.166937388728983 11.134825073994024 13.494455487364325
Sb 16.76645415377334 10.821509126566678 13.25380138892121
Sb 12.062453019180715 9.252354112442568 10.466799320445146
Sb 16.041875402155103 13.194487887774187 14.7234557903729
Sb 8.17987433951525 8.04630435189797 11.399752667528556
Sb 11.18706563311367 8.219080541257108 7.930109882754212
Sb 14.564749640417675 11.481390376102445 11.41802431113809
Sb 14.121150444606329 10.238558915887907 7.066143512311706
Sb 10.06286519090169 14.462051049828492 14.89173741256712
Sb 15.422338071455584 14.127912136839873 12.012133334678163
Sb 8.340190016798283 7.52214984390393 8.550804345329695
Sb 9.07327435208391 10.791009135140387 11.397893045656588
Sb 11.081355784106018 10.876280355447683 6.664846198129105
Sb 15.255723895212656 12.281333515360325 8.73824511057003
Sb 11.040166325528338 13.696590749152927 12.263888743010334
Sb 7.455197597002674 14.000024137868857 13.752681493933562
Sb 13.022396694400795 15.551285176346624 11.265463215186466
Sb 11.033784292491658 12.399183852832506 9.094445418084419
Sb 8.04848244417468 10.007880418977827 7.278486822502407
Sb 7.09158675594643 11.595238419361413 9.471442363677943
Sb 13.143157636282266 14.312281341182588 8.605022148485812
Sb 8.752847502884089 15.16093549932872 11.366903111660152
Sb 8.605904316867006 13.928438311430689 8.687962628462031
