39
Energy = -151.61285198 eV
Sb 14.592508125381821 16.711339484286515 10.213147802867164
Sb 15.126844213175326 13.245873553608783 9.364326423270366
Sb 14.836541987343908 10.479500297661188 8.682634648462688
Sb 12.079320394592372 15.209250556501198 9.902521523590869
Sb 17.971129603692738 13.46044177538525 9.64662565968698
Sb 13.805246439005902 19.22951447579883 11.52737888991412
Sb 10.165470806413344 17.069611563474187 11.100315393896729
Sb 12.031791019185091 11.149298959606503 11.00436030312684
Sb 15.5100424588501 15.752915531726297 12.846025784495874
Sb 12.218940188138367 17.407363072657475 13.053641861329519
Sb 16.181074868165535 9.584389943134903 11.035262810968861
Sb 18.239934143864804 15.034855105870257 12.129950191612492
Sb 14.711279981682265 11.928561515290529 11.9505049891765
Sb 18.635357668376226 11.12860729658889 11.200391898445107
Sb 16.1366271235828 18.56887733447357 13.145560777701208
Sb 11.900414821523764 13.747824260193278 12.416452056830588
Sb 11.501375416135202 9.29105770700592 13.21914402273193
Sb 9.212447190763625 14.84705036607641 12.683994173408108
Sb 14.186942370524733 9.629611695331361 14.33008069290142
Sb 17.641673200870713 12.57520032172753 13.544687185144086
Sb 10.560641180657864 18.56795623030166 15.134548136912546
Sb 9.712586537150361 15.811820437635316 15.502565313775543
Sb 16.685730740605006 10.624839978415295 16.555206948411605
Sb 15.00853796223534 12.920955742012481 15.804522566657104
Sb 19.171899729951377 12.027435192513009 16.001781877436468
Sb 13.006381593499535 9.388378973766645 17.01317093259401
Sb 11.953638562622912 11.329563760647638 15.188161244277893
Sb 12.526184487645533 15.037437390698438 15.685695837857034
Sb 18.327791817718882 16.20339001098293 15.34651672711243
Sb 18.812505341741318 14.465551154922972 17.511337318062772
Sb 15.132112683463214 19.307893402175825 15.734164616334503
Sb 12.851649938090096 17.74731998533847 16.735908031985204
Sb 16.837535206440915 17.60966553498585 17.314034866390536
Sb 14.532531712657322 11.517048192972036 18.34379468445007
Sb 10.12045475789089 15.948477257084098 19.02714958693302
Sb 11.803645934207438 13.73978637187164 18.20640881206775
Sb 15.855063188584607 14.907512124773081 17.871111534727326
Sb 12.354196221948124 17.48375993692525 19.680172380507074
Sb 13.696267563610132 14.944380687568646 19.981058675935316
