34
Energy = -133.52569771 eV
Sb 15.019800995185802 9.833511407613958 16.05645322847613
Sb 12.104752429774578 11.85902235099687 17.763071484391354
Sb 15.581346565793133 8.568731771514704 13.523007184183784
Sb 17.95333682750725 9.927549320029426 12.502324786910446
Sb 14.345254662294085 12.930103693077974 19.19597454742357
Sb 6.141434545807943 10.334679938088412 9.638801981232804
Sb 13.074059952821983 11.675960337419134 15.055457127754648
Sb 17.369883936707495 11.38674800552018 16.6007073217083
Sb 16.16995736998405 13.925554644134126 17.22456417442753
Sb 10.477536668170108 14.143569412500167 17.20666050402651
Sb 5.627858734379737 12.207416969558839 11.753518182812282
Sb 18.436991792101914 12.255254577523832 14.092659677944027
Sb 7.579743025244772 10.138641672911108 12.126356454000831
Sb 14.038001913641136 10.435830940107738 11.985490353097425
Sb 15.131394317825396 9.423160547629907 9.565412191996998
Sb 17.327273076763003 11.252403579029892 9.990233469190313
Sb 10.639504993364785 15.700450208258546 19.612421191267465
Sb 6.808133876973267 13.105226586269879 9.281657243680826
Sb 13.507817421793243 15.626999158994929 19.686158246232527
Sb 14.336376595860976 14.261856500327752 15.033791715709173
Sb 9.991601068284247 11.68100556634941 12.001692228795797
Sb 12.7774651890176 10.870274692345381 8.581451605892443
Sb 11.538131304661837 9.512362689159954 10.828663747960517
Sb 12.180936596957954 15.058753008223897 12.14505194565638
Sb 12.175614600377157 16.45091499099279 17.276867361913602
Sb 9.667930484027256 13.024966316740969 9.501707911157805
Sb 16.270338982709344 13.951929017082113 10.554325041536217
Sb 13.445374109256075 13.336606864623828 10.111690119511493
Sb 16.67202706488876 14.426490114045908 13.344717649342345
Sb 14.17900227727226 16.870220829561855 11.532894954429034
Sb 9.932149871444583 15.731646644313994 10.505730762813627
Sb 13.350537123794641 14.815333969907996 7.643762006236953
Sb 11.135954815657973 16.587122081076185 8.053892489634407
Sb 13.767738790936798 17.44496357535094 8.778093089934114
