33
Energy = -127.36991107 eV
Sb 15.580888150237257 10.089036814636746 17.412994260702916
Sb 16.299208001738723 12.74819614609331 18.268089194006805
Sb 18.99644350950926 12.942823572650033 17.082731352736698
Sb 12.466778196894547 12.408636291018018 18.52302555238547
Sb 13.389597331324461 9.808704502029935 19.319943322935867
Sb 19.058761526146768 15.660300018979278 16.07102753254443
Sb 16.4024713696721 10.647306509077282 13.785717282592223
Sb 16.205995747186194 15.601560460875216 15.55103492456619
Sb 15.071760874531808 16.811898120531026 17.92019210624294
Sb 14.269570313969979 12.371822636247519 16.233463549799513
Sb 12.616011795044608 17.920125131865333 16.90309603752259
Sb 12.06548385833757 8.067393265416088 17.476738034642104
Sb 19.403542369240213 13.49241285626407 14.233466603119059
Sb 10.303838676142911 11.787959568634507 16.76988300942481
Sb 15.705877791286945 10.056657791461795 11.035332055587475
Sb 18.336024813214028 11.055766739990602 11.701750544650329
Sb 14.829877821314534 19.646978990115443 17.513533820154972
Sb 16.863629818632486 13.29149873582502 12.76010367825629
Sb 13.895843153776454 19.396014917388882 14.798745587548805
Sb 16.039254494717202 17.82523866270762 13.759671795904474
Sb 9.41426750058562 9.13100025074679 17.331063000350376
Sb 14.547632427080538 12.488972884658018 9.883292487390436
Sb 13.07681782021789 12.9786208250125 12.256634150600279
Sb 11.327045224131256 9.61942179136498 15.184685265249833
Sb 14.337866524500551 15.955616015442654 12.285346392604364
Sb 15.602085167849857 15.63749291359125 9.749132566646539
Sb 10.779302159404878 13.897757030679646 10.837656725175053
Sb 12.288625531853134 18.05298345955978 11.387780602676422
Sb 11.660842191571847 14.761170201952268 8.246503987332689
Sb 10.211736919010605 16.328852505063384 12.227386092941163
Sb 13.063602195718639 17.146873566391097 8.714288177488879
Sb 10.004622745841056 17.03449770629175 7.760233132834158
Sb 9.238371721145855 18.02281599743287 10.171929854495295
