35
Energy = -135.6016968 eV
Sb 13.049678746436957 7.5970356885903 14.569178343988801
Sb 11.812919899435768 8.893391335675458 5.358424562761422
Sb 7.927065938063309 12.521246806136702 11.5930179953947
Sb 7.6718097367967255 15.22765531481267 12.588509577947947
Sb 16.293192875459116 12.136482805930314 11.209778513497467
Sb 9.54573705465093 6.9505647582576815 8.300540046657103
Sb 8.58274722400763 15.957911566187592 9.942680850753744
Sb 14.675235717574635 10.16942475111936 8.518236779451358
Sb 10.950424206527698 9.15216274848139 16.027867935510724
Sb 13.990893008239949 7.823026128547051 6.881575431131613
Sb 10.720938823204087 13.374589999668126 8.58025707507393
Sb 13.174648125389753 14.871214042221457 10.965526951811407
Sb 13.184774520581424 12.380530353737786 7.29573315730138
Sb 10.916729552534067 13.419461804473816 13.532230408701484
Sb 10.129452136131711 8.857248465047471 12.553025217376943
Sb 7.083920042797663 10.630679361852598 13.609330249978013
Sb 13.463799254258403 12.392725655747963 14.493211981472038
Sb 11.835582441959708 12.29239510571433 11.025904466373659
Sb 12.972424456659411 9.307654910891005 10.62767878127662
Sb 10.80077628949953 9.535296142900359 7.996341007686164
Sb 15.167790707517842 14.217927249864532 12.977560373444986
Sb 9.442082619283905 11.500926299502739 15.103520249686158
Sb 8.837959143618411 11.516396666697648 7.367602878446289
Sb 5.469775740257292 12.374520043770094 10.207586488154256
Sb 15.054451974138896 13.746584923012216 9.084572959455087
Sb 8.91639236245544 7.544076996573243 14.861550402753819
Sb 14.635858398862828 10.340876301348336 12.783472828187403
Sb 6.3882553409087866 14.56201946753603 8.592003714572396
Sb 6.876506879051077 10.146217852187922 8.969577482620188
Sb 7.477372533074954 8.674854387080016 11.425930946683174
Sb 10.678194653055051 6.206580835283196 5.758038737445312
Sb 12.228276191187868 5.883786679262769 8.206317738147328
Sb 11.845070499733726 6.488846060835133 12.194340194540505
Sb 5.859342741622898 16.479688932836797 10.695743301834433
Sb 11.01147288562757 5.4975510778116785 14.774684610083446
