37
Energy = -143.61974361 eV
Sb 7.094168191646645 11.681437353910612 9.82721617648471
Sb 7.5087536612815855 11.157044481217769 15.205537985038934
Sb 7.6501029242264496 10.062624893195443 12.162409208096024
Sb 5.8228085337878985 13.964142635813564 11.071130512132394
Sb 8.977053372126832 13.616660403217743 15.436647885109954
Sb 10.009019915321748 13.648839345448353 6.750817477472931
Sb 9.430315133601315 9.082134915868023 15.735226663674789
Sb 11.083287385534055 13.081016592081326 17.332571850412712
Sb 12.65947503049734 12.560355602324474 6.570511915995373
Sb 7.926934118790493 15.227324547653097 12.584012805283864
Sb 7.741548589195608 15.655845835400203 9.74389486472243
Sb 10.413353047537655 10.606306158299489 12.470290039062524
Sb 10.341151867878462 13.567270476073208 12.84769056787531
Sb 10.609312455113615 10.05689806435595 9.623234834661883
Sb 10.545024557660225 10.350605251405424 18.067408161978623
Sb 9.475308807760488 13.320435456443397 9.560240986195605
Sb 13.183055542468523 11.302693643170562 9.165551087136537
Sb 12.292834646247877 15.298611553042504 7.429939433999544
Sb 14.185104112519722 14.050991451099588 13.610020238878088
Sb 12.704305603157968 12.009153297594544 15.25357580466287
Sb 12.913699290121746 14.333877098764 10.118498161109972
Sb 13.659426359306915 16.479774691519566 11.964741615820005
Sb 12.42668221471716 7.707407934724165 9.888931583256596
Sb 13.570297673941548 8.438559359207364 12.389759548500926
Sb 15.079199830351858 10.95990703709782 12.620926079468934
Sb 14.261482994681703 8.893018962447515 8.001802934921681
Sb 15.791375062230813 15.654187398967737 15.373506846266933
Sb 14.943101876423341 11.35826388405486 16.96512718004397
Sb 16.784773831555437 13.555800596448886 17.05341747194585
Sb 16.396674297999038 8.355181264986648 12.006726864008922
Sb 17.062135282176964 11.470448369331105 15.002532022506383
Sb 17.268995167058403 14.225656253433385 13.321590095480314
Sb 15.638555497815945 14.158376671834828 9.090537321887968
Sb 16.360389013496086 16.091874716263813 11.157568132505391
Sb 16.84110367170421 11.970708644768049 10.556686588304872
Sb 16.807077224529294 9.299772238240326 9.309301518007125
Sb 7.734693766225962 9.939373470985407 17.92299808777929
