49
Energy = -190.13929067 eV
Sb 22.21400682496403 16.774392717501517 9.989822508291985
Sb 20.17816048897398 15.107765970302278 8.76979790353026
Sb 22.892049718935905 14.594582871465922 11.791808461473813
Sb 20.884623730955507 12.91803086017161 10.544281283560453
Sb 12.571393035548734 12.882365142476926 12.833614708082434
Sb 19.745331079625792 18.05387397118627 10.670565078405211
Sb 18.90143781580948 19.58697747600705 13.026721891292583
Sb 14.499269148765153 15.040933202395014 13.250930874888935
Sb 17.99132665888737 15.813366986991872 10.859718980336105
Sb 11.437043943903571 18.361565686558652 14.031071718366933
Sb 13.072019562919401 17.189899925792474 11.900689582873879
Sb 11.063910220030657 14.636861948477947 14.602345595165469
Sb 21.032609078097856 15.476749373990213 13.843838367665516
Sb 15.462767460481254 18.834806156819486 11.89535616012251
Sb 13.622123013547153 11.777546929862552 15.300408945048549
Sb 19.019905240244697 13.79675191731883 12.669610986879364
Sb 17.20438421005918 17.314912131612715 13.624388150569144
Sb 16.45497625669347 11.528287372519685 14.718689333820082
Sb 20.841542589984055 19.486043017748095 15.142313570087808
Sb 13.594170116798193 14.606851668383442 16.051876109230363
Sb 12.253629615322357 21.143704682626698 14.519899187472332
Sb 9.395345087952943 13.177899614286753 16.48574276132342
Sb 22.0172445850641 13.629889872219737 15.835976565073183
Sb 13.655592396799193 17.96081152434529 15.82375051860338
Sb 12.286303573220263 14.173434250842826 19.218443379473904
Sb 15.006739132315108 20.11611033356049 14.41809668422257
Sb 19.706558788151728 17.181814929580806 16.468328120921548
Sb 17.04980633255767 10.901880017301506 17.486223248348125
Sb 17.23624329697852 14.215541858235971 15.54023935033071
Sb 11.349443437146517 11.70596954623498 18.018275419877217
Sb 12.54542737005504 20.232795142630184 17.2895974565026
Sb 19.083849846117037 20.984073939130397 16.950343167544773
Sb 21.62259435530411 15.573497119766722 17.899204485741596
Sb 15.134912950773039 21.19108847162768 18.254456641185595
Sb 9.938924120229904 15.540246866935856 18.0913136992999
Sb 19.351787769752146 12.833836964072255 16.944147817273862
Sb 16.780028077275993 19.287821494437203 16.727202213784473
Sb 19.898240895648208 18.872428678615794 18.804191351167333
Sb 10.502985102592598 12.374339630788915 20.73946877275311
Sb 15.332886989644607 16.841532090203447 19.138800063740693
Sb 16.28238846492701 13.531930956282043 18.30212752653879
Sb 19.178132559449917 14.418716768526886 19.405768956341646
Sb 8.77955327015688 14.601169156832452 20.525999186724462
Sb 14.145485880000887 19.238721684639007 20.16849262596953
Sb 18.030729737614436 17.08469702181048 20.153624835103113
Sb 14.783437394859265 15.496744324178854 21.665377196166077
Sb 15.494448112322152 19.553888135950114 22.700011894464136
Sb 16.682231169791987 16.99642263548589 23.298417323889133
Sb 13.834783480050744 17.399210948566147 23.651413327770648
