49
Energy = -190.5938719 eV
Sb 12.948628632189845 11.692650596106134 10.226340484662694
Sb 20.68256613364094 17.15053523245028 10.93289290487708
Sb 13.901794704243441 14.33311617912557 9.793765176972183
Sb 15.99662986259881 17.07703695297052 10.634274757412449
Sb 19.302276025667588 19.63712678261695 11.147515619983466
Sb 11.303987497306183 12.520208057314786 12.532641044962963
Sb 22.08758450306616 16.70203458042755 13.430715376358068
Sb 11.878689010996952 15.72402905862411 11.7710439395922
Sb 14.856054462884552 10.798988284056813 12.227314121248284
Sb 16.804897469023928 13.717203728603215 14.759907902802373
Sb 14.78216113320971 19.577557649553317 11.358486863156013
Sb 20.004995924002593 14.709347155618334 14.092075751459227
Sb 12.028164776114178 18.668419054093768 11.534614497949189
Sb 8.719126834123191 13.363252877441427 13.79058444700578
Sb 9.653304802328815 16.028626461954662 14.048499750983924
Sb 20.119797427449857 21.015594721400994 13.522357382053919
Sb 10.468782255646996 9.765092499528945 12.620175569113002
Sb 13.116075997561502 8.563426104723343 12.801930233824457
Sb 18.20372521168879 17.356233225233506 12.483717078274433
Sb 14.67080319164271 15.21058206184909 12.422319127171738
Sb 21.629484758974705 19.08072599868416 14.987285705020387
Sb 10.664809425179852 12.415968917368037 15.738349325521426
Sb 14.1199439533352 12.580870822241137 14.411760027781678
Sb 10.175245233948804 9.568742842945031 15.532353381803047
Sb 12.846509653155653 8.377105330717317 15.682127570367285
Sb 11.82450999643827 19.98387189495219 14.096007639687526
Sb 16.234281476492306 17.52450805234677 15.208445739362775
Sb 15.02786629918249 20.041065422741035 14.200359302611341
Sb 17.579371990242688 21.48089863651447 14.856737185432022
Sb 18.73654600719145 15.958099660364638 16.37322087870775
Sb 18.28122220975887 11.250896877456112 14.912310539027349
Sb 20.652388495012435 12.529786513091098 16.00933769770256
Sb 14.264918757829498 10.686259689349898 16.64151191263892
Sb 11.901765647787244 15.74635681589217 15.825587507827805
Sb 10.173640665865019 12.6083649080286 18.61320592192034
Sb 11.294257478894327 18.521551099952823 16.332745103922395
Sb 14.89225295993767 15.952026224918905 17.333550378924333
Sb 20.086662598861505 18.368043567112636 17.300293177902827
Sb 17.46797169814033 19.527621386817245 16.95387476477989
Sb 19.477524964609007 13.905669477154692 18.292921374160166
Sb 17.057483926448846 10.224922142351303 17.3590405321971
Sb 10.381067173304249 15.476094966776584 18.34481943166898
Sb 12.98780570234699 13.106864498081238 18.09907222983584
Sb 16.73587855152316 13.068871980128414 17.975552061912648
Sb 13.997892248596246 17.69259678482377 19.42006331224178
Sb 12.19846817072651 15.808696624198033 20.652381548822284
Sb 16.614503019568957 16.49239090951019 19.68040225719357
Sb 16.33578728926396 13.863750777777065 20.827202059035027
Sb 13.540548831954215 13.256970953968983 20.918964442085326
