47
Energy = -182.90849132 eV
Sb 17.49951266327127 17.44159309582125 10.004280227049096
Sb 15.301037193122673 15.675128355768628 9.452021705712575
Sb 13.081938822086835 17.439671142047164 10.012162668134817
Sb 13.8425701171247 19.54036887738539 11.80242043736128
Sb 12.588133315020274 13.12058393039554 11.170487733420039
Sb 15.271515009862016 13.969390912005043 11.893038932448297
Sb 16.493911669689613 11.330157375684067 11.779127686134492
Sb 16.69492400644729 19.317023733072833 12.049873274780108
Sb 18.309368619770584 15.428793362852025 11.98836050560817
Sb 11.996090947032865 15.749976487794513 12.124695429167263
Sb 22.639245071806144 15.995377438125535 11.030991032359344
Sb 18.015273946985488 12.704105302819853 13.914811598133374
Sb 12.988392102446246 18.701261477050036 14.574684314551915
Sb 12.038133339073271 11.902008268685568 13.708306963918025
Sb 14.083889041897347 16.10225501560131 14.131605670691117
Sb 14.64325131773615 10.543488878525334 13.914804786450112
Sb 19.690967441409263 18.484736300816778 15.145001244312965
Sb 15.604748015468674 12.676263452143719 15.583262455385151
Sb 20.090262548181165 11.307097910795926 15.285828635095665
Sb 9.399694147720213 15.982349709219207 13.196924403748142
Sb 17.243446106057675 17.43387423794694 14.223792724430155
Sb 20.751954447278077 16.360605200895954 13.255875275981515
Sb 20.65772243659148 14.040807071021623 10.547212191350102
Sb 22.199373302824526 13.833815280820486 12.917360839207188
Sb 15.760927367334853 19.329669445162565 16.388963856430966
Sb 10.162850585801975 17.917276746238592 15.149886534695606
Sb 10.02585954377951 15.256253568312646 16.162939821762716
Sb 18.179339889608695 19.674240413264364 17.98996344014571
Sb 20.41730547348622 13.399399586330942 17.00146839136346
Sb 14.792304237968166 16.77808790890267 17.412767011772132
Sb 15.070144955871724 11.024633323648636 17.95210778335545
Sb 12.248359972667116 11.538524531451813 17.573654037465737
Sb 12.628948872351499 13.963600318925934 15.737639486422971
Sb 18.044790274105612 15.030730940372797 16.715267842732523
Sb 19.587818589648478 17.174081019709718 17.97827711833229
Sb 12.530281554104272 18.389383383639863 18.176707726115225
Sb 14.226990777909956 20.701497170886487 18.599510957904258
Sb 16.361262498105326 19.861032804470184 20.323546758824524
Sb 15.17440485832367 13.670133589468842 18.997938040025005
Sb 10.212698753789493 15.063941275547101 19.37832833675028
Sb 18.485464876311184 16.046838832259898 20.746565255672955
Sb 11.510740516655124 12.669891087897275 20.189384166877748
Sb 18.0719365649638 13.585527926985007 19.355988958513063
Sb 11.55880643489577 17.203041450856418 20.666350599543915
Sb 15.918851873117378 17.053335957993767 20.13784342159792
Sb 13.969286956183552 13.340204242829115 21.57040766232018
Sb 13.87391071490218 16.186583428340636 22.026203826734996
