55
Energy = -213.67812666 eV
Sb 19.14916911789269 14.889959049394554 9.903919203693572
Sb 20.16238843342167 19.36118401068238 10.241241560662985
Sb 18.15174929018008 17.5404501241775 9.242537028998566
Sb 21.934891869697243 14.398101520607023 10.508126437730853
Sb 12.498714725758207 17.87554279190928 11.427941328767446
Sb 14.316370798715345 15.80155633450898 10.476240369883914
Sb 14.842647480483196 19.563001954889753 11.524801982701272
Sb 18.056287326700186 14.03159018226665 12.656358356857638
Sb 19.086596359008812 21.114666605869957 12.328137894062444
Sb 20.728615569155547 12.702743105922627 12.515823947760712
Sb 20.788029156655746 17.851040571683775 12.61339871151888
Sb 15.41762425836026 20.81160770662051 14.08162351655422
Sb 23.225334275304284 16.63305036532187 11.810859408273476
Sb 17.009728973378174 11.177140568514256 12.711467427429342
Sb 14.227288639827155 11.916179208946824 12.746140808720753
Sb 16.58024876331206 17.211427951256667 11.634540843016776
Sb 17.812830559669163 19.17024794958935 14.134213663786085
Sb 11.883369068998288 15.971445516718763 13.544256171866037
Sb 18.81393504768064 15.820812773992522 14.843405310621744
Sb 21.80880831433319 20.484595746254712 13.135248706270572
Sb 11.814339776565012 11.265798761564895 15.223922712889596
Sb 14.540715591705055 14.790582687329302 13.194549161253581
Sb 22.18333502757902 13.316288679097152 14.900814796918278
Sb 13.262996459673825 13.587188208322882 16.470235894522062
Sb 10.405843594312742 14.283728009905431 16.501174985726514
Sb 23.73980344650902 15.68072823150379 14.483667875672557
Sb 12.932107630367465 17.081021613610382 15.98999760069325
Sb 16.2199183452465 16.745545819421032 16.19622771460222
Sb 13.519162994905516 19.951529018951398 16.109684963140456
Sb 15.634866548420101 11.51189875880094 15.219120027218075
Sb 10.385896116570315 11.636044730845397 17.770911945402972
Sb 13.796389037219566 9.50181938842731 16.295774204346777
Sb 19.943435108202028 13.959897963206489 16.68282592904476
Sb 22.90202943429199 17.588322064950173 16.528209308950288
Sb 18.982957116148572 20.36029014033953 16.493126113123573
Sb 21.801726364964473 20.23560523843124 16.029157703307515
Sb 13.231265809845151 11.506494718678328 18.549379225492544
Sb 10.843242646538062 16.692503664210093 18.07277788474505
Sb 18.51726178875051 17.828829072048496 17.82768041829826
Sb 16.625841258969768 14.257544133023023 17.788932377613186
Sb 13.293755551071179 15.461023046626625 19.070824025819473
Sb 14.80064874010985 18.63622938084884 18.3753508334505
Sb 20.985226670664854 16.2341510391266 18.186173239083693
Sb 17.128341684112463 19.533549988687785 19.756659112684517
Sb 12.972233726931595 13.50378405033653 21.088115684582284
Sb 10.271687167798563 15.914952656617448 22.494824535277175
Sb 17.655889969234806 15.11400541183027 20.411519309940367
Sb 15.68592744165985 12.948873020639278 20.321257914873073
Sb 10.065540612430548 18.72907466967587 21.82406672367697
Sb 13.685587887068218 17.435611569834577 21.324456087348285
Sb 12.936733994188087 15.663441550445905 23.518107206236554
Sb 16.56520275295154 17.45781448533985 21.71676997259289
Sb 9.735030807085742 17.87545676163436 24.57262072911534
Sb 12.610760295034632 19.8383324549402 22.650148251208176
Sb 12.577513639989723 18.293538037267947 0.08645526915606258
