6
Energy = -20.32544906 eV
Sb 15.189121766434884 14.696870501343103 14.023783346809802
Sb 12.649926137487105 15.35879964606766 15.107993002565085
Sb 13.875266282806656 2.1305210371393204 14.543652199088234
Sb 14.923982725903798 12.248065590153839 15.27120504592525
Sb 13.078538413066191 0.6075318212327975 16.527328651320037
Sb 13.3347885691272 13.49308612872252 -0.07163164912167892
