unknown system                          
           1
    21.369843    0.000000    0.000000
     0.000000   21.369843    0.000000
     0.000000    0.000000   21.369843
   Ag
  23
Direct configuration=     1
   0.39527980  0.47070662  0.45890107
   0.57963845  0.31340349  0.41161326
   0.53143755  0.33894501  0.52152701
   0.48447798  0.39704676  0.42097675
   0.50419167  0.52448867  0.41955175
   0.49738830  0.64987110  0.42162114
   0.60693916  0.43726618  0.40536286
   0.59445690  0.65345205  0.61628687
   0.59619796  0.44804923  0.52968765
   0.47829125  0.49072904  0.55148015
   0.59335235  0.60238428  0.73133803
   0.61601592  0.57127159  0.51849184
   0.53065156  0.40458337  0.63273922
   0.30186799  0.52445143  0.51991576
   0.39178767  0.57017484  0.59564744
   0.62230494  0.55932617  0.39844864
   0.56872455  0.52524606  0.63279839
   0.61219310  0.68038967  0.37254169
   0.48147040  0.60950212  0.67020932
   0.53126954  0.28344241  0.62891785
   0.39468859  0.59789514  0.46833439
   0.59137194  0.69269024  0.49738588
   0.48485389  0.64339194  0.54743814
Direct configuration=     2
   0.39498865  0.47063651  0.45884837
   0.57975320  0.31318120  0.41148152
   0.53137309  0.33883005  0.52158751
   0.48452539  0.39695319  0.42087375
   0.50411127  0.52444061  0.41960138
   0.49746440  0.65006261  0.42136111
   0.60699470  0.43720297  0.40528659
   0.59453373  0.65354586  0.61639160
   0.59637962  0.44806530  0.52966817
   0.47825180  0.49073815  0.55139299
   0.59341180  0.60236265  0.73148908
   0.61602316  0.57127066  0.51873982
   0.53064932  0.40462473  0.63282773
   0.30164237  0.52449414  0.51996411
   0.39150242  0.57017769  0.59572971
   0.62247567  0.55942711  0.39810207
   0.56891384  0.52526209  0.63285266
   0.61218834  0.68053311  0.37247166
   0.48143836  0.60954805  0.67041561
   0.53126374  0.28308066  0.62912889
   0.39457467  0.59788938  0.46823626
   0.59151414  0.69296540  0.49728778
   0.48487778  0.64341526  0.54747674
Direct configuration=     3
   0.39411517  0.47042620  0.45869026
   0.58009744  0.31251435  0.41108628
   0.53117970  0.33848516  0.52176903
   0.48466764  0.39667248  0.42056473
   0.50387008  0.52429644  0.41975027
   0.49769269  0.65063715  0.42058102
   0.60716132  0.43701334  0.40505779
   0.59476424  0.65382729  0.61670578
   0.59692461  0.44811352  0.52960973
   0.47813348  0.49076550  0.55113149
   0.59359014  0.60229777  0.73194224
   0.61604487  0.57126789  0.51948378
   0.53064260  0.40474881  0.63309328
   0.30096550  0.52462226  0.52010913
   0.39064666  0.57018624  0.59597650
   0.62298785  0.55972994  0.39706234
   0.56948172  0.52531017  0.63301548
   0.61217407  0.68096343  0.37226158
   0.48134226  0.60968587  0.67103447
   0.53124633  0.28199541  0.62976201
   0.39423289  0.59787208  0.46794189
   0.59194075  0.69379086  0.49699349
   0.48494947  0.64348523  0.54759253
Direct configuration=     4
   0.39236822  0.47000557  0.45837405
   0.58078593  0.31118064  0.41029580
   0.53079291  0.33779540  0.52213207
   0.48495214  0.39611106  0.41994669
   0.50338768  0.52400810  0.42004805
   0.49814926  0.65178623  0.41902084
   0.60749455  0.43663409  0.40460018
   0.59522524  0.65439015  0.61733415
   0.59801458  0.44820995  0.52949285
   0.47789683  0.49082018  0.55060850
   0.59394682  0.60216800  0.73284857
   0.61608829  0.57126234  0.52097170
   0.53062915  0.40499698  0.63362436
   0.29961178  0.52487850  0.52039918
   0.38893515  0.57020333  0.59647010
   0.62401221  0.56033561  0.39498289
   0.57061747  0.52540635  0.63334111
   0.61214553  0.68182406  0.37184142
   0.48115005  0.60996149  0.67227220
   0.53121152  0.27982491  0.63102825
   0.39354934  0.59783748  0.46735313
   0.59279396  0.69544179  0.49640492
   0.48509283  0.64362517  0.54782411
Direct configuration=     5
   0.38887432  0.46916431  0.45774164
   0.58216291  0.30851323  0.40871484
   0.53001933  0.33641587  0.52285815
   0.48552115  0.39498823  0.41871061
   0.50242289  0.52343142  0.42064361
   0.49906241  0.65408438  0.41590048
   0.60816102  0.43587558  0.40368496
   0.59614725  0.65551586  0.61859087
   0.60019454  0.44840280  0.52925908
   0.47742352  0.49092955  0.54956251
   0.59466018  0.60190847  0.73466121
   0.61617514  0.57125125  0.52394753
   0.53060226  0.40549332  0.63468653
   0.29690433  0.52539097  0.52097929
   0.38551211  0.57023751  0.59745729
   0.62606093  0.56154695  0.39082398
   0.57288897  0.52559869  0.63399238
   0.61208844  0.68354532  0.37100109
   0.48076564  0.61051273  0.67474767
   0.53114191  0.27548391  0.63356072
   0.39218225  0.59776829  0.46617563
   0.59450038  0.69874365  0.49522777
   0.48537957  0.64390505  0.54828727
Direct configuration=     6
   0.39020167  0.46948391  0.45798189
   0.58163979  0.30952660  0.40931545
   0.53031322  0.33693996  0.52258231
   0.48530498  0.39541480  0.41918020
   0.50278942  0.52365051  0.42041736
   0.49871550  0.65321130  0.41708592
   0.60790783  0.43616374  0.40403266
   0.59579698  0.65508820  0.61811343
   0.59936636  0.44832954  0.52934789
   0.47760333  0.49088800  0.54995988
   0.59438917  0.60200707  0.73397258
   0.61614215  0.57125547  0.52281700
   0.53061247  0.40530476  0.63428300
   0.29793290  0.52519628  0.52075891
   0.38681254  0.57022453  0.59708225
   0.62528261  0.56108676  0.39240397
   0.57202602  0.52552562  0.63374496
   0.61211013  0.68289140  0.37132034
   0.48091168  0.61030331  0.67380723
   0.53116836  0.27713308  0.63259862
   0.39270162  0.59779458  0.46662297
   0.59385210  0.69748926  0.49567497
   0.48527064  0.64379872  0.54811132
Direct configuration=     7
   0.38979231  0.46894716  0.45766867
   0.58172091  0.30907220  0.40918194
   0.53035580  0.33651090  0.52303708
   0.48533782  0.39523404  0.41918964
   0.50287342  0.52389573  0.42064813
   0.49845873  0.65331915  0.41693702
   0.60803361  0.43620626  0.40385415
   0.59585730  0.65555247  0.61832410
   0.59951896  0.44795204  0.52936630
   0.47761916  0.49109022  0.54978682
   0.59450929  0.60194043  0.73450529
   0.61618322  0.57195058  0.52215453
   0.53069360  0.40455058  0.63412083
   0.29702958  0.52543530  0.52080671
   0.38663452  0.57048543  0.59736624
   0.62532323  0.56101300  0.39230592
   0.57224745  0.52563457  0.63408353
   0.61237248  0.68366080  0.37080304
   0.48075351  0.61013130  0.67402944
   0.53113235  0.27683078  0.63291187
   0.39296187  0.59788261  0.46640640
   0.59401294  0.69788800  0.49585047
   0.48542942  0.64352384  0.54787697
Direct configuration=     8
   0.38878645  0.46762829  0.45689904
   0.58192025  0.30795571  0.40885388
   0.53046044  0.33545666  0.52415450
   0.48541852  0.39478990  0.41921285
   0.50307982  0.52449828  0.42121517
   0.49782781  0.65358413  0.41657116
   0.60834266  0.43631075  0.40341553
   0.59600552  0.65669322  0.61884173
   0.59989393  0.44702450  0.52941154
   0.47765805  0.49158710  0.54936159
   0.59480442  0.60177669  0.73581423
   0.61628413  0.57365854  0.52052680
   0.53089293  0.40269748  0.63372234
   0.29481003  0.52602260  0.52092417
   0.38619710  0.57112648  0.59806403
   0.62542303  0.56083175  0.39206499
   0.57279152  0.52590229  0.63491542
   0.61301711  0.68555128  0.36953201
   0.48036487  0.60970865  0.67457546
   0.53104388  0.27608801  0.63368154
   0.39360132  0.59809891  0.46587429
   0.59440813  0.69886774  0.49628170
   0.48581955  0.64284842  0.54730116
Direct configuration=     9
   0.38848415  0.46744079  0.45685024
   0.58167617  0.30792465  0.40915875
   0.53071094  0.33488943  0.52391868
   0.48570166  0.39469872  0.41965652
   0.50319591  0.52462775  0.42157453
   0.49810938  0.65382480  0.41654150
   0.60826602  0.43620864  0.40335346
   0.59579913  0.65688697  0.61910093
   0.59974028  0.44718351  0.52956655
   0.47785174  0.49190041  0.54939455
   0.59472960  0.60177789  0.73605537
   0.61594396  0.57397349  0.51982606
   0.53114117  0.40231578  0.63339341
   0.29469016  0.52643416  0.52072442
   0.38607764  0.57134229  0.59788590
   0.62520777  0.56124566  0.39213155
   0.57279492  0.52577207  0.63466298
   0.61310242  0.68608943  0.36946521
   0.48047752  0.60939072  0.67451200
   0.53096588  0.27576737  0.63403835
   0.39368562  0.59760678  0.46602669
   0.59427905  0.69919436  0.49624296
   0.48622039  0.64221173  0.54713450
Direct configuration=    10
   0.38757725  0.46687827  0.45670386
   0.58094394  0.30783145  0.41007334
   0.53146245  0.33318774  0.52321122
   0.48655109  0.39442521  0.42098754
   0.50354417  0.52501616  0.42265259
   0.49895407  0.65454679  0.41645251
   0.60803608  0.43590231  0.40316727
   0.59517994  0.65746821  0.61987853
   0.59927935  0.44766053  0.53003157
   0.47843284  0.49284037  0.54949345
   0.59450515  0.60178147  0.73677877
   0.61492345  0.57491833  0.51772386
   0.53188588  0.40117068  0.63240662
   0.29433055  0.52766887  0.52012516
   0.38571923  0.57198971  0.59735152
   0.62456200  0.56248737  0.39233123
   0.57280511  0.52538140  0.63390567
   0.61335835  0.68770386  0.36926484
   0.48081546  0.60843693  0.67432164
   0.53073186  0.27480544  0.63510875
   0.39393851  0.59613041  0.46648389
   0.59389181  0.70017423  0.49612676
   0.48742292  0.64030164  0.54663453
Direct configuration=    11
   0.38731096  0.46671310  0.45666088
   0.58072894  0.30780408  0.41034189
   0.53168311  0.33268808  0.52300349
   0.48680050  0.39434490  0.42137836
   0.50364642  0.52513020  0.42296914
   0.49920210  0.65475878  0.41642638
   0.60796857  0.43581236  0.40311260
   0.59499813  0.65763888  0.62010685
   0.59914401  0.44780060  0.53016811
   0.47860347  0.49311636  0.54952249
   0.59443925  0.60178253  0.73699118
   0.61462381  0.57519577  0.51710660
   0.53210455  0.40083444  0.63211687
   0.29422496  0.52803141  0.51994920
   0.38561399  0.57217981  0.59719461
   0.62437239  0.56285196  0.39238986
   0.57280810  0.52526669  0.63368331
   0.61343350  0.68817790  0.36920600
   0.48091469  0.60815687  0.67426575
   0.53066314  0.27452299  0.63542305
   0.39401276  0.59569691  0.46661814
   0.59377811  0.70046194  0.49609264
   0.48777601  0.63974079  0.54648772
Direct configuration=    12
   0.38725534  0.46642962  0.45670725
   0.58072447  0.30760568  0.41044923
   0.53203423  0.33183489  0.52337612
   0.48671865  0.39467943  0.42195240
   0.50368485  0.52514945  0.42344239
   0.49936177  0.65486631  0.41644499
   0.60795679  0.43602616  0.40309512
   0.59479490  0.65768250  0.62019196
   0.59904739  0.44802700  0.53005704
   0.47848980  0.49347617  0.54956841
   0.59428085  0.60167421  0.73697300
   0.61402029  0.57546254  0.51685677
   0.53240675  0.40048255  0.63177482
   0.29415830  0.52848098  0.51965208
   0.38549569  0.57240652  0.59706149
   0.62406982  0.56326590  0.39205852
   0.57297246  0.52530550  0.63350377
   0.61359464  0.68874730  0.36924086
   0.48098513  0.60773092  0.67411682
   0.53054482  0.27425521  0.63559995
   0.39434247  0.59528902  0.46662725
   0.59365517  0.70092894  0.49619231
   0.48825689  0.63890059  0.54627258
Direct configuration=    13
   0.38708850  0.46557916  0.45684637
   0.58071103  0.30701046  0.41077125
   0.53308760  0.32927531  0.52449401
   0.48647309  0.39568303  0.42367452
   0.50380014  0.52520721  0.42486215
   0.49984079  0.65518891  0.41650083
   0.60792146  0.43666754  0.40304269
   0.59418523  0.65781334  0.62044728
   0.59875753  0.44870621  0.52972381
   0.47814879  0.49455560  0.54970614
   0.59380565  0.60134924  0.73691847
   0.61220976  0.57626288  0.51610729
   0.53331336  0.39942686  0.63074867
   0.29395832  0.52982969  0.51876069
   0.38514077  0.57308665  0.59666213
   0.62316212  0.56450770  0.39106450
   0.57346552  0.52542192  0.63296515
   0.61407806  0.69045550  0.36934545
   0.48119645  0.60645308  0.67367004
   0.53018983  0.27345185  0.63613065
   0.39533159  0.59406535  0.46665457
   0.59328636  0.70232992  0.49649132
   0.48969950  0.63638001  0.54562716
Direct configuration=    14
   0.38675481  0.46387824  0.45712461
   0.58068417  0.30582004  0.41141528
   0.53519433  0.32415615  0.52672978
   0.48598197  0.39769021  0.42711876
   0.50403072  0.52532271  0.42770166
   0.50079883  0.65583410  0.41661250
   0.60785081  0.43795030  0.40293782
   0.59296590  0.65807502  0.62095791
   0.59817781  0.45006462  0.52905737
   0.47746679  0.49671445  0.54998161
   0.59285525  0.60069931  0.73680939
   0.60858868  0.57786356  0.51460832
   0.53512657  0.39731548  0.62869638
   0.29355836  0.53252710  0.51697793
   0.38443095  0.57444691  0.59586341
   0.62134672  0.56699129  0.38907646
   0.57445166  0.52565476  0.63188791
   0.61504490  0.69387189  0.36955461
   0.48161908  0.60389739  0.67277648
   0.52947986  0.27184513  0.63719205
   0.39730983  0.59161802  0.46670922
   0.59254875  0.70513189  0.49708935
   0.49258474  0.63133883  0.54433631
Direct configuration=    15
   0.38698584  0.46505586  0.45693197
   0.58070277  0.30664422  0.41096939
   0.53373574  0.32770038  0.52518185
   0.48632200  0.39630055  0.42473416
   0.50387108  0.52524274  0.42573574
   0.50013554  0.65538740  0.41653518
   0.60789973  0.43706218  0.40301043
   0.59381010  0.65789384  0.62060438
   0.59857917  0.44912413  0.52951878
   0.47793897  0.49521978  0.54979089
   0.59351326  0.60114929  0.73688491
   0.61109572  0.57675534  0.51564612
   0.53387120  0.39877728  0.63011728
   0.29383527  0.53065956  0.51821222
   0.38492239  0.57350514  0.59641640
   0.62260360  0.56527179  0.39045287
   0.57376891  0.52549355  0.63263373
   0.61437551  0.69150657  0.36940980
   0.48132647  0.60566681  0.67339513
   0.52997140  0.27295753  0.63645719
   0.39594020  0.59331242  0.46667138
   0.59305943  0.70319196  0.49667531
   0.49058716  0.63482907  0.54523003
Direct configuration=    16
   0.38657631  0.46477422  0.45738149
   0.58078143  0.30674683  0.41100481
   0.53443715  0.32637244  0.52527054
   0.48684140  0.39625564  0.42625410
   0.50414199  0.52534056  0.42621651
   0.50033872  0.65530625  0.41643052
   0.60786495  0.43767849  0.40287618
   0.59382642  0.65796619  0.62045658
   0.59835032  0.44918903  0.52879974
   0.47740231  0.49530610  0.55029009
   0.59332845  0.60074796  0.73660589
   0.60997828  0.57710044  0.51555898
   0.53435432  0.39885657  0.62990489
   0.29379149  0.53149525  0.51747482
   0.38450310  0.57387284  0.59651174
   0.62196065  0.56590046  0.38942081
   0.57432564  0.52538348  0.63262195
   0.61469240  0.69234422  0.36972862
   0.48105249  0.60496647  0.67313953
   0.52968078  0.27226063  0.63708065
   0.39651738  0.59318042  0.46621124
   0.59298420  0.70411704  0.49707674
   0.49112128  0.63354587  0.54489871
Direct configuration=    17
   0.38534775  0.46392930  0.45873003
   0.58101742  0.30705463  0.41111109
   0.53654137  0.32238864  0.52553660
   0.48839962  0.39612090  0.43081394
   0.50495470  0.52563401  0.42765882
   0.50094827  0.65506278  0.41611652
   0.60776062  0.43952742  0.40247344
   0.59387539  0.65818324  0.62001318
   0.59766376  0.44938373  0.52664264
   0.47579233  0.49556509  0.55178771
   0.59277402  0.59954396  0.73576882
   0.60662599  0.57813575  0.51529755
   0.53580367  0.39909443  0.62926771
   0.29366015  0.53400233  0.51526262
   0.38324524  0.57497596  0.59679776
   0.62003179  0.56778649  0.38632466
   0.57599581  0.52505325  0.63258659
   0.61564307  0.69485716  0.37068507
   0.48023053  0.60286545  0.67237271
   0.52880892  0.27016990  0.63895104
   0.39824889  0.59278442  0.46483081
   0.59275849  0.70689228  0.49828105
   0.49272365  0.62969626  0.54390476
Direct configuration=    18
   0.38508205  0.46367293  0.45947768
   0.58137087  0.30748801  0.41079540
   0.53731254  0.32105771  0.52621232
   0.48904801  0.39606008  0.43279079
   0.50527160  0.52544187  0.42802501
   0.50153469  0.65505638  0.41583570
   0.60781534  0.44023740  0.40178253
   0.59406123  0.65827310  0.61995150
   0.59703839  0.44926411  0.52604368
   0.47522753  0.49501653  0.55262327
   0.59265543  0.59902516  0.73546215
   0.60618878  0.57820710  0.51460474
   0.53628277  0.39895521  0.62904145
   0.29360256  0.53502862  0.51424489
   0.38247797  0.57534786  0.59676059
   0.61933521  0.56853336  0.38526854
   0.57667023  0.52461405  0.63246493
   0.61592453  0.69565095  0.37129898
   0.47996730  0.60215632  0.67212528
   0.52837538  0.26991841  0.63966140
   0.39838477  0.59292426  0.46419699
   0.59262873  0.70775279  0.49871095
   0.49259554  0.62902519  0.54383637
Direct configuration=    19
   0.38428496  0.46290383  0.46172061
   0.58243122  0.30878812  0.40984834
   0.53962605  0.31706492  0.52823947
   0.49099320  0.39587761  0.43872134
   0.50622230  0.52486544  0.42912356
   0.50329394  0.65503717  0.41499324
   0.60797949  0.44236734  0.39970978
   0.59461878  0.65854268  0.61976645
   0.59516227  0.44890526  0.52424683
   0.47353313  0.49337087  0.55512994
   0.59229965  0.59746878  0.73454211
   0.60487715  0.57842114  0.51252629
   0.53772009  0.39853754  0.62836268
   0.29342976  0.53810749  0.51119171
   0.38017617  0.57646356  0.59664910
   0.61724546  0.57077395  0.38210019
   0.57869347  0.52329645  0.63209995
   0.61676889  0.69803230  0.37314070
   0.47917763  0.60002892  0.67138298
   0.52707479  0.26916396  0.64179248
   0.39879239  0.59334378  0.46229552
   0.59223945  0.71033430  0.50000067
   0.49221123  0.62701196  0.54363121
Direct configuration=    20
   0.38269078  0.46136562  0.46620647
   0.58455193  0.31138836  0.40795423
   0.54425306  0.30907935  0.53229377
   0.49488356  0.39551268  0.45058243
   0.50812370  0.52371258  0.43132068
   0.50681245  0.65499875  0.41330832
   0.60830779  0.44662722  0.39556429
   0.59573386  0.65908184  0.61939635
   0.59141002  0.44818756  0.52065312
   0.47014433  0.49007955  0.56014328
   0.59158811  0.59435602  0.73270203
   0.60225390  0.57884923  0.50836939
   0.54059471  0.39770220  0.62700512
   0.29308418  0.54426523  0.50508534
   0.37557256  0.57869497  0.59642610
   0.61306597  0.57525514  0.37576348
   0.58273996  0.52066127  0.63136999
   0.61845762  0.70279499  0.37682413
   0.47759828  0.59577414  0.66989838
   0.52447359  0.26765504  0.64605465
   0.39960763  0.59418283  0.45849259
   0.59146089  0.71549732  0.50258009
   0.49144261  0.62298550  0.54322088
Direct configuration=    21
   0.38377019  0.46240713  0.46316914
   0.58311602  0.30962777  0.40923672
   0.54112016  0.31448630  0.52954865
   0.49224943  0.39575977  0.44255141
   0.50683628  0.52449317  0.42983303
   0.50443010  0.65502477  0.41444916
   0.60808550  0.44374290  0.39837116
   0.59497885  0.65871678  0.61964694
   0.59395063  0.44867351  0.52308638
   0.47243885  0.49230807  0.55674880
   0.59206989  0.59646364  0.73394793
   0.60403008  0.57855938  0.51118398
   0.53864833  0.39826780  0.62792431
   0.29331817  0.54009589  0.50921990
   0.37868962  0.57718411  0.59657709
   0.61589586  0.57222097  0.38005400
   0.58000013  0.52244552  0.63186424
   0.61731420  0.69957022  0.37433011
   0.47866764  0.59865501  0.67090358
   0.52623483  0.26867671  0.64316878
   0.39905564  0.59361472  0.46106752
   0.59198804  0.71200149  0.50083359
   0.49196303  0.62571177  0.54349871
Direct configuration=    22
   0.38460454  0.46220136  0.46468098
   0.58369284  0.31140478  0.40938660
   0.54294623  0.31211248  0.53002184
   0.49276246  0.39613559  0.44623698
   0.50642650  0.52387446  0.43085185
   0.50548309  0.65458413  0.41461803
   0.60819254  0.44469160  0.39621409
   0.59483514  0.65791544  0.61930890
   0.59245673  0.44838007  0.52233428
   0.47161746  0.49100378  0.55851017
   0.59191996  0.59583083  0.73365187
   0.60554892  0.57855756  0.50918384
   0.53912000  0.39686674  0.62815877
   0.29249066  0.54171788  0.50754270
   0.37773958  0.57768340  0.59556899
   0.61495559  0.57357297  0.37858120
   0.58104507  0.52179785  0.63052373
   0.61799450  0.70115573  0.37548414
   0.47898044  0.59689190  0.67013398
   0.52529925  0.26922129  0.64480935
   0.39901560  0.59412801  0.45973010
   0.59125085  0.71231846  0.50175597
   0.49047350  0.62666106  0.54392677
Direct configuration=    23
   0.38611144  0.46182975  0.46741145
   0.58473462  0.31461418  0.40965731
   0.54624422  0.30782522  0.53087645
   0.49368902  0.39681433  0.45289336
   0.50568640  0.52275703  0.43269188
   0.50738485  0.65378830  0.41492301
   0.60838585  0.44640503  0.39231829
   0.59457558  0.65646816  0.61869837
   0.58975867  0.44785009  0.52097593
   0.47013397  0.48864814  0.56169133
   0.59164919  0.59468794  0.73311718
   0.60829206  0.57855428  0.50557147
   0.53997187  0.39433635  0.62858223
   0.29099612  0.54464730  0.50451356
   0.37602377  0.57858516  0.59374830
   0.61325741  0.57601478  0.37592122
   0.58293231  0.52062812  0.62810267
   0.61922316  0.70401928  0.37756838
   0.47954537  0.59370762  0.66874402
   0.52360954  0.27020482  0.64777231
   0.39894330  0.59505506  0.45731465
   0.58991944  0.71289093  0.50342185
   0.48778330  0.62837554  0.54469987
Direct configuration=    24
   0.38576409  0.46345925  0.46882429
   0.58506280  0.31757929  0.41104758
   0.54856674  0.30560912  0.53137939
   0.49332720  0.39527298  0.45510037
   0.50523457  0.52312224  0.43350727
   0.50844449  0.65273813  0.41608971
   0.60744238  0.44733343  0.39108731
   0.59386598  0.65387941  0.61810085
   0.59036944  0.44812845  0.52022883
   0.46983512  0.48871995  0.56414798
   0.59160005  0.59393213  0.73258365
   0.60933621  0.57936222  0.50464064
   0.54039199  0.39351629  0.62893462
   0.29012376  0.54578378  0.50234916
   0.37620515  0.57852567  0.59193006
   0.61211585  0.57669249  0.37495373
   0.58355273  0.52041496  0.62639425
   0.61987923  0.70537529  0.37908858
   0.47996211  0.59111614  0.66753968
   0.52269915  0.27088470  0.64938437
   0.39845996  0.59554076  0.45577893
   0.58860159  0.71165533  0.50408828
   0.48801088  0.63006538  0.54403558
Direct configuration=    25
   0.38528764  0.46569437  0.47076221
   0.58551295  0.32164642  0.41295457
   0.55175244  0.30256938  0.53206925
   0.49283090  0.39315876  0.45812764
   0.50461481  0.52362318  0.43462569
   0.50989795  0.65129765  0.41769003
   0.60614826  0.44860687  0.38939882
   0.59289264  0.65032851  0.61728125
   0.59120722  0.44851026  0.51920407
   0.46942519  0.48881846  0.56751767
   0.59153266  0.59289543  0.73185184
   0.61076844  0.58047045  0.50336386
   0.54096825  0.39239144  0.62941799
   0.28892719  0.54734264  0.49938032
   0.37645394  0.57844408  0.58943605
   0.61055000  0.57762209  0.37362667
   0.58440373  0.52012258  0.62405088
   0.62077914  0.70723529  0.38117377
   0.48053374  0.58756151  0.66588773
   0.52145039  0.27181727  0.65159556
   0.39779699  0.59620698  0.45367244
   0.58679395  0.70996050  0.50500240
   0.48832304  0.63238327  0.54312439
Direct configuration=    26
   0.38548692  0.46475954  0.46995168
   0.58532468  0.31994536  0.41215698
   0.55042004  0.30384074  0.53178072
   0.49303848  0.39404302  0.45686150
   0.50487402  0.52341366  0.43415792
   0.50929005  0.65190013  0.41702070
   0.60668952  0.44807426  0.39010502
   0.59329973  0.65181366  0.61762405
   0.59085682  0.44835057  0.51963267
   0.46959664  0.48877726  0.56610831
   0.59156085  0.59332902  0.73215792
   0.61016942  0.58000694  0.50389787
   0.54072724  0.39286190  0.62921582
   0.28942765  0.54669066  0.50062202
   0.37634989  0.57847821  0.59047916
   0.61120491  0.57723329  0.37418171
   0.58404780  0.52024486  0.62503098
   0.62040276  0.70645736  0.38030165
   0.48029466  0.58904821  0.66657865
   0.52197268  0.27142723  0.65067074
   0.39807427  0.59592833  0.45455347
   0.58754998  0.71066935  0.50462008
   0.48819248  0.63141382  0.54350549
Direct configuration=    27
   0.38571357  0.46671680  0.47112918
   0.58673779  0.32263950  0.41356574
   0.55182580  0.30239540  0.53408668
   0.48991668  0.39409420  0.45798325
   0.50449562  0.52215901  0.43515188
   0.50969247  0.65189791  0.41678960
   0.60488615  0.44931505  0.39015776
   0.59339316  0.64955235  0.61781331
   0.59269159  0.44857805  0.51887827
   0.47039564  0.48913053  0.56768470
   0.59170320  0.59224937  0.73159669
   0.61052087  0.58028774  0.50370840
   0.54161974  0.39409083  0.62822309
   0.28856147  0.54740435  0.49903901
   0.37718151  0.57792936  0.58812231
   0.61030117  0.57726253  0.37343994
   0.58512810  0.51940417  0.62435860
   0.62068636  0.70659246  0.38155338
   0.47990146  0.58633573  0.66516576
   0.52148692  0.27137468  0.65166672
   0.39762994  0.59705127  0.45371009
   0.58674961  0.71053406  0.50483803
   0.48763263  0.63171207  0.54255274
Direct configuration=    28
   0.38582708  0.46769695  0.47171884
   0.58744545  0.32398867  0.41427121
   0.55252977  0.30167160  0.53524145
   0.48835334  0.39411982  0.45854500
   0.50430613  0.52153070  0.43564964
   0.50989400  0.65189680  0.41667386
   0.60398307  0.44993641  0.39018417
   0.59343995  0.64841993  0.61790808
   0.59361040  0.44869196  0.51850049
   0.47079576  0.48930744  0.56847412
   0.59177449  0.59170870  0.73131564
   0.61069687  0.58042835  0.50361351
   0.54206669  0.39470625  0.62772595
   0.28812770  0.54776175  0.49824627
   0.37759798  0.57765451  0.58694205
   0.60984860  0.57727718  0.37306847
   0.58566909  0.51898317  0.62402189
   0.62082838  0.70666011  0.38218022
   0.47970456  0.58497738  0.66445822
   0.52124366  0.27134836  0.65216549
   0.39740743  0.59761361  0.45328775
   0.58634880  0.71046630  0.50494718
   0.48735227  0.63186143  0.54207562
Direct configuration=    29
   0.38525577  0.47009121  0.47361360
   0.58835622  0.32689520  0.41758748
   0.55333483  0.30175614  0.53611563
   0.48679787  0.39337787  0.46051304
   0.50363871  0.52127570  0.43700087
   0.50919955  0.65196523  0.41524556
   0.60228840  0.45103366  0.39011412
   0.59380001  0.64741269  0.61742522
   0.59484973  0.44772137  0.51692529
   0.47251933  0.48891082  0.56848504
   0.59163250  0.59007611  0.73105652
   0.61050299  0.58029384  0.50332343
   0.54348420  0.39517742  0.62666222
   0.28719613  0.54855142  0.49713892
   0.37725690  0.57644061  0.58366674
   0.60900345  0.57728591  0.37254210
   0.58788492  0.51792126  0.62438964
   0.62120881  0.70596228  0.38276755
   0.47940274  0.58244690  0.66372377
   0.52106101  0.27194486  0.65328431
   0.39715312  0.59947044  0.45229542
   0.58605840  0.71127704  0.50599627
   0.48696588  0.63141941  0.54134237
Direct configuration=    30
   0.38459470  0.47286164  0.47580605
   0.58941008  0.33025839  0.42142477
   0.55426636  0.30185396  0.53712716
   0.48499800  0.39251934  0.46279029
   0.50286643  0.52098064  0.43856439
   0.50839599  0.65204441  0.41359286
   0.60032749  0.45230330  0.39003306
   0.59421663  0.64624720  0.61686649
   0.59628376  0.44659828  0.51510260
   0.47451370  0.48845189  0.56849767
   0.59146822  0.58818701  0.73075670
   0.61027865  0.58013820  0.50298778
   0.54512443  0.39572262  0.62543137
   0.28611819  0.54946516  0.49585761
   0.37686224  0.57503600  0.57987685
   0.60802552  0.57729602  0.37193303
   0.59044889  0.51669251  0.62481518
   0.62164901  0.70515481  0.38344716
   0.47905350  0.57951884  0.66287393
   0.52084966  0.27263507  0.65457891
   0.39685886  0.60161900  0.45114718
   0.58572237  0.71221515  0.50721019
   0.48651879  0.63090795  0.54049392
Direct configuration=    31
   0.38427276  0.47428539  0.47748425
   0.59085231  0.33250520  0.42389783
   0.55443166  0.30192995  0.53844323
   0.48395156  0.39254388  0.46529673
   0.50197099  0.52194784  0.43960088
   0.50811787  0.65256153  0.41261147
   0.59917997  0.45325380  0.38835467
   0.59418131  0.64574088  0.61663907
   0.59681303  0.44538826  0.51477964
   0.47624454  0.48776262  0.56764404
   0.59100775  0.58653313  0.73061745
   0.60969713  0.57987867  0.50254743
   0.54659278  0.39469551  0.62546800
   0.28425584  0.55059052  0.49460616
   0.37691347  0.57309336  0.57830969
   0.60731427  0.57763635  0.37164053
   0.59305064  0.51562808  0.62452409
   0.62178117  0.70423996  0.38395388
   0.47889339  0.57804754  0.66219546
   0.52100590  0.27392013  0.65519449
   0.39589846  0.60351901  0.44959807
   0.58523861  0.71258026  0.50767147
   0.48718605  0.63042551  0.54013659
Direct configuration=    32
   0.38389720  0.47594625  0.47944194
   0.59253474  0.33512621  0.42678277
   0.55462449  0.30201859  0.53997848
   0.48273084  0.39257252  0.46822061
   0.50092642  0.52307611  0.44080999
   0.50779342  0.65316478  0.41146663
   0.59784134  0.45436260  0.38639675
   0.59414010  0.64515022  0.61637377
   0.59743044  0.44397671  0.51440288
   0.47826364  0.48695855  0.56664825
   0.59047060  0.58460380  0.73045502
   0.60901877  0.57957591  0.50203375
   0.54830569  0.39349733  0.62551072
   0.28208334  0.55190331  0.49314629
   0.37697324  0.57082719  0.57648154
   0.60648456  0.57803337  0.37129933
   0.59608570  0.51438638  0.62418452
   0.62193534  0.70317275  0.38454500
   0.47870661  0.57633121  0.66140401
   0.52118815  0.27541922  0.65591259
   0.39477811  0.60573546  0.44779096
   0.58467429  0.71300619  0.50820957
   0.48796444  0.62986273  0.53971974
Direct configuration=    33
   0.38406338  0.47521132  0.47857566
   0.59179026  0.33396642  0.42550619
   0.55453916  0.30197937  0.53929914
   0.48327101  0.39255985  0.46692680
   0.50138864  0.52257685  0.44027496
   0.50793699  0.65289784  0.41197322
   0.59843368  0.45387196  0.38726313
   0.59415834  0.64541158  0.61649116
   0.59715724  0.44460132  0.51456959
   0.47737019  0.48731435  0.56708889
   0.59070829  0.58545753  0.73052690
   0.60931894  0.57970988  0.50226106
   0.54754773  0.39402752  0.62549182
   0.28304467  0.55132240  0.49379228
   0.37694679  0.57182997  0.57729050
   0.60685171  0.57785769  0.37145031
   0.59474269  0.51493583  0.62433478
   0.62186712  0.70364499  0.38428343
   0.47878926  0.57709068  0.66175423
   0.52110750  0.27475587  0.65559483
   0.39527386  0.60475468  0.44859060
   0.58492400  0.71281772  0.50797146
   0.48762001  0.63011176  0.53990419
Direct configuration=    34