 vasp.5.3.5 31Mar14 (build Feb 01 2018 12:10:03) gamma-only                     
  
 executed on             LinuxIFC date 2019.03.23  04:39:20
 running on   64 total cores
 distrk:  each k-point on   64 cores,    1 groups
 distr:  one band on NCORES_PER_BAND=  16 cores,    4 groups


--------------------------------------------------------------------------------------------------------


 INCAR:
 POTCAR:    PAW_PBE Ag 02Apr2005                  
 POTCAR:    PAW_PBE Ag 02Apr2005                  
   VRHFIN =Ag : s1 d10                                                          
   LEXCH  = PE                                                                  
   EATOM  =  1037.2675 eV,   76.2370 Ry                                         
                                                                                
   TITEL  = PAW_PBE Ag 02Apr2005                                                
   LULTRA =        F    use ultrasoft PP ?                                      
   IUNSCR =        1    unscreen: 0-lin 1-nonlin 2-no                           
   RPACOR =    2.000    partial core radius                                     
   POMASS =  107.868; ZVAL   =   11.000    mass and valenz                      
   RCORE  =    2.500    outmost cutoff radius                                   
   RWIGS  =    2.840; RWIGS  =    1.503    wigner-seitz radius (au A)           
   ENMAX  =  249.844; ENMIN  =  187.383 eV                                      
   ICORE  =        3    local potential                                         
   LCOR   =        T    correct aug charges                                     
   LPAW   =        T    paw PP                                                  
   EAUG   =  412.496                                                            
   DEXC   =    0.000                                                            
   RMAX   =    2.560    core radius for proj-oper                               
   RAUG   =    1.300    factor for augmentation sphere                          
   RDEP   =    2.576    radius for radial grids                                 
   RDEPT  =    2.072    core radius for aug-charge                              
                                                                                
   Atomic configuration                                                         
   12 entries                                                                   
     n  l   j            E        occ.                                          
     1  0  0.50    -25324.9161   2.0000                                         
     2  0  0.50     -3728.5341   2.0000                                         
     2  1  1.50     -3344.0404   6.0000                                         
     3  0  0.50      -683.5581   2.0000                                         
     3  1  1.50      -557.3225   6.0000                                         
     3  2  2.50      -358.3853  10.0000                                         
     4  0  0.50       -95.0341   2.0000                                         
     4  1  1.50       -58.5511   6.0000                                         
     4  2  2.50        -7.4440  10.0000                                         
     5  0  0.50        -4.4045   1.0000                                         
     5  1  0.50        -1.3606   0.0000                                         
     4  3  2.50        -1.3606   0.0000                                         
   Description                                                                  
     l       E           TYP  RCUT    TYP  RCUT                                 
     2     -7.4439781     23  2.400                                             
     2     -8.8045607     23  2.400                                             
     0     -4.4044681     23  2.400                                             
     0      1.9520038     23  2.400                                             
     1     -1.3605826     23  2.500                                             
     1     27.2116520     23  2.500                                             
     3     -4.0817478     23  2.400                                             
  local pseudopotential read in
  partial core-charges read in
  partial kinetic energy density read in
  atomic valenz-charges read in
  non local Contribution for L=           2  read in
    real space projection operators read in
  non local Contribution for L=           2  read in
    real space projection operators read in
  non local Contribution for L=           0  read in
    real space projection operators read in
  non local Contribution for L=           0  read in
    real space projection operators read in
  non local Contribution for L=           1  read in
    real space projection operators read in
  non local Contribution for L=           1  read in
    real space projection operators read in
    PAW grid and wavefunctions read in
 
   number of l-projection  operators is LMAX  =           6
   number of lm-projection operators is LMMAX =          18
 

 ----------------------------------------------------------------------------- 
|                                                                             |
|  ADVICE TO THIS USER RUNNING 'VASP/VAMP'   (HEAR YOUR MASTER'S VOICE ...):  |
|                                                                             |
|      You have a (more or less) 'large supercell' and for larger cells       |
|      it might be more efficient to use real space projection opertators     |
|      So try LREAL= Auto  in the INCAR   file.                               |
|      Mind: At the moment your POTCAR file does not contain real space       |
|       projectors, and has to be modified,  BUT if you                       |
|      want to do an extremely  accurate calculation you might also keep the  |
|      reciprocal projection scheme          (i.e. LREAL=.FALSE.)             |
|                                                                             |
 ----------------------------------------------------------------------------- 

  PAW_PBE Ag 02Apr2005                  :
 energy of atom  1       EATOM=-1037.2675
 kinetic energy error for atom=    0.0689 (will be added to EATOM!!)
 
 
 POSCAR: Pt38, -189.91382642 <s> Ag </s>         
  positions in direct lattice
  No initial velocities read in
 exchange correlation table for  LEXCH =        8
   RHO(1)=    0.500       N(1)  =     2000
   RHO(2)=  100.500       N(2)  =     4000
 


--------------------------------------------------------------------------------------------------------


 ion  position               nearest neighbor table
   1  0.664  0.533  0.440-   7 2.78   8 2.78   4 2.78   2 2.80  10 2.82   3 2.84   6 2.89  21 3.26

   2  0.704  0.620  0.522-   3 2.70  13 2.76   6 2.78   1 2.80  12 2.81  10 3.03
   3  0.691  0.506  0.562-   5 2.68   2 2.70   4 2.74  17 2.77   1 2.84  12 2.86  10 3.29
   4  0.656  0.417  0.485-   3 2.74  21 2.76  11 2.76   5 2.77   7 2.77   1 2.78   9 2.82
   5  0.684  0.394  0.604-   3 2.68   9 2.74  19 2.76   4 2.77  17 2.78
   6  0.626  0.657  0.432-  15 2.73  10 2.74   2 2.78   8 2.78  13 2.86   1 2.89  18 2.91
   7  0.596  0.448  0.380-  21 2.69   8 2.75   4 2.77   1 2.78  16 2.79  14 2.86  11 2.89
   8  0.569  0.567  0.367-  14 2.71  15 2.72   7 2.75   6 2.78   1 2.78  20 2.82  10 3.29  21 3.54

   9  0.586  0.337  0.554-  19 2.73   5 2.74  11 2.74  30 2.78  28 2.80   4 2.82  21 3.38
  10  0.574  0.582  0.514-  26 2.71  24 2.73  21 2.73   6 2.74   1 2.82  12 2.82  25 2.91  18 3.01
                             2 3.03  13 3.04   8 3.29   3 3.29
  11  0.588  0.329  0.431-  28 2.72   9 2.74  16 2.76   4 2.76   7 2.89  21 3.45
  12  0.632  0.602  0.624-  27 2.74  17 2.76   2 2.81  10 2.82  13 2.84   3 2.86  25 2.89  24 3.36

  13  0.619  0.705  0.551-  18 2.71   2 2.76  25 2.79  12 2.84   6 2.86  10 3.04
  14  0.492  0.488  0.316-   8 2.71  16 2.72  20 2.73  23 2.73   7 2.86
  15  0.527  0.682  0.365-   8 2.72   6 2.73  18 2.74  22 2.81  20 2.87
  16  0.495  0.375  0.363-  14 2.72  23 2.75  11 2.76  28 2.77   7 2.79  21 3.59
  17  0.618  0.484  0.660-  12 2.76   3 2.77  24 2.77  19 2.78   5 2.78  27 2.83  29 2.86
  18  0.516  0.701  0.486-  13 2.71  22 2.72  15 2.74  35 2.79  25 2.80   6 2.91  10 3.01  26 3.55

  19  0.586  0.364  0.674-  29 2.69   9 2.73  30 2.76   5 2.76  17 2.78
  20  0.444  0.583  0.376-  22 2.73  14 2.73  26 2.76  32 2.78   8 2.82  15 2.87  23 2.91
  21  0.543  0.466  0.487-  24 2.67   7 2.69  28 2.69  26 2.71  10 2.73   4 2.76  23 3.19   1 3.26
                             9 3.38  30 3.43  11 3.45  34 3.46   8 3.54  16 3.59
  22  0.414  0.694  0.420-  32 2.70  18 2.72  20 2.73  35 2.78  15 2.81
  23  0.421  0.460  0.412-  33 2.72  14 2.73  16 2.75  34 2.82  26 2.89  20 2.91  28 3.08  21 3.19

  24  0.516  0.511  0.595-  21 2.67  27 2.72  10 2.73  26 2.74  17 2.77  30 2.83  36 2.87  29 3.08
                            37 3.22  25 3.26  12 3.36  34 3.42
  25  0.516  0.657  0.604-  37 2.73  35 2.76  13 2.79  18 2.80  27 2.80  12 2.89  10 2.91  24 3.26
                            26 3.60
  26  0.457  0.553  0.495-  10 2.71  21 2.71  35 2.71  24 2.74  20 2.76  38 2.84  23 2.89  32 2.98
                            34 3.09  18 3.55  25 3.60
  27  0.537  0.574  0.697-  24 2.72  12 2.74  31 2.74  25 2.80  17 2.83  29 2.94  37 2.97
  28  0.483  0.361  0.486-  21 2.69  34 2.71  11 2.72  30 2.75  16 2.77   9 2.80  23 3.08
  29  0.510  0.447  0.717-  19 2.69  31 2.69  17 2.86  30 2.86  36 2.88  27 2.94  24 3.08
  30  0.485  0.388  0.606-  34 2.71  28 2.75  19 2.76   9 2.78  36 2.82  24 2.83  29 2.86  21 3.43

  31  0.434  0.535  0.751-  29 2.69  36 2.73  27 2.74  37 2.77
  32  0.342  0.600  0.446-  33 2.66  22 2.70  20 2.78  38 2.85  35 2.87  26 2.98
  33  0.312  0.485  0.461-  32 2.66  23 2.72  38 2.74  34 2.77
  34  0.398  0.433  0.534-  30 2.71  28 2.71  36 2.73  33 2.77  38 2.80  23 2.82  26 3.09  24 3.42
                            21 3.46
  35  0.411  0.656  0.539-  26 2.71  37 2.72  25 2.76  22 2.78  18 2.79  32 2.87  38 2.89
  36  0.404  0.476  0.649-  31 2.73  34 2.73  38 2.78  37 2.82  30 2.82  24 2.87  29 2.88
  37  0.416  0.601  0.648-  35 2.72  25 2.73  38 2.75  31 2.77  36 2.82  27 2.97  24 3.22
  38  0.348  0.545  0.562-  33 2.74  37 2.75  36 2.78  34 2.80  26 2.84  32 2.85  35 2.89
 
  LATTYP: Found a simple cubic cell.
 ALAT       =    22.2757081954
  
  Lattice vectors:
  
 A1 = (  22.2757081954,   0.0000000000,   0.0000000000)
 A2 = (   0.0000000000,  22.2757081954,   0.0000000000)
 A3 = (   0.0000000000,   0.0000000000,  22.2757081954)


Analysis of symmetry for initial positions (statically):
=====================================================================
 Subroutine PRICEL returns:
 Original cell was already a primitive cell.
 

 Routine SETGRP: Setting up the symmetry group for a 
 simple cubic supercell.


 Subroutine GETGRP returns: Found  1 space group operations
 (whereof  1 operations were pure point group operations)
 out of a pool of 48 trial point group operations.


The static configuration has the point symmetry C_1 .


Analysis of symmetry for dynamics (positions and initial velocities):
=====================================================================
 Subroutine PRICEL returns:
 Original cell was already a primitive cell.
 

 Routine SETGRP: Setting up the symmetry group for a 
 simple cubic supercell.


 Subroutine GETGRP returns: Found  1 space group operations
 (whereof  1 operations were pure point group operations)
 out of a pool of 48 trial point group operations.


The dynamic configuration has the point symmetry C_1 .


Analysis of magnetic symmetry:
=====================================================================
 Subroutine PRICEL returns:
 Original cell was already a primitive cell.
 

 Subroutine MAGSYM returns: Found  1 space group operations
 (whereof  1 operations were pure point group operations)
 out of a pool of  1 trial space group operations
 (whereof  1 operations were pure point group operations)
 and found also     1 'primitive' translations


The magnetic configuration has the point symmetry C_1 .
 
 
 KPOINTS: Gamma-point only                        
  k-points in reciprocal lattice
Space group operators:
 irot       det(A)        alpha          n_x          n_y          n_z        tau_x        tau_y        tau_z
    1     1.000000     0.000001     1.000000     0.000000     0.000000     0.000000     0.000000     0.000000


--------------------------------------------------------------------------------------------------------




 Dimension of arrays:
   k-points           NKPTS =      1   k-points in BZ     NKDIM =      1   number of bands    NBANDS=    272
   number of dos      NEDOS =    301   number of ions     NIONS =     38
   non local maximal  LDIM  =      6   non local SUM 2l+1 LMDIM =     18
   total plane-waves  NPLWV = 729000
   max r-space proj   IRMAX =      1   max aug-charges    IRDMAX=   3442
   dimension x,y,z NGX =    90 NGY =   90 NGZ =   90
   dimension x,y,z NGXF=   180 NGYF=  180 NGZF=  180
   support grid    NGXF=   180 NGYF=  180 NGZF=  180
   ions per type =              38
 NGX,Y,Z   is equivalent  to a cutoff of   6.72,  6.72,  6.72 a.u.
 NGXF,Y,Z  is equivalent  to a cutoff of  13.43, 13.43, 13.43 a.u.


 I would recommend the setting:
   dimension x,y,z NGX =    86 NGY =   86 NGZ =   86
 SYSTEM =  unknown system                          
 POSCAR =  Pt38, -189.91382642 <s> Ag </s>         

 Startparameter for this run:
   NWRITE =      2    write-flag & timer
   PREC   = normal    normal or accurate (medium, high low for compatibility)
   ISTART =      0    job   : 0-new  1-cont  2-samecut
   ICHARG =      2    charge: 1-file 2-atom 10-const
   ISPIN  =      2    spin polarized calculation?
   LNONCOLLINEAR =      F non collinear calculations
   LSORBIT =      F    spin-orbit coupling
   INIWAV =      1    electr: 0-lowe 1-rand  2-diag
   LASPH  =      F    aspherical Exc in radial PAW
   METAGGA=      F    non-selfconsistent MetaGGA calc.

 Electronic Relaxation 1
   ENCUT  =  249.8 eV  18.36 Ry    4.29 a.u.  28.71 28.71 28.71*2*pi/ulx,y,z
   ENINI  =  249.8     initial cutoff
   ENAUG  =  412.5 eV  augmentation charge cutoff
   NELM   =     60;   NELMIN=  2; NELMDL= -5     # of ELM steps 
   EDIFF  = 0.1E-03   stopping-criterion for ELM
   LREAL  =      F    real-space projection
   NLSPLINE    = F    spline interpolate recip. space projectors
   LCOMPAT=      F    compatible to vasp.4.4
   GGA_COMPAT  = T    GGA compatible to vasp.4.4-vasp.4.6
   LMAXPAW     = -100 max onsite density
   LMAXMIX     =    2 max onsite mixed and CHGCAR
   VOSKOWN=      0    Vosko Wilk Nusair interpolation
   ROPT   =    0.00000
 Ionic relaxation
   EDIFFG = 0.1E-02   stopping-criterion for IOM
   NSW    =   1000    number of steps for IOM
   NBLOCK =      1;   KBLOCK =   1000    inner block; outer block 
   IBRION =      2    ionic relax: 0-MD 1-quasi-New 2-CG
   NFREE  =      1    steps in history (QN), initial steepest desc. (CG)
   ISIF   =      2    stress and relaxation
   IWAVPR =     11    prediction:  0-non 1-charg 2-wave 3-comb
   ISYM   =      2    0-nonsym 1-usesym 2-fastsym
   LCORR  =      T    Harris-Foulkes like correction to forces

   POTIM  = 0.1000    time-step for ionic-motion
   TEIN   =    0.0    initial temperature
   TEBEG  =    0.0;   TEEND  =   0.0 temperature during run
   SMASS  =  -3.00    Nose mass-parameter (am)
   estimated Nose-frequenzy (Omega)   =  0.10E-29 period in steps =****** mass=  -0.113E-25a.u.
   SCALEE = 1.0000    scale energy and forces
   NPACO  =    256;   APACO  = 16.0  distance and # of slots for P.C.
   PSTRESS=    0.0 pullay stress

  Mass of Ions in am
   POMASS = 107.87
  Ionic Valenz
   ZVAL   =  11.00
  Atomic Wigner-Seitz radii
   RWIGS  =  -1.00
  virtual crystal weights 
   VCA    =   1.00
   NELECT =     418.0000    total number of electrons
   NUPDOWN=      -1.0000    fix difference up-down

 DOS related values:
   EMIN   =  10.00;   EMAX   =-10.00  energy-range for DOS
   EFERMI =   0.00
   ISMEAR =     0;   SIGMA  =   0.00  broadening in eV -4-tet -1-fermi 0-gaus

 Electronic relaxation 2 (details)
   IALGO  =     38    algorithm
   LDIAG  =      T    sub-space diagonalisation (order eigenvalues)
   LSUBROT=      F    optimize rotation matrix (better conditioning)
   TURBO    =      0    0=normal 1=particle mesh
   IRESTART =      0    0=no restart 2=restart with 2 vectors
   NREBOOT  =      0    no. of reboots
   NMIN     =      0    reboot dimension
   EREF     =   0.00    reference energy to select bands
   IMIX   =      4    mixing-type and parameters
     AMIX     =   0.40;   BMIX     =  1.00
     AMIX_MAG =   1.60;   BMIX_MAG =  1.00
     AMIN     =   0.10
     WC   =   100.;   INIMIX=   1;  MIXPRE=   1;  MAXMIX= -45

 Intra band minimization:
   WEIMIN = 0.0010     energy-eigenvalue tresh-hold
   EBREAK =  0.92E-07  absolut break condition
   DEPER  =   0.30     relativ break condition  

   TIME   =   0.40     timestep for ELM

  volume/ion in A,a.u.               =     290.88      1962.94
  Fermi-wavevector in a.u.,A,eV,Ry     =   0.549501  1.038407  4.108302  0.301952
  Thomas-Fermi vector in A             =   1.580659
 
 Write flags
   LWAVE  =      F    write WAVECAR
   LCHARG =      F    write CHGCAR
   LVTOT  =      F    write LOCPOT, total local potential
   LVHAR  =      F    write LOCPOT, Hartree potential only
   LELF   =      F    write electronic localiz. function (ELF)
   LORBIT =      0    0 simple, 1 ext, 2 COOP (PROOUT)


 Dipole corrections
   LMONO  =      F    monopole corrections only (constant potential shift)
   LDIPOL =      F    correct potential (dipole corrections)
   IDIPOL =      0    1-x, 2-y, 3-z, 4-all directions 
   EPSILON=  1.0000000 bulk dielectric constant

 Exchange correlation treatment:
   GGA     =    PE    GGA type
   LEXCH   =     8    internal setting for exchange type
   VOSKOWN=      0    Vosko Wilk Nusair interpolation
   LHFCALC =     F    Hartree Fock is set to
   LHFONE  =     F    Hartree Fock one center treatment
   AEXX    =    0.0000 exact exchange contribution

 Linear response parameters
   LEPSILON=     F    determine dielectric tensor
   LRPA    =     F    only Hartree local field effects (RPA)
   LNABLA  =     F    use nabla operator in PAW spheres
   LVEL    =     F    velocity operator in full k-point grid
   LINTERFAST=   F  fast interpolation
   KINTER  =     0    interpolate to denser k-point grid
   CSHIFT  =0.1000    complex shift for real part using Kramers Kronig
   OMEGAMAX=  -1.0    maximum frequency
   DEG_THRESHOLD= 0.2000000E-02 threshold for treating states as degnerate
   RTIME   =    0.100 relaxation time in fs

 Orbital magnetization related:
   ORBITALMAG=     F  switch on orbital magnetization
   LCHIMAG   =     F  perturbation theory with respect to B field
   DQ        =  0.001000  dq finite difference perturbation B field



--------------------------------------------------------------------------------------------------------


 conjugate gradient relaxation of ions
 charge density and potential will be updated during run
 spin polarized calculation
 Variant of blocked Davidson
 Davidson routine will perform the subspace rotation
 perform sub-space diagonalisation
    after iterative eigenvector-optimisation
 modified Broyden-mixing scheme, WC =      100.0
 initial mixing is a Kerker type mixing with AMIX =  0.4000 and BMIX =      1.0000
 Hartree-type preconditioning will be used
 using additional bands           63
 reciprocal scheme for non local part
 use partial core corrections
 calculate Harris-corrections to forces 
   (improved forces if not selfconsistent)
 use gradient corrections 
 use of overlap-Matrix (Vanderbilt PP)
 Gauss-broadening in eV      SIGMA  =   0.00


--------------------------------------------------------------------------------------------------------


  energy-cutoff  :      249.84
  volume of cell :    11053.37
      direct lattice vectors                 reciprocal lattice vectors
    22.275708195  0.000000000  0.000000000     0.044891951  0.000000000  0.000000000
     0.000000000 22.275708195  0.000000000     0.000000000  0.044891951  0.000000000
     0.000000000  0.000000000 22.275708195     0.000000000  0.000000000  0.044891951

  length of vectors
    22.275708195 22.275708195 22.275708195     0.044891951  0.044891951  0.044891951


 
 k-points in units of 2pi/SCALE and weight: Gamma-point only                        
   0.00000000  0.00000000  0.00000000       1.000
 
 k-points in reciprocal lattice and weights: Gamma-point only                        
   0.00000000  0.00000000  0.00000000       1.000
 
 position of ions in fractional coordinates (direct lattice) 
   0.66420219  0.53318568  0.44006792
   0.70406999  0.61996517  0.52189778
   0.69114925  0.50623461  0.56188555
   0.65614094  0.41682138  0.48482733
   0.68363729  0.39351909  0.60374144
   0.62633145  0.65685667  0.43177805
   0.59602878  0.44768284  0.38028849
   0.56891426  0.56721320  0.36687377
   0.58622052  0.33733639  0.55391798
   0.57368149  0.58175029  0.51373424
   0.58756531  0.32867277  0.43118987
   0.63221268  0.60181357  0.62405825
   0.61880845  0.70511937  0.55061534
   0.49225523  0.48772383  0.31625787
   0.52651932  0.68157571  0.36512035
   0.49548035  0.37475702  0.36255667
   0.61815767  0.48385127  0.65995577
   0.51572152  0.70061733  0.48611202
   0.58552150  0.36405050  0.67356260
   0.44381093  0.58331316  0.37596713
   0.54264329  0.46617821  0.48680602
   0.41359832  0.69368065  0.41993725
   0.42076389  0.45975694  0.41203635
   0.51557158  0.51066377  0.59494160
   0.51648250  0.65663345  0.60392348
   0.45712761  0.55251190  0.49529574
   0.53721213  0.57438844  0.69688111
   0.48330067  0.36103739  0.48562384
   0.50961159  0.44688624  0.71735306
   0.48459904  0.38772686  0.60609144
   0.43418370  0.53494078  0.75135473
   0.34200984  0.59976912  0.44628199
   0.31169637  0.48498238  0.46071917
   0.39815695  0.43305148  0.53383547
   0.41101280  0.65648210  0.53899277
   0.40404887  0.47551240  0.64862165
   0.41616723  0.60143102  0.64809705
   0.34829135  0.54521382  0.56170566
 
 position of ions in cartesian coordinates  (Angst):
  14.79557415 11.87708872  9.80282450
  15.68365769 13.81016325 11.62564274
  15.39583912 11.27673446 12.51639861
  14.61600414  9.28499145 10.79987217
  15.22850473  8.76591651 13.44876804
  13.95197668 14.63194761  9.61816179
  13.27696307  9.97245223  8.47119539
  12.67296799 12.63507583  8.17237307
  13.05847717  7.51440688 12.33891532
  12.77916151 12.95889980 11.44379412
  13.08843331  7.32141878  9.60505965
  14.08298510 13.40582348 13.90133939
  13.78439656 15.70703341 12.26534655
  10.96533391 10.86439376  7.04486808
  11.72859064 15.18258164  8.13331430
  11.03717566  8.34797798  8.07620660
  13.76989987 10.77812980 14.70098219
  11.48806212 15.60674714 10.82848944
  13.04290602  8.10948274 15.00408392
   9.88620267 12.99371375  8.37493415
  12.08776354 10.38444987 10.84394893
   9.21319552 15.45222763  9.35439974
   9.37281356 10.24141142  9.17840155
  11.48472217 11.37539722 13.25274557
  11.50501345 14.62697522 13.45282330
  10.18284115 12.30759395 11.03306348
  11.96678072 12.79490918 15.52352030
  10.76586459  8.04236358 10.81761500
  11.35195916  9.95470737 15.97954751
  10.79478684  8.63689035 13.50111607
   9.67174944 11.91618468 16.73695870
   7.61851142 13.36028185  9.94124727
   6.94325737 10.80332599 10.26284571
   8.86922794  9.64652846 11.89156324
   9.15560116 14.62360366 12.00644572
   9.00047464 10.59237538 14.44850668
   9.27041970 13.39730196 14.43682078
   7.75843644 12.14502392 12.51239135
 


--------------------------------------------------------------------------------------------------------


 use parallel FFT for wavefunctions z direction half grid
 k-point  1 :   0.0000 0.0000 0.0000  plane waves:   49613

 maximum and minimum number of plane-waves per node :      3110     3095

 maximum number of plane-waves:     49613
 maximum index in each direction: 
   IXMAX=   28   IYMAX=   28   IZMAX=   28
   IXMIN=  -28   IYMIN=  -28   IZMIN=    0

 WARNING: aliasing errors must be expected set NGX to 114 to avoid them
 WARNING: aliasing errors must be expected set NGY to 114 to avoid them
 WARNING: aliasing errors must be expected set NGZ to 114 to avoid them
 aliasing errors are usually negligible using standard VASP settings
 and one can safely disregard these warnings

 parallel 3D FFT for wavefunctions:
    minimum data exchange during FFTs selected (reduces bandwidth)
 parallel 3D FFT for charge:
    minimum data exchange during FFTs selected (reduces bandwidth)


 total amount of memory used by VASP on root node    54479. kBytes
========================================================================

   base      :      30000. kBytes
   nonl-proj :       2331. kBytes
   fftplans  :       4332. kBytes
   grid      :      10964. kBytes
   one-center:         46. kBytes
   wavefun   :       6806. kBytes
 
     INWAV:  cpu time    0.00: real time    0.00
 Broyden mixing: mesh for mixing (old mesh)
   NGX = 57   NGY = 57   NGZ = 57
  (NGX  =180   NGY  =180   NGZ  =180)
  gives a total of 185193 points

 initial charge density was supplied:
 charge density of overlapping atoms calculated
 number of electron     418.0000000 magnetization      38.0000000
 keeping initial charge density in first step


--------------------------------------------------------------------------------------------------------


 Maximum index for augmentation-charges          255 (set IRDMAX)


--------------------------------------------------------------------------------------------------------


 First call to EWALD:  gamma=   0.080
 Maximum number of real-space cells 3x 3x 3
 Maximum number of reciprocal cells 3x 3x 3

 FEWALD executed in parallel
    FEWALD:  cpu time    0.00: real time    0.00


----------------------------------------- Iteration    1(   1)  ---------------------------------------


    POTLOK:  cpu time    0.23: real time    0.23
    SETDIJ:  cpu time    0.01: real time    0.01
     EDDAV:  cpu time    3.49: real time    3.50
       DOS:  cpu time    0.00: real time    0.00
    --------------------------------------------
      LOOP:  cpu time    3.73: real time    3.76

 eigenvalue-minimisations  :  1104
 total energy-change (2. order) : 0.3548314E+04  (-0.8395380E+04)
 number of electron     418.0000000 magnetization      38.0000000
 augmentation part      418.0000000 magnetization      38.0000000

 Free energy of the ion-electron system (eV)
  ---------------------------------------------------
  alpha Z        PSCENC =       111.11861347
  Ewald energy   TEWEN  =     98565.30284359
  -Hartree energ DENC   =   -136412.43849619
  -exchange      EXHF   =         0.00000000
  -V(xc)+E(xc)   XCENC  =      -412.79920287
  PAW double counting   =     38128.14276665   -36376.05513740
  entropy T*S    EENTRO =         0.00000000
  eigenvalues    EBANDS =       531.49467118
  atomic energy  EATOM  =     39413.54794328
  ---------------------------------------------------
  free energy    TOTEN  =      3548.31400169 eV

  energy without entropy =     3548.31400169  energy(sigma->0) =     3548.31400169


--------------------------------------------------------------------------------------------------------




----------------------------------------- Iteration    1(   2)  ---------------------------------------


     EDDAV:  cpu time    5.08: real time    5.08
       DOS:  cpu time    0.00: real time    0.00
    --------------------------------------------
      LOOP:  cpu time    5.08: real time    5.44

 eigenvalue-minimisations  :  1800
 total energy-change (2. order) :-0.2933699E+04  (-0.2641795E+04)
 number of electron     418.0000000 magnetization      38.0000000
 augmentation part      418.0000000 magnetization      38.0000000

 Free energy of the ion-electron system (eV)
  ---------------------------------------------------
  alpha Z        PSCENC =       111.11861347
  Ewald energy   TEWEN  =     98565.30284359
  -Hartree energ DENC   =   -136412.43849619
  -exchange      EXHF   =         0.00000000
  -V(xc)+E(xc)   XCENC  =      -412.79920287
  PAW double counting   =     38128.14276665   -36376.05513740
  entropy T*S    EENTRO =        -0.00000000
  eigenvalues    EBANDS =     -2402.20401823
  atomic energy  EATOM  =     39413.54794328
  ---------------------------------------------------
  free energy    TOTEN  =       614.61531229 eV

  energy without entropy =      614.61531229  energy(sigma->0) =      614.61531229


--------------------------------------------------------------------------------------------------------




----------------------------------------- Iteration    1(   3)  ---------------------------------------


     EDDAV:  cpu time    4.14: real time    4.14
       DOS:  cpu time    0.00: real time    0.00
    --------------------------------------------
      LOOP:  cpu time    4.14: real time    4.50

 eigenvalue-minimisations  :  1368
 total energy-change (2. order) :-0.6680143E+03  (-0.6107967E+03)
 number of electron     418.0000000 magnetization      38.0000000
 augmentation part      418.0000000 magnetization      38.0000000

 Free energy of the ion-electron system (eV)
  ---------------------------------------------------
  alpha Z        PSCENC =       111.11861347
  Ewald energy   TEWEN  =     98565.30284359
  -Hartree energ DENC   =   -136412.43849619
  -exchange      EXHF   =         0.00000000
  -V(xc)+E(xc)   XCENC  =      -412.79920287
  PAW double counting   =     38128.14276665   -36376.05513740
  entropy T*S    EENTRO =         0.00000000
  eigenvalues    EBANDS =     -3070.21834065
  atomic energy  EATOM  =     39413.54794328
  ---------------------------------------------------
  free energy    TOTEN  =       -53.39901014 eV

  energy without entropy =      -53.39901014  energy(sigma->0) =      -53.39901014


--------------------------------------------------------------------------------------------------------




----------------------------------------- Iteration    1(   4)  ---------------------------------------


     EDDAV:  cpu time    3.68: real time    3.69
       DOS:  cpu time    0.00: real time    0.00
    --------------------------------------------
      LOOP:  cpu time    3.68: real time    3.69

 eigenvalue-minimisations  :  1184
 total energy-change (2. order) :-0.2727829E+02  (-0.2706005E+02)
 number of electron     418.0000000 magnetization      38.0000000
 augmentation part      418.0000000 magnetization      38.0000000

 Free energy of the ion-electron system (eV)
  ---------------------------------------------------
  alpha Z        PSCENC =       111.11861347
  Ewald energy   TEWEN  =     98565.30284359
  -Hartree energ DENC   =   -136412.43849619
  -exchange      EXHF   =         0.00000000
  -V(xc)+E(xc)   XCENC  =      -412.79920287
  PAW double counting   =     38128.14276665   -36376.05513740
  entropy T*S    EENTRO =         0.00000000
  eigenvalues    EBANDS =     -3097.49663379
  atomic energy  EATOM  =     39413.54794328
  ---------------------------------------------------
  free energy    TOTEN  =       -80.67730328 eV

  energy without entropy =      -80.67730328  energy(sigma->0) =      -80.67730328


--------------------------------------------------------------------------------------------------------




----------------------------------------- Iteration    1(   5)  ---------------------------------------


     EDDAV:  cpu time    3.85: real time    3.85
       DOS:  cpu time    0.00: real time    0.00
    CHARGE:  cpu time    0.11: real time    0.11
    MIXING:  cpu time    0.00: real time    0.00
    --------------------------------------------
      LOOP:  cpu time    3.96: real time    3.97

 eigenvalue-minimisations  :  1248
 total energy-change (2. order) :-0.4026483E+00  (-0.4018489E+00)
 number of electron     418.0000309 magnetization      33.9908836
 augmentation part      195.6580235 magnetization      31.0541670

 Broyden mixing:
  rms(total) = 0.36256E+01    rms(broyden)= 0.36250E+01
  rms(prec ) = 0.36848E+01
  weight for this iteration     100.00

 Free energy of the ion-electron system (eV)
  ---------------------------------------------------
  alpha Z        PSCENC =       111.11861347
  Ewald energy   TEWEN  =     98565.30284359
  -Hartree energ DENC   =   -136412.43849619
  -exchange      EXHF   =         0.00000000
  -V(xc)+E(xc)   XCENC  =      -412.79920287
  PAW double counting   =     38128.14276665   -36376.05513740
  entropy T*S    EENTRO =         0.00000000
  eigenvalues    EBANDS =     -3097.89928213
  atomic energy  EATOM  =     39413.54794328
  ---------------------------------------------------
  free energy    TOTEN  =       -81.07995162 eV

  energy without entropy =      -81.07995162  energy(sigma->0) =      -81.07995162


--------------------------------------------------------------------------------------------------------




----------------------------------------- Iteration    1(   6)  ---------------------------------------


    POTLOK:  cpu time    0.22: real time    0.21
    SETDIJ:  cpu time    0.01: real time    0.01
     EDDAV:  cpu time    3.54: real time    3.55
       DOS:  cpu time    0.00: real time    0.00
    CHARGE:  cpu time    0.11: real time    0.11
    MIXING:  cpu time    0.00: real time    0.00
    --------------------------------------------
      LOOP:  cpu time    3.88: real time    4.36

 eigenvalue-minimisations  :  1112
 total energy-change (2. order) : 0.4384075E+02  (-0.1304656E+02)
 number of electron     418.0000316 magnetization      31.0886406
 augmentation part      200.4786408 magnetization      20.3490597

 Broyden mixing:
  rms(total) = 0.19842E+01    rms(broyden)= 0.19841E+01
  rms(prec ) = 0.20040E+01
  weight for this iteration     100.00

 eigenvalues of (default mixing * dielectric matrix)
  average eigenvalue GAMMA=   0.8568
  0.8568

 Free energy of the ion-electron system (eV)
  ---------------------------------------------------
  alpha Z        PSCENC =       111.11861347
  Ewald energy   TEWEN  =     98565.30284359
  -Hartree energ DENC   =   -136237.79088185
  -exchange      EXHF   =         0.00000000
  -V(xc)+E(xc)   XCENC  =      -395.07756468
  PAW double counting   =     39550.93089371   -37830.07917556
  entropy T*S    EENTRO =         0.00000000
  eigenvalues    EBANDS =     -3215.19187141
  atomic energy  EATOM  =     39413.54794328
  ---------------------------------------------------
  free energy    TOTEN  =       -37.23919946 eV

  energy without entropy =      -37.23919946  energy(sigma->0) =      -37.23919946


--------------------------------------------------------------------------------------------------------




----------------------------------------- Iteration    1(   7)  ---------------------------------------


    POTLOK:  cpu time    0.22: real time    0.21
    SETDIJ:  cpu time    0.01: real time    0.01
     EDDAV:  cpu time    3.65: real time    3.65
       DOS:  cpu time    0.00: real time    0.00
    CHARGE:  cpu time    0.11: real time    0.11
    MIXING:  cpu time    0.00: real time    0.00
    --------------------------------------------
      LOOP:  cpu time    3.99: real time    3.99

 eigenvalue-minimisations  :  1160
 total energy-change (2. order) : 0.1088042E+02  (-0.9025524E+00)
 number of electron     418.0000315 magnetization      26.6250321
 augmentation part      200.4875985 magnetization      16.2401540

 Broyden mixing:
  rms(total) = 0.12219E+01    rms(broyden)= 0.12219E+01
  rms(prec ) = 0.12329E+01
  weight for this iteration     100.00

 eigenvalues of (default mixing * dielectric matrix)
  average eigenvalue GAMMA=   1.0006
  0.7495  1.2517

 Free energy of the ion-electron system (eV)
  ---------------------------------------------------
  alpha Z        PSCENC =       111.11861347
  Ewald energy   TEWEN  =     98565.30284359
  -Hartree energ DENC   =   -136318.96618340
  -exchange      EXHF   =         0.00000000
  -V(xc)+E(xc)   XCENC  =      -386.01892484
  PAW double counting   =     40399.62963774   -38698.66543983
  entropy T*S    EENTRO =         0.00000000
  eigenvalues    EBANDS =     -3112.30726759
  atomic energy  EATOM  =     39413.54794328
  ---------------------------------------------------
  free energy    TOTEN  =       -26.35877759 eV

  energy without entropy =      -26.35877759  energy(sigma->0) =      -26.35877759


--------------------------------------------------------------------------------------------------------




----------------------------------------- Iteration    1(   8)  ---------------------------------------


    POTLOK:  cpu time    0.21: real time    0.21
    SETDIJ:  cpu time    0.01: real time    0.01
     EDDAV:  cpu time    3.62: real time    3.62
       DOS:  cpu time    0.00: real time    0.00
    CHARGE:  cpu time    0.11: real time    0.11
    MIXING:  cpu time    0.01: real time    0.00
    --------------------------------------------
      LOOP:  cpu time    3.96: real time    3.96

 eigenvalue-minimisations  :  1144
 total energy-change (2. order) : 0.4522797E-01  (-0.2151924E+00)
 number of electron     418.0000314 magnetization      23.3946635
 augmentation part      200.2933483 magnetization      13.2547711

 Broyden mixing:
  rms(total) = 0.66332E+00    rms(broyden)= 0.66331E+00
  rms(prec ) = 0.66681E+00
  weight for this iteration     100.00

 eigenvalues of (default mixing * dielectric matrix)
  average eigenvalue GAMMA=   1.2759
  2.3079  0.9075  0.6123

 Free energy of the ion-electron system (eV)
  ---------------------------------------------------
  alpha Z        PSCENC =       111.11861347
  Ewald energy   TEWEN  =     98565.30284359
  -Hartree energ DENC   =   -136419.74254262
  -exchange      EXHF   =         0.00000000
  -V(xc)+E(xc)   XCENC  =      -385.62177495
  PAW double counting   =     41396.04292967   -39715.92471817
  entropy T*S    EENTRO =         0.00000000
  eigenvalues    EBANDS =     -2991.03684389
  atomic energy  EATOM  =     39413.54794328
  ---------------------------------------------------
  free energy    TOTEN  =       -26.31354962 eV

  energy without entropy =      -26.31354962  energy(sigma->0) =      -26.31354962


--------------------------------------------------------------------------------------------------------




----------------------------------------- Iteration    1(   9)  ---------------------------------------


    POTLOK:  cpu time    0.21: real time    0.21
    SETDIJ:  cpu time    0.01: real time    0.01
     EDDAV:  cpu time    3.67: real time    3.67
       DOS:  cpu time    0.00: real time    0.00
    CHARGE:  cpu time    0.11: real time    0.11
    MIXING:  cpu time    0.00: real time    0.01
    --------------------------------------------
      LOOP:  cpu time    4.00: real time    7.24

 eigenvalue-minimisations  :  1160
 total energy-change (2. order) :-0.4324873E+01  (-0.9085307E-01)
 number of electron     418.0000313 magnetization      21.4653871
 augmentation part      200.2423641 magnetization      13.4454080

 Broyden mixing:
  rms(total) = 0.46232E+00    rms(broyden)= 0.46225E+00
  rms(prec ) = 0.46795E+00
  weight for this iteration     100.00

 eigenvalues of (default mixing * dielectric matrix)
  average eigenvalue GAMMA=   1.1132
  2.3437  0.9189  0.5951  0.5951

 Free energy of the ion-electron system (eV)
  ---------------------------------------------------
  alpha Z        PSCENC =       111.11861347
  Ewald energy   TEWEN  =     98565.30284359
  -Hartree energ DENC   =   -136461.33811589
  -exchange      EXHF   =         0.00000000
  -V(xc)+E(xc)   XCENC  =      -388.58722387
  PAW double counting   =     41802.21064844   -40130.20173707
  entropy T*S    EENTRO =         0.00000000
  eigenvalues    EBANDS =     -2942.69139469
  atomic energy  EATOM  =     39413.54794328
  ---------------------------------------------------
  free energy    TOTEN  =       -30.63842275 eV

  energy without entropy =      -30.63842275  energy(sigma->0) =      -30.63842275


--------------------------------------------------------------------------------------------------------




----------------------------------------- Iteration    1(  10)  ---------------------------------------


    POTLOK:  cpu time    0.21: real time    0.21
    SETDIJ:  cpu time    0.00: real time    0.01
     EDDAV:  cpu time    3.66: real time    3.67
       DOS:  cpu time    0.00: real time    0.00
    CHARGE:  cpu time    0.11: real time    0.11
    MIXING:  cpu time    0.00: real time    0.01
    --------------------------------------------
      LOOP:  cpu time    4.00: real time    4.03

 eigenvalue-minimisations  :  1160
 total energy-change (2. order) :-0.3140064E+01  (-0.6507117E-01)
 number of electron     418.0000313 magnetization      17.7659709
 augmentation part      200.2090329 magnetization       9.9863763

 Broyden mixing:
  rms(total) = 0.38911E+00    rms(broyden)= 0.38910E+00
  rms(prec ) = 0.39177E+00
  weight for this iteration     100.00

 eigenvalues of (default mixing * dielectric matrix)
  average eigenvalue GAMMA=   1.1585
  2.3601  1.2531  0.6704  0.7545  0.7545

 Free energy of the ion-electron system (eV)
  ---------------------------------------------------
  alpha Z        PSCENC =       111.11861347
  Ewald energy   TEWEN  =     98565.30284359
  -Hartree energ DENC   =   -136475.53835031
  -exchange      EXHF   =         0.00000000
  -V(xc)+E(xc)   XCENC  =      -390.58677477
  PAW double counting   =     41839.06346328   -40167.70371147
  entropy T*S    EENTRO =         0.00000000
  eigenvalues    EBANDS =     -2928.98251382
  atomic energy  EATOM  =     39413.54794328
  ---------------------------------------------------
  free energy    TOTEN  =       -33.77848676 eV

  energy without entropy =      -33.77848676  energy(sigma->0) =      -33.77848676


--------------------------------------------------------------------------------------------------------




----------------------------------------- Iteration    1(  11)  ---------------------------------------


    POTLOK:  cpu time    0.22: real time    0.22
    SETDIJ:  cpu time    0.01: real time    0.01
     EDDAV:  cpu time    3.58: real time    3.59
       DOS:  cpu time    0.00: real time    0.00
    CHARGE:  cpu time    0.11: real time    0.11
    MIXING:  cpu time    0.00: real time    0.01
    --------------------------------------------
      LOOP:  cpu time    3.92: real time    3.95

 eigenvalue-minimisations  :  1128
 total energy-change (2. order) :-0.1221157E+02  (-0.4500217E+00)
 number of electron     418.0000314 magnetization      14.0037983
 augmentation part      200.1505858 magnetization       8.6316758

 Broyden mixing:
  rms(total) = 0.34794E+00    rms(broyden)= 0.34784E+00
  rms(prec ) = 0.35449E+00
  weight for this iteration     100.00

 eigenvalues of (default mixing * dielectric matrix)
  average eigenvalue GAMMA=   1.2050
  2.4595  1.8755  0.8643  0.8643  0.6458  0.5208

 Free energy of the ion-electron system (eV)
  ---------------------------------------------------
  alpha Z        PSCENC =       111.11861347
  Ewald energy   TEWEN  =     98565.30284359
  -Hartree energ DENC   =   -136488.68323552
  -exchange      EXHF   =         0.00000000
  -V(xc)+E(xc)   XCENC  =      -399.45355399
  PAW double counting   =     41816.68860866   -40144.91083083
  entropy T*S    EENTRO =         0.00000000
  eigenvalues    EBANDS =     -2919.60045012
  atomic energy  EATOM  =     39413.54794328
  ---------------------------------------------------
  free energy    TOTEN  =       -45.99006148 eV

  energy without entropy =      -45.99006148  energy(sigma->0) =      -45.99006148


--------------------------------------------------------------------------------------------------------




----------------------------------------- Iteration    1(  12)  ---------------------------------------


    POTLOK:  cpu time    0.21: real time    0.21
    SETDIJ:  cpu time    0.01: real time    0.01
     EDDAV:  cpu time    3.58: real time    3.58
       DOS:  cpu time    0.00: real time    0.00
    CHARGE:  cpu time    0.11: real time    0.11
    MIXING:  cpu time    0.01: real time    0.01
    --------------------------------------------
      LOOP:  cpu time    3.91: real time    3.92

 eigenvalue-minimisations  :  1128
 total energy-change (2. order) :-0.8150934E+01  (-0.3184373E+00)
 number of electron     418.0000313 magnetization      10.5945487
 augmentation part      200.0994831 magnetization       5.6846497

 Broyden mixing:
  rms(total) = 0.23590E+00    rms(broyden)= 0.23588E+00
  rms(prec ) = 0.23989E+00
  weight for this iteration     100.00

 eigenvalues of (default mixing * dielectric matrix)
  average eigenvalue GAMMA=   1.3835
  3.5248  2.3632  0.9859  0.9859  0.6988  0.5976  0.5281

 Free energy of the ion-electron system (eV)
  ---------------------------------------------------
  alpha Z        PSCENC =       111.11861347
  Ewald energy   TEWEN  =     98565.30284359
  -Hartree energ DENC   =   -136500.97855341
  -exchange      EXHF   =         0.00000000
  -V(xc)+E(xc)   XCENC  =      -405.25788299
  PAW double counting   =     41807.54908311   -40135.84011052
  entropy T*S    EENTRO =         0.00000000
  eigenvalues    EBANDS =     -2909.58293180
  atomic energy  EATOM  =     39413.54794328
  ---------------------------------------------------
  free energy    TOTEN  =       -54.14099528 eV

  energy without entropy =      -54.14099528  energy(sigma->0) =      -54.14099528


--------------------------------------------------------------------------------------------------------




----------------------------------------- Iteration    1(  13)  ---------------------------------------


    POTLOK:  cpu time    0.21: real time    0.21
    SETDIJ:  cpu time    0.01: real time    0.01
     EDDAV:  cpu time    3.58: real time    3.58
       DOS:  cpu time    0.00: real time    0.00
    CHARGE:  cpu time    0.11: real time    0.11
    MIXING:  cpu time    0.00: real time    0.01
    --------------------------------------------
      LOOP:  cpu time    3.91: real time    3.92

 eigenvalue-minimisations  :  1128
 total energy-change (2. order) :-0.9496314E+01  (-0.4068508E+00)
 number of electron     418.0000314 magnetization       8.6831701
 augmentation part      200.0858593 magnetization       4.2016502

 Broyden mixing:
  rms(total) = 0.15861E+00    rms(broyden)= 0.15859E+00
  rms(prec ) = 0.16617E+00
  weight for this iteration     100.00

 eigenvalues of (default mixing * dielectric matrix)
  average eigenvalue GAMMA=   1.5108
  4.7786  2.3401  1.1735  1.1735  0.7018  0.7018  0.6342  0.5830

 Free energy of the ion-electron system (eV)
  ---------------------------------------------------
  alpha Z        PSCENC =       111.11861347
  Ewald energy   TEWEN  =     98565.30284359
  -Hartree energ DENC   =   -136491.71860050
  -exchange      EXHF   =         0.00000000
  -V(xc)+E(xc)   XCENC  =      -412.57253829
  PAW double counting   =     41736.80132444   -40064.42649911
  entropy T*S    EENTRO =         0.00000000
  eigenvalues    EBANDS =     -2921.69039607
  atomic energy  EATOM  =     39413.54794328
  ---------------------------------------------------
  free energy    TOTEN  =       -63.63730921 eV

  energy without entropy =      -63.63730921  energy(sigma->0) =      -63.63730921


--------------------------------------------------------------------------------------------------------




----------------------------------------- Iteration    1(  14)  ---------------------------------------


    POTLOK:  cpu time    0.21: real time    0.21
    SETDIJ:  cpu time    0.01: real time    0.01
     EDDAV:  cpu time    3.62: real time    3.62
       DOS:  cpu time    0.00: real time    0.00
    CHARGE:  cpu time    0.11: real time    0.11
    MIXING:  cpu time    0.01: real time    0.01
    --------------------------------------------
      LOOP:  cpu time    3.96: real time    3.96

 eigenvalue-minimisations  :  1144
 total energy-change (2. order) :-0.5984730E+01  (-0.1744688E+00)
 number of electron     418.0000314 magnetization       7.4430318
 augmentation part      200.0859307 magnetization       3.1798952

 Broyden mixing:
  rms(total) = 0.12051E+00    rms(broyden)= 0.12050E+00
  rms(prec ) = 0.12852E+00
  weight for this iteration     100.00

 eigenvalues of (default mixing * dielectric matrix)
  average eigenvalue GAMMA=   1.5244
  5.1333  2.2597  1.4317  1.4317  0.7948  0.7948  0.7003  0.6228  0.5507

 Free energy of the ion-electron system (eV)
  ---------------------------------------------------
  alpha Z        PSCENC =       111.11861347
  Ewald energy   TEWEN  =     98565.30284359
  -Hartree energ DENC   =   -136467.06914842
  -exchange      EXHF   =         0.00000000
  -V(xc)+E(xc)   XCENC  =      -417.66157906
  PAW double counting   =     41673.37819211   -40000.62779426
  entropy T*S    EENTRO =         0.00000000
  eigenvalues    EBANDS =     -2947.61110948
  atomic energy  EATOM  =     39413.54794328
  ---------------------------------------------------
  free energy    TOTEN  =       -69.62203878 eV

  energy without entropy =      -69.62203878  energy(sigma->0) =      -69.62203878


--------------------------------------------------------------------------------------------------------




----------------------------------------- Iteration    1(  15)  ---------------------------------------


    POTLOK:  cpu time    0.22: real time    0.22
    SETDIJ:  cpu time    0.01: real time    0.01
     EDDAV:  cpu time    3.55: real time    3.56
       DOS:  cpu time    0.00: real time    0.00
    CHARGE:  cpu time    0.11: real time    0.11
    MIXING:  cpu time    0.00: real time    0.01
    --------------------------------------------
      LOOP:  cpu time    3.90: real time    3.91

 eigenvalue-minimisations  :  1112
 total energy-change (2. order) :-0.4154130E+01  (-0.7617716E-01)
 number of electron     418.0000314 magnetization       5.9514441
 augmentation part      200.1273835 magnetization       1.7850270

 Broyden mixing:
  rms(total) = 0.84160E-01    rms(broyden)= 0.84152E-01
  rms(prec ) = 0.89922E-01
  weight for this iteration     100.00

 eigenvalues of (default mixing * dielectric matrix)
  average eigenvalue GAMMA=   1.7040
  5.6786  3.1989  2.5233  1.1169  1.1169  0.8866  0.5401  0.6737  0.6737  0.6317

 Free energy of the ion-electron system (eV)
  ---------------------------------------------------
  alpha Z        PSCENC =       111.11861347
  Ewald energy   TEWEN  =     98565.30284359
  -Hartree energ DENC   =   -136431.01205889
  -exchange      EXHF   =         0.00000000
  -V(xc)+E(xc)   XCENC  =      -421.66076164
  PAW double counting   =     41606.27207754   -39933.11405683
  entropy T*S    EENTRO =         0.00000000
  eigenvalues    EBANDS =     -2984.23076949
  atomic energy  EATOM  =     39413.54794328
  ---------------------------------------------------
  free energy    TOTEN  =       -73.77616898 eV

  energy without entropy =      -73.77616898  energy(sigma->0) =      -73.77616898


--------------------------------------------------------------------------------------------------------




----------------------------------------- Iteration    1(  16)  ---------------------------------------


    POTLOK:  cpu time    0.21: real time    0.21
    SETDIJ:  cpu time    0.00: real time    0.01
     EDDAV:  cpu time    3.53: real time    3.54
       DOS:  cpu time    0.00: real time    0.00
    CHARGE:  cpu time    0.11: real time    0.11
    MIXING:  cpu time    0.01: real time    0.01
    --------------------------------------------
      LOOP:  cpu time    3.87: real time    3.88

 eigenvalue-minimisations  :  1104
 total energy-change (2. order) :-0.3412491E+01  (-0.6339225E-01)
 number of electron     418.0000314 magnetization       5.7594820
 augmentation part      200.1815752 magnetization       3.5638367

 Broyden mixing:
  rms(total) = 0.14452E+00    rms(broyden)= 0.14437E+00
  rms(prec ) = 0.15479E+00
  weight for this iteration     100.00

 eigenvalues of (default mixing * dielectric matrix)
  average eigenvalue GAMMA=   1.5668
  5.8270  3.1200  2.5654  1.1222  1.1222  0.8775  0.6773  0.6773  0.6244  0.5370
  0.0844

 Free energy of the ion-electron system (eV)
  ---------------------------------------------------
  alpha Z        PSCENC =       111.11861347
  Ewald energy   TEWEN  =     98565.30284359
  -Hartree energ DENC   =   -136381.11914667
  -exchange      EXHF   =         0.00000000
  -V(xc)+E(xc)   XCENC  =      -425.26713576
  PAW double counting   =     41533.09569342   -39859.45985811
  entropy T*S    EENTRO =         0.00000000
  eigenvalues    EBANDS =     -3034.40761288
  atomic energy  EATOM  =     39413.54794328
  ---------------------------------------------------
  free energy    TOTEN  =       -77.18865968 eV

  energy without entropy =      -77.18865968  energy(sigma->0) =      -77.18865968


--------------------------------------------------------------------------------------------------------




----------------------------------------- Iteration    1(  17)  ---------------------------------------


    POTLOK:  cpu time    0.21: real time    0.21
    SETDIJ:  cpu time    0.01: real time    0.01
     EDDAV:  cpu time    3.81: real time    3.82
       DOS:  cpu time    0.00: real time    0.00
    CHARGE:  cpu time    0.11: real time    0.11
    MIXING:  cpu time    0.00: real time    0.01
    --------------------------------------------
      LOOP:  cpu time    4.15: real time    4.16

 eigenvalue-minimisations  :  1224
 total energy-change (2. order) :-0.7919890E-01  (-0.1206642E-02)
 number of electron     418.0000314 magnetization       5.2681963
 augmentation part      200.1807216 magnetization       3.0915998

 Broyden mixing:
  rms(total) = 0.13369E+00    rms(broyden)= 0.13368E+00
  rms(prec ) = 0.14374E+00
  weight for this iteration     100.00

 eigenvalues of (default mixing * dielectric matrix)
  average eigenvalue GAMMA=   1.5201
  6.1984  3.1112  2.4699  1.1230  1.1230  0.8845  0.6650  0.6650  0.6284  0.5432
  0.4147  0.4147

 Free energy of the ion-electron system (eV)
  ---------------------------------------------------
  alpha Z        PSCENC =       111.11861347
  Ewald energy   TEWEN  =     98565.30284359
  -Hartree energ DENC   =   -136380.21820851
  -exchange      EXHF   =         0.00000000
  -V(xc)+E(xc)   XCENC  =      -425.35998025
  PAW double counting   =     41532.93012230   -39859.30552903
  entropy T*S    EENTRO =         0.00000000
  eigenvalues    EBANDS =     -3035.28366343
  atomic energy  EATOM  =     39413.54794328
  ---------------------------------------------------
  free energy    TOTEN  =       -77.26785859 eV

  energy without entropy =      -77.26785859  energy(sigma->0) =      -77.26785859


--------------------------------------------------------------------------------------------------------




----------------------------------------- Iteration    1(  18)  ---------------------------------------


    POTLOK:  cpu time    0.21: real time    0.21
    SETDIJ:  cpu time    0.01: real time    0.01
     EDDAV:  cpu time    3.66: real time    3.66
       DOS:  cpu time    0.00: real time    0.00
    CHARGE:  cpu time    0.11: real time    0.11
    MIXING:  cpu time    0.01: real time    0.01
    --------------------------------------------
      LOOP:  cpu time    4.00: real time    4.00

 eigenvalue-minimisations  :  1152
 total energy-change (2. order) :-0.2435317E+00  (-0.1081909E-02)
 number of electron     418.0000314 magnetization       4.1091424
 augmentation part      200.1899252 magnetization       1.9630723

 Broyden mixing:
  rms(total) = 0.11617E+00    rms(broyden)= 0.11617E+00
  rms(prec ) = 0.12452E+00
  weight for this iteration     100.00

 eigenvalues of (default mixing * dielectric matrix)
  average eigenvalue GAMMA=   1.5419
  6.8742  2.6318  2.6318  0.9749  0.9749  1.0884  1.0884  0.8667  0.6706  0.6706
  0.6186  0.5261  0.4278

 Free energy of the ion-electron system (eV)
  ---------------------------------------------------
  alpha Z        PSCENC =       111.11861347
  Ewald energy   TEWEN  =     98565.30284359
  -Hartree energ DENC   =   -136377.30279814
  -exchange      EXHF   =         0.00000000
  -V(xc)+E(xc)   XCENC  =      -425.63573374
  PAW double counting   =     41536.71584405   -39862.95109767
  entropy T*S    EENTRO =         0.00000000
  eigenvalues    EBANDS =     -3038.30700516
  atomic energy  EATOM  =     39413.54794328
  ---------------------------------------------------
  free energy    TOTEN  =       -77.51139031 eV

  energy without entropy =      -77.51139031  energy(sigma->0) =      -77.51139031


--------------------------------------------------------------------------------------------------------




----------------------------------------- Iteration    1(  19)  ---------------------------------------


    POTLOK:  cpu time    0.21: real time    0.21
    SETDIJ:  cpu time    0.01: real time    0.01
     EDDAV:  cpu time    3.65: real time    3.66
       DOS:  cpu time    0.00: real time    0.00
    CHARGE:  cpu time    0.11: real time    0.11
    MIXING:  cpu time    0.01: real time    0.01
    --------------------------------------------
      LOOP:  cpu time    3.99: real time    4.00

 eigenvalue-minimisations  :  1152
 total energy-change (2. order) :-0.4382981E+00  (-0.3934300E-02)
 number of electron     418.0000314 magnetization       2.5417842
 augmentation part      200.1720814 magnetization       0.4540957

 Broyden mixing:
  rms(total) = 0.62330E-01    rms(broyden)= 0.62327E-01
  rms(prec ) = 0.67648E-01
  weight for this iteration     100.00

 eigenvalues of (default mixing * dielectric matrix)
  average eigenvalue GAMMA=   1.6809
  8.6945  2.4603  2.4603  1.6366  1.3655  1.3655  0.9040  0.8492  0.8492  0.6194
  0.5848  0.5848  0.5791  0.5791

 Free energy of the ion-electron system (eV)
  ---------------------------------------------------
  alpha Z        PSCENC =       111.11861347
  Ewald energy   TEWEN  =     98565.30284359
  -Hartree energ DENC   =   -136375.27337584
  -exchange      EXHF   =         0.00000000
  -V(xc)+E(xc)   XCENC  =      -426.07800551
  PAW double counting   =     41574.07815326   -39900.42875375
  entropy T*S    EENTRO =         0.00000000
  eigenvalues    EBANDS =     -3040.21710688
  atomic energy  EATOM  =     39413.54794328
  ---------------------------------------------------
  free energy    TOTEN  =       -77.94968839 eV

  energy without entropy =      -77.94968839  energy(sigma->0) =      -77.94968839


--------------------------------------------------------------------------------------------------------




----------------------------------------- Iteration    1(  20)  ---------------------------------------


    POTLOK:  cpu time    0.21: real time    0.21
    SETDIJ:  cpu time    0.01: real time    0.01
     EDDAV:  cpu time    3.56: real time    3.56
       DOS:  cpu time    0.00: real time    0.00
    CHARGE:  cpu time    0.11: real time    0.11
    MIXING:  cpu time    0.01: real time    0.01
    --------------------------------------------
      LOOP:  cpu time    3.90: real time    4.22

 eigenvalue-minimisations  :  1120
 total energy-change (2. order) :-0.9771994E+00  (-0.9532190E-02)
 number of electron     418.0000314 magnetization       2.4630635
 augmentation part      200.1710892 magnetization       0.4478572

 Broyden mixing:
  rms(total) = 0.29239E-01    rms(broyden)= 0.29225E-01
  rms(prec ) = 0.32243E-01
  weight for this iteration     100.00

 eigenvalues of (default mixing * dielectric matrix)
  average eigenvalue GAMMA=   1.7004
  9.1536  2.5744  2.5744  2.0253  1.3781  1.3781  0.9479  0.9479  0.8218  0.7004
  0.7004  0.5952  0.5952  0.5566  0.5566

 Free energy of the ion-electron system (eV)
  ---------------------------------------------------
  alpha Z        PSCENC =       111.11861347
  Ewald energy   TEWEN  =     98565.30284359
  -Hartree energ DENC   =   -136360.21863523
  -exchange      EXHF   =         0.00000000
  -V(xc)+E(xc)   XCENC  =      -427.15576244
  PAW double counting   =     41591.09492755   -39917.33782282
  entropy T*S    EENTRO =         0.00000000
  eigenvalues    EBANDS =     -3055.27899514
  atomic energy  EATOM  =     39413.54794328
  ---------------------------------------------------
  free energy    TOTEN  =       -78.92688775 eV

  energy without entropy =      -78.92688775  energy(sigma->0) =      -78.92688775


--------------------------------------------------------------------------------------------------------




----------------------------------------- Iteration    1(  21)  ---------------------------------------


    POTLOK:  cpu time    0.21: real time    0.21
    SETDIJ:  cpu time    0.01: real time    0.01
     EDDAV:  cpu time    3.66: real time    3.67
       DOS:  cpu time    0.00: real time    0.00
    CHARGE:  cpu time    0.11: real time    0.11
    MIXING:  cpu time    0.01: real time    0.01
    --------------------------------------------
      LOOP:  cpu time    4.00: real time    4.02

 eigenvalue-minimisations  :  1152
 total energy-change (2. order) :-0.2841664E+00  (-0.1017255E-02)
 number of electron     418.0000314 magnetization       2.3335937
 augmentation part      200.1685660 magnetization       0.3129326

 Broyden mixing:
  rms(total) = 0.18419E-01    rms(broyden)= 0.18416E-01
  rms(prec ) = 0.20954E-01
  weight for this iteration     100.00

 eigenvalues of (default mixing * dielectric matrix)
  average eigenvalue GAMMA=   1.7457
  9.5653  2.6743  2.6743  2.4662  1.5558  1.5558  1.0485  1.0485  0.9603  0.7211
  0.7211  0.6406  0.5893  0.5893  0.5604  0.5604

 Free energy of the ion-electron system (eV)
  ---------------------------------------------------
  alpha Z        PSCENC =       111.11861347
  Ewald energy   TEWEN  =     98565.30284359
  -Hartree energ DENC   =   -136352.20389752
  -exchange      EXHF   =         0.00000000
  -V(xc)+E(xc)   XCENC  =      -427.46995919
  PAW double counting   =     41580.19640990   -39906.43485771
  entropy T*S    EENTRO =         0.00000000
  eigenvalues    EBANDS =     -3063.26814996
  atomic energy  EATOM  =     39413.54794328
  ---------------------------------------------------
  free energy    TOTEN  =       -79.21105415 eV

  energy without entropy =      -79.21105415  energy(sigma->0) =      -79.21105415


--------------------------------------------------------------------------------------------------------




----------------------------------------- Iteration    1(  22)  ---------------------------------------


    POTLOK:  cpu time    0.21: real time    0.21
    SETDIJ:  cpu time    0.01: real time    0.01
     EDDAV:  cpu time    3.59: real time    3.59
       DOS:  cpu time    0.00: real time    0.00
    CHARGE:  cpu time    0.11: real time    0.11
    MIXING:  cpu time    0.01: real time    0.01
    --------------------------------------------
      LOOP:  cpu time    3.93: real time    4.85

 eigenvalue-minimisations  :  1128
 total energy-change (2. order) :-0.2229490E+00  (-0.5566772E-03)
 number of electron     418.0000314 magnetization       2.1768518
 augmentation part      200.1691859 magnetization       0.1504699

 Broyden mixing:
  rms(total) = 0.88734E-02    rms(broyden)= 0.88711E-02
  rms(prec ) = 0.11241E-01
  weight for this iteration     100.00

 eigenvalues of (default mixing * dielectric matrix)
  average eigenvalue GAMMA=   1.7799
  9.9472  3.5451  2.5227  2.5227  1.5105  1.5105  1.4980  0.9694  0.9694  0.8493
  0.7185  0.7185  0.6809  0.5923  0.5923  0.5558  0.5558

 Free energy of the ion-electron system (eV)
  ---------------------------------------------------
  alpha Z        PSCENC =       111.11861347
  Ewald energy   TEWEN  =     98565.30284359
  -Hartree energ DENC   =   -136343.26710931
  -exchange      EXHF   =         0.00000000
  -V(xc)+E(xc)   XCENC  =      -427.73267415
  PAW double counting   =     41573.97253766   -39900.20391874
  entropy T*S    EENTRO =         0.00000000
  eigenvalues    EBANDS =     -3072.17223897
  atomic energy  EATOM  =     39413.54794328
  ---------------------------------------------------
  free energy    TOTEN  =       -79.43400318 eV

  energy without entropy =      -79.43400318  energy(sigma->0) =      -79.43400318


--------------------------------------------------------------------------------------------------------




----------------------------------------- Iteration    1(  23)  ---------------------------------------


    POTLOK:  cpu time    0.21: real time    0.21
    SETDIJ:  cpu time    0.01: real time    0.01
     EDDAV:  cpu time    3.47: real time    3.48
       DOS:  cpu time    0.00: real time    0.00
    CHARGE:  cpu time    0.11: real time    0.11
    MIXING:  cpu time    0.01: real time    0.01
    --------------------------------------------
      LOOP:  cpu time    3.82: real time    3.82

 eigenvalue-minimisations  :  1080
 total energy-change (2. order) :-0.1091603E+00  (-0.2673701E-03)
 number of electron     418.0000314 magnetization       2.1048963
 augmentation part      200.1708242 magnetization       0.0791069

 Broyden mixing:
  rms(total) = 0.54086E-02    rms(broyden)= 0.54072E-02
  rms(prec ) = 0.71812E-02
  weight for this iteration     100.00

 eigenvalues of (default mixing * dielectric matrix)
  average eigenvalue GAMMA=   1.7522
 10.0678  3.5224  2.5942  2.5942  1.7391  1.4950  1.4950  0.9555  0.9555  0.8313
  0.8313  0.8231  0.6559  0.6559  0.5623  0.5623  0.5999  0.5999

 Free energy of the ion-electron system (eV)
  ---------------------------------------------------
  alpha Z        PSCENC =       111.11861347
  Ewald energy   TEWEN  =     98565.30284359
  -Hartree energ DENC   =   -136336.77552205
  -exchange      EXHF   =         0.00000000
  -V(xc)+E(xc)   XCENC  =      -427.87006146
  PAW double counting   =     41573.37721631   -39899.61752566
  entropy T*S    EENTRO =         0.00000000
  eigenvalues    EBANDS =     -3078.62667098
  atomic energy  EATOM  =     39413.54794328
  ---------------------------------------------------
  free energy    TOTEN  =       -79.54316349 eV

  energy without entropy =      -79.54316349  energy(sigma->0) =      -79.54316349


--------------------------------------------------------------------------------------------------------




----------------------------------------- Iteration    1(  24)  ---------------------------------------


    POTLOK:  cpu time    0.21: real time    0.21
    SETDIJ:  cpu time    0.01: real time    0.01
     EDDAV:  cpu time    2.76: real time    2.77
       DOS:  cpu time    0.00: real time    0.00
    CHARGE:  cpu time    0.11: real time    0.11
    MIXING:  cpu time    0.01: real time    0.01
    --------------------------------------------
      LOOP:  cpu time    3.10: real time    3.15

 eigenvalue-minimisations  :   776
 total energy-change (2. order) :-0.2547020E-01  (-0.4206244E-04)
 number of electron     418.0000314 magnetization       2.0252664
 augmentation part      200.1686334 magnetization       0.0010958

 Broyden mixing:
  rms(total) = 0.44933E-02    rms(broyden)= 0.44930E-02
  rms(prec ) = 0.58725E-02
  weight for this iteration     100.00

 eigenvalues of (default mixing * dielectric matrix)
  average eigenvalue GAMMA=   1.7691
 10.1853  3.6946  2.7183  2.3593  2.3593  1.5375  1.5375  1.1615  1.0162  1.0162
  0.8410  0.8410  0.6990  0.6990  0.5571  0.5571  0.6276  0.6024  0.6024

 Free energy of the ion-electron system (eV)
  ---------------------------------------------------
  alpha Z        PSCENC =       111.11861347
  Ewald energy   TEWEN  =     98565.30284359
  -Hartree energ DENC   =   -136334.69156482
  -exchange      EXHF   =         0.00000000
  -V(xc)+E(xc)   XCENC  =      -427.89901397
  PAW double counting   =     41577.74823152   -39904.04234268
  entropy T*S    EENTRO =         0.00000000
  eigenvalues    EBANDS =     -3080.65334408
  atomic energy  EATOM  =     39413.54794328
  ---------------------------------------------------
  free energy    TOTEN  =       -79.56863369 eV

  energy without entropy =      -79.56863369  energy(sigma->0) =      -79.56863369


--------------------------------------------------------------------------------------------------------




----------------------------------------- Iteration    1(  25)  ---------------------------------------


    POTLOK:  cpu time    0.21: real time    0.21
    SETDIJ:  cpu time    0.00: real time    0.01
     EDDAV:  cpu time    2.78: real time    2.78
       DOS:  cpu time    0.00: real time    0.00
    CHARGE:  cpu time    0.11: real time    0.11
    MIXING:  cpu time    0.01: real time    0.01
    --------------------------------------------
      LOOP:  cpu time    3.12: real time    3.13

 eigenvalue-minimisations  :   784
 total energy-change (2. order) :-0.1400377E-01  (-0.8359216E-04)
 number of electron     418.0000314 magnetization       2.0159790
 augmentation part      200.1692236 magnetization      -0.0066650

 Broyden mixing:
  rms(total) = 0.36301E-02    rms(broyden)= 0.36297E-02
  rms(prec ) = 0.44644E-02
  weight for this iteration     100.00

 eigenvalues of (default mixing * dielectric matrix)
  average eigenvalue GAMMA=   1.7893
 10.2357  4.2567  2.7910  2.7910  2.3701  1.5204  1.5204  1.3464  0.9863  0.9863
  0.9478  0.9478  0.7295  0.7295  0.5602  0.5602  0.5963  0.5963  0.6574  0.6574

 Free energy of the ion-electron system (eV)
  ---------------------------------------------------
  alpha Z        PSCENC =       111.11861347
  Ewald energy   TEWEN  =     98565.30284359
  -Hartree energ DENC   =   -136330.63485459
  -exchange      EXHF   =         0.00000000
  -V(xc)+E(xc)   XCENC  =      -427.92961771
  PAW double counting   =     41580.50054703   -39906.80558468
  entropy T*S    EENTRO =         0.00000000
  eigenvalues    EBANDS =     -3084.68252785
  atomic energy  EATOM  =     39413.54794328
  ---------------------------------------------------
  free energy    TOTEN  =       -79.58263747 eV

  energy without entropy =      -79.58263747  energy(sigma->0) =      -79.58263747


--------------------------------------------------------------------------------------------------------




----------------------------------------- Iteration    1(  26)  ---------------------------------------


    POTLOK:  cpu time    0.21: real time    0.21
    SETDIJ:  cpu time    0.01: real time    0.01
     EDDAV:  cpu time    2.74: real time    2.74
       DOS:  cpu time    0.00: real time    0.00
    CHARGE:  cpu time    0.11: real time    0.11
    MIXING:  cpu time    0.01: real time    0.01
    --------------------------------------------
      LOOP:  cpu time    3.08: real time    3.10

 eigenvalue-minimisations  :   768
 total energy-change (2. order) :-0.8233031E-02  (-0.4434454E-04)
 number of electron     418.0000314 magnetization       2.0327065
 augmentation part      200.1716321 magnetization       0.0095174

 Broyden mixing:
  rms(total) = 0.19895E-02    rms(broyden)= 0.19892E-02
  rms(prec ) = 0.24793E-02
  weight for this iteration     100.00

 eigenvalues of (default mixing * dielectric matrix)
  average eigenvalue GAMMA=   1.8001
 10.1781  4.8781  2.8888  2.6864  2.6864  1.5115  1.5115  1.6293  0.9984  0.9984
  1.0250  1.0250  0.7120  0.7120  0.7722  0.5589  0.5589  0.6026  0.6026  0.6336
  0.6336

 Free energy of the ion-electron system (eV)
  ---------------------------------------------------
  alpha Z        PSCENC =       111.11861347
  Ewald energy   TEWEN  =     98565.30284359
  -Hartree energ DENC   =   -136327.58564128
  -exchange      EXHF   =         0.00000000
  -V(xc)+E(xc)   XCENC  =      -427.95025252
  PAW double counting   =     41580.46045345   -39906.76356589
  entropy T*S    EENTRO =         0.00000000
  eigenvalues    EBANDS =     -3087.72126459
  atomic energy  EATOM  =     39413.54794328
  ---------------------------------------------------
  free energy    TOTEN  =       -79.59087050 eV

  energy without entropy =      -79.59087050  energy(sigma->0) =      -79.59087050


--------------------------------------------------------------------------------------------------------




----------------------------------------- Iteration    1(  27)  ---------------------------------------


    POTLOK:  cpu time    0.22: real time    0.23
    SETDIJ:  cpu time    0.01: real time    0.01
     EDDAV:  cpu time    2.77: real time    2.78
       DOS:  cpu time    0.00: real time    0.00
    CHARGE:  cpu time    0.11: real time    0.11
    MIXING:  cpu time    0.01: real time    0.01
    --------------------------------------------
      LOOP:  cpu time    3.13: real time    3.13

 eigenvalue-minimisations  :   784
 total energy-change (2. order) :-0.4048845E-02  (-0.1198701E-04)
 number of electron     418.0000314 magnetization       2.0346059
 augmentation part      200.1713064 magnetization       0.0095894

 Broyden mixing:
  rms(total) = 0.13731E-02    rms(broyden)= 0.13728E-02
  rms(prec ) = 0.17118E-02
  weight for this iteration     100.00

 eigenvalues of (default mixing * dielectric matrix)
  average eigenvalue GAMMA=   1.8159
 10.1285  5.3715  3.0049  3.0049  2.2774  2.2774  1.5206  1.5206  1.1305  1.1305
  0.9950  0.9950  0.7556  0.7556  0.8083  0.5594  0.5594  0.6616  0.6616  0.5996
  0.5996  0.6322

 Free energy of the ion-electron system (eV)
  ---------------------------------------------------
  alpha Z        PSCENC =       111.11861347
  Ewald energy   TEWEN  =     98565.30284359
  -Hartree energ DENC   =   -136326.24287672
  -exchange      EXHF   =         0.00000000
  -V(xc)+E(xc)   XCENC  =      -427.95753038
  PAW double counting   =     41580.86326477   -39907.17605828
  entropy T*S    EENTRO =        -0.00000000
  eigenvalues    EBANDS =     -3089.05111907
  atomic energy  EATOM  =     39413.54794328
  ---------------------------------------------------
  free energy    TOTEN  =       -79.59491934 eV

  energy without entropy =      -79.59491934  energy(sigma->0) =      -79.59491934


--------------------------------------------------------------------------------------------------------




----------------------------------------- Iteration    1(  28)  ---------------------------------------


    POTLOK:  cpu time    0.21: real time    0.21
    SETDIJ:  cpu time    0.01: real time    0.01
     EDDAV:  cpu time    2.73: real time    2.73
       DOS:  cpu time    0.00: real time    0.00
    CHARGE:  cpu time    0.11: real time    0.11
    MIXING:  cpu time    0.01: real time    0.01
    --------------------------------------------
      LOOP:  cpu time    3.07: real time    3.29

 eigenvalue-minimisations  :   760
 total energy-change (2. order) :-0.3150687E-02  (-0.7128013E-05)
 number of electron     418.0000314 magnetization       2.0142508
 augmentation part      200.1720019 magnetization      -0.0113801

 Broyden mixing:
  rms(total) = 0.15386E-02    rms(broyden)= 0.15385E-02
  rms(prec ) = 0.17362E-02
  weight for this iteration     100.00

 eigenvalues of (default mixing * dielectric matrix)
  average eigenvalue GAMMA=   1.8332
 10.1463  5.9135  3.0068  2.8382  2.8382  2.4167  1.5159  1.5159  1.1890  1.1890
  0.9937  0.9937  1.0135  0.7988  0.7231  0.7231  0.5590  0.5590  0.5983  0.5983
  0.7004  0.6686  0.6639

 Free energy of the ion-electron system (eV)
  ---------------------------------------------------
  alpha Z        PSCENC =       111.11861347
  Ewald energy   TEWEN  =     98565.30284359
  -Hartree energ DENC   =   -136324.91442980
  -exchange      EXHF   =         0.00000000
  -V(xc)+E(xc)   XCENC  =      -427.96645384
  PAW double counting   =     41580.65659526   -39906.95606111
  entropy T*S    EENTRO =         0.00000000
  eigenvalues    EBANDS =     -3090.38712087
  atomic energy  EATOM  =     39413.54794328
  ---------------------------------------------------
  free energy    TOTEN  =       -79.59807003 eV

  energy without entropy =      -79.59807003  energy(sigma->0) =      -79.59807003


--------------------------------------------------------------------------------------------------------




----------------------------------------- Iteration    1(  29)  ---------------------------------------


    POTLOK:  cpu time    0.21: real time    0.21
    SETDIJ:  cpu time    0.01: real time    0.01
     EDDAV:  cpu time    2.77: real time    2.78
       DOS:  cpu time    0.00: real time    0.00
    CHARGE:  cpu time    0.11: real time    0.11
    MIXING:  cpu time    0.01: real time    0.01
    --------------------------------------------
      LOOP:  cpu time    3.12: real time    3.14

 eigenvalue-minimisations  :   776
 total energy-change (2. order) :-0.1314558E-02  (-0.2136194E-05)
 number of electron     418.0000314 magnetization       2.0060279
 augmentation part      200.1720742 magnetization      -0.0187612

 Broyden mixing:
  rms(total) = 0.76346E-03    rms(broyden)= 0.76337E-03
  rms(prec ) = 0.88687E-03
  weight for this iteration     100.00

 eigenvalues of (default mixing * dielectric matrix)
  average eigenvalue GAMMA=   1.8438
 10.1513  6.3210  3.6274  2.8289  2.8289  2.1984  1.5148  1.5148  1.5643  1.1619
  1.1619  1.0176  1.0176  0.7470  0.7470  0.7786  0.7786  0.5591  0.5591  0.6738
  0.6738  0.5976  0.5976  0.6292

 Free energy of the ion-electron system (eV)
  ---------------------------------------------------
  alpha Z        PSCENC =       111.11861347
  Ewald energy   TEWEN  =     98565.30284359
  -Hartree energ DENC   =   -136324.40590785
  -exchange      EXHF   =         0.00000000
  -V(xc)+E(xc)   XCENC  =      -427.97009950
  PAW double counting   =     41581.27225865   -39907.57321036
  entropy T*S    EENTRO =         0.00000000
  eigenvalues    EBANDS =     -3090.89182586
  atomic energy  EATOM  =     39413.54794328
  ---------------------------------------------------
  free energy    TOTEN  =       -79.59938459 eV

  energy without entropy =      -79.59938459  energy(sigma->0) =      -79.59938459


--------------------------------------------------------------------------------------------------------




----------------------------------------- Iteration    1(  30)  ---------------------------------------


    POTLOK:  cpu time    0.21: real time    0.21
    SETDIJ:  cpu time    0.01: real time    0.01
     EDDAV:  cpu time    2.64: real time    2.64
       DOS:  cpu time    0.00: real time    0.00
    CHARGE:  cpu time    0.11: real time    0.11
    MIXING:  cpu time    0.01: real time    0.01
    --------------------------------------------
      LOOP:  cpu time    2.98: real time    7.14

 eigenvalue-minimisations  :   720
 total energy-change (2. order) :-0.7555652E-03  (-0.1058582E-05)
 number of electron     418.0000314 magnetization       2.0021287
 augmentation part      200.1719284 magnetization      -0.0222081

 Broyden mixing:
  rms(total) = 0.36578E-03    rms(broyden)= 0.36566E-03
  rms(prec ) = 0.45102E-03
  weight for this iteration     100.00

 eigenvalues of (default mixing * dielectric matrix)
  average eigenvalue GAMMA=   1.8844
 10.1604  6.9454  4.0241  2.9137  2.9137  2.2151  2.2151  1.5160  1.5160  1.1882
  1.1882  1.0896  0.9852  0.9852  0.7721  0.7721  0.7296  0.7296  0.5591  0.5591
  0.6557  0.6557  0.5972  0.5972  0.6265

 Free energy of the ion-electron system (eV)
  ---------------------------------------------------
  alpha Z        PSCENC =       111.11861347
  Ewald energy   TEWEN  =     98565.30284359
  -Hartree energ DENC   =   -136324.18032188
  -exchange      EXHF   =         0.00000000
  -V(xc)+E(xc)   XCENC  =      -427.97121759
  PAW double counting   =     41581.38722412   -39907.69084413
  entropy T*S    EENTRO =         0.00000000
[...]
  0.000   0.003  -0.002 -10.258  -0.005   0.000   0.003  -0.002
  0.002  -0.002  -0.003  -0.005 -10.255   0.002  -0.002  -0.002
 -0.000   0.001   0.001   0.005  -0.002  -0.000   0.001   0.001
 -0.000   0.002   0.001   0.008  -0.004  -0.000   0.002   0.001
  0.014  -0.014  -0.001   0.000  -0.001   0.013  -0.014  -0.001
  0.000   0.002  -0.017   0.014  -0.001   0.000   0.002  -0.016
  0.002   0.000  -0.008  -0.016   0.014   0.002   0.000  -0.008
  0.017  -0.018  -0.001  -0.000  -0.001   0.016  -0.017  -0.001
 -0.000   0.003  -0.021   0.017  -0.001  -0.000   0.003  -0.020
  0.003  -0.000  -0.010  -0.019   0.017   0.003  -0.000  -0.009
 pseudopotential strength for first ion, spin component:           2
-10.278  -0.006  -0.002   0.000   0.002 -10.254  -0.006  -0.002
 -0.006 -10.285   0.001   0.003  -0.002  -0.006 -10.260   0.001
 -0.002   0.001 -10.282  -0.002  -0.003  -0.002   0.001 -10.258
  0.000   0.003  -0.002 -10.283  -0.005   0.000   0.003  -0.002
  0.002  -0.002  -0.003  -0.005 -10.279   0.002  -0.002  -0.003
-10.254  -0.006  -0.002   0.000   0.002 -10.205  -0.006  -0.002
 -0.006 -10.260   0.001   0.003  -0.002  -0.006 -10.212   0.001
 -0.002   0.001 -10.258  -0.002  -0.003  -0.002   0.001 -10.209
  0.000   0.003  -0.002 -10.258  -0.005   0.000   0.003  -0.002
  0.002  -0.002  -0.003  -0.005 -10.255   0.002  -0.002  -0.002
 -0.000   0.001   0.001   0.005  -0.002  -0.000   0.001   0.001
 -0.000   0.002   0.001   0.008  -0.004  -0.000   0.002   0.001
  0.014  -0.014  -0.001   0.000  -0.001   0.013  -0.014  -0.001
  0.000   0.002  -0.017   0.014  -0.001   0.000   0.002  -0.016
  0.002   0.000  -0.008  -0.016   0.014   0.002   0.000  -0.008
  0.017  -0.018  -0.001  -0.000  -0.001   0.016  -0.017  -0.001
 -0.000   0.003  -0.021   0.017  -0.001  -0.000   0.003  -0.020
  0.003  -0.000  -0.010  -0.019   0.017   0.003  -0.000  -0.009
 total augmentation occupancy for first ion, spin component:           1
  2.817  -0.010   0.017   0.098  -0.070  -0.792  -0.051  -0.013  -0.122   0.100  -0.022  -0.007   0.136   0.031  -0.024  -0.001
 -0.010   2.856   0.013   0.022   0.001  -0.051  -0.874  -0.019  -0.013   0.000  -0.160   0.030  -0.118  -0.010   0.023  -0.001
  0.017   0.013   2.961  -0.047  -0.037  -0.013  -0.019  -0.923   0.033   0.000  -0.030   0.006  -0.012  -0.155  -0.096   0.000
  0.098   0.022  -0.047   2.792  -0.058  -0.122  -0.012   0.033  -0.791   0.017  -0.344   0.026   0.035   0.092  -0.004  -0.002
 -0.070   0.001  -0.037  -0.058   2.994   0.100  -0.000   0.000   0.017  -0.973   0.210  -0.018  -0.029   0.053   0.138   0.001
 -0.792  -0.051  -0.013  -0.122   0.100   0.733   0.099   0.010   0.143  -0.127   0.018   0.002  -0.139  -0.027   0.032   0.009
 -0.051  -0.874  -0.019  -0.012  -0.000   0.099   0.852   0.023   0.004  -0.001   0.155  -0.037   0.129   0.007  -0.021  -0.008
 -0.013  -0.019  -0.923   0.033   0.000   0.010   0.023   0.855  -0.022   0.028   0.024  -0.002   0.012   0.169   0.098  -0.001
 -0.122  -0.013   0.033  -0.791   0.017   0.143   0.004  -0.022   0.755   0.016   0.309  -0.028  -0.030  -0.105   0.016   0.002
  0.100   0.000   0.000   0.017  -0.973  -0.127  -0.001   0.028   0.016   0.919  -0.187   0.021   0.040  -0.054  -0.147  -0.002
 -0.022  -0.160  -0.030  -0.344   0.210   0.018   0.155   0.024   0.309  -0.187   1.906  -0.294  -0.005   0.127  -0.136   0.000
 -0.007   0.030   0.006   0.026  -0.018   0.002  -0.037  -0.002  -0.028   0.021  -0.294   0.062  -0.001  -0.028   0.036   0.000
  0.136  -0.118  -0.012   0.035  -0.029  -0.139   0.129   0.012  -0.030   0.040  -0.005  -0.001   0.124   0.020   0.005  -0.007
  0.031  -0.010  -0.155   0.092   0.053  -0.027   0.007   0.169  -0.105  -0.054   0.127  -0.028   0.020   0.104   0.030  -0.001
 -0.024   0.023  -0.096  -0.004   0.138   0.032  -0.021   0.098   0.016  -0.147  -0.136   0.036   0.005   0.030   0.090  -0.000
 -0.001  -0.001   0.000  -0.002   0.001   0.009  -0.008  -0.001   0.002  -0.002   0.000   0.000  -0.007  -0.001  -0.000   0.001
 -0.001   0.003  -0.001   0.003  -0.004   0.001  -0.001  -0.010   0.006   0.004  -0.012   0.002  -0.001  -0.006  -0.001   0.000
  0.003  -0.001   0.002  -0.009   0.001  -0.002   0.001  -0.006  -0.000   0.008   0.014  -0.003  -0.000  -0.001  -0.006   0.000
 total augmentation occupancy for first ion, spin component:           2
  0.000  -0.000  -0.000   0.000   0.000  -0.000   0.000   0.000   0.000  -0.000   0.000  -0.000  -0.000  -0.000   0.000   0.000
 -0.000  -0.000   0.000  -0.000   0.000   0.000   0.000  -0.000   0.000  -0.000  -0.000   0.000   0.000   0.000   0.000  -0.000
 -0.000   0.000   0.000   0.000  -0.000   0.000  -0.000  -0.000  -0.000   0.000   0.000  -0.000   0.000  -0.000  -0.000  -0.000
  0.000  -0.000   0.000  -0.000   0.000   0.000   0.000  -0.000   0.000  -0.000   0.000  -0.000  -0.000  -0.000   0.000  -0.000
  0.000   0.000  -0.000   0.000  -0.000  -0.000  -0.000   0.000  -0.000   0.000   0.000  -0.000   0.000   0.000   0.000  -0.000
 -0.000   0.000   0.000   0.000  -0.000   0.000  -0.000  -0.000  -0.000  -0.000  -0.000   0.000  -0.000   0.000  -0.000  -0.000
  0.000   0.000  -0.000   0.000  -0.000  -0.000   0.000  -0.000  -0.000   0.000   0.000  -0.000   0.000   0.000  -0.000   0.000
  0.000  -0.000  -0.000  -0.000   0.000  -0.000  -0.000   0.000   0.000  -0.000  -0.000   0.000  -0.000   0.000   0.000   0.000
  0.000   0.000  -0.000   0.000  -0.000  -0.000  -0.000   0.000  -0.000   0.000   0.000  -0.000   0.000   0.000  -0.000  -0.000
 -0.000  -0.000   0.000  -0.000   0.000  -0.000   0.000  -0.000   0.000  -0.000  -0.000   0.000  -0.000  -0.000  -0.000   0.000
  0.000  -0.000   0.000   0.000   0.000  -0.000   0.000  -0.000   0.000  -0.000   0.000   0.000   0.000   0.000  -0.000  -0.000
 -0.000   0.000  -0.000  -0.000  -0.000   0.000  -0.000   0.000  -0.000   0.000   0.000  -0.000  -0.000   0.000   0.000   0.000
 -0.000   0.000   0.000  -0.000   0.000  -0.000   0.000  -0.000   0.000  -0.000   0.000  -0.000  -0.000  -0.000   0.000   0.000
 -0.000   0.000  -0.000  -0.000   0.000   0.000   0.000   0.000   0.000  -0.000   0.000   0.000  -0.000  -0.000   0.000   0.000
  0.000   0.000  -0.000   0.000   0.000  -0.000  -0.000   0.000  -0.000  -0.000  -0.000   0.000   0.000   0.000  -0.000  -0.000
  0.000  -0.000  -0.000  -0.000  -0.000  -0.000   0.000   0.000  -0.000   0.000  -0.000   0.000   0.000   0.000  -0.000   0.000
 -0.000  -0.000   0.000   0.000   0.000  -0.000  -0.000  -0.000   0.000  -0.000  -0.000   0.000  -0.000   0.000  -0.000   0.000
 -0.000  -0.000   0.000   0.000  -0.000   0.000   0.000  -0.000  -0.000   0.000   0.000  -0.000  -0.000  -0.000   0.000  -0.000


------------------------ aborting loop because EDIFF is reached ----------------------------------------


    CHARGE:  cpu time    0.11: real time    0.11
    FORLOC:  cpu time    0.02: real time    0.01
    FORNL :  cpu time    2.48: real time    2.48
    STRESS:  cpu time    2.91: real time    2.91
    FORCOR:  cpu time    0.21: real time    0.21
    FORHAR:  cpu time    0.04: real time    0.04
    MIXING:  cpu time    0.00: real time    0.00
    OFIELD:  cpu time    0.00: real time    0.00

  FORCE on cell =-STRESS in cart. coord.  units (eV):
  Direction    XX          YY          ZZ          XY          YZ          ZX
  --------------------------------------------------------------------------------------
  Alpha Z   111.11861   111.11861   111.11861
  Ewald   29397.63142 30879.60232 35774.30277 -1311.81991  -897.66244   174.38935
  Hartree 42174.21302 43601.53804 48090.65561 -1148.12895  -790.50600   114.03802
  E(xc)   -2204.08240 -2203.88783 -2203.00033    -0.31260    -0.23203     0.15016
  Local  -77794.30321-80705.32084-90075.71941  2450.78855  1683.44486  -282.23821
  n-local  -395.17880  -394.61509  -395.88516     1.39659     0.19481    -1.72168
  augment  3492.53115  3492.64705  3488.99668     2.10480     1.29466    -1.18027
  Kinetic  5204.74971  5205.19267  5195.96158     5.67402     3.22705    -3.38879
  Fock        0.00000     0.00000     0.00000     0.00000     0.00000     0.00000
  -------------------------------------------------------------------------------------
  Total     -13.32049   -13.72507   -13.56964    -0.29751    -0.23908     0.04859
  in kB      -1.93080    -1.98944    -1.96691    -0.04312    -0.03465     0.00704
  external pressure =       -1.96 kB  Pullay stress =        0.00 kB


 VOLUME and BASIS-vectors are now :
 -----------------------------------------------------------------------------
  energy-cutoff  :      249.84
  volume of cell :    11053.37
      direct lattice vectors                 reciprocal lattice vectors
    22.275708195  0.000000000  0.000000000     0.044891951  0.000000000  0.000000000
     0.000000000 22.275708195  0.000000000     0.000000000  0.044891951  0.000000000
     0.000000000  0.000000000 22.275708195     0.000000000  0.000000000  0.044891951

  length of vectors
    22.275708195 22.275708195 22.275708195     0.044891951  0.044891951  0.044891951


 FORCES acting on ions
    electron-ion (+dipol)            ewald-force                    non-local-force                 convergence-correction
 -----------------------------------------------------------------------------------------------
   -.136E+04 -.264E+02 0.846E+03   0.136E+04 0.260E+02 -.844E+03   0.203E+01 0.314E+00 -.251E+01   0.561E-01 -.124E-01 -.105E-01
   -.153E+04 -.675E+03 0.293E+02   0.152E+04 0.673E+03 -.306E+02   0.505E+01 0.145E+01 0.128E+01   -.707E-02 -.137E-01 0.206E-02
   -.144E+04 0.123E+03 -.350E+03   0.144E+04 -.123E+03 0.349E+03   0.175E+01 -.288E-01 0.507E+00   -.924E-01 -.340E-01 -.151E-01
   -.125E+04 0.808E+03 0.366E+03   0.125E+04 -.807E+03 -.365E+03   0.178E+01 -.769E+00 -.700E+00   -.918E-02 -.328E-01 -.216E-01
   -.122E+04 0.857E+03 -.562E+03   0.122E+04 -.853E+03 0.560E+03   0.378E+01 -.315E+01 0.180E+01   -.707E-01 -.454E-01 0.479E-02
   -.902E+03 -.107E+04 0.855E+03   0.901E+03 0.107E+04 -.853E+03   0.152E+01 0.968E+00 -.196E+01   -.714E-02 0.140E+00 0.519E-01
   -.782E+03 0.540E+03 0.123E+04   0.781E+03 -.538E+03 -.123E+04   0.921E+00 -.213E+01 -.302E+01   0.229E-01 -.834E-02 -.196E-01
   -.455E+03 -.314E+03 0.121E+04   0.456E+03 0.313E+03 -.121E+04   -.339E+00 0.105E+01 -.387E+00   0.169E+00 0.343E-01 -.815E-01
   -.357E+03 0.142E+04 -.212E+03   0.356E+03 -.142E+04 0.212E+03   0.109E+01 -.108E+01 0.985E-01   -.435E-01 -.492E-01 0.139E-01
   -.577E+03 -.440E+03 -.212E+01   0.575E+03 0.439E+03 0.208E+01   0.151E+01 0.103E+01 0.120E+00   0.684E-01 0.128E+00 -.931E-01
   -.479E+03 0.139E+04 0.627E+03   0.478E+03 -.138E+04 -.626E+03   0.158E+01 -.369E+01 -.125E+01   -.418E-01 -.436E-02 0.459E-01
   -.102E+04 -.701E+03 -.105E+04   0.101E+04 0.699E+03 0.105E+04   0.169E+01 0.166E+01 0.229E+01   0.134E-01 -.505E-01 -.274E-01
   -.715E+03 -.146E+04 -.377E+03   0.714E+03 0.146E+04 0.376E+03   0.112E+01 0.371E+01 0.149E+01   -.431E-01 -.300E-01 -.720E-02
   0.113E+03 0.198E+03 0.158E+04   -.113E+03 -.197E+03 -.158E+04   0.369E+00 -.179E+00 -.489E+01   0.675E-01 -.805E-01 -.238E-01
   -.533E+02 -.111E+04 0.121E+04   0.537E+02 0.111E+04 -.121E+04   -.378E+00 0.300E+01 -.384E+01   -.782E-01 -.203E-01 0.132E+00
   0.340E+03 0.108E+04 0.111E+04   -.339E+03 -.107E+04 -.111E+04   -.134E+01 -.231E+01 -.291E+01   0.277E-01 -.125E+00 -.667E-01
   -.877E+03 0.215E+03 -.114E+04   0.877E+03 -.214E+03 0.114E+04   0.435E+00 -.485E+00 0.810E+00   0.550E-02 -.493E-01 0.543E-01
   0.827E+02 -.155E+04 0.147E+03   -.826E+02 0.155E+04 -.146E+03   0.531E-01 0.205E+01 -.710E+00   -.114E+00 0.601E-01 0.473E-01
   -.359E+03 0.115E+04 -.106E+04   0.358E+03 -.115E+04 0.105E+04   0.145E+01 -.321E+01 0.383E+01   -.972E-01 -.138E-01 0.374E-02
   0.721E+03 -.407E+03 0.137E+04   -.720E+03 0.406E+03 -.137E+04   -.135E+01 0.114E+01 -.203E+01   0.575E-01 -.147E+00 0.242E+00
   -.214E+03 0.483E+03 0.255E+03   0.212E+03 -.481E+03 -.255E+03   0.206E+01 -.141E+01 0.538E+00   0.859E-01 0.188E-01 -.729E-01
   0.939E+03 -.124E+04 0.630E+03   -.936E+03 0.124E+04 -.628E+03   -.266E+01 0.350E+01 -.248E+01   -.168E+00 0.114E-01 0.440E-01
   0.920E+03 0.574E+03 0.937E+03   -.920E+03 -.574E+03 -.936E+03   -.430E+00 0.163E+00 -.118E+01   -.768E-01 -.122E+00 -.449E-01
   0.535E+02 0.346E+02 -.568E+03   -.545E+02 -.347E+02 0.567E+03   0.839E+00 0.363E-01 0.467E+00   0.108E+00 0.819E-01 -.384E-01
   0.610E+02 -.126E+04 -.816E+03   -.614E+02 0.126E+04 0.816E+03   0.407E+00 0.165E+01 0.753E+00   -.125E-01 -.621E-01 -.147E-01
   0.409E+03 -.425E+03 0.274E+03   -.407E+03 0.423E+03 -.274E+03   -.160E+01 0.125E+01 -.586E+00   0.424E-02 0.282E-01 -.105E+00
   -.270E+03 -.609E+03 -.146E+04   0.269E+03 0.607E+03 0.146E+04   0.954E+00 0.150E+01 0.389E+01   0.525E-01 0.704E-03 -.524E-01
   0.633E+03 0.139E+04 0.218E+03   -.632E+03 -.139E+04 -.217E+03   -.165E+01 -.315E+01 -.946E+00   0.967E-02 0.154E-01 -.178E-01
   0.838E+02 0.616E+03 -.140E+04   -.836E+02 -.615E+03 0.140E+04   -.139E+00 -.837E+00 0.291E+01   -.688E-02 0.582E-01 0.232E-01
   0.524E+03 0.123E+04 -.607E+03   -.523E+03 -.123E+04 0.607E+03   -.757E+00 -.135E+01 0.590E+00   0.498E-01 0.130E+00 -.474E-01
   0.616E+03 -.990E+02 -.139E+04   -.614E+03 0.981E+02 0.138E+04   -.170E+01 0.872E+00 0.543E+01   0.205E-02 -.310E-02 -.502E-02
   0.143E+04 -.359E+03 0.591E+03   -.142E+04 0.358E+03 -.590E+03   -.310E+01 0.132E+01 -.808E+00   0.177E-01 0.165E-02 0.289E-01
   0.144E+04 0.645E+03 0.268E+03   -.144E+04 -.641E+03 -.267E+03   -.470E+01 -.396E+01 -.827E+00   0.273E-01 0.373E-01 0.420E-01
   0.934E+03 0.616E+03 -.104E+03   -.932E+03 -.618E+03 0.104E+03   -.118E+01 0.111E+01 -.226E+00   -.438E-02 0.165E+00 -.109E+00
   0.101E+04 -.121E+04 -.347E+03   -.101E+04 0.121E+04 0.347E+03   -.168E+01 0.232E+01 0.322E+00   0.151E-01 -.520E-01 -.247E-01
   0.116E+04 0.599E+03 -.891E+03   -.115E+04 -.597E+03 0.890E+03   -.229E+01 -.166E+01 0.111E+01   0.614E-01 0.534E-01 -.286E-01
   0.863E+03 -.782E+03 -.995E+03   -.862E+03 0.782E+03 0.993E+03   -.146E+01 0.573E+00 0.142E+01   0.573E-01 0.980E-02 0.704E-01
   0.153E+04 -.230E+03 -.430E+03   -.153E+04 0.229E+03 0.429E+03   -.356E+01 0.967E+00 0.770E+00   -.763E-01 0.419E-01 0.647E-01
 -----------------------------------------------------------------------------------------------
   -.120E+00 -.229E+01 0.922E+00   -.705E-11 -.142E-11 0.364E-11   0.635E-01 0.225E+01 -.845E+00   0.299E-01 0.600E-01 -.567E-01
 
 
 POSITION                                       TOTAL-FORCE (eV/Angst)
 -----------------------------------------------------------------------------------
     15.00050     11.83805      9.69221         0.018848     -0.022577     -0.022856
     15.86440     13.92966     11.44508        -0.010453     -0.023683     -0.019251
     15.34582     11.37166     12.45502        -0.024411     -0.029997      0.011040
     14.81408      9.18085     10.65752        -0.003258      0.012856     -0.018999
     15.14536      8.79398     13.39753         0.019248      0.032508     -0.002327
     14.06964     14.88217      9.52162         0.020029     -0.000760     -0.039241
     13.37859      9.84769      8.32829         0.003420     -0.013637     -0.011347
     12.52692     12.50320      8.64952         0.020578     -0.001188     -0.005691
     12.88129      7.68333     12.15024         0.008362     -0.015275      0.003118
     13.20555     13.07506     11.51637        -0.038635     -0.027273     -0.015930
     13.01007      7.31291      9.44286         0.015822      0.005804     -0.002256
     14.22037     13.52425     14.07046        -0.004332     -0.016868     -0.000202
     13.97499     15.77737     12.31131        -0.003406      0.041721      0.019867
     11.16881     10.77202      6.87807        -0.018744      0.004152      0.062470
     11.62033     15.06957      8.13455        -0.010407     -0.037381      0.011454
     10.92164      8.18063      7.87282         0.004004      0.017259     -0.002107
     13.73043     10.85258     14.71650         0.001791     -0.000149      0.050106
     11.59389     15.55005     10.88624        -0.033554      0.037570      0.013697
     12.89426      8.14670     14.90583         0.017731     -0.027140      0.026019
      9.76117     12.89189      7.93173        -0.003647      0.016434     -0.028353
     12.07551     10.46596     10.75268        -0.013712      0.004851      0.012626
      9.14038     15.09009      9.58048         0.055824      0.003835     -0.017284
      9.41462     10.26972      9.04568        -0.026710     -0.004827     -0.003648
     11.33816     11.64261     13.27345         0.002820      0.030008     -0.007982
     11.58622     14.51786     13.47544         0.011636      0.027586     -0.004812
     10.56341     12.86592     10.76367         0.010004     -0.007601      0.006615
     11.90428     12.88070     15.76374         0.007026     -0.033986      0.037364
     10.49375      8.08790     10.65184         0.010606      0.056175     -0.003261
     11.18926     10.15709     15.80628         0.004109     -0.000398     -0.002058
     10.66336      8.72947     13.42254        -0.043810     -0.014215     -0.027366
      9.37359     11.84513     17.02659        -0.013447     -0.003427      0.017710
      7.90902     12.55254     10.04320        -0.027203      0.009879      0.030969
      6.85084     10.09539     10.66426        -0.023490      0.013211     -0.025682
      9.28036     10.40329     11.78638         0.033790     -0.024499      0.018829
      8.98661     14.58896     12.29187         0.013018     -0.016797     -0.007595
      8.72448     10.50945     14.58607         0.013591     -0.000420     -0.004188
      9.31544     13.25353     14.67514         0.002337      0.015062     -0.054904
      7.40913     12.20730     12.77344         0.004624     -0.006813      0.005454
 -----------------------------------------------------------------------------------
    total drift:                               -0.026842      0.023201      0.020306


--------------------------------------------------------------------------------------------------------



  FREE ENERGIE OF THE ION-ELECTRON SYSTEM (eV)
  ---------------------------------------------------
  free  energy   TOTEN  =       -81.07481358 eV

  energy  without entropy=      -81.07481358  energy(sigma->0) =      -81.07481358
 
 d Force =-0.2659617E-03[-0.112E-02, 0.584E-03]  d Energy =-0.9421444E-04-0.172E-03
 d Force =-0.1266803E+02[-0.126E+02,-0.127E+02]  d Ewald  =-0.1266801E+02-0.138E-04


--------------------------------------------------------------------------------------------------------


    POTLOK:  cpu time    0.23: real time    0.23


--------------------------------------------------------------------------------------------------------




--------------------------------------------------------------------------------------------------------


  
 reached required accuracy - stopping structural energy minimisation
     LOOP+:  cpu time   17.29: real time   17.37
    4ORBIT:  cpu time    0.00: real time    0.00

 total amount of memory used by VASP on root node    54479. kBytes
========================================================================

   base      :      30000. kBytes
   nonl-proj :       2331. kBytes
   fftplans  :       4332. kBytes
   grid      :      10964. kBytes
   one-center:         46. kBytes
   wavefun   :       6806. kBytes
 
  
  
 General timing and accounting informations for this job:
 ========================================================
  
                  Total CPU time used (sec):     1724.236
                            User time (sec):     1711.783
                          System time (sec):       12.453
                         Elapsed time (sec):     1781.901
  
                   Maximum memory used (kb):       67712.
                   Average memory used (kb):           0.
  
                          Minor page faults:      1022527
                          Major page faults:            0
                 Voluntary context switches:        56714
