18
Energy = -62.28973821 eV
Sn 11.28391561687712 9.08045051712529 12.548225641570692
Sn 8.335783611546788 10.384820703010515 11.658272041234492
Sn 12.484954865424184 7.994908254072745 9.761373089572613
Sn 7.933841969340996 12.749265871265976 8.527967334811366
Sn 12.246298275912013 11.861962835572879 13.24384024882854
Sn 6.781221639261344 10.055853814723164 9.0834541367163
Sn 9.149938601110422 10.963925420804317 6.549592150309798
Sn 9.565973791738578 14.919216680153466 9.447336796169143
Sn 10.691130881243705 6.139967310342202 11.396177150370653
Sn 7.941343225950447 7.235225817642117 10.356902207903987
Sn 8.162690116710744 8.217055555193088 7.017513118401748
Sn 10.226611469223847 9.93904769049258 9.295121670802418
Sn 13.215290838227322 12.524818059492086 10.37753694225774
Sn 10.189562657114578 6.443392414003611 8.428497113598056
Sn 10.253067278736514 12.767474455893716 11.288772937435061
Sn 13.972517991900126 9.918904000981112 11.471910581556031
Sn 8.804938298017385 7.7768238090745845 13.26242578153085
Sn 11.20401496512031 12.7006956074043 8.081886670239534
