16
Energy = -55.64824477 eV
Sn 9.78423673547625 11.923631209209843 6.733681562824214
Sn 11.59251806294355 9.407877915686129 7.08858967330545
Sn 8.703555856290434 9.267674184394457 5.659901450763306
Sn 12.944258546632339 9.109371823644516 9.97541462574372
Sn 11.566292453829965 11.873785064877355 9.283778225668021
Sn 8.710473214715801 8.068828353216915 8.342346812783541
Sn 11.323455098139611 6.684990615282621 8.810594522695585
Sn 6.955111038833793 10.641784278161325 7.646589276630367
Sn 8.494192880143423 12.970823070694195 9.309095476527299
Sn 9.054697491496515 10.178572316816886 10.204794807370257
Sn 11.437752721327218 7.224825680327762 11.871961683394968
Sn 6.1420638470164715 11.251539935202187 10.395855285049414
Sn 11.273747878156918 10.35980614476185 12.230381090703885
Sn 8.764737562670486 6.140673521065054 10.636171931704407
Sn 8.784638586274125 8.561640890678486 12.776832662923837
Sn 6.4005206464156075 8.192783896769066 10.875937179223616
