15
Energy = -50.42843652 eV
Sn 17.53213786895197 -0.35861076824888694 13.418732210254477
Sn 16.18449895108748 15.780619442518269 14.032880684676691
Sn 0.49353989214105837 15.433463776149779 13.990522556810975
Sn 1.706438665504626 -0.4976744694564661 14.131025839310448
Sn 15.5566046533985 18.394892435139425 15.887503193547582
Sn -0.5636589950050047 16.78291241977987 16.464461372540203
Sn 13.644184934881258 16.054562806456552 15.447070752741013
Sn 15.021981730737037 15.95132486915902 18.01428992611016
Sn 1.3815370869332722 0.2309649807049628 17.026030877401414
Sn 14.561969623947544 16.216917343595178 2.2774564845435856
Sn 2.3994682657019 1.1989144561293965 0.7923164965996533
Sn 16.8397563709031 17.428259520877106 3.5460556232958744
Sn 0.001606472656689702 -0.20890375618498985 1.2467315028400316
Sn 15.795925626966655 -0.07722960688133203 0.6889319220871126
Sn -1.1922973316264185 -2.9667196325590304 1.0433554123694355
