14
Energy = -48.07517231 eV
Sn 5.425739541965432 13.418732646061097 10.78361299770812
Sn 9.188590221692285 9.16730556627927 10.79803286244392
Sn 7.743980324094271 11.853397242937 11.186423698264868
Sn 8.445152638504196 7.203131448492171 8.618866251034014
Sn 7.232789680547819 10.174006320935277 8.395971685568087
Sn 11.243291065502609 8.551027305571107 12.76493804076963
Sn 11.999815987360957 10.52759278097172 10.527231642014481
Sn 6.901742253418013 13.074502373865277 8.318745481699208
Sn 10.215113497862799 6.165595458355709 10.944817224432217
Sn 13.206189801927769 9.220086595354198 8.0473236696354
Sn 9.725688040589123 12.464362969555648 8.983239697460863
Sn 10.291451558359439 9.69440874187044 7.855774575337961
Sn 11.361103127573262 6.749362510617986 8.008619774596225
Sn 12.959415059021078 7.450846423553158 10.558526904497159
