11
Energy = -37.0394188 eV
Sn 12.651557685946923 12.287925128074066 8.033309605089398
Sn 9.707241201203322 11.987278637692734 8.167542695740133
Sn 12.93890044280293 11.366315114397512 10.743065288681771
Sn 11.184055557220127 9.241063708782589 8.801352655373382
Sn 13.025132479691125 8.495424537679096 11.052215224711608
Sn 11.059707817393742 13.782275748077225 10.335325496906362
Sn 8.029388249930562 9.545219214461223 9.375367328723078
Sn 10.343374635021764 8.36688149004043 12.104966921963564
Sn 8.02745924925464 7.122821491586201 11.05105887659555
Sn 9.72860554195005 11.3641093846608 11.248344640793698
Sn 7.651304183647441 9.854085469515665 12.509890410644859
