19
Energy = -65.80389549 eV
Sn 13.52710655090499 12.217009949055965 16.262062816376762
Sn 11.66569812121576 10.605006987097415 14.328808517877164
Sn 16.049058237144468 11.873987286256185 14.746588947796237
Sn 15.340150611288072 14.659568029685358 16.000068873915716
Sn 12.802514530348958 14.14765064208691 14.080582517510381
Sn 17.85925555368193 14.29262211361359 14.457477280883436
Sn 9.499993943145814 12.345932016425422 13.503768109542904
Sn 16.053590523351023 10.675685915898562 12.096143380704271
Sn 13.219277035665156 11.72324123202104 11.923477899405249
Sn 15.183270149431804 16.054054889838326 13.296329683850903
Sn 16.347226426387877 13.539931339969746 11.99343635666883
Sn 13.60006846826041 14.634007931541776 11.136206877541658
Sn 10.243664312711369 14.951061580030254 12.19222298260621
Sn 10.52114123684485 9.665039613282984 11.73312637429938
Sn 10.825162630208526 13.124513920223457 9.80478466229361
Sn 7.9575609082534635 13.103111323531317 10.974603061356056
Sn 7.628130350402501 10.342265742538311 12.261872978118804
Sn 12.049245279471467 10.489910285426248 9.337826306876668
Sn 8.883295321195233 10.702967033824795 9.312778652573785
