15
Energy = -52.6369076 eV
Sn 10.429952358656934 10.116954725716864 6.7976822673516955
Sn 8.42297691986794 7.9377460650190494 8.384138466797916
Sn 11.048480969879328 7.189058332924096 7.025941796343352
Sn 11.822604027194046 11.638276739125441 9.104979049937215
Sn 9.06335723496026 10.667649408951767 9.577708397523937
Sn 10.90777053273014 6.738096648478124 10.032497090368475
Sn 12.992349928723527 8.87895164197837 8.489460460932845
Sn 11.973741799444483 13.912243874019065 10.983811180783306
Sn 8.917375850854976 13.595047966091075 10.182907692780748
Sn 9.87401943049174 13.282514682766669 13.101266339513499
Sn 11.480088267992832 9.508139539597462 11.202366284345885
Sn 12.47294010335622 11.593341529674321 13.041808622635289
Sn 8.638791082768991 8.37186971246373 11.508702018833874
Sn 7.539516458756754 11.620604049718532 12.1100762278289
Sn 9.808374094527965 10.341844143681271 13.848993164228913
