11
Energy = -37.18534365 eV
Sn 7.9190763911622755 12.685912691457782 11.915643690202318
Sn 7.08738557181321 10.407491295494175 13.732162376565029
Sn 8.229368219477992 9.48776520083262 11.25304728615303
Sn 10.199269124236913 11.641402139590626 10.495652548223132
Sn 9.966383346898054 11.017130654976203 13.550057672686563
Sn 11.098053797890449 8.760998250717993 11.941971351639667
Sn 12.543569040438582 13.140299314216659 9.400736009914025
Sn 12.518539629539722 9.854856768809741 9.565971415945945
Sn 13.1110153749754 11.758663175254291 12.184537692990787
Sn 13.86686363712458 11.209948425250401 7.376219442341648
Sn 15.061704067872496 11.449294052810401 10.066996451906808
