19
Energy = -65.89286511 eV
Sn 8.798472440963678 8.645675486215714 10.94045024129577
Sn 7.601733114060827 9.767631216171837 13.570164308532533
Sn 10.126782394245 8.086467422360492 13.705837451265413
Sn 7.209306101794253 11.342878039351554 10.981345531780423
Sn 11.706025262550872 9.627866191266316 11.769259432173586
Sn 9.803192212005442 10.750800792994847 15.400140794418885
Sn 10.045993642804449 11.95933049686899 10.601797635032968
Sn 11.171870816487033 9.101591927413654 8.75212723934738
Sn 13.854808500572522 9.963814599851482 9.562892260549013
Sn 11.978357774960942 11.960478933615109 7.970882947186969
Sn 8.303849420436828 12.777435686484537 13.538907010968723
Sn 16.43492702584791 11.001972449012131 10.425094152677406
Sn 10.467277447696562 14.932703159170861 12.349696311507495
Sn 14.312552970374723 11.01240899656544 12.824705894177631
Sn 11.667931972469589 14.514816967020991 9.573173083528308
Sn 14.544891911166973 13.268055776808387 9.154366040867082
Sn 11.418689332029814 12.156384973174896 13.384484149689913
Sn 16.132229555111678 13.554599895665433 11.864465748560079
Sn 13.338722499380104 14.302675546933902 12.248943338678089
