23
Energy = -80.71001043 eV
Sn 19.853913691795544 17.43485186170406 17.05709516067897
Sn 18.834604634974347 14.749361768462114 18.395151503840378
Sn 21.135048922965755 14.673692944560134 16.428766392850015
Sn 18.130200368706614 15.440240596659429 13.434676213289572
Sn 18.386685825054204 13.219739139310615 15.784562227141835
Sn 17.1468952369857 16.156007610694274 16.436367624294082
Sn 20.850294360266602 16.71037876419783 14.083143459426937
Sn 20.497810608760744 13.66201599442201 13.62421966053512
Sn 15.38964972128096 14.120693598885845 14.944497512205228
Sn 14.803252437435845 17.365825794171677 14.752583838463828
Sn 18.263515330083465 18.273244727392846 14.574351027232854
Sn 15.331353068482784 15.811895366845592 12.318341644209607
Sn 11.893590568387486 15.387244552581157 12.476408594364194
Sn 7.826251319828055 14.418519923061524 15.487530494666936
Sn 12.484537388411633 15.649891636571578 15.533374275224311
Sn 14.188321691828955 13.049500675670721 11.925943052852418
Sn 11.314113527383103 12.47597845824314 11.229290900818103
Sn 9.753181869109909 16.52058006779575 14.499164635794973
Sn 12.566141662586864 13.08402830080017 17.145912369665915
Sn 12.291805058615092 12.636233510825344 14.216783498420726
Sn 9.407711085181939 13.548387376345499 13.18175531919957
Sn 10.154958991942312 15.000411416147063 17.397197360247215
Sn 9.796621916675933 12.148125818198203 16.15462441922032
