25
Energy = -87.45410612 eV
Sn 10.0058879581178 11.404387057340921 8.737252573559699
Sn 14.478404094206756 13.132095219358915 7.931022412405922
Sn 14.097827869865247 8.2082352123403 9.708538067462483
Sn 7.796039276394555 12.854261134198165 10.512691243773936
Sn 15.859067425409503 10.740258980829259 9.491604542052924
Sn 12.903282690087366 10.42695568192019 7.9763058163652785
Sn 10.26814959649145 14.473420358354854 9.475407744370962
Sn 8.578949911176608 15.46919763158703 11.885912994546866
Sn 9.823296457462513 11.104174942828047 11.924255220675105
Sn 15.807710157595015 13.811271328246034 10.530658257231893
Sn 12.562312928288012 7.705499987714533 12.366817335594474
Sn 12.740498852541725 12.908003440570905 10.298864475751753
Sn 10.92555628756841 8.592123174224291 9.771974224212912
Sn 14.547313108567913 14.11014536876285 13.243553462786828
Sn 9.55779138255883 8.155121597995747 12.600445889453935
Sn 16.40140794773482 11.53305917750419 12.452314551008355
Sn 11.781289884030713 15.40434403086714 12.066187328087409
Sn 7.634672702648175 12.986278183573832 13.631208736880957
Sn 13.594299096821292 10.465799488030926 11.786456517087593
Sn 11.648724619035677 12.670506867024379 13.641102673571476
Sn 8.186326285738419 10.054357435805123 14.474911254565265
Sn 9.957491590881295 15.072338652496871 14.564729177213202
Sn 14.282410341081647 11.374007004148474 14.63830750155592
Sn 11.316230503671289 9.540302508956778 14.833128407439457
Sn 9.745626916153663 12.304423419448652 15.95691747647427
