20
Energy = -70.33910195 eV
Sn 12.535079544251348 11.736646856205812 6.995947993680693
Sn 11.316227836870533 9.256345186520141 8.308558713239156
Sn 14.443009429441954 9.839061163728399 8.302526650242903
Sn 9.758641551719084 11.959334107500641 8.133554331996333
Sn 14.734255667448734 12.91190364139902 8.791592690753498
Sn 11.905846391518347 14.096170995134415 8.913134461056892
Sn 10.653853448359229 11.872044826424865 10.922874256897106
Sn 8.355869165976909 10.735781777646524 12.457174856294191
Sn 10.282553796109354 8.46396962832237 11.25548853221657
Sn 13.131428819308441 9.683254334119388 10.916531937230996
Sn 8.587218291918225 13.794362712351157 12.866890922182488
Sn 10.580699810138578 14.512207925660267 15.107440980758474
Sn 13.521605455270759 12.632097461115194 11.474709361649175
Sn 10.971012606532376 10.169581385104058 13.888598816431177
Sn 11.33358351189039 14.94420257252914 12.123410421701523
Sn 13.496136132617206 14.091402575695751 14.134072410356652
Sn 12.654249032143994 7.882587680482695 13.210781102464624
Sn 8.947841831840037 11.908604972022244 15.382029061202093
Sn 14.017095692581593 10.713244450943845 14.011452414044463
Sn 12.037174011472334 12.060577774503951 16.066612113010052
