21
Energy = -72.84432065 eV
Sn 15.793844262465186 14.103746128241992 17.925227865856034
Sn 16.69279449685203 15.786611456833935 15.437164950916088
Sn 15.884696994840413 11.449304520004985 15.710699509716976
Sn 18.119196109302436 13.304792433960351 16.05083563650053
Sn 14.187093594285827 16.472951762734606 16.757436906497553
Sn 13.839989058499171 13.594364610977419 15.635686279787961
Sn 15.982474977072396 13.397519383677038 13.166308237872933
Sn 11.116707712456849 14.759427725343208 13.8838170021867
Sn 14.082539346627621 15.870965916408187 13.607483703795104
Sn 13.999337509284226 10.574191196487597 13.126971343344835
Sn 12.954960361210924 13.191599140343811 12.068813980586384
Sn 11.511348923270743 11.862679045423672 14.554055247909256
Sn 12.965132448315527 10.68102622029213 9.874519300573319
Sn 9.067457448175654 10.388551289070124 13.868150415867293
Sn 11.27747432195952 9.372885891769773 12.229732557947434
Sn 13.25161957644116 13.768385747228121 9.178522624136145
Sn 10.591533746433376 12.274307805294788 8.412899032973552
Sn 9.207502750984972 11.675259287828696 11.23761929223634
Sn 10.185027936271279 9.51767204633759 9.308049796709795
Sn 10.35127922991741 14.453051217463178 10.893883895410616
Sn 10.740198780843624 15.142654652556967 8.122570232879918
