25
Energy = -86.77067806 eV
Sn 9.79689103930504 13.639631686642044 7.909117682617615
Sn 10.609711777831073 16.44229843815525 7.908788155703452
Sn 13.931001592938381 9.742852922198066 8.94865355337329
Sn 7.4000876007530385 12.035913253282358 8.704524503405901
Sn 13.056085316285381 7.765045867071947 11.057111183029265
Sn 7.046661694497598 15.045788953321221 8.00161398010292
Sn 13.698664292119156 12.409338815338696 10.202046382681447
Sn 11.894920472870075 14.792714418306259 10.074935648492417
Sn 15.847687448480249 9.31224394317915 11.121434546618326
Sn 11.694416237075542 11.050751327594234 12.002364189339596
Sn 8.910599143697793 15.925498327654092 10.31806982937493
Sn 9.533962699287503 12.871468812050088 10.935466982985199
Sn 6.644541459446314 13.954463544300106 10.86376588390971
Sn 15.466011959629311 6.714803913016755 12.49931533669982
Sn 15.133472919422179 14.272658170430566 12.289792669954215
Sn 12.286765047861975 13.301692117053953 14.000001714526762
Sn 10.198153508848716 11.28600647803387 14.91648094911414
Sn 15.112831079836885 13.249665528880822 15.291470382924427
Sn 12.60868917944553 15.866596549898828 12.748745240930988
Sn 14.811030655905368 11.257593031599349 13.12574547643665
Sn 10.808500020417833 8.587128537358456 13.325574178052653
Sn 13.808709362363107 8.552249850186803 14.037629818021509
Sn 11.890349751245225 9.174381143843798 16.298959055993
Sn 12.525880505870813 12.149734059195751 16.837521008285563
Sn 14.946276615492241 10.26138169233353 16.242773028353366
