21
Energy = -72.6142907 eV
Sn 13.519594825099551 14.063554736824113 12.111187262838342
Sn 14.703375872586513 12.78150895015536 9.560953050497382
Sn 12.006740753963225 14.422348266595357 9.677239470783611
Sn 12.032668913536696 11.645148345821864 12.86486592458437
Sn 13.332451465890903 10.292710052900292 10.287997850391347
Sn 9.68275700196675 13.32703597468921 8.01637686926451
Sn 12.387934183851968 11.899091089346623 7.732667705564027
Sn 10.313623393296323 11.354690558748324 10.361879486061275
Sn 13.020558533423706 8.725429319287354 12.947566901046734
Sn 13.012990538269587 8.926284836998533 7.574975919788705
Sn 8.731008920531956 11.964316347865772 13.002350247661914
Sn 10.503363782607943 9.618595658427196 14.472665036221564
Sn 7.308600015868619 12.411663379715067 9.965873579227752
Sn 8.62214087090799 10.4146796490615 7.812736387526484
Sn 12.23868140729446 7.352913939565459 10.026092746920101
Sn 10.202804441697845 7.784741442886213 7.468687050088537
Sn 5.915600136586084 10.877383411289976 12.151517257388418
Sn 10.490049858971947 7.0818892920586585 12.626777017263281
Sn 7.867821842264692 8.826275511453632 13.034479402416885
Sn 9.285276528470247 8.527666172188011 10.204886812169107
Sn 6.40957283743376 9.289596013168778 9.638638284873956
