32
Energy = -111.9354207 eV
Sn 14.939708016744353 13.038260486679295 13.36826432249981
Sn 14.448080338814357 15.393393180672838 11.464902154173469
Sn 13.217622756258931 7.200462141587951 13.17475323613009
Sn 14.640295587623863 11.21060664380662 10.655209773777225
Sn 10.52409217600301 9.612233510286734 14.976224259879231
Sn 7.958320165151344 11.605777926672427 12.57638861677246
Sn 14.582152436879843 16.005674206722272 14.454401157022533
Sn 7.417172795167318 12.161425603113667 9.417368817304931
Sn 7.8461364028587095 14.454658711111753 11.557156802910388
Sn 14.058009442041458 13.563719134808833 16.283530696088118
Sn 10.423908740368553 11.289183960636663 10.752208155266885
Sn 9.967759354827857 14.580019246968659 13.780037159545738
Sn 12.513714533193864 9.933485584376765 12.428803443409585
Sn 10.009714163439977 13.962541213465252 9.315258115510881
Sn 12.800059495223202 11.973230332044169 8.444623474219402
Sn 8.516419385242049 9.48353186979337 7.812496020341896
Sn 11.871393472947675 15.72105268222257 15.83980595587922
Sn 9.992715682771765 8.009767875627468 12.485142685509327
Sn 8.925512289820977 11.966266034055005 15.3319916404051
Sn 7.621259775406829 9.18613116742322 10.922979672518714
Sn 10.98009070333929 6.7227914169336564 15.080779239313863
Sn 14.389675902710989 5.7258846050984085 10.931215701555022
Sn 12.044852095949995 16.751582373207892 12.89321267823992
Sn 12.038491152475872 12.307982894681482 14.629162092988652
Sn 8.643085386724248 12.314336557748396 6.6897778597130095
Sn 13.898071415061969 9.640485755291035 7.003100705237309
Sn 11.081130577264494 10.627604120768504 6.0256708386000115
Sn 12.08324011620398 13.733670830300182 11.824365197141875
Sn 11.368515299557087 13.718368759561928 6.599196437518755
Sn 14.275396137320378 8.358969367930081 9.67456434646003
Sn 11.594632620911959 6.5161790096059935 10.363889214056659
Sn 11.299729298463147 9.166716118444379 8.854378847093573
