37
Energy = -129.49409016 eV
Sn 12.817606792329622 10.280654656082008 6.047065285886944
Sn 12.248262903132455 12.880397665697082 7.121943060422549
Sn 14.068991672737413 14.928870457487307 8.230480762928618
Sn 11.717337860113426 7.449655772292848 8.283792545621273
Sn 9.99873246268195 9.39161583762913 6.823322472422205
Sn 14.875172728262685 10.494105363472931 8.192886653276682
Sn 16.34229305810341 13.079274229735965 8.795189620156016
Sn 9.45090154511368 13.965457283160108 6.9988303738629
Sn 11.585561583749193 10.464538041937237 9.192542397814748
Sn 13.77556324704512 12.533467172923409 10.36972274015322
Sn 9.889548529683507 13.070161567183618 10.073887330571745
Sn 7.980748754691448 11.501025991686134 8.106236931803222
Sn 9.900681507695317 7.381516930848799 10.604063721887128
Sn 13.82490518602186 8.525014865387485 10.153437483671778
Sn 16.94528597782817 12.603789765453785 11.749725629166642
Sn 7.074543366437797 14.51448656853678 8.849872523067676
Sn 12.199234427235782 15.23979947150023 10.51891046462673
Sn 10.098221520192494 6.2332549270531175 13.489125430329079
Sn 15.096206977561689 10.344714100727213 12.512861092309041
Sn 12.556283290374157 7.890188050992689 12.884784383217548
Sn 14.401429708339569 11.560346685883577 15.4351704440224
Sn 7.5101979739279825 7.159615820852795 12.21755950972431
Sn 7.95525566691624 14.931950188785432 11.8258885676093
Sn 6.787171139100844 12.188246729470748 10.885682631313056
Sn 14.681239026634048 13.637514495202897 13.202331090280774
Sn 12.013571759802007 11.000489565859377 13.185549520909422
Sn 9.13015767494847 10.077514551748752 11.686619518165662
Sn 9.566157351203003 16.163229406316635 9.375199368819164
Sn 10.209168366901253 13.511247221456408 13.373174117578635
Sn 12.430141703487665 15.465179132094532 13.447763704773074
Sn 14.827132455758463 8.535613392656357 14.841912314816556
Sn 6.15659229419991 9.783479372471398 12.649796584110858
Sn 12.658621494552376 8.921571769192035 16.975453015011077
Sn 9.038958477989146 13.11735437086905 15.998948897505798
Sn 11.512706341831617 11.50805938240342 16.223107443062105
Sn 10.343685305665744 8.814445417133284 14.97247126523019
Sn 8.19363529568609 10.71405920575218 14.566596531808244
