39
Energy = -137.69678319 eV
Sn 6.89079493675104 6.928729263951289 4.087053422042818
Sn 7.79917797192435 9.2281659472658 5.769549224638544
Sn 9.92019841645356 7.58644272026135 3.769529014156781
Sn 9.043514732961953 4.904240804051991 5.052356973006497
Sn 6.620873226009068 5.900995407535197 6.884751529283249
Sn 9.226108475118963 12.279063536997848 5.504636551985924
Sn 12.236376025200347 11.675884607469472 5.938082019576425
Sn 10.789252319330878 14.092873564823401 7.5598536112858845
Sn 6.157246824069986 8.519718191170238 8.4373838810638
Sn 6.3412652339349975 11.8908796570887 6.777884087196392
Sn 11.760946595266068 6.279917915327942 5.9110769968111425
Sn 9.106647501992311 8.544551582464393 8.75616927713239
Sn 15.161383020012822 9.512009300894526 8.704420843616163
Sn 9.56888181313431 5.7465558735052635 7.953381697535825
Sn 7.855989062866531 14.682314024978433 7.101040179266278
Sn 10.794927613731765 9.123897624622922 6.305642548968515
Sn 12.829006169884087 11.619036458020473 8.886225538931113
Sn 9.155535924295371 14.3489979421252 10.096507955224332
Sn 6.682571321768937 6.437999842665954 10.573026577957412
Sn 13.85471635042066 6.688573326008124 8.734815434863515
Sn 8.905947711499117 11.749022338445831 8.61395478556383
Sn 7.237138815934546 3.8446518603161177 8.934298168727414
Sn 6.364608410391465 13.351317036375027 9.571611644513109
Sn 14.578865309017205 10.963797506683893 11.436987683235031
Sn 9.391362741152381 7.793652207174334 11.76220034951043
Sn 12.0966520561896 8.80661078732529 9.804116692386451
Sn 9.52498483693868 4.8582424866404175 10.760157499558382
Sn 15.17949382402947 7.921703690556883 11.352014195304715
Sn 7.097828312072451 9.8990249209473 11.45383643860918
Sn 4.61672520902546 10.819440046378789 9.707486188875475
Sn 11.214868625208545 11.338154013392138 11.336111391114942
Sn 8.614003934602414 11.794358277391396 13.30634438351256
Sn 4.20131548468872 9.614770048418833 12.649884921909884
Sn 12.547209231732646 6.245926745060977 11.48527683614916
Sn 8.978949364939611 8.973772392368218 14.532735220272059
Sn 6.355625989805407 7.4662747048876525 13.449675612046468
Sn 12.647809355029757 9.073344821981996 12.954127285838467
Sn 5.721914555216519 12.482148340467095 12.588613594168294
Sn 6.211126523413399 10.294784009974036 14.779023570176049
