38
Energy = -133.68611124 eV
Sn 6.798901851469817 7.720763196226554 5.196328370053322
Sn 8.921476816276918 7.8638022591115115 3.2157308239625833
Sn 9.868919126737358 10.831738674875988 3.5203179670897957
Sn 9.68139559868498 6.199894058067397 5.582247669489157
Sn 9.471791701051062 9.34262773168358 6.079582235366597
Sn 6.386653688580695 10.117409947291533 6.932384385185871
Sn 12.456205850952331 10.117879282877597 4.839274346393998
Sn 4.603980182287509 6.738166750332448 6.916091118115868
Sn 11.970905578359888 7.852340494762669 6.78447231215719
Sn 11.500251454908804 12.86633628859777 6.009291962525515
Sn 9.751941338542101 14.834727639751476 9.184267467676799
Sn 8.353957759460684 12.350723085139219 5.844685358989828
Sn 7.8067459534090355 6.409537274650026 8.006947996482157
Sn 7.97701017311496 9.236003661435937 9.332265863079197
Sn 3.76545094039411 9.3528601556608 8.043067405487438
Sn 13.297267938624728 8.778792564699039 10.71721804621571
Sn 12.940418659157126 10.756157111751268 7.874857420544696
Sn 7.272590302451593 13.200379133634268 8.749742344106687
Sn 12.533028396219997 13.776518608026633 8.934982100860852
Sn 12.461376647256936 6.30148223676158 9.27113224182355
Sn 9.94621069649768 11.674406104869886 8.442665619365284
Sn 5.681893521543482 4.732525520223296 9.139642127161046
Sn 9.858248901428116 4.9954854498323105 9.886341439521358
Sn 13.528868946839836 10.385050703327952 13.324831141956432
Sn 10.206494194343593 7.93502835773241 10.982008512581935
Sn 5.23041992204924 7.598134346894322 9.937665147689689
Sn 11.730277803961025 11.394827929384101 10.891617098082609
Sn 10.98701650093429 14.240480745576706 12.024334864166832
Sn 8.011748680071381 14.187093229605814 11.726155416624184
Sn 6.930073724995863 8.509562350063936 12.27889902965107
Sn 6.671506234542588 11.328233722761716 11.214524671819152
Sn 12.374601970288841 7.699570588734584 13.556335089732142
Sn 7.482240500404756 5.543640102735048 11.691888748572065
Sn 10.693653784199904 5.186018930588718 12.807196764401185
Sn 9.392290463977673 11.613901180965081 12.60320560905691
Sn 10.878099848857282 10.303702196998003 14.854191659975115
Sn 9.316205051649305 7.879197784824684 14.072975780432976
Sn 8.31605768321508 5.20117898728546 14.586812231344135
