32
Energy = -110.5931301 eV
Sn 19.38011945176292 15.430544762638732 16.15724497543622
Sn 17.579208794842486 11.15776744259568 12.551512600758327
Sn 12.640510069993544 18.953073297691223 16.408437922611952
Sn 18.60800583574635 18.03061846986415 13.958787549715241
Sn 15.660479829170018 16.940350046348243 20.175296826539178
Sn 16.12130734302939 11.172571913466456 15.440396234947936
Sn 13.79185202017405 13.165528619971662 15.039063484014507
Sn 12.856488303924674 18.515142783557426 19.248333949418473
Sn 8.934801867138685 13.502901215692113 15.850332021006004
Sn 15.184426394078766 12.41514061419775 11.424029196520504
Sn 10.939225210350553 12.17240081927871 13.995329707854701
Sn 11.478712530813366 12.694988847626634 17.029728043884255
Sn 17.586760462628117 12.129091854376078 9.459272409439674
Sn 16.027878785327278 14.806928403281544 9.521330174650467
Sn 10.946830184843181 15.350027604426877 14.849627653894581
Sn 18.70422685499232 13.95721146078356 11.383557227171636
Sn 13.027762598490455 15.042294685115834 18.850877379847592
Sn 17.93121243995867 12.803950825433992 17.270875113728213
Sn 13.675071914284603 16.20743283138111 16.139380568183753
Sn 17.5031469138373 13.801324960138382 14.343622340339557
Sn 12.961779517972479 16.595357200524504 21.38555421989647
Sn 15.95317135393342 14.882966984135253 18.03589016454369
Sn 15.766267350430818 19.0468768662816 18.06028499126752
Sn 16.72637750967204 17.043724868959405 16.10211218801765
Sn 20.21857479154533 15.601561521933752 13.307583945049617
Sn 17.701510431064285 16.87500488403046 11.237745218305868
Sn 12.344471716119726 14.263917093575284 12.436099007255264
Sn 15.61954978006216 18.00982677567904 13.368364745012041
Sn 15.368415889126734 15.086842847933339 12.822501714018562
Sn 13.198700178150318 13.641527960215944 9.656642904434321
Sn 13.865541424571745 21.17714815252245 17.970871461304203
Sn 14.255456436987346 12.201018219480115 17.937412006500402
