31
Energy = -107.68895638 eV
Sn 14.929804877630453 17.7397420259035 16.0194042772449
Sn 17.373631667829997 16.198630265913323 16.6595647632037
Sn 15.007504555897093 15.362826392978645 18.19073272922774
Sn 12.646514591852918 17.09167227533109 17.94677871075005
Sn 12.167140133077792 9.533665929658712 18.22744751782545
Sn 15.82452029662044 15.017517002410663 14.399839668889346
Sn 11.705613351662434 12.397514910202236 17.754409797228025
Sn 13.837168585804339 10.316170457125265 15.968842991540873
Sn 10.315216750408423 15.48853623491181 16.735151352288412
Sn 14.16344089129661 13.294158418603224 16.212950257564632
Sn 12.863024418824095 15.879875809771521 14.86828528426094
Sn 10.234010329983548 17.242644631575104 14.185271890567025
Sn 11.212793825943283 13.063627746490788 14.773238052063936
Sn 10.613941296613158 10.20477559708203 15.79903971481786
Sn 9.22364724323638 15.984371401244951 11.747082530603706
Sn 12.145629930628788 15.725083432878582 11.81246495128074
Sn 8.656232090820707 14.558814900942082 14.390819848775973
Sn 15.064526226700641 16.46731352784232 11.693638759705323
Sn 15.878319548220126 13.097743746745108 12.073021540455182
Sn 13.347349516067288 15.814798709065728 8.898611128137247
Sn 12.908218888434094 12.811834061011409 12.091843357342128
Sn 16.194486850850723 14.744115556552506 9.500964966025732
Sn 15.112305763284724 9.94762766596663 11.67793084189614
Sn 12.326544466937518 10.149844407483618 13.254154756756781
Sn 11.429879807090702 13.480437896335891 9.513938315127517
Sn 14.151097558836405 13.220594078643996 7.604330507544093
Sn 13.135255651417307 10.97596160112391 9.354446091971862
Sn 16.288218100517796 11.60799654549078 9.187695019414233
Sn 14.937431845971444 7.074591947513658 11.001909635075897
Sn 15.038759641206225 8.761681149692553 8.637372434192791
Sn 12.299863760403671 8.48061475075469 10.731079486026577
