41
Energy = -144.1145874 eV
Sn 12.105089021912985 17.124127198318547 8.935510096018465
Sn 13.928107154786794 14.60809114834914 8.802666969259793
Sn 11.353666923699548 14.881424098259926 7.021853590453481
Sn 12.632501531148547 15.658749702823496 11.625287159314432
Sn 15.556084956880662 12.074970898924605 8.85340341633485
Sn 15.56322450672796 12.70422695642211 11.840414103220201
Sn 17.449369847681847 10.660721049364643 12.988190774838046
Sn 14.794506715695539 15.001866547449543 13.767962611641583
Sn 9.537542044251515 15.966469589705977 10.183226879221563
Sn 13.339348310462379 12.439081929628907 6.560075210264947
Sn 12.321403120524625 16.958148582225615 14.531271285934695
Sn 13.453292969079243 9.782621395786455 8.509692979363694
Sn 15.678764716299105 11.80228993663834 15.227499628512174
Sn 15.813954891346448 9.268638640724923 10.784240554780164
Sn 11.19229748343801 13.351889780523065 9.90123194220011
Sn 13.193798289146802 11.220156244128312 11.102234688682682
Sn 9.838309234848465 15.989316549664935 13.263886421953716
Sn 12.946449352799235 14.65940728512542 16.316348800052374
Sn 10.417390068352509 12.359939038198528 5.433046827308258
Sn 15.86000091614245 8.537145010664037 14.43093029734782
Sn 13.47072245184562 11.996442131135689 17.604115671504776
Sn 10.502908684453331 10.99499337479776 8.18821179929402
Sn 13.056648929874058 10.634274462492998 14.395006763851
Sn 11.757168536701322 13.517199314599432 13.679306642507507
Sn 13.48200387784134 8.352140546493075 12.314530018387789
Sn 8.5680189006346 13.913687745412311 7.8944102286555715
Sn 10.049734536558722 10.730769701704894 11.743050244582328
Sn 7.867687008279511 11.291574929523406 6.719589250165566
Sn 10.874994290876392 8.305280607468232 9.80643708273627
Sn 14.73900658413262 9.271025717738413 17.16514925775844
Sn 8.25949765888758 13.215422266837713 11.192251261080253
Sn 11.340810205560027 9.842649606529005 16.854456877880118
Sn 6.9373561166466455 10.642953404259453 10.320221629272549
Sn 8.562905332120286 13.455349452162794 14.228216075588811
Sn 12.984841274308716 7.525318802983589 15.295137965302187
Sn 10.518326964502668 12.809144135356084 16.57451361513976
Sn 8.163269732606537 8.675385484115084 8.392861853998332
Sn 9.817947006844484 9.048976968718648 14.307757289440804
Sn 7.364602619309138 10.417696842209923 13.336691266655897
Sn 10.961902598585825 6.787689309211405 12.68699342350416
Sn 8.127316965260546 7.968959397004203 11.520136087896823
