42
Energy = -145.68713132 eV
Sn 20.381166381136815 -0.9474220942561904 21.239066602355877
Sn 20.860027788338698 14.69391367477438 18.495291022509054
Sn 18.520205535672307 17.39861480243806 17.557313875688838
Sn 17.933210702589637 21.625500796294983 22.07293598769303
Sn 17.497829181016673 18.310763032140706 12.9575653146693
Sn -1.1909953865651084 21.006438408943495 17.28161336811868
Sn 1.0118788558884142 16.201962740040678 16.55006186255815
Sn 19.520502157158987 18.97319767327555 -1.189690580075481
Sn 17.204538801105013 20.066507752498733 0.41222516222037214
Sn 15.067258311101568 18.87339995896989 23.07777826096316
Sn 18.495813007295162 20.237558159369563 14.990352671474065
Sn 9.119725360585765 20.18578168874302 19.795236991597715
Sn 20.529131166380683 18.222585369149435 13.528189511923653
Sn 8.31262022001244 22.181787377025586 17.88575699451509
Sn 22.750814881644942 12.396297673329352 18.52113175287644
Sn -0.9562607745114369 22.9020567034748 -1.9891794651856254
Sn 13.970638411518737 18.491100431992315 18.240466079684673
Sn 12.617335990378319 20.51800853188701 22.95968429020693
Sn 21.01193409773743 21.517910558858052 -0.6694526230331799
Sn 22.030741447779125 16.96024608754472 20.085609763802907
Sn 14.034635807836258 21.527934869729688 18.01708981522029
Sn 17.094693144100663 20.26692665332695 17.732215216509456
Sn 15.179831479555641 22.084429015362133 -0.6985567540852364
Sn -0.809182192825428 18.430308386736318 15.536241229489379
Sn 22.4292315740201 18.634894124958244 22.497126766317184
Sn -3.179430566623772 -0.027448753735131375 -0.10176994707240102
Sn 11.042470754608438 21.9073716904372 18.222450283325646
Sn 12.020227160627886 19.70644477762821 20.1439805065835
Sn 14.877907567350478 21.195434719643274 20.82415273976282
Sn -1.168634531476438 14.128340874926712 16.1455370817557
Sn 18.44122296911953 15.98135276813377 14.784560414355267
Sn 16.209837215988046 18.064744373903437 15.75215263729032
Sn 22.013704322560187 20.863115290899685 20.49191977877014
Sn 16.023184252787292 18.324530016037972 20.31528049647465
Sn 21.33004775529002 20.823404121814526 14.8916566530865
Sn -0.2494816433191719 14.971237099970086 19.065839513348713
Sn 19.10200732306313 19.668041522149547 20.074402061896606
Sn 21.303496708728552 18.76835265243361 17.811082609313214
Sn -3.1118065912009705 16.379714177660592 15.937209473891226
Sn 18.560989751739474 16.73202158233862 20.479446868194916
Sn 0.09853394804505766 18.20474933257456 18.63279592711795
Sn -2.0963588639171165 1.2624855088519154 -2.4694079383169383
