4
Energy = -9.62584795 eV
Sn 9.530736299911503 9.989045675229347 11.748111789741694
Sn 10.379612390409656 10.7540866939359 14.19572883186472
Sn 11.726710409058962 11.085945161063238 6.988669867318584
Sn 10.676974172824252 10.491540244719001 9.393878697942693
