40
Energy = -140.98124893 eV
Sn 14.037850330143925 7.191943116336776 16.54389158362478
Sn 13.325123264638442 8.682731717944382 14.013172634696993
Sn 13.062361208660647 10.0542968943902 16.834613492480074
Sn 11.592383417879953 6.261569411222489 14.97559053390692
Sn 15.809181045040576 8.851159654832472 12.36261863553476
Sn 11.248620371006332 7.679036055905379 17.776913126588138
Sn 17.041630229346385 10.906749593010328 10.420989631522383
Sn 13.534724405978878 12.275505563436573 14.691194389308091
Sn 13.287593548310133 6.999932767884248 11.388664134775086
Sn 12.55001836305789 15.125353613671411 15.428500005202292
Sn 16.172551513916833 12.176205173105451 13.070795654729697
Sn 10.942704397889111 10.709026845414813 14.262147327345355
Sn 14.820404038655049 8.900824780329915 9.335378244172032
Sn 14.91091889542842 15.160639073195743 13.33104205013186
Sn 10.16452838172837 10.592777156406223 17.1537878436396
Sn 13.093474375014996 17.549012087657385 13.420334118770759
Sn 10.557736113285435 8.149428099417761 12.654869622808251
Sn 13.823819425481302 11.390550983873602 11.139135178281196
Sn 9.239142141574199 8.240142668216807 15.479431298799845
Sn 14.970489430312325 11.872033371615098 8.241990633996027
Sn 11.678634080973653 13.61142999297591 8.96502332653025
Sn 10.23556171502056 16.76549900677292 14.302533507724666
Sn 11.573724226215163 14.46191934099528 12.609923221015169
Sn 15.854957188394497 13.799361870872909 10.38063900402912
Sn 10.71208069837239 17.24491442656051 11.294426454534937
Sn 7.532380983070838 10.550871132156189 11.309786867868768
Sn 12.999088206069464 9.466366022710316 6.782452980033316
Sn 9.07831013405159 12.703369955886764 12.675257933960737
Sn 10.434971764390866 11.096798699462738 10.130881748768132
Sn 13.3483415928691 15.800022541396077 10.588120487976232
Sn 11.658299074329609 8.414438269555436 9.223833936658327
Sn 8.607902798569006 8.809988283027023 8.903083912660126
Sn 8.000393678919323 15.559697311972226 12.418690918124582
Sn 12.481884769478638 12.548342398215203 6.324983821825717
Sn 7.467811317472772 11.567295783384777 8.257404348939529
Sn 9.155788737669855 15.037391488427561 9.652498115313811
Sn 10.080243340583982 10.503490808670605 6.777408922259514
Sn 6.526458780531571 13.382430533945323 10.678241647844459
Sn 9.511712116891111 13.445020990261142 6.413768301482408
Sn 6.926814200227556 14.51757138388995 7.822818599253695
