44
Energy = -155.39485447 eV
Sn 8.683372473727022 9.550901573798047 4.1297012083757005
Sn 9.689677890096986 5.356742413815232 7.105398840509991
Sn 12.61476962695394 4.095305661504512 7.73995679941659
Sn 12.192366466572617 6.973161206638021 6.202920243898736
Sn 6.668870053967209 11.821006701404986 4.591452027374813
Sn 9.70982169150555 12.487823218185161 4.562211782674742
Sn 5.926328738303078 8.965042238621487 5.505064517931145
Sn 11.284090535409167 10.181476134689593 5.9395311990063515
Sn 15.129301478640748 10.053697254616143 8.855274941408021
Sn 8.792799130447895 8.28486456515544 6.849409847998007
Sn 13.748020092680589 11.686733801617327 6.769427256145062
Sn 7.731156745591169 12.554250503180654 7.4292847931527835
Sn 14.429215334273948 6.733803844201333 8.277113577097436
Sn 11.467294573405974 7.0145658735150755 9.15741299171657
Sn 7.994463643831309 15.158054429327526 9.164659944344196
Sn 7.125801649741086 6.333561671970464 9.769589738871588
Sn 12.397879341212576 9.910558087291975 10.386425153599491
Sn 4.769156077316742 11.405079977352793 7.156109379927147
Sn 10.88070489270032 13.033557870148792 7.411602491655349
Sn 4.3067733386088225 7.4395147910996355 10.262960969710809
Sn 9.791652647434029 10.505266225430756 8.695984314893096
Sn 6.420068262518816 9.273490702463418 8.614328067663282
Sn 13.394898209595368 12.757876344389805 9.560648315866121
Sn 5.212464165397622 13.705322740313116 9.526704427436755
Sn 6.623379825081246 15.122739979631515 11.986516738478999
Sn 9.284588982112506 8.160885786684545 10.960139407287139
Sn 9.676398050914257 14.479812518410307 11.645667521166427
Sn 3.875750630365936 10.505118093864667 10.040103178768383
Sn 13.217198482500411 4.9382276078692415 10.531611228914928
Sn 7.874272940509109 12.320368749284848 10.61618053323175
Sn 15.145478909521351 11.2837533491711 11.795630593810605
Sn 10.187994086077799 4.3506395841177055 9.906621207372066
Sn 5.851048092981478 6.76367917514464 12.665211159110005
Sn 10.066985200247881 10.452193906505677 12.891650939310875
Sn 8.583284718542078 5.228484151284988 12.48177231297486
Sn 15.016765382737766 8.031921515794597 11.25324513076497
Sn 13.30096724528015 9.389445102334768 13.414374589283577
Sn 5.201476535495891 12.337919263672005 12.329833823824826
Sn 13.395991230161734 6.230058337002036 13.253484967171037
Sn 12.238515964613862 12.514093548851838 12.294558857242212
Sn 7.9649669869882125 12.803597243428426 13.65397704376857
Sn 10.6180692349451 7.088578204463891 13.57296528819611
Sn 6.471826692210621 9.475305056587823 11.67896530195703
Sn 11.098081455261232 9.295508701645684 15.418305053173547
