44
Energy = -155.28803227 eV
Sn 10.69006941791345 7.890085258909705 6.252675520129955
Sn 7.2017875125292115 8.128951842795555 6.564496014821255
Sn 8.6568660672337 10.277791224821941 5.030624033795009
Sn 13.153991070829246 14.359857451768907 5.832234874172155
Sn 14.203702652980287 11.58984381676205 6.297765289022433
Sn 10.20615953979805 14.60147961033884 7.206325611179081
Sn 11.105136646474254 11.879137851425558 6.090374095208592
Sn 6.93446486845147 13.527357960098646 7.93905243985588
Sn 10.986255116767712 5.318166439801618 8.093878932856672
Sn 5.2068586490681055 11.18392746821569 9.142525328265549
Sn 9.474222869666885 7.778117873831662 9.11037874292178
Sn 5.887707706190182 11.244821039171917 6.116886309808452
Sn 13.322255881781192 7.432773214596538 8.092867787941781
Sn 13.09660214026455 16.098159731136903 8.415208042208217
Sn 8.239555232421472 10.720910434981974 8.078814955746322
Sn 6.5113787724037815 5.310891368225291 10.895515011039425
Sn 10.333563787776333 16.201149142570053 9.852922899067051
Sn 12.912499536474341 13.075272292794796 8.707429381384994
Sn 15.47309416728475 11.531402371334483 9.197601208953868
Sn 15.391737250483617 14.513764241185445 9.938574854952714
Sn 9.532917960062493 13.017528902269571 9.70097518788078
Sn 11.462945299585407 10.035592036128392 8.407964641340934
Sn 6.80543382730792 13.23256175498479 11.10020841992841
Sn 11.716608374423645 12.3439290941395 11.690981468777354
Sn 9.339248000899133 4.062358761594964 10.740823259077189
Sn 11.87996543638366 6.480670337143136 10.745465204710317
Sn 12.790015509176483 15.405984284385408 11.684553590598508
Sn 13.580752464258502 9.378797081360629 10.446835288805508
Sn 14.574589176390981 12.879501832114093 12.41435820618063
Sn 10.5294701424207 9.395117743512632 11.73951693875988
Sn 7.706182551324544 3.826321968488223 13.531484121049312
Sn 12.858490387017829 8.02199938711998 13.267581582077481
Sn 6.549241246371409 8.226790109315935 9.54001905927872
Sn 9.730302549596587 14.664074849821564 12.596728197832597
Sn 7.618115398132396 10.38419068794232 11.400163999103889
Sn 8.734118464589443 6.7675156462951644 12.328679375509244
Sn 10.72893197577165 4.749211759860396 13.48338019334402
Sn 12.299389152486803 14.133548752828977 14.583200274253523
Sn 10.007015002504943 12.052595457039855 14.20731951318143
Sn 8.730824096214677 6.092177254735278 15.370932232670627
Sn 12.955062546941122 11.120152921990583 14.426060793686986
Sn 10.544751583723247 8.917319401636513 14.99908022220005
Sn 7.586833570873835 9.048287864866486 14.196150573914297
Sn 6.005299985257513 6.354325064164421 13.79579991101371
