48
Energy = -169.83625897 eV
Sn 9.242703710460452 9.343891814935244 3.870506948595323
Sn 6.330744123629441 10.197429846092565 4.313828902524884
Sn 7.067956706648363 7.209345199426366 4.826700603870925
Sn 10.315936635835316 14.178770831745144 5.254871447946788
Sn 10.247438639171929 6.807523608278694 5.338942379925155
Sn 8.448376205825882 11.805601926025915 5.8003519778485035
Sn 11.599224069400002 11.542875545280395 4.646021613002071
Sn 13.363477781519599 5.972882958760564 6.754646595623083
Sn 11.726847019490224 12.810863572939247 7.5983512392193395
Sn 8.273874886615904 4.709707787511105 6.362638384125547
Sn 6.255718601675982 9.239939371333717 7.157028552424979
Sn 13.35010242480868 9.117284259300975 6.190614104568829
Sn 5.2868653729073865 6.632501575694823 9.280726835016095
Sn 8.852320597471428 13.953288837048467 8.003168035372644
Sn 7.897036384092561 4.777755043685942 9.44313290396436
Sn 3.840571857421162 9.373075697368623 9.155204693694738
Sn 8.433582414729043 7.398910788619024 7.95769373374224
Sn 9.417166116675022 11.146522304934395 9.092466157546905
Sn 12.154541437907591 14.876617928597767 9.884216557949967
Sn 11.37944711262122 6.932685513578431 8.941918625196383
Sn 11.092873800014106 4.035705026319296 7.884414415113684
Sn 10.491131788516586 9.552615927368356 6.841858783716702
Sn 14.465222985123553 7.586306507229879 9.09854851481415
Sn 13.852450683022965 10.823619437446684 8.668756776659865
Sn 13.772868154309474 4.466680710523924 9.563822579813582
Sn 6.390554826557593 11.828984394528765 8.777812141143963
Sn 9.615275265339536 7.6652409379345805 11.938623013653707
Sn 11.865603326653467 9.549155326009322 10.569065130112067
Sn 9.42893465078111 15.388259668693575 11.241196195106061
Sn 7.007632731192236 9.022704028826743 10.57425478578815
Sn 10.70683565806922 4.6406185880543935 10.915919996704915
Sn 12.13601400174244 15.58958539781 13.081386851880666
Sn 14.889462062082565 10.378516083155944 11.492662366300651
Sn 13.822745103183555 13.207296378462617 11.874087825482
Sn 13.076479848606825 6.428914165184807 11.705579990329758
Sn 6.749452571935358 6.235205884036214 12.107913205071846
Sn 10.8458838376829 12.676205207305925 11.644979926719051
Sn 4.04155762112012 7.87225664939465 11.892314805277818
Sn 10.359172045952686 8.657240153449942 14.809544912640584
Sn 8.92679163462543 10.567846232475436 12.885826662042561
Sn 4.8378809309524655 10.934515398838448 11.668685027373176
Sn 7.377581428796939 13.028247460427563 11.699817887437435
Sn 12.972622976986488 8.920049656727821 13.331291816302059
Sn 9.490925175640559 14.323332007767442 14.164572378255418
Sn 6.3417304073437615 8.98994049167196 13.68860804042707
Sn 12.198625113342498 12.845631340453789 14.477210165439889
Sn 9.69551367611349 11.472422246637725 15.813241224108308
Sn 6.929926105476577 12.151110792178748 14.580654800198133
