50
Energy = -176.90839696 eV
Sn 10.933872223334744 13.478123212794832 7.133048651473494
Sn 12.14784915910625 9.421494495150558 6.055754150443058
Sn 9.42417812977118 10.741654817434327 6.445181442582337
Sn 9.372213886837681 5.7186155362614315 6.749275089798022
Sn 13.59826470127577 12.401207005447619 6.051349181124922
Sn 7.568870993732353 8.221158851427544 6.5044288331536
Sn 7.93532949982027 14.289392278539859 7.770681619213146
Sn 13.592937907933646 14.920237240418846 8.042143947624606
Sn 6.315151530674041 11.485783137820379 7.4939298213153
Sn 12.228400085848921 6.553844568241807 7.194889935204614
Sn 14.00871299708435 10.216063128189752 8.296401446099672
Sn 10.097815329012894 8.449324814342495 8.382986186892573
Sn 5.313409975169248 8.65537553252497 8.56174626689217
Sn 15.742539589877488 12.784236280570292 8.373825039735275
Sn 12.385798852005962 12.395064532949542 9.57296960273745
Sn 10.309714052063413 5.36562067426292 9.642412753591982
Sn 10.348224631307176 15.764357548342014 9.441030120958569
Sn 17.214120892139398 10.381004596102839 9.371211352034276
Sn 7.4512243345369376 14.879360884754385 10.637069037785333
Sn 5.860878659407625 11.055081778805246 10.439918458173285
Sn 15.582546086670074 7.760391403473448 9.140322594762681
Sn 7.302645511455019 6.3527759838402265 9.151999812249393
Sn 8.754231916631436 11.721069023012129 9.268615952035328
Sn 13.413489553676087 5.6205953193624465 9.85839281690063
Sn 14.299851825348735 14.328204822541766 11.002097461509312
Sn 13.697231390860113 11.279649697357588 12.61093719985155
Sn 6.282146717289772 8.23927573652251 11.534482675943508
Sn 16.481159029592302 12.078067215360516 11.817685038841015
Sn 9.250475077645119 7.920385551856983 11.213149500660096
Sn 12.159005246236122 16.965929372827805 11.68020522232872
Sn 10.695344702721059 10.686606600993992 11.800613910832219
Sn 10.662019075175271 14.095029482258603 11.970319763453022
Sn 12.977695735971354 8.609733394020289 10.774385991365637
Sn 8.0536192201936 12.219632616786587 12.30515241893989
Sn 15.952793213752514 9.002613264184841 11.914105694015175
Sn 7.749376449885053 15.036268331119867 13.747651700187348
Sn 11.592305882921245 6.391900504452672 12.44686160896285
Sn 9.073934230033787 17.315539422616087 11.928615911865
Sn 13.116649760626363 14.541631259611977 13.877814054063556
Sn 7.781211293832884 9.960865365925164 14.412748255235616
Sn 11.026515444141443 12.081477032917144 14.816863251357308
Sn 15.100034156239607 10.773362379737039 15.278901222548402
Sn 10.666536242311802 8.926609036375876 14.435644655318429
Sn 8.348609620887984 12.761910265928927 15.877229765992164
Sn 13.831154303416026 8.278893586510883 14.056377868786578
Sn 10.576628642008188 16.222649529014973 14.32980085276826
Sn 13.366010978608747 13.02334071808531 16.57475340848832
Sn 9.286194092446648 9.988312498989291 17.10643750397295
Sn 12.37326863315948 10.04330508972016 16.819801031572435
Sn 10.642205802228279 12.541371847117322 18.03217718526302
