5
Energy = -11.61890788 eV
Sn 13.437820041089054 9.079452731774547 12.868891798521576
Sn 14.014273429261257 9.125500008761001 10.061712373889696
Sn 11.535511628289289 10.187590063851312 11.030967034516518
Sn 11.258778223945896 14.995566404906034 14.062608055852028
Sn 11.161863501195995 17.70623797541887 13.3590461742677
