54
Energy = -191.62630005 eV
Sn 10.876658381636195 10.293421959462647 5.182160662368119
Sn 8.695059774261376 11.912250147918746 6.568216532658971
Sn 9.018014669777068 8.90810340493063 7.451172921131702
Sn 12.114090053636648 12.79279978912786 6.360927883967779
Sn 15.236013676538224 11.673780328569766 6.112734391999756
Sn 13.090327925850255 9.38916529355895 7.125310496606364
Sn 6.25838315031255 10.4263163776117 7.724039859602981
Sn 16.074303608498198 9.229700508877013 7.817350036831299
Sn 10.94155504379713 11.294752561567703 8.677588892549226
Sn 9.623949890769394 14.777030380763783 7.506798318002712
Sn 7.3096827580260175 8.295956532507619 10.286888607223029
Sn 17.02212049184048 12.76407523535354 8.437216044710414
Sn 14.457302708664965 14.464739287016453 7.579506664445878
Sn 11.253520851035828 8.381143377538793 9.536699947149204
Sn 12.113492796172704 15.993992649762971 8.703300913623472
Sn 14.219234799462058 11.600318298995681 9.220164038825624
Sn 14.617343326378583 8.665318338673105 10.630776921042354
Sn 5.882052814230093 13.042114673196796 9.318275822079679
Sn 16.368443634189216 15.534778934052563 9.93819797001154
Sn 8.103615403921083 11.250616011733433 10.332791595047203
Sn 17.166871902270067 10.539308823509522 10.45403196583685
Sn 4.8817903385668595 10.357977387512912 10.610087294464526
Sn 10.54318906188105 13.89288258986298 10.365770579685234
Sn 12.096350861343529 10.560230553073488 11.713711817255861
Sn 7.7605109530634415 15.399847810754784 9.762022705030487
Sn 9.615874575668933 8.764463404402358 12.422524048234093
Sn 14.037462807318294 17.44292068065312 10.733692303851777
Sn 14.98754363345146 11.39963952091006 12.657844283865607
Sn 6.042006870373002 12.648602673589222 12.43128493598501
Sn 16.922801384409293 13.804832015928122 12.254136160235223
Sn 11.018203652899896 16.819831869678282 11.573694407829969
Sn 6.6180939510191354 9.707088370821074 13.092343775944803
Sn 12.582445062177625 7.665867985282643 12.829304320693538
Sn 9.101430038442215 11.756317405781617 13.406150556082325
Sn 8.667469934780751 14.707516738454087 12.560348297586858
Sn 18.268201700623475 11.309751988178013 13.131331021224375
Sn 13.454460840805615 16.354968855656036 13.530253039244295
Sn 10.598887198015868 15.93911192127437 14.708860372276543
Sn 13.717887121378235 14.262750241693643 11.135460557873744
Sn 15.501692571928857 8.5613908523023 13.831213493477993
Sn 12.192987042227466 13.25211603502289 14.13016957594311
Sn 10.37901966561061 6.6963517579203895 14.91582334170775
Sn 8.148539096535114 12.129790345001624 16.254393787490862
Sn 11.807562828765585 9.882705415596764 15.27500760958274
Sn 8.853400952320117 9.22137242578409 15.925944978141343
Sn 10.616849820211119 13.702122189144056 16.972983040176608
Sn 15.231458193296502 13.932620090201826 14.772601127834465
Sn 13.171164133867304 15.344023354929057 16.624990839380672
Sn 16.264531912684728 10.978687949343522 15.445360603652745
Sn 13.330303769336524 7.209291330044697 15.839316251688155
Sn 10.512366797802688 10.768182892959555 18.20772556669182
Sn 13.374355949846255 12.195559566842686 16.906084907952675
Sn 10.801809594719721 7.705789490101317 17.855624231692175
Sn 13.375959291523973 9.314360644732135 18.07843894967181
