54
Energy = -191.00055083 eV
Sn 7.1538356116538715 14.733568479730287 14.59886144144338
Sn 7.35789488265669 12.164170818821667 16.27555422693995
Sn 6.395863192984793 14.497844603491759 11.64281359638612
Sn 10.661629535150983 16.812026638662388 12.21164104165357
Sn 10.354577534708683 10.787737331186005 10.168327536292969
Sn 7.820428789627343 14.899602328024006 17.63714997680481
Sn 7.410329534050658 11.872301655747131 12.8720626874493
Sn 10.68019966434131 14.199390990521263 8.605154514060203
Sn 10.452980012013231 5.906777434285621 10.520751947796294
Sn 9.39729971450391 8.235196459945673 12.02980324261134
Sn 12.870510940865662 5.830009316082042 12.372736643542082
Sn 12.527939770866775 16.3753697241563 14.880004334491673
Sn 13.654986306520103 16.66038667639655 11.878995622491724
Sn 11.300772861338782 9.327899742162762 6.231915820447508
Sn 10.690577123717002 10.011428372285918 16.12486070446149
Sn 11.312673139553656 7.606059944549246 14.309961069435596
Sn 9.781383944668095 12.540310591383623 18.24202327188999
Sn 12.171734195926522 12.368766891488168 5.92556653385797
Sn 12.63552386901748 13.933408700883987 11.150745259820855
Sn 12.339210573684987 8.245799972762372 10.492072413475338
Sn 10.850047314195653 15.52096538116726 17.75351383257594
Sn 14.053764996546075 8.616111577256618 13.06919612667876
Sn 8.119335016640102 9.59436015839133 14.643388948590493
Sn 17.120954127027172 9.246538904912114 12.008092668349164
Sn 14.015815023878828 15.632774401858546 17.54760786357529
Sn 12.915188258422196 12.864658614934992 18.0422056420711
Sn 13.720829014110596 10.791191869717338 15.89499453157391
Sn 10.091678716962502 13.584471918049964 15.287642213845029
Sn 11.505665030461962 10.594910851295394 13.203777001997977
Sn 19.11364108270659 11.912719012056327 12.484259065286363
Sn 13.38449036233244 11.998603311697966 8.72848318031973
Sn 18.415349256871426 13.545456381081767 15.030679054811756
Sn 13.458588558794911 7.560270929603311 7.698795207744553
Sn 16.705346388782228 11.108425305507449 14.383233109913482
Sn 15.934123235549954 13.090626907500454 16.877434039439454
Sn 9.700469566943145 13.643634945081605 12.000075794528012
Sn 15.09385424970502 9.566098060816936 9.509874766349554
Sn 8.772761940941495 9.185325631524247 7.9864553089974475
Sn 7.307186890677115 9.712674952668905 10.54220886393765
Sn 14.578142012853682 11.580170504823775 12.079198765161062
Sn 15.886429022822549 15.573330639722428 14.927276127431368
Sn 10.458209599576039 6.672857363797379 7.594687967860022
Sn 13.521864775126348 13.572875530197372 14.839215086504062
Sn 17.26662806350813 11.801782194152374 10.117800275564996
Sn 9.3910327119788 16.719213366011175 15.201573428182403
Sn 16.60719803668918 13.857872908299921 12.496272307315138
Sn 7.844491237631364 12.663681582235915 9.489812156322877
Sn 9.244068202335814 12.012593691236596 6.806913417800262
Sn 14.323333274128045 10.113865828900773 6.164237417248512
Sn 15.302497358405414 14.548613675813389 9.550402397340832
Sn 16.19903513940726 12.433481283974706 7.296723500563057
Sn 8.663626509631488 15.913124696355915 10.173841670767915
Sn 14.00520509101689 14.645864228324095 6.743211513646221
Sn 12.71900054480603 16.395270637513548 8.91472060255198
