5
Energy = -15.00734594 eV
Sn 12.105504794159039 8.655093475483634 10.637543343545461
Sn 10.665427239535694 8.82285005648066 8.022536149910607
Sn 10.400780999445825 10.892190955960709 10.32596750232627
Sn 7.62939419950369 11.561079472655782 10.335134021433934
Sn 8.155918697718203 8.899624145749117 9.620969992614492
