7
Energy = -21.63418548 eV
Sn 7.999082638249411 11.596755022072077 10.132919640468346
Sn 10.193392972250063 13.121010329522578 11.028037639980798
Sn 12.684570809147486 12.08789648521416 12.247458243122418
Sn 15.292409643450245 11.416990593119381 11.537506154030716
Sn 13.346843410200332 10.09837500670203 9.944296721000633
Sn 10.701729119690322 10.124509389123563 11.070623835164618
Sn 8.350958707833033 10.123667083450892 12.608578283821087
