<?xml version="1.0" encoding="ISO-8859-1"?>
<modeling>
 <generator>
  <i name="program" type="string">vasp </i>
  <i name="version" type="string">5.3.5  </i>
  <i name="subversion" type="string">31Mar14 (build Feb 01 2018 12:10:03) gamma-only                       parallel </i>
  <i name="platform" type="string">LinuxIFC </i>
  <i name="date" type="string">2019 03 20 </i>
  <i name="time" type="string">17:27:23 </i>
 </generator>
 <incar>
  <i type="string" name="PREC">normal</i>
  <i type="int" name="ISPIN">     2</i>
  <i type="int" name="IBRION">     2</i>
  <i type="int" name="NSW">  1000</i>
  <i type="int" name="ISIF">     2</i>
  <i name="POTIM">      0.10000000</i>
  <i type="logical" name="LPLANE"> T  </i>
  <i type="int" name="ISMEAR">     0</i>
  <i name="SIGMA">      0.00010000</i>
  <i type="logical" name="LWAVE"> F  </i>
  <i type="logical" name="LCHARG"> F  </i>
  <i type="logical" name="LVTOT"> F  </i>
  <i type="string" name="GGA"> PE</i>
 </incar>
 <kpoints>
  <varray name="kpointlist" >
   <v>       0.00000000       0.00000000       0.00000000 </v>
  </varray>
  <varray name="weights" >
   <v>       1.00000000 </v>
  </varray>
 </kpoints>
 <parameters>
  <separator name="general" >
   <i type="string" name="SYSTEM">unknown system</i>
   <i type="logical" name="LCOMPAT"> F  </i>
  </separator>
  <separator name="electronic" >
   <i type="string" name="PREC">normal</i>
   <i name="ENMAX">    249.84400000</i>
   <i name="ENAUG">    412.49600000</i>
   <i name="EDIFF">      0.00010000</i>
   <i type="int" name="IALGO">    38</i>
   <i type="int" name="IWAVPR">    11</i>
   <i type="int" name="NBANDS">    36</i>
   <i name="NELECT">     55.00000000</i>
   <i type="int" name="TURBO">     0</i>
   <i type="int" name="IRESTART">     0</i>
   <i type="int" name="NREBOOT">     0</i>
   <i type="int" name="NMIN">     0</i>
   <i name="EREF">      0.00000000</i>
   <separator name="electronic smearing" >
    <i type="int" name="ISMEAR">     0</i>
    <i name="SIGMA">      0.00010000</i>
    <i name="KSPACING">      0.50000000</i>
    <i type="logical" name="KGAMMA"> T  </i>
   </separator>
   <separator name="electronic projectors" >
    <i type="logical" name="LREAL"> F  </i>
    <v name="ROPT">      0.00000000</v>
    <i type="int" name="LMAXPAW">  -100</i>
    <i type="int" name="LMAXMIX">     2</i>
    <i type="logical" name="NLSPLINE"> F  </i>
   </separator>
   <separator name="electronic startup" >
    <i type="int" name="ISTART">     0</i>
    <i type="int" name="ICHARG">     2</i>
    <i type="int" name="INIWAV">     1</i>
   </separator>
   <separator name="electronic spin" >
    <i type="int" name="ISPIN">     2</i>
    <i type="logical" name="LNONCOLLINEAR"> F  </i>
    <v name="MAGMOM">      1.00000000      1.00000000      1.00000000      1.00000000      1.00000000</v>
    <i name="NUPDOWN">     -1.00000000</i>
    <i type="logical" name="LSORBIT"> F  </i>
    <v name="SAXIS">      0.00000000      0.00000000      1.00000000</v>
    <i type="logical" name="LSPIRAL"> F  </i>
    <v name="QSPIRAL">      0.00000000      0.00000000      0.00000000</v>
    <i type="logical" name="LZEROZ"> F  </i>
   </separator>
   <separator name="electronic exchange-correlation" >
    <i type="logical" name="LASPH"> F  </i>
    <i type="logical" name="LMETAGGA"> F  </i>
   </separator>
   <separator name="electronic convergence" >
    <i type="int" name="NELM">    60</i>
    <i type="int" name="NELMDL">    -5</i>
    <i type="int" name="NELMIN">     2</i>
    <i name="ENINI">    249.84400000</i>
    <separator name="electronic convergence detail" >
     <i type="logical" name="LDIAG"> T  </i>
     <i type="logical" name="LSUBROT"> F  </i>
     <i name="WEIMIN">      0.00100000</i>
     <i name="EBREAK">      0.00000069</i>
     <i name="DEPER">      0.30000000</i>
     <i type="int" name="NRMM">     4</i>
     <i name="TIME">      0.40000000</i>
    </separator>
   </separator>
   <separator name="electronic mixer" >
    <i name="AMIX">      0.40000000</i>
    <i name="BMIX">      1.00000000</i>
    <i name="AMIN">      0.10000000</i>
    <i name="AMIX_MAG">      1.60000000</i>
    <i name="BMIX_MAG">      1.00000000</i>
    <separator name="electronic mixer details" >
     <i type="int" name="IMIX">     4</i>
     <i type="int" name="MAXMIX">   -45</i>
     <i name="WC">    100.00000000</i>
     <i type="int" name="INIMIX">     1</i>
     <i type="int" name="MIXPRE">     1</i>
     <i type="int" name="MREMOVE">     5</i>
    </separator>
   </separator>
   <separator name="electronic dipolcorrection" >
    <i type="logical" name="LDIPOL"> F  </i>
    <i type="logical" name="LMONO"> F  </i>
    <i type="int" name="IDIPOL">     0</i>
    <i name="EPSILON">      1.00000000</i>
    <v name="DIPOL">   -100.00000000   -100.00000000   -100.00000000</v>
    <i name="EFIELD">      0.00000000</i>
   </separator>
  </separator>
  <separator name="grids" >
   <i type="int" name="NGX">    70</i>
   <i type="int" name="NGY">    70</i>
   <i type="int" name="NGZ">    70</i>
   <i type="int" name="NGXF">   140</i>
   <i type="int" name="NGYF">   140</i>
   <i type="int" name="NGZF">   140</i>
   <i type="logical" name="ADDGRID"> F  </i>
  </separator>
  <separator name="ionic" >
   <i type="int" name="NSW">  1000</i>
   <i type="int" name="IBRION">     2</i>
   <i type="int" name="ISIF">     2</i>
   <i name="PSTRESS">      0.00000000</i>
   <i name="EDIFFG">      0.00100000</i>
   <i type="int" name="NFREE">     1</i>
   <i name="POTIM">      0.10000000</i>
   <i name="SMASS">     -3.00000000</i>
   <i name="SCALEE">      1.00000000</i>
  </separator>
  <separator name="ionic md" >
   <i name="TEBEG">      0.00010000</i>
   <i name="TEEND">      0.00010000</i>
   <i type="int" name="NBLOCK">     1</i>
   <i type="int" name="KBLOCK">  1000</i>
   <i type="int" name="NPACO">   256</i>
   <i name="APACO">     16.00000000</i>
  </separator>
  <separator name="symmetry" >
   <i type="int" name="ISYM">     2</i>
   <i name="SYMPREC">      0.00001000</i>
  </separator>
  <separator name="dos" >
   <i type="logical" name="LORBIT"> F  </i>
   <v name="RWIGS">     -1.00000000</v>
   <i type="int" name="NEDOS">   301</i>
   <i name="EMIN">     10.00000000</i>
   <i name="EMAX">    -10.00000000</i>
   <i name="EFERMI">      0.00000000</i>
  </separator>
  <separator name="writing" >
   <i type="int" name="NWRITE">     2</i>
   <i type="logical" name="LWAVE"> F  </i>
   <i type="logical" name="LCHARG"> F  </i>
   <i type="logical" name="LPARD"> F  </i>
   <i type="logical" name="LVTOT"> F  </i>
   <i type="logical" name="LVHAR"> F  </i>
   <i type="logical" name="LELF"> F  </i>
   <i type="logical" name="LOPTICS"> F  </i>
   <v name="STM">      0.00000000      0.00000000      0.00000000      0.00000000      0.00000000      0.00000000      0.00000000</v>
  </separator>
  <separator name="performance" >
   <i type="int" name="NPAR">     4</i>
   <i type="int" name="NSIM">     4</i>
   <i type="int" name="NBLK">    -1</i>
   <i type="logical" name="LPLANE"> T  </i>
   <i type="logical" name="LSCALAPACK"> T  </i>
   <i type="logical" name="LSCAAWARE"> F  </i>
   <i type="logical" name="LSCALU"> F  </i>
   <i type="logical" name="LASYNC"> F  </i>
   <i type="logical" name="LORBITALREAL"> F  </i>
  </separator>
  <separator name="miscellaneous" >
   <i type="int" name="IDIOT">     3</i>
   <i type="logical" name="LMUSIC"> F  </i>
   <v name="POMASS">    107.86800000</v>
   <v name="DARWINR">      0.00000000</v>
   <v name="DARWINV">      1.00000000</v>
   <i type="logical" name="LCORR"> T  </i>
  </separator>
  <i type="logical" name="GGA_COMPAT"> T  </i>
  <i type="logical" name="LBERRY"> F  </i>
  <i type="int" name="ICORELEVEL">     0</i>
  <i type="logical" name="LDAU"> F  </i>
  <i type="int" name="I_CONSTRAINED_M">     0</i>
  <separator name="electronic exchange-correlation" >
   <i type="string" name="GGA">PE</i>
   <i type="int" name="VOSKOWN">     0</i>
   <i type="logical" name="LHFCALC"> F  </i>
   <i type="string" name="PRECFOCK"></i>
   <i type="logical" name="LSYMGRAD"> F  </i>
   <i type="logical" name="LHFONE"> F  </i>
   <i type="logical" name="LRHFCALC"> F  </i>
   <i type="logical" name="LTHOMAS"> F  </i>
   <i type="logical" name="LMODELHF"> F  </i>
   <i name="ENCUT4O">     -1.00000000</i>
   <i type="int" name="EXXOEP">     0</i>
   <i type="int" name="FOURORBIT">     0</i>
   <i name="AEXX">      0.00000000</i>
   <i name="HFALPHA">      0.00000000</i>
   <i name="MCALPHA">      0.00000000</i>
   <i name="ALDAX">      1.00000000</i>
   <i name="AGGAX">      1.00000000</i>
   <i name="ALDAC">      1.00000000</i>
   <i name="AGGAC">      1.00000000</i>
   <i type="int" name="NKREDX">     1</i>
   <i type="int" name="NKREDY">     1</i>
   <i type="int" name="NKREDZ">     1</i>
   <i type="logical" name="SHIFTRED"> F  </i>
   <i type="logical" name="ODDONLY"> F  </i>
   <i type="logical" name="EVENONLY"> F  </i>
   <i type="int" name="LMAXFOCK">     0</i>
   <i type="int" name="NMAXFOCKAE">     0</i>
   <i type="logical" name="LFOCKAEDFT"> F  </i>
   <i name="HFSCREEN">      0.00000000</i>
   <i name="HFSCREENC">      0.00000000</i>
   <i type="int" name="NBANDSGWLOW">     0</i>
  </separator>
  <separator name="vdW DFT" >
   <i type="logical" name="LUSE_VDW"> F  </i>
   <i name="Zab_VDW">     -0.84910000</i>
   <i name="PARAM1">      0.12340000</i>
   <i name="PARAM2">      1.00000000</i>
   <i name="PARAM3">      0.00000000</i>
  </separator>
  <separator name="model GW" >
   <i type="int" name="MODEL_GW">     0</i>
   <i name="MODEL_EPS0">    648.16504196</i>
   <i name="MODEL_ALPHA">      1.00000000</i>
  </separator>
  <separator name="linear response parameters" >
   <i type="logical" name="LEPSILON"> F  </i>
   <i type="logical" name="LRPA"> F  </i>
   <i type="logical" name="LNABLA"> F  </i>
   <i type="logical" name="LVEL"> F  </i>
   <i type="int" name="KINTER">     0</i>
   <i name="CSHIFT">      0.10000000</i>
   <i name="OMEGAMAX">     -1.00000000</i>
   <i name="DEG_THRESHOLD">      0.00200000</i>
  </separator>
  <separator name="orbital magnetization" >
   <i type="logical" name="NUCIND"> F  </i>
   <v name="MAGPOS">      0.00000000      0.00000000      0.00000000</v>
   <i type="logical" name="LNICSALL"> T  </i>
   <i type="logical" name="ORBITALMAG"> F  </i>
   <i type="logical" name="LMAGBLOCH"> F  </i>
   <i type="logical" name="LCHIMAG"> F  </i>
   <i type="logical" name="LGAUGE"> T  </i>
   <i type="int" name="MAGATOM">     0</i>
   <v name="MAGDIPOL">      0.00000000      0.00000000      0.00000000</v>
   <v name="AVECCONST">      0.00000000      0.00000000      0.00000000</v>
  </separator>
  <separator name="response functions" >
   <i type="logical" name="LADDER"> F  </i>
   <i type="logical" name="LFXC"> F  </i>
   <i type="logical" name="LHARTREE"> T  </i>
   <i type="int" name="IBSE">     0</i>
   <i type="logical" name="LTCTE"> F  </i>
   <i type="logical" name="LTETE"> F  </i>
   <i type="logical" name="LTRIPLET"> F  </i>
   <i type="logical" name="LFXCEPS"> F  </i>
   <i type="logical" name="LFXHEG"> F  </i>
   <i type="logical" name="L2ORDER"> F  </i>
   <i type="logical" name="LUSEW"> F  </i>
   <i name="ENCUTGW">     -2.00000000</i>
   <i name="ENCUTGWSOFT">     -2.00000000</i>
   <i name="ENCUTLF">     -1.00000000</i>
   <i type="int" name="LMAXMP2">    -1</i>
   <i name="SCISSOR">      0.00000000</i>
   <i type="int" name="NOMEGA">     0</i>
   <i type="int" name="NOMEGAR">     0</i>
   <i type="int" name="NBANDSGW">    -1</i>
   <i type="int" name="NBANDSO">    -1</i>
   <i type="int" name="NBANDSV">    -1</i>
   <i type="int" name="NELM">     1</i>
   <i type="int" name="DIM">     3</i>
   <i type="int" name="ANTIRES">     0</i>
   <i name="OMEGAMAX">    -30.00000000</i>
   <i name="OMEGAMIN">    -30.00000000</i>
   <i name="OMEGATL">   -200.00000000</i>
   <i type="int" name="OMEGAGRID">     0</i>
   <i name="CSHIFT">     -0.10000000</i>
   <i type="logical" name="SELFENERGY"> F  </i>
   <i type="logical" name="LSPECTRAL"> F  </i>
   <i type="logical" name="ODDONLYGW"> F  </i>
   <i type="logical" name="EVENONLYGW"> F  </i>
   <i type="int" name="NKREDLFX">     1</i>
   <i type="int" name="NKREDLFY">     1</i>
   <i type="int" name="NKREDLFZ">     1</i>
   <i type="int" name="MAXMEM">  1800</i>
   <i type="int" name="TELESCOPE">     0</i>
   <i type="int" name="TAUPAR">     1</i>
  </separator>
  <separator name="External order field" >
   <i name="OFIELD_KAPPA">      0.00000000</i>
   <v name="OFIELD_K">      0.00000000      0.00000000      0.00000000</v>
   <i name="OFIELD_Q6_NEAR">      0.00000000</i>
   <i name="OFIELD_Q6_FAR">      0.00000000</i>
   <i name="OFIELD_A">      0.00000000</i>
  </separator>
 </parameters>
 <atominfo>
  <atoms>       5 </atoms>
  <types>       1 </types>
  <array name="atoms" >
   <dimension dim="1">ion</dimension>
   <field type="string">element</field>
   <field type="int">atomtype</field>
   <set>
    <rc><c>Ag</c><c>   1</c></rc>
    <rc><c>Ag</c><c>   1</c></rc>
    <rc><c>Ag</c><c>   1</c></rc>
    <rc><c>Ag</c><c>   1</c></rc>
    <rc><c>Ag</c><c>   1</c></rc>
   </set>
  </array>
  <array name="atomtypes" >
   <dimension dim="1">type</dimension>
   <field type="int">atomspertype</field>
   <field type="string">element</field>
   <field>mass</field>
   <field>valence</field>
   <field type="string">pseudopotential</field>
   <set>
    <rc><c>   5</c><c>Ag</c><c>    107.86800000</c><c>     11.00000000</c><c>  PAW_PBE Ag 02Apr2005                  </c></rc>
   </set>
  </array>
 </atominfo>
 <structure name="initialpos" >
  <crystal>
   <varray name="basis" >
    <v>      17.54559576       0.00000000       0.00000000 </v>
    <v>       0.00000000      17.54559576       0.00000000 </v>
    <v>       0.00000000       0.00000000      17.54559576 </v>
   </varray>
   <i name="volume">   5401.37534966 </i>
   <varray name="rec_basis" >
    <v>       0.05699436       0.00000000       0.00000000 </v>
    <v>       0.00000000       0.05699436       0.00000000 </v>
    <v>       0.00000000       0.00000000       0.05699436 </v>
   </varray>
  </crystal>
  <varray name="positions" >
   <v>       0.45859851       0.50416186       0.57213434 </v>
   <v>       0.57898781       0.47920988       0.38094597 </v>
   <v>       0.50074578       0.41432538       0.44593076 </v>
   <v>       0.53549910       0.55097038       0.49436132 </v>
   <v>       0.46237104       0.58892005       0.64442707 </v>
  </varray>
 </structure>
 <calculation>
  <scstep>
   <time name="dav">    0.20    0.20</time>
   <time name="total">    0.36    0.39</time>
   <energy>
    <i name="alphaZ">      3.93685873 </i>
    <i name="ewald">   2799.43210228 </i>
    <i name="hartreedc">  -7717.77115166 </i>
    <i name="XCdc">    -54.70503300 </i>
    <i name="pawpsdc">   5016.86089035 </i>
    <i name="pawaedc">  -4786.32304439 </i>
    <i name="eentropy">      0.00000000 </i>
    <i name="bandstr">     63.01969658 </i>
    <i name="atom">   5185.99315043 </i>
    <i name="e_fr_energy">    510.44346931 </i>
    <i name="e_wo_entrp">    510.44346931 </i>
    <i name="e_0_energy">    510.44346931 </i>
   </energy>
  </scstep>
  <scstep>
   <time name="dav">    0.34    0.34</time>
   <time name="total">    0.34    0.35</time>
   <energy>
    <i name="e_fr_energy">    236.59345096 </i>
    <i name="e_wo_entrp">    236.59345096 </i>
    <i name="e_0_energy">    236.59345096 </i>
   </energy>
  </scstep>
  <scstep>
   <time name="dav">    0.28    0.28</time>
   <time name="total">    0.28    0.29</time>
   <energy>
    <i name="e_fr_energy">     36.99309848 </i>
    <i name="e_wo_entrp">     36.99309848 </i>
    <i name="e_0_energy">     36.99309848 </i>
   </energy>
  </scstep>
  <scstep>
   <time name="dav">    0.22    0.22</time>
   <time name="total">    0.22    0.25</time>
   <energy>
    <i name="e_fr_energy">      2.33287824 </i>
    <i name="e_wo_entrp">      2.33287824 </i>
    <i name="e_0_energy">      2.33287824 </i>
   </energy>
  </scstep>
  <scstep>
   <time name="dav">    0.20    0.20</time>
   <time name="total">    0.23    0.24</time>
   <energy>
    <i name="e_fr_energy">      0.69974040 </i>
    <i name="e_wo_entrp">      0.69974040 </i>
    <i name="e_0_energy">      0.69974040 </i>
   </energy>
  </scstep>
  <scstep>
   <time name="dav">    0.20    0.20</time>
   <time name="total">    0.39    0.40</time>
   <energy>
    <i name="e_fr_energy">      7.29789770 </i>
    <i name="e_wo_entrp">      7.29789770 </i>
    <i name="e_0_energy">      7.29789770 </i>
   </energy>
  </scstep>
  <scstep>
   <time name="dav">    0.20    0.20</time>
   <time name="total">    0.38    0.58</time>
   <energy>
    <i name="e_fr_energy">     10.31724583 </i>
    <i name="e_wo_entrp">     10.31724583 </i>
    <i name="e_0_energy">     10.31724583 </i>
   </energy>
  </scstep>
  <scstep>
   <time name="dav">    0.21    0.21</time>
   <time name="total">    0.40    0.42</time>
   <energy>
    <i name="e_fr_energy">      6.09734281 </i>
    <i name="e_wo_entrp">      6.09734281 </i>
    <i name="e_0_energy">      6.09734281 </i>
   </energy>
  </scstep>
  <scstep>
   <time name="dav">    0.20    0.20</time>
   <time name="total">    0.38    0.39</time>
   <energy>
    <i name="e_fr_energy">      4.01451268 </i>
    <i name="e_wo_entrp">      4.01451268 </i>
    <i name="e_0_energy">      4.01451268 </i>
   </energy>
  </scstep>
  <scstep>
   <time name="dav">    0.20    0.20</time>
   <time name="total">    0.39    0.40</time>
   <energy>
    <i name="e_fr_energy">      2.36943970 </i>
    <i name="e_wo_entrp">      2.36943970 </i>
    <i name="e_0_energy">      2.36943970 </i>
   </energy>
  </scstep>
  <scstep>
   <time name="dav">    0.20    0.20</time>
   <time name="total">    0.38    1.15</time>
   <energy>
    <i name="e_fr_energy">      1.80567271 </i>
    <i name="e_wo_entrp">      1.80567271 </i>
    <i name="e_0_energy">      1.80567271 </i>
   </energy>
  </scstep>
  <scstep>
   <time name="dav">    0.20    0.20</time>
   <time name="total">    0.39    0.39</time>
   <energy>
    <i name="e_fr_energy">      1.06915059 </i>
    <i name="e_wo_entrp">      1.06915059 </i>
    <i name="e_0_energy">      1.06915059 </i>
   </energy>
  </scstep>
  <scstep>
   <time name="dav">    0.20    0.20</time>
   <time name="total">    0.38    0.39</time>
   <energy>
    <i name="e_fr_energy">      0.76044963 </i>
    <i name="e_wo_entrp">      0.76044963 </i>
    <i name="e_0_energy">      0.76044963 </i>
   </energy>
  </scstep>
  <scstep>
   <time name="dav">    0.20    0.20</time>
   <time name="total">    0.38    0.39</time>
   <energy>
    <i name="e_fr_energy">      0.65197014 </i>
    <i name="e_wo_entrp">      0.65197014 </i>
    <i name="e_0_energy">      0.65197014 </i>
   </energy>
  </scstep>
  <scstep>
   <time name="dav">    0.20    0.20</time>
   <time name="total">    0.38    0.39</time>
   <energy>
    <i name="e_fr_energy">      0.59593764 </i>
    <i name="e_wo_entrp">      0.59593764 </i>
    <i name="e_0_energy">      0.59593764 </i>
   </energy>
  </scstep>
  <scstep>
   <time name="dav">    0.18    0.17</time>
   <time name="total">    0.36    0.37</time>
   <energy>
    <i name="e_fr_energy">      0.58443334 </i>
    <i name="e_wo_entrp">      0.58443334 </i>
    <i name="e_0_energy">      0.58443334 </i>
   </energy>
  </scstep>
  <scstep>
   <time name="dav">    0.18    0.18</time>
   <time name="total">    0.36    0.37</time>
   <energy>
    <i name="e_fr_energy">      0.58209393 </i>
    <i name="e_wo_entrp">      0.58209393 </i>
    <i name="e_0_energy">      0.58209393 </i>
   </energy>
  </scstep>
  <scstep>
   <time name="dav">    0.16    0.16</time>
   <time name="total">    0.35    0.39</time>
   <energy>
    <i name="e_fr_energy">      0.58140525 </i>
    <i name="e_wo_entrp">      0.58140525 </i>
    <i name="e_0_energy">      0.58140525 </i>
   </energy>
  </scstep>
  <scstep>
   <time name="dav">    0.15    0.15</time>
   <time name="total">    0.34    0.35</time>
   <energy>
    <i name="e_fr_energy">      0.58062452 </i>
    <i name="e_wo_entrp">      0.58062452 </i>
    <i name="e_0_energy">      0.58062452 </i>
   </energy>
  </scstep>
  <scstep>
   <time name="dav">    0.15    0.15</time>
   <time name="total">    0.34    0.34</time>
   <energy>
    <i name="e_fr_energy">      0.57998471 </i>
    <i name="e_wo_entrp">      0.57998471 </i>
    <i name="e_0_energy">      0.57998471 </i>
   </energy>
  </scstep>
  <scstep>
   <time name="dav">    0.17    0.17</time>
   <time name="total">    0.36    0.37</time>
   <energy>
    <i name="e_fr_energy">      0.57976351 </i>
    <i name="e_wo_entrp">      0.57976351 </i>
    <i name="e_0_energy">      0.57976351 </i>
   </energy>
  </scstep>
  <scstep>
   <time name="dav">    0.16    0.17</time>
   <time name="total">    0.32    0.33</time>
   <energy>
    <i name="alphaZ">      3.93685873 </i>
    <i name="ewald">   2799.43210228 </i>
    <i name="hartreedc">  -7713.02671261 </i>
    <i name="XCdc">    -55.75749596 </i>
    <i name="pawpsdc">   6032.41092883 </i>
    <i name="pawaedc">  -5817.35228381 </i>
    <i name="eentropy">      0.00000000 </i>
    <i name="bandstr">   -435.05683990 </i>
    <i name="atom">   5185.99315043 </i>
    <i name="e_fr_energy">      0.57970798 </i>
    <i name="e_wo_entrp">      0.57970798 </i>
    <i name="e_0_energy">      0.57970798 </i>
   </energy>
  </scstep>
  <structure>
   <crystal>
    <varray name="basis" >
     <v>      17.54559576       0.00000000       0.00000000 </v>
     <v>       0.00000000      17.54559576       0.00000000 </v>
     <v>       0.00000000       0.00000000      17.54559576 </v>
    </varray>
    <i name="volume">   5401.37534966 </i>
    <varray name="rec_basis" >
     <v>       0.05699436       0.00000000       0.00000000 </v>
     <v>       0.00000000       0.05699436       0.00000000 </v>
     <v>       0.00000000       0.00000000       0.05699436 </v>
    </varray>
   </crystal>
   <varray name="positions" >
    <v>       0.45859851       0.50416186       0.57213434 </v>
    <v>       0.57898781       0.47920988       0.38094597 </v>
    <v>       0.50074578       0.41432538       0.44593076 </v>
    <v>       0.53549910       0.55097038       0.49436132 </v>
    <v>       0.46237104       0.58892005       0.64442707 </v>
   </varray>
  </structure>
  <varray name="forces" >
   <v>      -7.45887173     -17.53471402      -4.39270885 </v>
   <v>       6.54094616       4.45990263      -6.10300759 </v>
   <v>      -6.30608665      -5.74358877       4.83531797 </v>
   <v>       6.53823257       5.55987160      -5.43262868 </v>
   <v>       0.68577965      13.25852856      11.09302715 </v>
  </varray>
  <varray name="stress" >
   <v>       4.81289494       4.00277069      -4.73844675 </v>
   <v>       4.00277069       8.78796489       2.09846531 </v>
   <v>      -4.73844674       2.09846532       8.77309508 </v>
  </varray>
  <energy>
   <i name="e_fr_energy">      0.57970798 </i>
   <i name="e_wo_entrp">      0.57970798 </i>
   <i name="e_0_energy">      0.00000000 </i>
  </energy>
  <time name="totalsc">    8.24    9.45</time>
 </calculation>
 <calculation>
  <scstep>
   <time name="dav">    0.20    0.20</time>
   <time name="total">    0.38    0.39</time>
   <energy>
    <i name="alphaZ">      3.93685873 </i>
    <i name="ewald">   2478.14201098 </i>
    <i name="hartreedc">  -7410.47737663 </i>
    <i name="XCdc">    -57.23720489 </i>
    <i name="pawpsdc">   6032.43380875 </i>
    <i name="pawaedc">  -5817.37506768 </i>
    <i name="eentropy">      0.00000000 </i>
    <i name="bandstr">   -420.23624181 </i>
    <i name="atom">   5185.99315043 </i>
    <i name="e_fr_energy">     -4.82006211 </i>
    <i name="e_wo_entrp">     -4.82006211 </i>
    <i name="e_0_energy">     -4.82006211 </i>
   </energy>
  </scstep>
  <scstep>
   <time name="dav">    0.20    0.20</time>
   <time name="total">    0.38    0.39</time>
   <energy>
    <i name="e_fr_energy">     -5.15088734 </i>
    <i name="e_wo_entrp">     -5.15088734 </i>
    <i name="e_0_energy">     -5.15088734 </i>
   </energy>
  </scstep>
  <scstep>
   <time name="dav">    0.20    0.20</time>
   <time name="total">    0.38    0.39</time>
   <energy>
    <i name="e_fr_energy">     -5.12762625 </i>
    <i name="e_wo_entrp">     -5.12762625 </i>
    <i name="e_0_energy">     -5.12762625 </i>
   </energy>
  </scstep>
  <scstep>
   <time name="dav">    0.19    0.20</time>
   <time name="total">    0.38    0.39</time>
   <energy>
    <i name="e_fr_energy">     -5.12428189 </i>
    <i name="e_wo_entrp">     -5.12428189 </i>
    <i name="e_0_energy">     -5.12428189 </i>
   </energy>
  </scstep>
  <scstep>
   <time name="dav">    0.20    0.21</time>
   <time name="total">    0.39    0.39</time>
   <energy>
    <i name="e_fr_energy">     -5.12513349 </i>
    <i name="e_wo_entrp">     -5.12513349 </i>
    <i name="e_0_energy">     -5.12513349 </i>
   </energy>
  </scstep>
  <scstep>
   <time name="dav">    0.20    0.20</time>
   <time name="total">    0.38    0.39</time>
   <energy>
    <i name="e_fr_energy">     -5.12587567 </i>
    <i name="e_wo_entrp">     -5.12587567 </i>
    <i name="e_0_energy">     -5.12587567 </i>
   </energy>
  </scstep>
  <scstep>
   <time name="dav">    0.16    0.17</time>
   <time name="total">    0.35    0.36</time>
   <energy>
    <i name="e_fr_energy">     -5.12628109 </i>
    <i name="e_wo_entrp">     -5.12628109 </i>
    <i name="e_0_energy">     -5.12628109 </i>
   </energy>
  </scstep>
  <scstep>
   <time name="dav">    0.15    0.15</time>
   <time name="total">    0.34    0.38</time>
   <energy>
    <i name="e_fr_energy">     -5.12648837 </i>
    <i name="e_wo_entrp">     -5.12648837 </i>
    <i name="e_0_energy">     -5.12648837 </i>
   </energy>
  </scstep>
  <scstep>
   <time name="dav">    0.16    0.16</time>
   <time name="total">    0.34    0.35</time>
   <energy>
    <i name="e_fr_energy">     -5.12668497 </i>
    <i name="e_wo_entrp">     -5.12668497 </i>
    <i name="e_0_energy">     -5.12668497 </i>
   </energy>
  </scstep>
  <scstep>
   <time name="dav">    0.16    0.16</time>
   <time name="total">    0.34    0.35</time>
   <energy>
    <i name="e_fr_energy">     -5.12685671 </i>
    <i name="e_wo_entrp">     -5.12685671 </i>
    <i name="e_0_energy">     -5.12685671 </i>
   </energy>
  </scstep>
  <scstep>
   <time name="dav">    0.16    0.16</time>
   <time name="total">    0.34    0.35</time>
   <energy>
    <i name="e_fr_energy">     -5.12701593 </i>
    <i name="e_wo_entrp">     -5.12701593 </i>
    <i name="e_0_energy">     -5.12701593 </i>
   </energy>
  </scstep>
  <scstep>
   <time name="dav">    0.16    0.16</time>
   <time name="total">    0.31    0.32</time>
   <energy>
    <i name="alphaZ">      3.93685873 </i>
    <i name="ewald">   2478.14201098 </i>
    <i name="hartreedc">  -7419.39079182 </i>
    <i name="XCdc">    -57.07556507 </i>
    <i name="pawpsdc">   5594.05635757 </i>
    <i name="pawaedc">  -5373.84877734 </i>
    <i name="eentropy">      0.00000000 </i>
    <i name="bandstr">   -416.94034872 </i>
    <i name="atom">   5185.99315043 </i>
    <i name="e_fr_energy">     -5.12710523 </i>
    <i name="e_wo_entrp">     -5.12710523 </i>
    <i name="e_0_energy">     -5.12710523 </i>
   </energy>
  </scstep>
  <structure>
   <crystal>
    <varray name="basis" >
     <v>      17.54559576       0.00000000       0.00000000 </v>
     <v>       0.00000000      17.54559576       0.00000000 </v>
     <v>       0.00000000       0.00000000      17.54559576 </v>
    </varray>
    <i name="volume">   5401.37534966 </i>
    <varray name="rec_basis" >
     <v>       0.05699436       0.00000000       0.00000000 </v>
     <v>       0.00000000       0.05699436       0.00000000 </v>
     <v>       0.00000000       0.00000000       0.05699436 </v>
    </varray>
   </crystal>
   <varray name="positions" >
    <v>       0.45449679       0.49451931       0.56971873 </v>
    <v>       0.58258475       0.48166243       0.37758986 </v>
    <v>       0.49727799       0.41116691       0.44858976 </v>
    <v>       0.53909456       0.55402782       0.49137386 </v>
    <v>       0.46274816       0.59621107       0.65052726 </v>
   </varray>
  </structure>
  <varray name="forces" >
   <v>      -3.26911836      -5.15643821       0.41243115 </v>
   <v>       2.91241192       1.53448080      -3.06427640 </v>
   <v>      -2.53945908      -2.48394483       1.81584375 </v>
   <v>       2.46871771       2.97680845      -1.30930351 </v>
   <v>       0.42744782       3.12909379       2.14530501 </v>
  </varray>
  <varray name="stress" >
   <v>       2.00869512       1.92378206      -2.13189947 </v>
   <v>       1.92378206       3.08959653       0.14145568 </v>
   <v>      -2.13189946       0.14145568       2.84951722 </v>
  </varray>
  <energy>
   <i name="e_fr_energy">     -5.12710523 </i>
   <i name="e_wo_entrp">     -5.12710523 </i>
   <i name="e_0_energy">      0.00000000 </i>
  </energy>
  <time name="totalsc">    4.84    4.97</time>
 </calculation>
 <calculation>
  <scstep>
   <time name="dav">    0.20    0.20</time>
   <time name="total">    0.38    0.42</time>
   <energy>
    <i name="alphaZ">      3.93685873 </i>
    <i name="ewald">   2353.67654610 </i>
    <i name="hartreedc">  -7298.87149317 </i>
    <i name="XCdc">    -57.58605676 </i>
    <i name="pawpsdc">   5594.20320577 </i>
    <i name="pawaedc">  -5373.99520521 </i>
    <i name="eentropy">      0.00000000 </i>
    <i name="bandstr">   -413.38352791 </i>
    <i name="atom">   5185.99315043 </i>
    <i name="e_fr_energy">     -6.02652201 </i>
    <i name="e_wo_entrp">     -6.02652201 </i>
    <i name="e_0_energy">     -6.02652201 </i>
   </energy>
  </scstep>
  <scstep>
   <time name="dav">    0.20    0.20</time>
   <time name="total">    0.38    0.39</time>
   <energy>
    <i name="e_fr_energy">     -6.08673577 </i>
    <i name="e_wo_entrp">     -6.08673577 </i>
    <i name="e_0_energy">     -6.08673577 </i>
   </energy>
  </scstep>
  <scstep>
   <time name="dav">    0.20    0.20</time>
   <time name="total">    0.38    0.39</time>
   <energy>
    <i name="e_fr_energy">     -6.08490313 </i>
    <i name="e_wo_entrp">     -6.08490313 </i>
    <i name="e_0_energy">     -6.08490313 </i>
   </energy>
  </scstep>
  <scstep>
   <time name="dav">    0.20    0.20</time>
   <time name="total">    0.38    0.39</time>
   <energy>
    <i name="e_fr_energy">     -6.08539733 </i>
    <i name="e_wo_entrp">     -6.08539733 </i>
    <i name="e_0_energy">     -6.08539733 </i>
   </energy>
  </scstep>
  <scstep>
   <time name="dav">    0.17    0.17</time>
   <time name="total">    0.36    0.36</time>
   <energy>
    <i name="e_fr_energy">     -6.08562028 </i>
    <i name="e_wo_entrp">     -6.08562028 </i>
    <i name="e_0_energy">     -6.08562028 </i>
   </energy>
  </scstep>
  <scstep>
   <time name="dav">    0.17    0.17</time>
   <time name="total">    0.35    0.37</time>
   <energy>
    <i name="e_fr_energy">     -6.08577600 </i>
    <i name="e_wo_entrp">     -6.08577600 </i>
    <i name="e_0_energy">     -6.08577600 </i>
   </energy>
  </scstep>
  <scstep>
   <time name="dav">    0.17    0.17</time>
   <time name="total">    0.33    0.33</time>
   <energy>
    <i name="alphaZ">      3.93685873 </i>
    <i name="ewald">   2353.67654610 </i>
    <i name="hartreedc">  -7301.93561377 </i>
    <i name="XCdc">    -57.50722742 </i>
    <i name="pawpsdc">   5483.54524750 </i>
    <i name="pawaedc">  -5261.83129188 </i>
    <i name="eentropy">      0.00000000 </i>
    <i name="bandstr">   -411.96352091 </i>
    <i name="atom">   5185.99315043 </i>
    <i name="e_fr_energy">     -6.08585121 </i>
    <i name="e_wo_entrp">     -6.08585121 </i>
    <i name="e_0_energy">     -6.08585121 </i>
   </energy>
  </scstep>
  <structure>
   <crystal>
    <varray name="basis" >
     <v>      17.54559576       0.00000000       0.00000000 </v>
     <v>       0.00000000      17.54559576       0.00000000 </v>
     <v>       0.00000000       0.00000000      17.54559576 </v>
    </varray>
    <i name="volume">   5401.37534966 </i>
    <varray name="rec_basis" >
     <v>       0.05699436       0.00000000       0.00000000 </v>
     <v>       0.00000000       0.05699436       0.00000000 </v>
     <v>       0.00000000       0.00000000       0.05699436 </v>
    </varray>
   </crystal>
   <varray name="positions" >
    <v>       0.45267206       0.49022965       0.56864411 </v>
    <v>       0.58418492       0.48275349       0.37609683 </v>
    <v>       0.49573528       0.40976181       0.44977267 </v>
    <v>       0.54069406       0.55538798       0.49004483 </v>
    <v>       0.46291593       0.59945461       0.65324104 </v>
   </varray>
  </structure>
  <varray name="forces" >
   <v>      -2.11183399      -2.51994947       1.02125356 </v>
   <v>       1.97184677       0.80453002      -2.26231683 </v>
   <v>      -1.51713177      -1.67634905       0.93664659 </v>
   <v>       1.35411901       2.13457037      -0.31906208 </v>
   <v>       0.30299998       1.25719813       0.62347876 </v>
  </varray>
  <varray name="stress" >
   <v>       1.17563796       1.22040499      -1.45447923 </v>
   <v>       1.22040499       1.66418591      -0.06530740 </v>
   <v>      -1.45447923      -0.06530740       1.59801072 </v>
  </varray>
  <energy>
   <i name="e_fr_energy">     -6.08585121 </i>
   <i name="e_wo_entrp">     -6.08585121 </i>
   <i name="e_0_energy">      0.00000000 </i>
  </energy>
  <time name="totalsc">    3.06    3.16</time>
 </calculation>
 <calculation>
  <scstep>
   <time name="dav">    0.20    0.20</time>
   <time name="total">    0.38    0.41</time>
   <energy>
    <i name="alphaZ">      3.93685873 </i>
    <i name="ewald">   2132.81543693 </i>
    <i name="hartreedc">  -7084.98484769 </i>
    <i name="XCdc">    -58.27835476 </i>
    <i name="pawpsdc">   5483.13051906 </i>
    <i name="pawaedc">  -5261.41503994 </i>
    <i name="eentropy">      0.00000000 </i>
    <i name="bandstr">   -407.60350716 </i>
    <i name="atom">   5185.99315043 </i>
    <i name="e_fr_energy">     -6.40578440 </i>
    <i name="e_wo_entrp">     -6.40578440 </i>
    <i name="e_0_energy">     -6.40578440 </i>
   </energy>
  </scstep>
  <scstep>
   <time name="dav">    0.20    0.20</time>
   <time name="total">    0.38    0.38</time>
   <energy>
    <i name="e_fr_energy">     -6.66545249 </i>
    <i name="e_wo_entrp">     -6.66545249 </i>
    <i name="e_0_energy">     -6.66545249 </i>
   </energy>
  </scstep>
  <scstep>
   <time name="dav">    0.22    0.22</time>
   <time name="total">    0.40    0.42</time>
   <energy>
    <i name="e_fr_energy">     -6.66813832 </i>
    <i name="e_wo_entrp">     -6.66813832 </i>
    <i name="e_0_energy">     -6.66813832 </i>
   </energy>
  </scstep>
  <scstep>
   <time name="dav">    0.20    0.20</time>
   <time name="total">    0.38    0.39</time>
   <energy>
    <i name="e_fr_energy">     -6.66620730 </i>
    <i name="e_wo_entrp">     -6.66620730 </i>
    <i name="e_0_energy">     -6.66620730 </i>
   </energy>
  </scstep>
  <scstep>
   <time name="dav">    0.20    0.20</time>
   <time name="total">    0.38    0.39</time>
   <energy>
    <i name="e_fr_energy">     -6.66707970 </i>
    <i name="e_wo_entrp">     -6.66707970 </i>
    <i name="e_0_energy">     -6.66707970 </i>
   </energy>
  </scstep>
  <scstep>
   <time name="dav">    0.16    0.16</time>
   <time name="total">    0.35    0.35</time>
   <energy>
    <i name="e_fr_energy">     -6.66729005 </i>
    <i name="e_wo_entrp">     -6.66729005 </i>
    <i name="e_0_energy">     -6.66729005 </i>
   </energy>
  </scstep>
  <scstep>
   <time name="dav">    0.19    0.19</time>
   <time name="total">    0.38    0.39</time>
   <energy>
    <i name="e_fr_energy">     -6.66770581 </i>
    <i name="e_wo_entrp">     -6.66770581 </i>
    <i name="e_0_energy">     -6.66770581 </i>
   </energy>
  </scstep>
  <scstep>
   <time name="dav">    0.17    0.17</time>
   <time name="total">    0.35    0.38</time>
   <energy>
    <i name="e_fr_energy">     -6.66806095 </i>
    <i name="e_wo_entrp">     -6.66806095 </i>
    <i name="e_0_energy">     -6.66806095 </i>
   </energy>
  </scstep>
  <scstep>
   <time name="dav">    0.16    0.16</time>
   <time name="total">    0.35    0.36</time>
   <energy>
    <i name="e_fr_energy">     -6.66829509 </i>
    <i name="e_wo_entrp">     -6.66829509 </i>
    <i name="e_0_energy">     -6.66829509 </i>
   </energy>
  </scstep>
  <scstep>
   <time name="dav">    0.17    0.17</time>
   <time name="total">    0.36    0.36</time>
   <energy>
    <i name="e_fr_energy">     -6.66849958 </i>
    <i name="e_wo_entrp">     -6.66849958 </i>
    <i name="e_0_energy">     -6.66849958 </i>
   </energy>
  </scstep>
  <scstep>
   <time name="dav">    0.16    0.16</time>
   <time name="total">    0.34    0.35</time>
   <energy>
    <i name="e_fr_energy">     -6.66872207 </i>
    <i name="e_wo_entrp">     -6.66872207 </i>
    <i name="e_0_energy">     -6.66872207 </i>
   </energy>
  </scstep>
  <scstep>
   <time name="dav">    0.18    0.18</time>
   <time name="total">    0.33    0.34</time>
   <energy>
    <i name="alphaZ">      3.93685873 </i>
    <i name="ewald">   2132.81543693 </i>
    <i name="hartreedc">  -7090.05763795 </i>
    <i name="XCdc">    -58.12881272 </i>
    <i name="pawpsdc">   5349.33804311 </i>
    <i name="pawaedc">  -5125.57171262 </i>
    <i name="eentropy">      0.00000000 </i>
    <i name="bandstr">   -404.99408993 </i>
    <i name="atom">   5185.99315043 </i>
    <i name="e_fr_energy">     -6.66876401 </i>
    <i name="e_wo_entrp">     -6.66876401 </i>
    <i name="e_0_energy">     -6.66876401 </i>
   </energy>
  </scstep>
  <structure>
   <crystal>
    <varray name="basis" >
     <v>      17.54559576       0.00000000       0.00000000 </v>
     <v>       0.00000000      17.54559576       0.00000000 </v>
     <v>       0.00000000       0.00000000      17.54559576 </v>
    </varray>
    <i name="volume">   5401.37534966 </i>
    <varray name="rec_basis" >
     <v>       0.05699436       0.00000000       0.00000000 </v>
     <v>       0.00000000       0.05699436       0.00000000 </v>
     <v>       0.00000000       0.00000000       0.05699436 </v>
    </varray>
   </crystal>
   <varray name="positions" >
    <v>       0.44902261       0.48165032       0.56649486 </v>
    <v>       0.58738525       0.48493562       0.37311077 </v>
    <v>       0.49264985       0.40695160       0.45213848 </v>
    <v>       0.54389306       0.55810829       0.48738677 </v>
    <v>       0.46325147       0.60594170       0.65866860 </v>
   </varray>
  </structure>
  <varray name="forces" >
   <v>      -0.89112520       0.31264211       1.53116074 </v>
   <v>       0.85072701      -0.05113324      -1.26252283 </v>
   <v>      -0.16547494      -0.91432744      -0.40932125 </v>
   <v>       0.03253410       0.95541007       0.73298985 </v>
   <v>       0.17333903      -0.30259150      -0.59230650 </v>
  </varray>
  <varray name="stress" >
   <v>       0.11478992       0.20978483      -0.69001569 </v>
   <v>       0.20978483       0.07272236       0.06593503 </v>
   <v>      -0.69001568       0.06593503       0.47202420 </v>
  </varray>
  <energy>
   <i name="e_fr_energy">     -6.66876401 </i>
   <i name="e_wo_entrp">     -6.66876401 </i>
   <i name="e_0_energy">      0.00000000 </i>
  </energy>
  <time name="totalsc">    4.89    5.04</time>
 </calculation>
 <calculation>
  <scstep>
   <time name="dav">    0.19    0.20</time>
   <time name="total">    0.38    0.39</time>
   <energy>
    <i name="alphaZ">      3.93685873 </i>
    <i name="ewald">   2103.81589729 </i>
    <i name="hartreedc">  -7061.66472390 </i>
    <i name="XCdc">    -58.23209438 </i>
    <i name="pawpsdc">   5349.32400003 </i>
    <i name="pawaedc">  -5125.55817387 </i>
    <i name="eentropy">      0.00000000 </i>
    <i name="bandstr">   -404.37341416 </i>
    <i name="atom">   5185.99315043 </i>
    <i name="e_fr_energy">     -6.75849983 </i>
    <i name="e_wo_entrp">     -6.75849983 </i>
    <i name="e_0_energy">     -6.75849983 </i>
   </energy>
  </scstep>
  <scstep>
   <time name="dav">    0.20    0.20</time>
   <time name="total">    0.39    2.28</time>
   <energy>
    <i name="e_fr_energy">     -6.76256543 </i>
    <i name="e_wo_entrp">     -6.76256543 </i>
    <i name="e_0_energy">     -6.76256543 </i>
   </energy>
  </scstep>
  <scstep>
   <time name="dav">    0.21    0.21</time>
   <time name="total">    0.40    1.52</time>
   <energy>
    <i name="e_fr_energy">     -6.76253600 </i>
    <i name="e_wo_entrp">     -6.76253600 </i>
    <i name="e_0_energy">     -6.76253600 </i>
   </energy>
  </scstep>
  <scstep>
   <time name="dav">    0.16    0.16</time>
   <time name="total">    0.32    0.32</time>
   <energy>
    <i name="alphaZ">      3.93685873 </i>
    <i name="ewald">   2103.81589729 </i>
    <i name="hartreedc">  -7062.44224322 </i>
    <i name="XCdc">    -58.21260112 </i>
    <i name="pawpsdc">   5331.25592084 </i>
    <i name="pawaedc">  -5107.21956935 </i>
    <i name="eentropy">      0.00000000 </i>
    <i name="bandstr">   -403.88996740 </i>
    <i name="atom">   5185.99315043 </i>
    <i name="e_fr_energy">     -6.76255380 </i>
    <i name="e_wo_entrp">     -6.76255380 </i>
    <i name="e_0_energy">     -6.76255380 </i>
   </energy>
  </scstep>
  <structure>
   <crystal>
    <varray name="basis" >
     <v>      17.54559576       0.00000000       0.00000000 </v>
     <v>       0.00000000      17.54559576       0.00000000 </v>
     <v>       0.00000000       0.00000000      17.54559576 </v>
    </varray>
    <i name="volume">   5401.37534966 </i>
    <varray name="rec_basis" >
     <v>       0.05699436       0.00000000       0.00000000 </v>
     <v>       0.00000000       0.05699436       0.00000000 </v>
     <v>       0.00000000       0.00000000       0.05699436 </v>
    </varray>
   </crystal>
   <varray name="positions" >
    <v>       0.44837191       0.48179795       0.56754403 </v>
    <v>       0.58800413       0.48491785       0.37220674 </v>
    <v>       0.49250933       0.40629161       0.45187266 </v>
    <v>       0.54394190       0.55879618       0.48787569 </v>
    <v>       0.46337498       0.60578396       0.65830035 </v>
   </varray>
  </structure>
  <varray name="forces" >
   <v>      -0.74572156       0.22131065       1.25167795 </v>
   <v>       0.68278599       0.00024907      -0.98816108 </v>
   <v>      -0.12901060      -0.69064102      -0.30254801 </v>
   <v>       0.00918887       0.72688812       0.60157056 </v>
   <v>       0.18275730      -0.25780681      -0.56253943 </v>
  </varray>
  <varray name="stress" >
   <v>      -0.00832633       0.18870787      -0.54333304 </v>
   <v>       0.18870787      -0.07477721       0.00188608 </v>
   <v>      -0.54333304       0.00188608       0.21290699 </v>
  </varray>
  <energy>
   <i name="e_fr_energy">     -6.76255380 </i>
   <i name="e_wo_entrp">     -6.76255380 </i>
   <i name="e_0_energy">      0.00000000 </i>
  </energy>
  <time name="totalsc">    1.97    5.05</time>
 </calculation>
 <calculation>
  <scstep>
   <time name="dav">    0.20    0.20</time>
   <time name="total">    0.38    0.40</time>
   <energy>
    <i name="alphaZ">      3.93685873 </i>
    <i name="ewald">   2021.01401305 </i>
    <i name="hartreedc">  -6981.04502862 </i>
    <i name="XCdc">    -58.49160871 </i>
    <i name="pawpsdc">   5330.99857807 </i>
    <i name="pawaedc">  -5106.95731539 </i>
    <i name="eentropy">      0.00000000 </i>
    <i name="bandstr">   -402.34688748 </i>
    <i name="atom">   5185.99315043 </i>
    <i name="e_fr_energy">     -6.89823993 </i>
    <i name="e_wo_entrp">     -6.89823993 </i>
    <i name="e_0_energy">     -6.89823993 </i>
   </energy>
  </scstep>
  <scstep>
   <time name="dav">    0.20    0.20</time>
   <time name="total">    0.38    0.40</time>
   <energy>
    <i name="e_fr_energy">     -6.93431393 </i>
    <i name="e_wo_entrp">     -6.93431393 </i>
    <i name="e_0_energy">     -6.93431393 </i>
   </energy>
  </scstep>
  <scstep>
   <time name="dav">    0.20    0.20</time>
   <time name="total">    0.39    0.39</time>
   <energy>
    <i name="e_fr_energy">     -6.93441420 </i>
    <i name="e_wo_entrp">     -6.93441420 </i>
    <i name="e_0_energy">     -6.93441420 </i>
   </energy>
  </scstep>
  <scstep>
   <time name="dav">    0.20    0.20</time>
   <time name="total">    0.38    0.39</time>
   <energy>
    <i name="e_fr_energy">     -6.93421045 </i>
    <i name="e_wo_entrp">     -6.93421045 </i>
    <i name="e_0_energy">     -6.93421045 </i>
   </energy>
  </scstep>
  <scstep>
   <time name="dav">    0.16    0.16</time>
   <time name="total">    0.34    0.35</time>
   <energy>
    <i name="e_fr_energy">     -6.93436554 </i>
    <i name="e_wo_entrp">     -6.93436554 </i>
    <i name="e_0_energy">     -6.93436554 </i>
   </energy>
  </scstep>
  <scstep>
   <time name="dav">    0.18    0.17</time>
   <time name="total">    0.33    0.35</time>
   <energy>
    <i name="alphaZ">      3.93685873 </i>
    <i name="ewald">   2021.01401305 </i>
    <i name="hartreedc">  -6983.12998731 </i>
    <i name="XCdc">    -58.43446733 </i>
    <i name="pawpsdc">   5285.78869256 </i>
    <i name="pawaedc">  -5061.02033608 </i>
    <i name="eentropy">      0.00000000 </i>
    <i name="bandstr">   -401.08235061 </i>
    <i name="atom">   5185.99315043 </i>
    <i name="e_fr_energy">     -6.93442656 </i>
    <i name="e_wo_entrp">     -6.93442656 </i>
    <i name="e_0_energy">     -6.93442656 </i>
   </energy>
  </scstep>
  <structure>
   <crystal>
    <varray name="basis" >
     <v>      17.54559576       0.00000000       0.00000000 </v>
     <v>       0.00000000      17.54559576       0.00000000 </v>
     <v>       0.00000000       0.00000000      17.54559576 </v>
    </varray>
    <i name="volume">   5401.37534966 </i>
    <varray name="rec_basis" >
     <v>       0.05699436       0.00000000       0.00000000 </v>
     <v>       0.00000000       0.05699436       0.00000000 </v>
     <v>       0.00000000       0.00000000       0.05699436 </v>
    </varray>
   </crystal>
   <varray name="positions" >
    <v>       0.44641981       0.48224084       0.57069153 </v>
    <v>       0.58986076       0.48486453       0.36949468 </v>
    <v>       0.49208775       0.40431161       0.45107520 </v>
    <v>       0.54408841       0.56085983       0.48934247 </v>
    <v>       0.46374550       0.60531073       0.65719558 </v>
   </varray>
  </structure>
  <varray name="forces" >
   <v>      -0.40086334      -0.03031167       0.54810905 </v>
   <v>       0.27159629       0.09934095      -0.33581574 </v>
   <v>      -0.02659136      -0.15187660      -0.06913180 </v>
   <v>      -0.06268446       0.18731114       0.31545123 </v>
   <v>       0.21854287      -0.10446382      -0.45861274 </v>
  </varray>
  <varray name="stress" >
   <v>      -0.29224726       0.12878542      -0.15748093 </v>
   <v>       0.12878542      -0.38228501      -0.12697741 </v>
   <v>      -0.15748093      -0.12697741      -0.40359478 </v>
  </varray>
  <energy>
   <i name="e_fr_energy">     -6.93442656 </i>
   <i name="e_wo_entrp">     -6.93442656 </i>
   <i name="e_0_energy">      0.00000000 </i>
  </energy>
  <time name="totalsc">    2.70    2.78</time>
 </calculation>
 <calculation>
  <scstep>
   <time name="dav">    0.20    0.20</time>
   <time name="total">    0.38    0.39</time>
   <energy>
    <i name="alphaZ">      3.93685873 </i>
    <i name="ewald">   1872.53183206 </i>
    <i name="hartreedc">  -6836.13155850 </i>
    <i name="XCdc">    -58.86939542 </i>
    <i name="pawpsdc">   5286.17704488 </i>
    <i name="pawaedc">  -5061.41376174 </i>
    <i name="eentropy">      0.00000000 </i>
    <i name="bandstr">   -398.99248383 </i>
    <i name="atom">   5185.99315043 </i>
    <i name="e_fr_energy">     -6.76831338 </i>
    <i name="e_wo_entrp">     -6.76831338 </i>
    <i name="e_0_energy">     -6.76831338 </i>
   </energy>
  </scstep>
  <scstep>
   <time name="dav">    0.20    0.20</time>
   <time name="total">    0.38    0.40</time>
   <energy>
    <i name="e_fr_energy">     -6.92416778 </i>
    <i name="e_wo_entrp">     -6.92416778 </i>
    <i name="e_0_energy">     -6.92416778 </i>
   </energy>
  </scstep>
  <scstep>
   <time name="dav">    0.21    0.21</time>
   <time name="total">    0.40    0.40</time>
   <energy>
    <i name="e_fr_energy">     -6.92684018 </i>
    <i name="e_wo_entrp">     -6.92684018 </i>
    <i name="e_0_energy">     -6.92684018 </i>
   </energy>
  </scstep>
  <scstep>
   <time name="dav">    0.20    0.20</time>
   <time name="total">    0.38    0.39</time>
   <energy>
    <i name="e_fr_energy">     -6.92614844 </i>
    <i name="e_wo_entrp">     -6.92614844 </i>
    <i name="e_0_energy">     -6.92614844 </i>
   </energy>
  </scstep>
  <scstep>
   <time name="dav">    0.21    0.21</time>
   <time name="total">    0.40    0.40</time>
   <energy>
    <i name="e_fr_energy">     -6.92674143 </i>
    <i name="e_wo_entrp">     -6.92674143 </i>
    <i name="e_0_energy">     -6.92674143 </i>
   </energy>
  </scstep>
  <scstep>
   <time name="dav">    0.16    0.16</time>
   <time name="total">    0.34    0.36</time>
   <energy>
    <i name="e_fr_energy">     -6.92688407 </i>
    <i name="e_wo_entrp">     -6.92688407 </i>
    <i name="e_0_energy">     -6.92688407 </i>
   </energy>
  </scstep>
  <scstep>
   <time name="dav">    0.16    0.16</time>
   <time name="total">    0.34    0.54</time>
   <energy>
    <i name="e_fr_energy">     -6.92714142 </i>
    <i name="e_wo_entrp">     -6.92714142 </i>
    <i name="e_0_energy">     -6.92714142 </i>
   </energy>
  </scstep>
  <scstep>
   <time name="dav">    0.18    0.17</time>
   <time name="total">    0.36    0.47</time>
   <energy>
    <i name="e_fr_energy">     -6.92735489 </i>
    <i name="e_wo_entrp">     -6.92735489 </i>
    <i name="e_0_energy">     -6.92735489 </i>
   </energy>
  </scstep>
  <scstep>
   <time name="dav">    0.16    0.16</time>
   <time name="total">    0.34    0.35</time>
   <energy>
    <i name="e_fr_energy">     -6.92749749 </i>
    <i name="e_wo_entrp">     -6.92749749 </i>
    <i name="e_0_energy">     -6.92749749 </i>
   </energy>
  </scstep>
  <scstep>
   <time name="dav">    0.17    0.17</time>
   <time name="total">    0.36    0.39</time>
   <energy>
    <i name="e_fr_energy">     -6.92761542 </i>
    <i name="e_wo_entrp">     -6.92761542 </i>
    <i name="e_0_energy">     -6.92761542 </i>
   </energy>
  </scstep>
  <scstep>
   <time name="dav">    0.16    0.16</time>
   <time name="total">    0.34    0.35</time>
   <energy>
    <i name="e_fr_energy">     -6.92776985 </i>
    <i name="e_wo_entrp">     -6.92776985 </i>
    <i name="e_0_energy">     -6.92776985 </i>
   </energy>
  </scstep>
  <scstep>
   <time name="dav">    0.17    0.17</time>
   <time name="total">    0.33    0.38</time>
   <energy>
    <i name="alphaZ">      3.93685873 </i>
    <i name="ewald">   1872.53183206 </i>
    <i name="hartreedc">  -6839.62429665 </i>
    <i name="XCdc">    -58.76806604 </i>
    <i name="pawpsdc">   5228.71588557 </i>
    <i name="pawaedc">  -5002.89082005 </i>
    <i name="eentropy">      0.00000000 </i>
    <i name="bandstr">   -396.82235121 </i>
    <i name="atom">   5185.99315043 </i>
    <i name="e_fr_energy">     -6.92780715 </i>
    <i name="e_wo_entrp">     -6.92780715 </i>
    <i name="e_0_energy">     -6.92780715 </i>
   </energy>
  </scstep>
  <structure>
   <crystal>
    <varray name="basis" >
     <v>      17.54559576       0.00000000       0.00000000 </v>
     <v>       0.00000000      17.54559576       0.00000000 </v>
     <v>       0.00000000       0.00000000      17.54559576 </v>
    </varray>
    <i name="volume">   5401.37534966 </i>
    <varray name="rec_basis" >
     <v>       0.05699436       0.00000000       0.00000000 </v>
     <v>       0.00000000       0.05699436       0.00000000 </v>
     <v>       0.00000000       0.00000000       0.05699436 </v>
    </varray>
   </crystal>
   <varray name="positions" >
    <v>       0.44251563       0.48312662       0.57698655 </v>
    <v>       0.59357404       0.48475789       0.36407055 </v>
    <v>       0.49124459       0.40035163       0.44948030 </v>
    <v>       0.54438143       0.56498713       0.49227602 </v>
    <v>       0.46448656       0.60436426       0.65498605 </v>
   </varray>
  </structure>
  <varray name="forces" >
   <v>      -0.01873364      -0.54698588      -0.43075111 </v>
   <v>      -0.20909557       0.14879919       0.41962542 </v>
   <v>       0.10748396       0.48695168       0.14545741 </v>
   <v>      -0.19876782      -0.40857619       0.05427953 </v>
   <v>       0.31911307       0.31981120      -0.18861125 </v>
  </varray>
  <varray name="stress" >
   <v>      -0.69490511       0.05900776       0.37326991 </v>
   <v>       0.05900776      -0.64007986      -0.16043259 </v>
   <v>       0.37326990      -0.16043259      -1.16738363 </v>
  </varray>
  <energy>
   <i name="e_fr_energy">     -6.92780715 </i>
   <i name="e_wo_entrp">     -6.92780715 </i>
   <i name="e_0_energy">      0.00000000 </i>
  </energy>
  <time name="totalsc">    4.86    5.46</time>
 </calculation>
 <calculation>
  <scstep>
   <time name="dav">    0.20    0.20</time>
   <time name="total">    0.38    0.41</time>
   <energy>
    <i name="alphaZ">      3.93685873 </i>
    <i name="ewald">   1937.73435016 </i>
    <i name="hartreedc">  -6904.42798335 </i>
    <i name="XCdc">    -58.58521152 </i>
    <i name="pawpsdc">   5228.71631578 </i>
    <i name="pawaedc">  -5002.89177021 </i>
    <i name="eentropy">      0.00000000 </i>
    <i name="bandstr">   -397.41707582 </i>
    <i name="atom">   5185.99315043 </i>
    <i name="e_fr_energy">     -6.94136580 </i>
    <i name="e_wo_entrp">     -6.94136580 </i>
    <i name="e_0_energy">     -6.94136580 </i>
   </energy>
  </scstep>
  <scstep>
   <time name="dav">    0.20    0.20</time>
   <time name="total">    0.39    0.40</time>
   <energy>
    <i name="e_fr_energy">     -6.97536645 </i>
    <i name="e_wo_entrp">     -6.97536645 </i>
    <i name="e_0_energy">     -6.97536645 </i>
   </energy>
  </scstep>
  <scstep>
   <time name="dav">    0.20    0.20</time>
   <time name="total">    0.39    0.39</time>
   <energy>
    <i name="e_fr_energy">     -6.97577450 </i>
    <i name="e_wo_entrp">     -6.97577450 </i>
    <i name="e_0_energy">     -6.97577450 </i>
   </energy>
  </scstep>
  <scstep>
   <time name="dav">    0.20    0.20</time>
   <time name="total">    0.38    0.42</time>
   <energy>
    <i name="e_fr_energy">     -6.97583628 </i>
    <i name="e_wo_entrp">     -6.97583628 </i>
    <i name="e_0_energy">     -6.97583628 </i>
   </energy>
  </scstep>
  <scstep>
   <time name="dav">    0.16    0.16</time>
   <time name="total">    0.35    0.39</time>
   <energy>
    <i name="e_fr_energy">     -6.97598629 </i>
    <i name="e_wo_entrp">     -6.97598629 </i>
    <i name="e_0_energy">     -6.97598629 </i>
   </energy>
  </scstep>
  <scstep>
   <time name="dav">    0.16    0.16</time>
   <time name="total">    0.32    0.32</time>
   <energy>
    <i name="alphaZ">      3.93685873 </i>
    <i name="ewald">   1937.73435016 </i>
    <i name="hartreedc">  -6902.99191535 </i>
    <i name="XCdc">    -58.63110001 </i>
    <i name="pawpsdc">   5250.76569030 </i>
    <i name="pawaedc">  -5025.36809200 </i>
    <i name="eentropy">      0.00000000 </i>
    <i name="bandstr">   -398.41502344 </i>
    <i name="atom">   5185.99315043 </i>
    <i name="e_fr_energy">     -6.97608116 </i>
    <i name="e_wo_entrp">     -6.97608116 </i>
    <i name="e_0_energy">     -6.97608116 </i>
   </energy>
  </scstep>
  <structure>
   <crystal>
    <varray name="basis" >
     <v>      17.54559576       0.00000000       0.00000000 </v>
     <v>       0.00000000      17.54559576       0.00000000 </v>
     <v>       0.00000000       0.00000000      17.54559576 </v>
    </varray>
    <i name="volume">   5401.37534966 </i>
    <varray name="rec_basis" >
     <v>       0.05699436       0.00000000       0.00000000 </v>
     <v>       0.00000000       0.05699436       0.00000000 </v>
     <v>       0.00000000       0.00000000       0.05699436 </v>
    </varray>
   </crystal>
   <varray name="positions" >
    <v>       0.44429999       0.48272178       0.57410948 </v>
    <v>       0.59187693       0.48480663       0.36654959 </v>
    <v>       0.49162994       0.40216150       0.45020923 </v>
    <v>       0.54424751       0.56310079       0.49093527 </v>
    <v>       0.46414787       0.60479683       0.65599589 </v>
   </varray>
  </structure>
  <varray name="forces" >
   <v>      -0.14663167      -0.30084813      -0.04854961 </v>
   <v>      -0.03854259       0.14350125       0.16306268 </v>
   <v>       0.05877548       0.26234267       0.08122404 </v>
   <v>      -0.13732711      -0.20638731       0.13019470 </v>
   <v>       0.26372590       0.10139152      -0.32593182 </v>
  </varray>
  <varray name="stress" >
   <v>      -0.54078828       0.08179837       0.16787403 </v>
   <v>       0.08179837      -0.57828732      -0.17557783 </v>
   <v>       0.16787403      -0.17557783      -0.88320371 </v>
  </varray>
  <energy>
   <i name="e_fr_energy">     -6.97608116 </i>
   <i name="e_wo_entrp">     -6.97608116 </i>
   <i name="e_0_energy">      0.00000000 </i>
  </energy>
  <time name="totalsc">    2.70    3.09</time>
 </calculation>
 <calculation>
  <scstep>
   <time name="dav">    0.20    0.20</time>
   <time name="total">    0.38    0.39</time>
   <energy>
    <i name="alphaZ">      3.93685873 </i>
    <i name="ewald">   1952.38258102 </i>
    <i name="hartreedc">  -6917.52250002 </i>
    <i name="XCdc">    -58.58778951 </i>
    <i name="pawpsdc">   5250.52053406 </i>
    <i name="pawaedc">  -5025.12151430 </i>
    <i name="eentropy">     -0.00000000 </i>
    <i name="bandstr">   -398.57751782 </i>
    <i name="atom">   5185.99315043 </i>
    <i name="e_fr_energy">     -6.97619741 </i>
    <i name="e_wo_entrp">     -6.97619741 </i>
    <i name="e_0_energy">     -6.97619741 </i>
   </energy>
  </scstep>
  <scstep>
   <time name="dav">    0.20    0.20</time>
   <time name="total">    0.39    0.39</time>
   <energy>
    <i name="e_fr_energy">     -6.97766965 </i>
    <i name="e_wo_entrp">     -6.97766965 </i>
    <i name="e_0_energy">     -6.97766965 </i>
   </energy>
  </scstep>
  <scstep>
   <time name="dav">    0.17    0.17</time>
   <time name="total">    0.32    0.33</time>
   <energy>
    <i name="alphaZ">      3.93685873 </i>
    <i name="ewald">   1952.38258102 </i>
    <i name="hartreedc">  -6917.25889061 </i>
    <i name="XCdc">    -58.59599246 </i>
    <i name="pawpsdc">   5254.19452705 </i>
    <i name="pawaedc">  -5028.86144500 </i>
    <i name="eentropy">     -0.00000000 </i>
    <i name="bandstr">   -398.76848601 </i>
    <i name="atom">   5185.99315043 </i>
    <i name="e_fr_energy">     -6.97769685 </i>
    <i name="e_wo_entrp">     -6.97769685 </i>
    <i name="e_0_energy">     -6.97769685 </i>
   </energy>
  </scstep>
  <structure>
   <crystal>
    <varray name="basis" >
     <v>      17.54559576       0.00000000       0.00000000 </v>
     <v>       0.00000000      17.54559576       0.00000000 </v>
     <v>       0.00000000       0.00000000      17.54559576 </v>
    </varray>
    <i name="volume">   5401.37534966 </i>
    <varray name="rec_basis" >
     <v>       0.05699436       0.00000000       0.00000000 </v>
     <v>       0.00000000       0.05699436       0.00000000 </v>
     <v>       0.00000000       0.00000000       0.05699436 </v>
    </varray>
   </crystal>
   <varray name="positions" >
    <v>       0.44468521       0.48263438       0.57348837 </v>
    <v>       0.59151055       0.48481715       0.36708477 </v>
    <v>       0.49171314       0.40255222       0.45036660 </v>
    <v>       0.54421860       0.56269356       0.49064583 </v>
    <v>       0.46407475       0.60489022       0.65621390 </v>
   </varray>
  </structure>
  <varray name="forces" >
   <v>      -0.19244135      -0.25005635       0.06032469 </v>
   <v>       0.01874939       0.13815277       0.07498642 </v>
   <v>       0.04163678       0.18806741       0.05696002 </v>
   <v>      -0.12400896      -0.13305514       0.16575252 </v>
   <v>       0.25606414       0.05689132      -0.35802364 </v>
  </varray>
  <varray name="stress" >
   <v>      -0.50230601       0.08929678       0.11108415 </v>
   <v>       0.08929678      -0.55382940      -0.17144005 </v>
   <v>       0.11108415      -0.17144006      -0.80663588 </v>
  </varray>
  <energy>
   <i name="e_fr_energy">     -6.97769685 </i>
   <i name="e_wo_entrp">     -6.97769685 </i>
   <i name="e_0_energy">     -0.00000000 </i>
  </energy>
  <time name="totalsc">    1.59    1.61</time>
 </calculation>
 <calculation>
  <scstep>
   <time name="dav">    0.20    0.20</time>
   <time name="total">    0.38    0.39</time>
   <energy>
    <i name="alphaZ">      3.93685873 </i>
    <i name="ewald">   1955.87000138 </i>
    <i name="hartreedc">  -6920.68502855 </i>
    <i name="XCdc">    -58.59332935 </i>
    <i name="pawpsdc">   5255.77752287 </i>
    <i name="pawaedc">  -5030.47777378 </i>
    <i name="eentropy">      0.00000000 </i>
    <i name="bandstr">   -398.80927365 </i>
    <i name="atom">   5185.99315043 </i>
    <i name="e_fr_energy">     -6.98787191 </i>
    <i name="e_wo_entrp">     -6.98787191 </i>
    <i name="e_0_energy">     -6.98787191 </i>
   </energy>
  </scstep>
  <scstep>
   <time name="dav">    0.20    0.20</time>
   <time name="total">    0.39    0.39</time>
   <energy>
    <i name="e_fr_energy">     -6.98897760 </i>
    <i name="e_wo_entrp">     -6.98897760 </i>
    <i name="e_0_energy">     -6.98897760 </i>
   </energy>
  </scstep>
  <scstep>
   <time name="dav">    0.17    0.17</time>
   <time name="total">    0.32    0.33</time>
   <energy>
    <i name="alphaZ">      3.93685873 </i>
    <i name="ewald">   1955.87000138 </i>
    <i name="hartreedc">  -6920.67850482 </i>
    <i name="XCdc">    -58.59482102 </i>
    <i name="pawpsdc">   5256.12516249 </i>
    <i name="pawaedc">  -5030.83238830 </i>
    <i name="eentropy">      0.00000000 </i>
    <i name="bandstr">   -398.80847246 </i>
    <i name="atom">   5185.99315043 </i>
    <i name="e_fr_energy">     -6.98901356 </i>
    <i name="e_wo_entrp">     -6.98901356 </i>
    <i name="e_0_energy">     -6.98901356 </i>
   </energy>
  </scstep>
  <structure>
   <crystal>
    <varray name="basis" >
     <v>      17.54559576       0.00000000       0.00000000 </v>
     <v>       0.00000000      17.54559576       0.00000000 </v>
     <v>       0.00000000       0.00000000      17.54559576 </v>
    </varray>
    <i name="volume">   5401.37534966 </i>
    <varray name="rec_basis" >
     <v>       0.05699436       0.00000000       0.00000000 </v>
     <v>       0.00000000       0.05699436       0.00000000 </v>
     <v>       0.00000000       0.00000000       0.05699436 </v>
    </varray>
   </crystal>
   <varray name="positions" >
    <v>       0.44435047       0.48227382       0.57365660 </v>
    <v>       0.59158477       0.48502114       0.36712850 </v>
    <v>       0.49176449       0.40278228       0.45043134 </v>
    <v>       0.54403796       0.56254734       0.49092878 </v>
    <v>       0.46446455       0.60496295       0.65565424 </v>
   </varray>
  </structure>
  <varray name="forces" >
   <v>      -0.17499592      -0.23140423       0.04620229 </v>
   <v>       0.00220769       0.13191551       0.09002740 </v>
   <v>       0.04448811       0.18589187       0.05015528 </v>
   <v>      -0.12598387      -0.14332282       0.15297149 </v>
   <v>       0.25428399       0.05691967      -0.33935647 </v>
  </varray>
  <varray name="stress" >
   <v>      -0.50802265       0.08890396       0.11654105 </v>
   <v>       0.08890396      -0.55918611      -0.17204371 </v>
   <v>       0.11654105      -0.17204371      -0.81640457 </v>
  </varray>
  <energy>
   <i name="e_fr_energy">     -6.98901356 </i>
   <i name="e_wo_entrp">     -6.98901356 </i>
   <i name="e_0_energy">      0.00000000 </i>
  </energy>
  <time name="totalsc">    1.59    1.65</time>
 </calculation>
 <calculation>
  <scstep>
   <time name="dav">    0.20    0.20</time>
   <time name="total">    0.38    0.39</time>
   <energy>
    <i name="alphaZ">      3.93685873 </i>
    <i name="ewald">   1966.18357699 </i>
    <i name="hartreedc">  -6931.10367028 </i>
    <i name="XCdc">    -58.58055356 </i>
    <i name="pawpsdc">   5256.14086107 </i>
    <i name="pawaedc">  -5030.84989583 </i>
    <i name="eentropy">      0.00000000 </i>
    <i name="bandstr">   -398.73387516 </i>
    <i name="atom">   5185.99315043 </i>
    <i name="e_fr_energy">     -7.01354761 </i>
    <i name="e_wo_entrp">     -7.01354761 </i>
    <i name="e_0_energy">     -7.01354761 </i>
   </energy>
  </scstep>
  <scstep>
   <time name="dav">    0.20    0.20</time>
   <time name="total">    0.39    0.39</time>
   <energy>
    <i name="e_fr_energy">     -7.02274699 </i>
    <i name="e_wo_entrp">     -7.02274699 </i>
    <i name="e_0_energy">     -7.02274699 </i>
   </energy>
  </scstep>
  <scstep>
   <time name="dav">    0.21    0.21</time>
   <time name="total">    0.40    0.40</time>
   <energy>
    <i name="e_fr_energy">     -7.02275295 </i>
    <i name="e_wo_entrp">     -7.02275295 </i>
    <i name="e_0_energy">     -7.02275295 </i>
   </energy>
  </scstep>
  <scstep>
   <time name="dav">    0.16    0.16</time>
   <time name="total">    0.34    0.35</time>
   <energy>
    <i name="e_fr_energy">     -7.02261837 </i>
    <i name="e_wo_entrp">     -7.02261837 </i>
    <i name="e_0_energy">     -7.02261837 </i>
   </energy>
  </scstep>
  <scstep>
   <time name="dav">    0.20    0.20</time>
   <time name="total">    0.36    0.36</time>
   <energy>
    <i name="alphaZ">      3.93685873 </i>
    <i name="ewald">   1966.18357699 </i>
    <i name="hartreedc">  -6930.98615604 </i>
    <i name="XCdc">    -58.58718069 </i>
    <i name="pawpsdc">   5256.74592205 </i>
    <i name="pawaedc">  -5031.47217359 </i>
    <i name="eentropy">      0.00000000 </i>
    <i name="bandstr">   -398.83659882 </i>
    <i name="atom">   5185.99315043 </i>
    <i name="e_fr_energy">     -7.02260095 </i>
    <i name="e_wo_entrp">     -7.02260095 </i>
    <i name="e_0_energy">     -7.02260095 </i>
   </energy>
  </scstep>
  <structure>
   <crystal>
    <varray name="basis" >
     <v>      17.54559576       0.00000000       0.00000000 </v>
     <v>       0.00000000      17.54559576       0.00000000 </v>
     <v>       0.00000000       0.00000000      17.54559576 </v>
    </varray>
    <i name="volume">   5401.37534966 </i>
    <varray name="rec_basis" >
     <v>       0.05699436       0.00000000       0.00000000 </v>
     <v>       0.00000000       0.05699436       0.00000000 </v>
     <v>       0.00000000       0.00000000       0.05699436 </v>
    </varray>
   </crystal>
   <varray name="positions" >
    <v>       0.44334627       0.48119212       0.57416131 </v>
    <v>       0.59180742       0.48563309       0.36725969 </v>
    <v>       0.49191855       0.40347247       0.45062556 </v>
    <v>       0.54349604       0.56210869       0.49177765 </v>
    <v>       0.46563396       0.60518115       0.65397526 </v>
   </varray>
  </structure>
  <varray name="forces" >
   <v>      -0.18150570      -0.21686907       0.05722593 </v>
   <v>      -0.00506275       0.13898305       0.10091600 </v>
   <v>       0.05286914       0.18183476       0.03141891 </v>
   <v>      -0.15121908      -0.16131185       0.18428919 </v>
   <v>       0.28491838       0.05736312      -0.37385003 </v>
  </varray>
  <varray name="stress" >
   <v>      -0.51931376       0.08248717       0.12538319 </v>
   <v>       0.08248717      -0.56457837      -0.16715971 </v>
   <v>       0.12538319      -0.16715972      -0.83165362 </v>
  </varray>
  <energy>
   <i name="e_fr_energy">     -7.02260095 </i>
   <i name="e_wo_entrp">     -7.02260095 </i>
   <i name="e_0_energy">      0.00000000 </i>
  </energy>
  <time name="totalsc">    2.37    2.43</time>
 </calculation>
 <calculation>
  <scstep>
   <time name="dav">    0.20    0.20</time>
   <time name="total">    0.38    0.40</time>
   <energy>
    <i name="alphaZ">      3.93685873 </i>
    <i name="ewald">   1986.17967913 </i>
    <i name="hartreedc">  -6951.23368596 </i>
    <i name="XCdc">    -58.55789373 </i>
    <i name="pawpsdc">   5256.70072111 </i>
    <i name="pawaedc">  -5031.42649342 </i>
    <i name="eentropy">      0.00000000 </i>
    <i name="bandstr">   -398.64437334 </i>
    <i name="atom">   5185.99315043 </i>
    <i name="e_fr_energy">     -7.05203703 </i>
    <i name="e_wo_entrp">     -7.05203703 </i>
    <i name="e_0_energy">     -7.05203703 </i>
   </energy>
  </scstep>
  <scstep>
   <time name="dav">    0.20    0.20</time>
   <time name="total">    0.39    0.39</time>
   <energy>
    <i name="e_fr_energy">     -7.08999060 </i>
    <i name="e_wo_entrp">     -7.08999060 </i>
    <i name="e_0_energy">     -7.08999060 </i>
   </energy>
  </scstep>
  <scstep>
   <time name="dav">    0.20    0.21</time>
   <time name="total">    0.39    0.40</time>
   <energy>
    <i name="e_fr_energy">     -7.09011418 </i>
    <i name="e_wo_entrp">     -7.09011418 </i>
    <i name="e_0_energy">     -7.09011418 </i>
   </energy>
  </scstep>
  <scstep>
   <time name="dav">    0.20    0.20</time>
   <time name="total">    0.39    0.39</time>
   <energy>
    <i name="e_fr_energy">     -7.08976513 </i>
    <i name="e_wo_entrp">     -7.08976513 </i>
    <i name="e_0_energy">     -7.08976513 </i>
   </energy>
  </scstep>
  <scstep>
   <time name="dav">    0.20    0.20</time>
   <time name="total">    0.35    0.36</time>
   <energy>
    <i name="alphaZ">      3.93685873 </i>
    <i name="ewald">   1986.17967913 </i>
    <i name="hartreedc">  -6951.01528320 </i>
    <i name="XCdc">    -58.57100505 </i>
    <i name="pawpsdc">   5257.95900526 </i>
    <i name="pawaedc">  -5032.71889769 </i>
    <i name="eentropy">     -0.00000000 </i>
    <i name="bandstr">   -398.85332074 </i>
    <i name="atom">   5185.99315043 </i>
    <i name="e_fr_energy">     -7.08981313 </i>
    <i name="e_wo_entrp">     -7.08981313 </i>
    <i name="e_0_energy">     -7.08981313 </i>
   </energy>
  </scstep>
  <structure>
   <crystal>
    <varray name="basis" >
     <v>      17.54559576       0.00000000       0.00000000 </v>
     <v>       0.00000000      17.54559576       0.00000000 </v>
     <v>       0.00000000       0.00000000      17.54559576 </v>
    </varray>
    <i name="volume">   5401.37534966 </i>
    <varray name="rec_basis" >
     <v>       0.05699436       0.00000000       0.00000000 </v>
     <v>       0.00000000       0.05699436       0.00000000 </v>
     <v>       0.00000000       0.00000000       0.05699436 </v>
    </varray>
   </crystal>
   <varray name="positions" >
    <v>       0.44133785       0.47902873       0.57517073 </v>
    <v>       0.59225274       0.48685701       0.36752207 </v>
    <v>       0.49222667       0.40485285       0.45101401 </v>
    <v>       0.54241221       0.56123139       0.49347538 </v>
    <v>       0.46797277       0.60561756       0.65061729 </v>
   </varray>
  </structure>
  <varray name="forces" >
   <v>      -0.15848005      -0.16604475       0.07530204 </v>
   <v>      -0.02368128       0.13840890       0.12260721 </v>
   <v>       0.06692344       0.15994402      -0.00848368 </v>
   <v>      -0.17246641      -0.16654611       0.22365759 </v>
   <v>       0.28770430       0.03423793      -0.41308316 </v>
  </varray>
  <varray name="stress" >
   <v>      -0.53289085       0.07139229       0.13628427 </v>
   <v>       0.07139230      -0.59191032      -0.16328098 </v>
   <v>       0.13628427      -0.16328098      -0.86730050 </v>
  </varray>
  <energy>
   <i name="e_fr_energy">     -7.08981313 </i>
   <i name="e_wo_entrp">     -7.08981313 </i>
   <i name="e_0_energy">     -0.00000000 </i>
  </energy>
  <time name="totalsc">    2.40    2.46</time>
 </calculation>
 <calculation>
  <scstep>
   <time name="dav">    0.20    0.20</time>
   <time name="total">    0.38    0.41</time>
   <energy>
    <i name="alphaZ">      3.93685873 </i>
    <i name="ewald">   2024.05341754 </i>
    <i name="hartreedc">  -6989.45902658 </i>
    <i name="XCdc">    -58.50411836 </i>
    <i name="pawpsdc">   5257.80176775 </i>
    <i name="pawaedc">  -5032.55963042 </i>
    <i name="eentropy">      0.00000000 </i>
    <i name="bandstr">   -398.31641789 </i>
    <i name="atom">   5185.99315043 </i>
    <i name="e_fr_energy">     -7.05399879 </i>
    <i name="e_wo_entrp">     -7.05399879 </i>
    <i name="e_0_energy">     -7.05399879 </i>
   </energy>
  </scstep>
  <scstep>
   <time name="dav">    0.20    0.21</time>
   <time name="total">    0.39    0.40</time>
   <energy>
    <i name="e_fr_energy">     -7.21799771 </i>
    <i name="e_wo_entrp">     -7.21799771 </i>
    <i name="e_0_energy">     -7.21799771 </i>
   </energy>
  </scstep>
  <scstep>
   <time name="dav">    0.20    0.20</time>
   <time name="total">    0.39    0.39</time>
   <energy>
    <i name="e_fr_energy">     -7.21857587 </i>
    <i name="e_wo_entrp">     -7.21857587 </i>
    <i name="e_0_energy">     -7.21857587 </i>
   </energy>
  </scstep>
  <scstep>
   <time name="dav">    0.20    0.20</time>
   <time name="total">    0.39    0.39</time>
   <energy>
    <i name="e_fr_energy">     -7.21751606 </i>
    <i name="e_wo_entrp">     -7.21751606 </i>
    <i name="e_0_energy">     -7.21751606 </i>
   </energy>
  </scstep>
  <scstep>
   <time name="dav">    0.20    0.20</time>
   <time name="total">    0.38    0.39</time>
   <energy>
    <i name="e_fr_energy">     -7.21772735 </i>
    <i name="e_wo_entrp">     -7.21772735 </i>
    <i name="e_0_energy">     -7.21772735 </i>
   </energy>
  </scstep>
  <scstep>
   <time name="dav">    0.18    0.17</time>
   <time name="total">    0.36    0.36</time>
   <energy>
    <i name="e_fr_energy">     -7.21844504 </i>
    <i name="e_wo_entrp">     -7.21844504 </i>
    <i name="e_0_energy">     -7.21844504 </i>
   </energy>
  </scstep>
  <scstep>
   <time name="dav">    0.16    0.16</time>
   <time name="total">    0.34    0.35</time>
   <energy>
    <i name="e_fr_energy">     -7.21931639 </i>
    <i name="e_wo_entrp">     -7.21931639 </i>
    <i name="e_0_energy">     -7.21931639 </i>
   </energy>
  </scstep>
  <scstep>
   <time name="dav">    0.18    0.17</time>
   <time name="total">    0.36    0.37</time>
   <energy>
    <i name="e_fr_energy">     -7.22007447 </i>
    <i name="e_wo_entrp">     -7.22007447 </i>
    <i name="e_0_energy">     -7.22007447 </i>
   </energy>
  </scstep>
  <scstep>
   <time name="dav">    0.16    0.16</time>
   <time name="total">    0.35    0.35</time>
   <energy>
    <i name="e_fr_energy">     -7.22066833 </i>
    <i name="e_wo_entrp">     -7.22066833 </i>
    <i name="e_0_energy">     -7.22066833 </i>
   </energy>
  </scstep>
  <scstep>
   <time name="dav">    0.18    0.18</time>
   <time name="total">    0.36    0.37</time>
   <energy>
    <i name="e_fr_energy">     -7.22102414 </i>
    <i name="e_wo_entrp">     -7.22102414 </i>
    <i name="e_0_energy">     -7.22102414 </i>
   </energy>
  </scstep>
  <scstep>
   <time name="dav">    0.16    0.16</time>
   <time name="total">    0.35    0.35</time>
   <energy>
    <i name="e_fr_energy">     -7.22127801 </i>
    <i name="e_wo_entrp">     -7.22127801 </i>
    <i name="e_0_energy">     -7.22127801 </i>
   </energy>
  </scstep>
  <scstep>
   <time name="dav">    0.17    0.17</time>
   <time name="total">    0.35    0.36</time>
   <energy>
    <i name="e_fr_energy">     -7.22140242 </i>
    <i name="e_wo_entrp">     -7.22140242 </i>
    <i name="e_0_energy">     -7.22140242 </i>
   </energy>
  </scstep>
  <scstep>
   <time name="dav">    0.16    0.17</time>
   <time name="total">    0.33    0.33</time>
   <energy>
    <i name="alphaZ">      3.93685873 </i>
    <i name="ewald">   2024.05341754 </i>
    <i name="hartreedc">  -6988.86833871 </i>
    <i name="XCdc">    -58.53640922 </i>
    <i name="pawpsdc">   5260.11938841 </i>
    <i name="pawaedc">  -5034.95758006 </i>
    <i name="eentropy">      0.00000000 </i>
    <i name="bandstr">   -398.96189490 </i>
    <i name="atom">   5185.99315043 </i>
    <i name="e_fr_energy">     -7.22140776 </i>
    <i name="e_wo_entrp">     -7.22140776 </i>
    <i name="e_0_energy">     -7.22140776 </i>
   </energy>
  </scstep>
  <structure>
   <crystal>
    <varray name="basis" >
     <v>      17.54559576       0.00000000       0.00000000 </v>
     <v>       0.00000000      17.54559576       0.00000000 </v>
     <v>       0.00000000       0.00000000      17.54559576 </v>
    </varray>
    <i name="volume">   5401.37534966 </i>
    <varray name="rec_basis" >
     <v>       0.05699436       0.00000000       0.00000000 </v>
     <v>       0.00000000       0.05699436       0.00000000 </v>
     <v>       0.00000000       0.00000000       0.05699436 </v>
    </varray>
   </crystal>
   <varray name="positions" >
    <v>       0.43732102       0.47470195       0.57718956 </v>
    <v>       0.59314337       0.48930483       0.36804682 </v>
    <v>       0.49284291       0.40761361       0.45179091 </v>
    <v>       0.54024455       0.55947678       0.49687084 </v>
    <v>       0.47265040       0.60649037       0.64390135 </v>
   </varray>
  </structure>
  <varray name="forces" >
   <v>      -0.10161152      -0.02331068       0.13624402 </v>
   <v>      -0.05178071       0.11038971       0.17309950 </v>
   <v>       0.10134767       0.13367961      -0.07492684 </v>
   <v>      -0.15856826      -0.16159584       0.20186997 </v>
   <v>       0.21061282      -0.05916279      -0.43628665 </v>
  </varray>
  <varray name="stress" >
   <v>      -0.55111257       0.03747907       0.13056731 </v>
   <v>       0.03747907      -0.62671783      -0.15972601 </v>
   <v>       0.13056731      -0.15972601      -0.83253204 </v>
  </varray>
  <energy>
   <i name="e_fr_energy">     -7.22140776 </i>
   <i name="e_wo_entrp">     -7.22140776 </i>
   <i name="e_0_energy">      0.00000000 </i>
  </energy>
  <time name="totalsc">    5.24    5.36</time>
 </calculation>
 <calculation>
  <scstep>
   <time name="dav">    0.20    0.20</time>
   <time name="total">    0.38    0.40</time>
   <energy>
    <i name="alphaZ">      3.93685873 </i>
    <i name="ewald">   2095.67721629 </i>
    <i name="hartreedc">  -7061.29345375 </i>
    <i name="XCdc">    -58.32088631 </i>
    <i name="pawpsdc">   5260.11345710 </i>
    <i name="pawaedc">  -5034.95177525 </i>
    <i name="eentropy">      0.00000000 </i>
    <i name="bandstr">   -397.43222719 </i>
    <i name="atom">   5185.99315043 </i>
    <i name="e_fr_energy">     -6.27765994 </i>
    <i name="e_wo_entrp">     -6.27765994 </i>
    <i name="e_0_energy">     -6.27765994 </i>
   </energy>
  </scstep>
  <scstep>
   <time name="dav">    0.21    0.21</time>
   <time name="total">    0.39    0.40</time>
   <energy>
    <i name="e_fr_energy">     -7.31844979 </i>
    <i name="e_wo_entrp">     -7.31844979 </i>
    <i name="e_0_energy">     -7.31844979 </i>
   </energy>
  </scstep>
  <scstep>
   <time name="dav">    0.20    0.20</time>
   <time name="total">    0.39    0.39</time>
   <energy>
    <i name="e_fr_energy">     -7.29198434 </i>
    <i name="e_wo_entrp">     -7.29198434 </i>
    <i name="e_0_energy">     -7.29198434 </i>
   </energy>
  </scstep>
  <scstep>
   <time name="dav">    0.21    0.21</time>
   <time name="total">    0.40    0.40</time>
   <energy>
    <i name="e_fr_energy">     -7.28518175 </i>
    <i name="e_wo_entrp">     -7.28518175 </i>
    <i name="e_0_energy">     -7.28518175 </i>
   </energy>
  </scstep>
  <scstep>
   <time name="dav">    0.20    0.20</time>
   <time name="total">    0.38    0.39</time>
   <energy>
[...]
       <r>    -2.1752     0.0000    30.0000 </r>
       <r>    -2.1421     0.0000    30.0000 </r>
       <r>    -2.1091     0.0000    30.0000 </r>
       <r>    -2.0761     0.0000    30.0000 </r>
       <r>    -2.0430     0.0000    30.0000 </r>
       <r>    -2.0100     0.0000    30.0000 </r>
       <r>    -1.9770     0.0000    30.0000 </r>
       <r>    -1.9439     0.0000    30.0000 </r>
       <r>    -1.9109     0.0000    30.0000 </r>
       <r>    -1.8779     0.0000    30.0000 </r>
       <r>    -1.8449     0.0000    30.0000 </r>
       <r>    -1.8118     0.0000    31.0000 </r>
       <r>    -1.7788     0.0000    31.0000 </r>
       <r>    -1.7458     0.0000    31.0000 </r>
       <r>    -1.7127     0.0000    31.0000 </r>
       <r>    -1.6797     0.0000    31.0000 </r>
       <r>    -1.6467     0.0000    31.0000 </r>
       <r>    -1.6136     0.0000    31.0000 </r>
       <r>    -1.5806     0.0000    31.0000 </r>
       <r>    -1.5476     0.0000    31.0000 </r>
       <r>    -1.5146     0.0000    31.0000 </r>
       <r>    -1.4815     0.0000    31.0000 </r>
       <r>    -1.4485     0.0000    31.0000 </r>
       <r>    -1.4155     0.0000    31.0000 </r>
       <r>    -1.3824     0.0000    31.0000 </r>
       <r>    -1.3494     0.0000    31.0000 </r>
       <r>    -1.3164     0.0000    31.0000 </r>
       <r>    -1.2834     0.0000    32.0000 </r>
       <r>    -1.2503     0.0000    32.0000 </r>
       <r>    -1.2173     0.0000    32.0000 </r>
       <r>    -1.1843     0.0000    32.0000 </r>
       <r>    -1.1512     0.0000    32.0000 </r>
       <r>    -1.1182     0.0000    32.0000 </r>
       <r>    -1.0852     0.0000    32.0000 </r>
       <r>    -1.0521     0.0000    32.0000 </r>
       <r>    -1.0191     0.0000    32.0000 </r>
       <r>    -0.9861     0.0000    32.0000 </r>
       <r>    -0.9531     0.0000    32.0000 </r>
       <r>    -0.9200     0.0000    32.0000 </r>
       <r>    -0.8870     0.0000    32.0000 </r>
       <r>    -0.8540     0.0000    32.0000 </r>
       <r>    -0.8209     0.0000    33.0000 </r>
       <r>    -0.7879     0.0000    33.0000 </r>
       <r>    -0.7549     0.0000    33.0000 </r>
       <r>    -0.7218     0.0000    33.0000 </r>
       <r>    -0.6888     0.0000    33.0000 </r>
       <r>    -0.6558     0.0000    33.0000 </r>
       <r>    -0.6228     0.0000    33.0000 </r>
       <r>    -0.5897     0.0000    33.0000 </r>
       <r>    -0.5567     0.0000    34.0000 </r>
       <r>    -0.5237     0.0000    34.0000 </r>
       <r>    -0.4906     0.0000    34.0000 </r>
       <r>    -0.4576     0.0000    34.0000 </r>
       <r>    -0.4246     0.0000    34.0000 </r>
       <r>    -0.3915     0.0000    35.0000 </r>
       <r>    -0.3585     0.0000    35.0000 </r>
       <r>    -0.3255     0.0000    35.0000 </r>
       <r>    -0.2925     0.0000    35.0000 </r>
       <r>    -0.2594     0.0000    35.0000 </r>
       <r>    -0.2264     0.0000    35.0000 </r>
       <r>    -0.1934     0.0000    35.0000 </r>
       <r>    -0.1603     0.0000    35.0000 </r>
       <r>    -0.1273     0.0000    35.0000 </r>
       <r>    -0.0943     0.0000    35.0000 </r>
       <r>    -0.0612     0.0000    35.0000 </r>
       <r>    -0.0282     0.0000    36.0000 </r>
       <r>     0.0048     0.0000    36.0000 </r>
       <r>     0.0378     0.0000    36.0000 </r>
       <r>     0.0709     0.0000    36.0000 </r>
       <r>     0.1039     0.0000    36.0000 </r>
       <r>     0.1369     0.0000    36.0000 </r>
       <r>     0.1700     0.0000    36.0000 </r>
       <r>     0.2030     0.0000    36.0000 </r>
       <r>     0.2360     0.0000    36.0000 </r>
       <r>     0.2691     0.0000    36.0000 </r>
       <r>     0.3021     0.0000    36.0000 </r>
       <r>     0.3351     0.0000    36.0000 </r>
       <r>     0.3681     0.0000    36.0000 </r>
       <r>     0.4012     0.0000    36.0000 </r>
       <r>     0.4342     0.0000    36.0000 </r>
       <r>     0.4672     0.0000    36.0000 </r>
       <r>     0.5003     0.0000    36.0000 </r>
       <r>     0.5333     0.0000    36.0000 </r>
       <r>     0.5663     0.0000    36.0000 </r>
       <r>     0.5993     0.0000    36.0000 </r>
      </set>
      <set comment="spin 2">
       <r>    -9.3096     0.0000     0.0000 </r>
       <r>    -9.2766     0.0000     0.0000 </r>
       <r>    -9.2435     0.0000     0.0000 </r>
       <r>    -9.2105     0.0000     0.0000 </r>
       <r>    -9.1775     0.0000     0.0000 </r>
       <r>    -9.1445     0.0000     0.0000 </r>
       <r>    -9.1114     0.0000     0.0000 </r>
       <r>    -9.0784     0.0000     0.0000 </r>
       <r>    -9.0454     0.0000     0.0000 </r>
       <r>    -9.0123     0.0000     0.0000 </r>
       <r>    -8.9793     0.0000     0.0000 </r>
       <r>    -8.9463     0.0000     0.0000 </r>
       <r>    -8.9132     0.0000     0.0000 </r>
       <r>    -8.8802     0.0000     0.0000 </r>
       <r>    -8.8472     0.0000     0.0000 </r>
       <r>    -8.8142     0.0000     1.0000 </r>
       <r>    -8.7811     0.0000     1.0000 </r>
       <r>    -8.7481     0.0000     1.0000 </r>
       <r>    -8.7151     0.0000     1.0000 </r>
       <r>    -8.6820     0.0000     1.0000 </r>
       <r>    -8.6490     0.0000     1.0000 </r>
       <r>    -8.6160     0.0000     2.0000 </r>
       <r>    -8.5829     0.0000     2.0000 </r>
       <r>    -8.5499     0.0000     2.0000 </r>
       <r>    -8.5169     0.0000     2.0000 </r>
       <r>    -8.4839     0.0000     3.0000 </r>
       <r>    -8.4508     0.0000     3.0000 </r>
       <r>    -8.4178     0.0000     3.0000 </r>
       <r>    -8.3848     0.0000     3.0000 </r>
       <r>    -8.3517     0.0000     3.0000 </r>
       <r>    -8.3187     0.0000     3.0000 </r>
       <r>    -8.2857     0.0000     3.0000 </r>
       <r>    -8.2526     0.0000     3.0000 </r>
       <r>    -8.2196     0.0000     4.0000 </r>
       <r>    -8.1866     0.0000     4.0000 </r>
       <r>    -8.1536     0.0000     4.0000 </r>
       <r>    -8.1205     0.0000     4.0000 </r>
       <r>    -8.0875     0.0000     4.0000 </r>
       <r>    -8.0545     0.0000     5.0000 </r>
       <r>    -8.0214     0.0000     5.0000 </r>
       <r>    -7.9884     0.0000     6.0000 </r>
       <r>    -7.9554     0.0000     7.0000 </r>
       <r>    -7.9223     0.0000     7.0000 </r>
       <r>    -7.8893     0.0000     7.0000 </r>
       <r>    -7.8563     0.0000     8.0000 </r>
       <r>    -7.8233     0.0000     8.0000 </r>
       <r>    -7.7902     0.0000     9.0000 </r>
       <r>    -7.7572     0.0000     9.0000 </r>
       <r>    -7.7242     0.0000     9.0000 </r>
       <r>    -7.6911     0.0000     9.0000 </r>
       <r>    -7.6581     0.0000     9.0000 </r>
       <r>    -7.6251     0.0000     9.0000 </r>
       <r>    -7.5921     0.0000     9.0000 </r>
       <r>    -7.5590     0.0000     9.0000 </r>
       <r>    -7.5260     0.0000     9.0000 </r>
       <r>    -7.4930     0.0000    10.0000 </r>
       <r>    -7.4599     0.0000    10.0000 </r>
       <r>    -7.4269     0.0000    11.0000 </r>
       <r>    -7.3939     0.0000    11.0000 </r>
       <r>    -7.3608     0.0000    11.0000 </r>
       <r>    -7.3278     0.0000    12.0000 </r>
       <r>    -7.2948     0.0000    12.0000 </r>
       <r>    -7.2618     0.0000    13.0000 </r>
       <r>    -7.2287     0.0000    13.0000 </r>
       <r>    -7.1957     0.0000    13.0000 </r>
       <r>    -7.1627     0.0000    14.0000 </r>
       <r>    -7.1296     0.0000    14.0000 </r>
       <r>    -7.0966     0.0019    14.0001 </r>
       <r>    -7.0636     0.0000    16.0000 </r>
       <r>    -7.0305     0.0000    16.0000 </r>
       <r>    -6.9975     0.0000    17.0000 </r>
       <r>    -6.9645     0.0000    17.0000 </r>
       <r>    -6.9315     0.0000    19.0000 </r>
       <r>    -6.8984     0.0000    20.0000 </r>
       <r>    -6.8654     0.0000    20.0000 </r>
       <r>    -6.8324     0.0000    21.0000 </r>
       <r>    -6.7993     0.0000    22.0000 </r>
       <r>    -6.7663     0.0000    22.0000 </r>
       <r>    -6.7333     0.0000    22.0000 </r>
       <r>    -6.7002     0.0000    23.0000 </r>
       <r>    -6.6672     0.0000    23.0000 </r>
       <r>    -6.6342     0.0000    23.0000 </r>
       <r>    -6.6012     0.0000    23.0000 </r>
       <r>    -6.5681     0.0000    23.0000 </r>
       <r>    -6.5351     0.0000    24.0000 </r>
       <r>    -6.5021     0.0000    25.0000 </r>
       <r>    -6.4690     0.0000    25.0000 </r>
       <r>    -6.4360     0.0000    25.0000 </r>
       <r>    -6.4030     0.0000    25.0000 </r>
       <r>    -6.3699     0.0000    25.0000 </r>
       <r>    -6.3369     0.0000    25.0000 </r>
       <r>    -6.3039     0.0000    26.0000 </r>
       <r>    -6.2709     0.0000    26.0000 </r>
       <r>    -6.2378     0.0000    26.0000 </r>
       <r>    -6.2048     0.0000    26.0000 </r>
       <r>    -6.1718     0.0000    26.0000 </r>
       <r>    -6.1387     0.0000    26.0000 </r>
       <r>    -6.1057     0.0000    26.0000 </r>
       <r>    -6.0727     0.0000    26.0000 </r>
       <r>    -6.0396     0.0000    26.0000 </r>
       <r>    -6.0066     0.0000    26.0000 </r>
       <r>    -5.9736     0.0000    26.0000 </r>
       <r>    -5.9406     0.0000    26.0000 </r>
       <r>    -5.9075     0.0000    26.0000 </r>
       <r>    -5.8745     0.0000    26.0000 </r>
       <r>    -5.8415     0.0000    26.0000 </r>
       <r>    -5.8084     0.0000    26.0000 </r>
       <r>    -5.7754     0.0000    26.0000 </r>
       <r>    -5.7424     0.0000    26.0000 </r>
       <r>    -5.7093     0.0000    26.0000 </r>
       <r>    -5.6763     0.0000    26.0000 </r>
       <r>    -5.6433     0.0000    26.0000 </r>
       <r>    -5.6103     0.0000    26.0000 </r>
       <r>    -5.5772     0.0000    26.0000 </r>
       <r>    -5.5442     0.0000    26.0000 </r>
       <r>    -5.5112     0.0000    26.0000 </r>
       <r>    -5.4781     0.0000    26.0000 </r>
       <r>    -5.4451     0.0000    26.0000 </r>
       <r>    -5.4121     0.0000    26.0000 </r>
       <r>    -5.3791     0.0000    26.0000 </r>
       <r>    -5.3460     0.0000    26.0000 </r>
       <r>    -5.3130     0.0000    26.0000 </r>
       <r>    -5.2800     0.0000    26.0000 </r>
       <r>    -5.2469     0.0000    26.0000 </r>
       <r>    -5.2139     0.0000    26.0000 </r>
       <r>    -5.1809     0.0000    26.0000 </r>
       <r>    -5.1478     0.0000    26.0000 </r>
       <r>    -5.1148     0.0000    26.0000 </r>
       <r>    -5.0818     0.0000    26.0000 </r>
       <r>    -5.0488     0.0000    26.0000 </r>
       <r>    -5.0157     0.0000    26.0000 </r>
       <r>    -4.9827     0.0000    26.0000 </r>
       <r>    -4.9497     0.0000    26.0000 </r>
       <r>    -4.9166     0.0000    27.0000 </r>
       <r>    -4.8836     0.0000    27.0000 </r>
       <r>    -4.8506     0.0000    27.0000 </r>
       <r>    -4.8175     0.0000    27.0000 </r>
       <r>    -4.7845     0.0000    27.0000 </r>
       <r>    -4.7515     0.0000    27.0000 </r>
       <r>    -4.7185     0.0000    27.0000 </r>
       <r>    -4.6854     0.0000    27.0000 </r>
       <r>    -4.6524     0.0000    27.0000 </r>
       <r>    -4.6194     0.0000    27.0000 </r>
       <r>    -4.5863     0.0000    27.0000 </r>
       <r>    -4.5533     0.0000    27.0000 </r>
       <r>    -4.5203     0.0000    27.0000 </r>
       <r>    -4.4872     0.0000    27.0000 </r>
       <r>    -4.4542     0.0000    27.0000 </r>
       <r>    -4.4212     0.0000    27.0000 </r>
       <r>    -4.3882     0.0000    27.0000 </r>
       <r>    -4.3551     0.0000    27.0000 </r>
       <r>    -4.3221     0.0000    27.0000 </r>
       <r>    -4.2891     0.0000    27.0000 </r>
       <r>    -4.2560     0.0000    27.0000 </r>
       <r>    -4.2230     0.0000    27.0000 </r>
       <r>    -4.1900     0.0000    27.0000 </r>
       <r>    -4.1569     0.0000    27.0000 </r>
       <r>    -4.1239     0.0000    27.0000 </r>
       <r>    -4.0909     0.0000    27.0000 </r>
       <r>    -4.0579     0.0000    27.0000 </r>
       <r>    -4.0248     0.0000    27.0000 </r>
       <r>    -3.9918     0.0000    27.0000 </r>
       <r>    -3.9588     0.0000    27.0000 </r>
       <r>    -3.9257     0.0000    27.0000 </r>
       <r>    -3.8927     0.0000    27.0000 </r>
       <r>    -3.8597     0.0000    27.0000 </r>
       <r>    -3.8266     0.0000    27.0000 </r>
       <r>    -3.7936     0.0000    27.0000 </r>
       <r>    -3.7606     0.0000    27.0000 </r>
       <r>    -3.7276     0.0000    27.0000 </r>
       <r>    -3.6945     0.0000    28.0000 </r>
       <r>    -3.6615     0.0000    28.0000 </r>
       <r>    -3.6285     0.0000    28.0000 </r>
       <r>    -3.5954     0.0000    28.0000 </r>
       <r>    -3.5624     0.0000    28.0000 </r>
       <r>    -3.5294     0.0000    28.0000 </r>
       <r>    -3.4964     0.0000    28.0000 </r>
       <r>    -3.4633     0.0000    28.0000 </r>
       <r>    -3.4303     0.0000    28.0000 </r>
       <r>    -3.3973     0.0000    28.0000 </r>
       <r>    -3.3642     0.0000    28.0000 </r>
       <r>    -3.3312     0.0000    28.0000 </r>
       <r>    -3.2982     0.0000    28.0000 </r>
       <r>    -3.2651     0.0000    28.0000 </r>
       <r>    -3.2321     0.0000    28.0000 </r>
       <r>    -3.1991     0.0000    28.0000 </r>
       <r>    -3.1661     0.0000    28.0000 </r>
       <r>    -3.1330     0.0000    28.0000 </r>
       <r>    -3.1000     0.0000    28.0000 </r>
       <r>    -3.0670     0.0000    28.0000 </r>
       <r>    -3.0339     0.0000    28.0000 </r>
       <r>    -3.0009     0.0000    28.0000 </r>
       <r>    -2.9679     0.0000    28.0000 </r>
       <r>    -2.9348     0.0000    28.0000 </r>
       <r>    -2.9018     0.0000    28.0000 </r>
       <r>    -2.8688     0.0000    28.0000 </r>
       <r>    -2.8358     0.0000    28.0000 </r>
       <r>    -2.8027     0.0000    28.0000 </r>
       <r>    -2.7697     0.0000    28.0000 </r>
       <r>    -2.7367     0.0000    28.0000 </r>
       <r>    -2.7036     0.0000    28.0000 </r>
       <r>    -2.6706     0.0000    28.0000 </r>
       <r>    -2.6376     0.0000    28.0000 </r>
       <r>    -2.6045     0.0000    28.0000 </r>
       <r>    -2.5715     0.0000    29.0000 </r>
       <r>    -2.5385     0.0000    29.0000 </r>
       <r>    -2.5055     0.0000    29.0000 </r>
       <r>    -2.4724     0.0000    29.0000 </r>
       <r>    -2.4394     0.0000    29.0000 </r>
       <r>    -2.4064     0.0000    29.0000 </r>
       <r>    -2.3733     0.0000    29.0000 </r>
       <r>    -2.3403     0.0000    29.0000 </r>
       <r>    -2.3073     0.0000    29.0000 </r>
       <r>    -2.2742     0.0000    29.0000 </r>
       <r>    -2.2412     0.0000    29.0000 </r>
       <r>    -2.2082     0.0000    30.0000 </r>
       <r>    -2.1752     0.0000    30.0000 </r>
       <r>    -2.1421     0.0000    30.0000 </r>
       <r>    -2.1091     0.0000    30.0000 </r>
       <r>    -2.0761     0.0000    30.0000 </r>
       <r>    -2.0430     0.0000    30.0000 </r>
       <r>    -2.0100     0.0000    30.0000 </r>
       <r>    -1.9770     0.0000    30.0000 </r>
       <r>    -1.9439     0.0000    30.0000 </r>
       <r>    -1.9109     0.0000    30.0000 </r>
       <r>    -1.8779     0.0000    30.0000 </r>
       <r>    -1.8449     0.0000    30.0000 </r>
       <r>    -1.8118     0.0000    30.0000 </r>
       <r>    -1.7788     0.0000    30.0000 </r>
       <r>    -1.7458     0.0000    30.0000 </r>
       <r>    -1.7127     0.0000    30.0000 </r>
       <r>    -1.6797     0.0000    31.0000 </r>
       <r>    -1.6467     0.0000    31.0000 </r>
       <r>    -1.6136     0.0000    31.0000 </r>
       <r>    -1.5806     0.0000    31.0000 </r>
       <r>    -1.5476     0.0000    31.0000 </r>
       <r>    -1.5146     0.0000    31.0000 </r>
       <r>    -1.4815     0.0000    31.0000 </r>
       <r>    -1.4485     0.0000    31.0000 </r>
       <r>    -1.4155     0.0000    31.0000 </r>
       <r>    -1.3824     0.0000    31.0000 </r>
       <r>    -1.3494     0.0000    31.0000 </r>
       <r>    -1.3164     0.0000    31.0000 </r>
       <r>    -1.2834     0.0000    31.0000 </r>
       <r>    -1.2503     0.0000    31.0000 </r>
       <r>    -1.2173     0.0000    31.0000 </r>
       <r>    -1.1843     0.0000    31.0000 </r>
       <r>    -1.1512     0.0000    31.0000 </r>
       <r>    -1.1182     0.0000    31.0000 </r>
       <r>    -1.0852     0.0000    31.0000 </r>
       <r>    -1.0521     0.0000    31.0000 </r>
       <r>    -1.0191     0.0000    31.0000 </r>
       <r>    -0.9861     0.0000    31.0000 </r>
       <r>    -0.9531     0.0000    32.0000 </r>
       <r>    -0.9200     0.0000    32.0000 </r>
       <r>    -0.8870     0.0000    32.0000 </r>
       <r>    -0.8540     0.0000    32.0000 </r>
       <r>    -0.8209     0.0000    32.0000 </r>
       <r>    -0.7879     0.0000    32.0000 </r>
       <r>    -0.7549     0.0000    32.0000 </r>
       <r>    -0.7218     0.0000    32.0000 </r>
       <r>    -0.6888     0.0000    33.0000 </r>
       <r>    -0.6558     0.0000    33.0000 </r>
       <r>    -0.6228     0.0000    33.0000 </r>
       <r>    -0.5897     0.0000    33.0000 </r>
       <r>    -0.5567     0.0000    33.0000 </r>
       <r>    -0.5237     0.0000    33.0000 </r>
       <r>    -0.4906     0.0000    33.0000 </r>
       <r>    -0.4576     0.0000    34.0000 </r>
       <r>    -0.4246     0.0000    34.0000 </r>
       <r>    -0.3915     0.0000    34.0000 </r>
       <r>    -0.3585     0.0000    34.0000 </r>
       <r>    -0.3255     0.0000    34.0000 </r>
       <r>    -0.2925     0.0000    34.0000 </r>
       <r>    -0.2594     0.0000    34.0000 </r>
       <r>    -0.2264     0.0000    34.0000 </r>
       <r>    -0.1934     0.0000    35.0000 </r>
       <r>    -0.1603     0.0000    35.0000 </r>
       <r>    -0.1273     0.0000    35.0000 </r>
       <r>    -0.0943     0.0000    35.0000 </r>
       <r>    -0.0612     0.0000    35.0000 </r>
       <r>    -0.0282     0.0000    35.0000 </r>
       <r>     0.0048     0.0000    35.0000 </r>
       <r>     0.0378     0.0000    35.0000 </r>
       <r>     0.0709     0.0000    35.0000 </r>
       <r>     0.1039     0.0000    35.0000 </r>
       <r>     0.1369     0.0000    35.0000 </r>
       <r>     0.1700     0.0000    36.0000 </r>
       <r>     0.2030     0.0000    36.0000 </r>
       <r>     0.2360     0.0000    36.0000 </r>
       <r>     0.2691     0.0000    36.0000 </r>
       <r>     0.3021     0.0000    36.0000 </r>
       <r>     0.3351     0.0000    36.0000 </r>
       <r>     0.3681     0.0000    36.0000 </r>
       <r>     0.4012     0.0000    36.0000 </r>
       <r>     0.4342     0.0000    36.0000 </r>
       <r>     0.4672     0.0000    36.0000 </r>
       <r>     0.5003     0.0000    36.0000 </r>
       <r>     0.5333     0.0000    36.0000 </r>
       <r>     0.5663     0.0000    36.0000 </r>
       <r>     0.5993     0.0000    36.0000 </r>
      </set>
     </set>
    </array>
   </total>
  </dos>
 </calculation>
 <structure name="finalpos" >
  <crystal>
   <varray name="basis" >
    <v>      17.54559576       0.00000000       0.00000000 </v>
    <v>       0.00000000      17.54559576       0.00000000 </v>
    <v>       0.00000000       0.00000000      17.54559576 </v>
   </varray>
   <i name="volume">   5401.37534966 </i>
   <varray name="rec_basis" >
    <v>       0.05699436       0.00000000       0.00000000 </v>
    <v>       0.00000000       0.05699436       0.00000000 </v>
    <v>       0.00000000       0.00000000       0.05699436 </v>
   </varray>
  </crystal>
  <varray name="positions" >
   <v>       0.43066315       0.47019113       0.58246013 </v>
   <v>       0.59457993       0.49551969       0.37101057 </v>
   <v>       0.49387086       0.41115912       0.45220882 </v>
   <v>       0.53707012       0.55372817       0.50035408 </v>
   <v>       0.48001818       0.60698943       0.63176588 </v>
  </varray>
 </structure>
</modeling>
