unknown system                          
           1
    18.975061    0.000000    0.000000
     0.000000   18.975061    0.000000
     0.000000    0.000000   18.975061
   Ag
   8
Direct configuration=     1
   0.58563173  0.52704815  0.41464519
   0.65318942  0.41695084  0.48523183
   0.53677410  0.50072383  0.55115048
   0.49874686  0.40992241  0.44361065
   0.43786165  0.54340343  0.44967957
   0.42034499  0.59531938  0.58648633
   0.39554753  0.45149686  0.54517044
   0.35071597  0.43394737  0.40283778
Direct configuration=     2
   0.58541890  0.52714791  0.41460516
   0.65274936  0.41700839  0.48532807
   0.53678796  0.50074276  0.55122472
   0.49873265  0.40987466  0.44358688
   0.43805988  0.54375261  0.44932182
   0.42054331  0.59506006  0.58638142
   0.39549349  0.45129922  0.54537844
   0.35102672  0.43392665  0.40298575
Direct configuration=     3
   0.58478042  0.52744717  0.41448506
   0.65142917  0.41718105  0.48561679
   0.53682951  0.50079955  0.55144744
   0.49869000  0.40973144  0.44351557
   0.43865455  0.54480015  0.44824858
   0.42113828  0.59428209  0.58606671
   0.39533136  0.45070629  0.54600246
   0.35195898  0.43386452  0.40342964
Direct configuration=     4
   0.58350346  0.52804570  0.41424488
   0.64878879  0.41752636  0.48619425
   0.53691261  0.50091313  0.55189287
   0.49860471  0.40944499  0.44337295
   0.43984389  0.54689524  0.44610210
   0.42232821  0.59272616  0.58543729
   0.39500710  0.44952044  0.54725049
   0.35382349  0.43374024  0.40431744
Direct configuration=     5
   0.58094955  0.52924275  0.41376450
   0.64350803  0.41821698  0.48734916
   0.53707882  0.50114030  0.55278374
   0.49843412  0.40887210  0.44308771
   0.44222257  0.55108542  0.44180914
   0.42470807  0.58961429  0.58417844
   0.39435858  0.44714873  0.54974655
   0.35755251  0.43349169  0.40609302
Direct configuration=     6
   0.57584171  0.53163686  0.41280375
   0.63294651  0.41959822  0.48965897
   0.53741124  0.50159464  0.55456547
   0.49809295  0.40772631  0.44251723
   0.44697994  0.55946578  0.43322322
   0.42946780  0.58339056  0.58166075
   0.39306155  0.44240531  0.55473868
   0.36501055  0.43299458  0.40964420
Direct configuration=     7
   0.57886269  0.53022089  0.41337197
   0.63919301  0.41878130  0.48829285
   0.53721464  0.50132592  0.55351168
   0.49829473  0.40840398  0.44285464
   0.44416625  0.55450931  0.43830127
   0.42665271  0.58707152  0.58314981
   0.39382867  0.44521076  0.55178614
   0.36059957  0.43328859  0.40754389
Direct configuration=     8
   0.57914019  0.53066277  0.41282566
   0.63708817  0.41878817  0.48881837
   0.53647539  0.50098027  0.55325344
   0.49783697  0.40895711  0.44351393
   0.44350249  0.55470990  0.43832294
   0.42732930  0.58582157  0.58250588
   0.39521408  0.44545710  0.55108752
   0.36222567  0.43343537  0.40848453
Direct configuration=     9
   0.57944547  0.53114888  0.41222466
   0.63477264  0.41879574  0.48939648
   0.53566215  0.50060002  0.55296934
   0.49733338  0.40956561  0.44423921
   0.44277229  0.55493057  0.43834678
   0.42807361  0.58444650  0.58179750
   0.39673817  0.44572810  0.55031896
   0.36401454  0.43359684  0.40951933
Direct configuration=    10
   0.57952786  0.53152828  0.41186880
   0.63414780  0.41830191  0.48974730
   0.53587038  0.50030810  0.55283677
   0.49776061  0.40964007  0.44454764
   0.44239974  0.55479189  0.43860274
   0.42767889  0.58491037  0.58201843
   0.39778063  0.44572916  0.54998449
   0.36364634  0.43360249  0.40920610
Direct configuration=    11
   0.57962423  0.53197208  0.41145254
   0.63341690  0.41772426  0.49015766
   0.53611396  0.49996662  0.55268168
   0.49826037  0.40972717  0.44490842
   0.44196394  0.55462966  0.43890215
   0.42721717  0.58545297  0.58227687
   0.39900004  0.44573039  0.54959324
   0.36321564  0.43360910  0.40883970
Direct configuration=    12
   0.57945954  0.53244303  0.41114793
   0.63330554  0.41680633  0.49057005
   0.53602370  0.50064226  0.55301814
   0.49793933  0.40965844  0.44453286
   0.44175416  0.55423262  0.43937407
   0.42707069  0.58578599  0.58246975
   0.40012865  0.44572806  0.54920169
   0.36313065  0.43351554  0.40849778
Direct configuration=    13
   0.57936148  0.53272346  0.41096656
   0.63323923  0.41625975  0.49081559
   0.53596995  0.50104456  0.55321848
   0.49774816  0.40961751  0.44430923
   0.44162925  0.55399620  0.43965506
   0.42698348  0.58598428  0.58258459
   0.40080067  0.44572667  0.54896855
   0.36308004  0.43345983  0.40829418
Direct configuration=    14
   0.57904773  0.53271398  0.41114176
   0.63264639  0.41586023  0.49114223
   0.53649310  0.50175417  0.55311034
   0.49787520  0.40971191  0.44368587
   0.44165606  0.55361426  0.44005968
   0.42690147  0.58618877  0.58277342
   0.40115909  0.44564484  0.54886913
   0.36303322  0.43332410  0.40802982
Direct configuration=    15
   0.57845359  0.53269602  0.41147354
   0.63152375  0.41510368  0.49176077
   0.53748377  0.50309793  0.55290555
   0.49811576  0.40989068  0.44250544
   0.44170683  0.55289101  0.44082590
   0.42674618  0.58657601  0.58313100
   0.40183782  0.44548987  0.54868086
   0.36294456  0.43306706  0.40752922
Direct configuration=    16
   0.57871598  0.53269157  0.41145724
   0.63095975  0.41446348  0.49237999
   0.53756962  0.50411017  0.55253345
   0.49802353  0.41026155  0.44174370
   0.44127694  0.55261521  0.44136257
   0.42686153  0.58631265  0.58336753
   0.40239291  0.44554577  0.54853452
   0.36301200  0.43281187  0.40743326
Direct configuration=    17
   0.57881347  0.53268991  0.41145119
   0.63075020  0.41422563  0.49261005
   0.53760151  0.50448625  0.55239520
   0.49798926  0.41039934  0.44146068
   0.44111722  0.55251275  0.44156196
   0.42690439  0.58621480  0.58345542
   0.40259915  0.44556654  0.54848015
   0.36303706  0.43271706  0.40739761
Direct configuration=    18
   0.57897337  0.53277852  0.41127899
   0.63070688  0.41419855  0.49285904
   0.53769810  0.50409213  0.55196117
   0.49826658  0.41058605  0.44167648
   0.44125210  0.55287410  0.44108560
   0.42663530  0.58626245  0.58384543
   0.40254244  0.44538811  0.54856861
   0.36273750  0.43263236  0.40753695
Direct configuration=    19
   0.57893256  0.53275591  0.41132294
   0.63071794  0.41420546  0.49279549
   0.53767345  0.50419271  0.55207194
   0.49819581  0.41053840  0.44162141
   0.44121768  0.55278188  0.44120718
   0.42670397  0.58625029  0.58374589
   0.40255691  0.44543364  0.54854603
   0.36281395  0.43265397  0.40750139
Direct configuration=    20
   0.57918702  0.53287372  0.41108243
   0.63086096  0.41395954  0.49313430
   0.53739002  0.50423196  0.55174532
   0.49812833  0.41079217  0.44160846
   0.44128566  0.55307531  0.44090999
   0.42663526  0.58594694  0.58398770
   0.40259291  0.44537081  0.54856466
   0.36273210  0.43256180  0.40777941
Direct configuration=    21
   0.57918483  0.53287271  0.41108450
   0.63085974  0.41396165  0.49313139
   0.53739245  0.50423163  0.55174813
   0.49812891  0.41078999  0.44160857
   0.44128508  0.55307279  0.44091254
   0.42663585  0.58594955  0.58398562
   0.40259261  0.44537135  0.54856450
   0.36273280  0.43256260  0.40777702
Direct configuration=    22
   0.57929802  0.53284852  0.41102468
   0.63076930  0.41382209  0.49334563
   0.53735520  0.50441798  0.55152232
   0.49819398  0.41095886  0.44144561
   0.44134302  0.55318157  0.44085688
   0.42657861  0.58569275  0.58405104
   0.40255823  0.44534172  0.54858431
   0.36271590  0.43254877  0.40798179
Direct configuration=    23
   0.57934675  0.53283811  0.41099893
   0.63073037  0.41376201  0.49343788
   0.53733916  0.50449821  0.55142510
   0.49822199  0.41103156  0.44137545
   0.44136797  0.55322840  0.44083291
   0.42655396  0.58558219  0.58407921
   0.40254344  0.44532896  0.54859284
   0.36270862  0.43254281  0.40806994
