14
Energy = -28.83278409 eV
In 10.710059759032678 11.558640548378799 9.722321673184313
In 13.463332217780144 12.498221038261109 8.40794375728282
In 11.83507774134303 14.313761363697855 10.557292690481273
In 13.959616126625097 16.16267612997272 12.014087649678748
In 13.318191301430357 10.18758407642759 10.716225125729924
In 11.343933391891397 11.614862491990069 12.632509610246403
In 14.451888863855569 12.903983416116462 11.421889906944024
In 13.915196045967463 15.719097174199703 15.03087709889516
In 13.900278542274995 9.72984048310247 13.68378747629638
In 11.562175710928784 14.359008720700203 13.62573493626027
In 14.83623856253171 12.922910303261846 14.246489200916312
In 12.303136594946071 11.70375141781645 15.566983496267094
In 11.559985743886516 14.514726653604042 16.635040730425906
In 14.449766482536763 13.419813267501269 17.34769373242189
