12
Energy = -22.76647007 eV
In 7.380647171943223 7.38391044818831 5.844934532059621
In 7.362041748004924 7.358992806783202 8.891303817013496
In 7.3967132207780875 7.386007058319429 11.938578803087262
In 10.381155599463238 7.388307609142423 5.837731963403924
In 10.414947887665999 7.364033285687636 8.884757207851885
In 10.397196823788528 7.389989705705434 11.931804941470318
In 7.378395902014768 10.384915276490537 5.844655062529055
In 7.360624843617159 10.412178108629993 8.891591935663234
In 7.39401419978405 10.387013731258918 11.938329805548234
In 10.378937967581377 10.389349088671212 5.836627041635634
In 10.413698140006641 10.417234247420518 8.882706058939641
In 10.394530495352123 10.3909726337025 11.929882327457571
