4
Energy = -4.99274912 eV
In 10.978165797672577 11.544074116323346 13.528524739068285
In 12.126757143314453 12.478057462622054 16.08745818916573
In 13.530382443159953 12.798727718045354 8.357037674644227
In 12.343585807933042 12.209001349383282 11.101515507622189
