5
Energy = -7.89263318 eV
In 9.9054644430295 10.864277854929039 8.634041810154772
In 8.879286909744964 9.534262315812684 10.959820715345279
In 10.942794727169003 7.523124895658496 10.842659387525268
In 7.446505085731541 12.1801091522308 10.094709690640341
In 11.92735367175005 8.832485304488962 8.444113430506924
