7
Energy = -13.13247797 eV
In 13.03247978705819 11.578827335039687 10.869272146314053
In 10.45844104291197 11.275214867386115 12.510834113252612
In 12.208463890610842 9.011700463895139 9.588356968783415
In 10.115399614575182 8.562095590755648 11.581461928784957
In 10.334106295404982 12.651342086163979 9.856421139334044
In 9.965039414462872 10.29703720026568 8.223280000682527
In 7.923610665220363 10.398663151012167 10.49567829702208
