9
Energy = -16.26534265 eV
In 9.752278628909373 14.549681683050549 12.46087407967596
In 11.345340406944565 13.921275988929276 10.06843151481139
In 11.441430069876443 12.500564334734394 7.386651963076566
In 12.460918902710914 14.27740641720965 13.721902343264112
In 11.992512741252531 11.752700575206772 12.18349468969227
In 10.449025671881905 10.920175816049447 9.857791321579468
In 13.0169336996434 11.813524984171313 15.301949670086252
In 12.770060415464194 9.338808043177437 13.685809252427326
In 11.822415890193017 8.606295458468464 11.002030756138304
