 running on   32 total cores
 distrk:  each k-point on   32 cores,    1 groups
 distr:  one band on    8 cores,    4 groups
 using from now: INCAR     
 vasp.5.3.5 31Mar14 (build Feb 01 2018 12:10:03) gamma-only                     
  
 POSCAR found type information on POSCAR  Ag
 POSCAR found :  1 types and      15 ions
 scaLAPACK will be used
 LDA part: xc-table for Pade appr. of Perdew
 POSCAR, INCAR and KPOINTS ok, starting setup
 WARNING: small aliasing (wrap around) errors must be expected
 FFT: planning ...
 WAVECAR not read
 entering main loop
       N       E                     dE             d eps       ncg     rms          rms(c)
DAV:   1     0.145269646955E+04    0.14527E+04   -0.25386E+04   448   0.541E+02
DAV:   2     0.548823089511E+03   -0.90387E+03   -0.79498E+03   792   0.104E+02
DAV:   3     0.365256163733E+02   -0.51230E+03   -0.47850E+03   624   0.901E+01
DAV:   4    -0.269458529335E+02   -0.63471E+02   -0.57081E+02   528   0.339E+01
DAV:   5    -0.287634557734E+02   -0.18176E+01   -0.18094E+01   480   0.666E+00    0.211E+01
DAV:   6    -0.698785581494E+01    0.21776E+02   -0.62789E+01   432   0.153E+01    0.105E+01
DAV:   7    -0.326447042343E+01    0.37234E+01   -0.39140E+00   464   0.475E+00    0.610E+00
DAV:   8    -0.626724752950E+01   -0.30028E+01   -0.16088E+00   476   0.281E+00    0.319E+00
DAV:   9    -0.100447623666E+02   -0.37775E+01   -0.10612E+00   456   0.195E+00    0.188E+00
DAV:  10    -0.163435928626E+02   -0.62988E+01   -0.25266E+00   440   0.288E+00    0.237E+00
DAV:  11    -0.168905188759E+02   -0.54693E+00   -0.12263E-01   528   0.788E-01    0.207E+00
DAV:  12    -0.195981761166E+02   -0.27077E+01   -0.91650E-01   448   0.191E+00    0.151E+00
DAV:  13    -0.236855198634E+02   -0.40873E+01   -0.18183E+00   448   0.230E+00    0.793E-01
DAV:  14    -0.255974668781E+02   -0.19119E+01   -0.51141E-01   464   0.105E+00    0.609E-01
DAV:  15    -0.267052742369E+02   -0.11078E+01   -0.17929E-01   440   0.664E-01    0.414E-01
DAV:  16    -0.276891667936E+02   -0.98389E+00   -0.18291E-01   448   0.639E-01    0.226E-01
DAV:  17    -0.279975029808E+02   -0.30834E+00   -0.16640E-02   456   0.230E-01    0.159E-01
DAV:  18    -0.282912892220E+02   -0.29379E+00   -0.12976E-02   448   0.217E-01    0.943E-02
DAV:  19    -0.284086707908E+02   -0.11738E+00   -0.36238E-03   460   0.126E-01    0.520E-02
DAV:  20    -0.284347531685E+02   -0.26082E-01   -0.84049E-04   356   0.669E-02    0.245E-02
DAV:  21    -0.284429957007E+02   -0.82425E-02   -0.54936E-04   328   0.393E-02    0.175E-02
DAV:  22    -0.284431710393E+02   -0.17534E-03   -0.25543E-04   328   0.244E-02    0.109E-02
DAV:  23    -0.284452849921E+02   -0.21140E-02   -0.22612E-04   332   0.188E-02    0.661E-03
DAV:  24    -0.284470735512E+02   -0.17886E-02   -0.52690E-05   316   0.117E-02    0.453E-03
DAV:  25    -0.284484146340E+02   -0.13411E-02   -0.26773E-05   288   0.843E-03    0.255E-03
DAV:  26    -0.284486388822E+02   -0.22425E-03   -0.78240E-06   308   0.485E-03    0.137E-03
DAV:  27    -0.284486318575E+02    0.70248E-05   -0.31351E-06   320   0.338E-03
   1 F= -.28448632E+02 E0= -.28448632E+02  d E =-.284486E+02  mag=     1.0002
 curvature:   0.00 expect dE= 0.000E+00 dE for cont linesearch  0.000E+00
 trial: gam= 0.00000 g(F)=  0.496E-03 g(S)=  0.000E+00 ort = 0.000E+00 (trialstep = 0.100E+01)
 search vector abs. value=  0.496E-03
 bond charge predicted
       N       E                     dE             d eps       ncg     rms          rms(c)
DAV:   1    -0.284491364172E+02   -0.49753E-03   -0.33415E-02   448   0.473E-01    0.854E-03
DAV:   2    -0.284491845584E+02   -0.48141E-04   -0.13959E-04   272   0.462E-02
   2 F= -.28449185E+02 E0= -.28449185E+02  d E =-.552701E-03  mag=     1.0001
 ZBRENT: can't locate minimum, use default step
 trial-energy change:   -0.000553  1 .order   -0.000473   -0.000496   -0.000450
 step:   4.0000(harm= 10.7733)  dis= 0.00490  next Energy=   -28.451306 (dE=-0.267E-02)
 bond charge predicted
       N       E                     dE             d eps       ncg     rms          rms(c)
DAV:   1    -0.284504269715E+02   -0.12906E-02   -0.30173E-01   448   0.142E+00    0.274E-02
DAV:   2    -0.284505776568E+02   -0.15069E-03   -0.13874E-03   456   0.136E-01    0.247E-02
DAV:   3    -0.284505821063E+02   -0.44494E-05   -0.20942E-05   280   0.179E-02
   3 F= -.28450582E+02 E0= -.28450582E+02  d E =-.195025E-02  mag=     1.0001
 curvature:  -2.80 expect dE=-0.909E-03 dE for cont linesearch -0.885E-03
 trial: gam=-0.14365 g(F)=  0.325E-03 g(S)=  0.000E+00 ort = 0.396E-03 (trialstep = 0.160E+01)
 search vector abs. value=  0.221E-03
 bond charge predicted
       N       E                     dE             d eps       ncg     rms          rms(c)
DAV:   1    -0.284510305843E+02   -0.45293E-03   -0.38655E-02   444   0.509E-01    0.116E-02
DAV:   2    -0.284510497097E+02   -0.19125E-04   -0.15563E-04   280   0.488E-02
   4 F= -.28451050E+02 E0= -.28451050E+02  d E =-.467603E-03  mag=     1.0001
 ZBRENT: can't locate minimum, use default step
 trial-energy change:   -0.000468  1 .order   -0.000420   -0.000429   -0.000412
 step:   6.4000(harm= 40.5657)  dis= 0.00513  next Energy=   -28.456017 (dE=-0.543E-02)
 bond charge predicted
       N       E                     dE             d eps       ncg     rms          rms(c)
DAV:   1    -0.284521708472E+02   -0.11403E-02   -0.34364E-01   440   0.151E+00    0.257E-02
DAV:   2    -0.284523249472E+02   -0.15410E-03   -0.15775E-03   464   0.146E-01    0.256E-02
DAV:   3    -0.284523232825E+02    0.16648E-05   -0.23735E-05   272   0.193E-02
   5 F= -.28452323E+02 E0= -.28452323E+02  d E =-.174118E-02  mag=     1.0000
 curvature:  -3.87 expect dE=-0.941E-03 dE for cont linesearch -0.934E-03
 trial: gam=-0.11026 g(F)=  0.243E-03 g(S)=  0.000E+00 ort = 0.231E-03 (trialstep = 0.256E+01)
 search vector abs. value=  0.195E-03
 bond charge predicted
       N       E                     dE             d eps       ncg     rms          rms(c)
DAV:   1    -0.284528738431E+02   -0.54890E-03   -0.86636E-02   444   0.762E-01    0.154E-02
DAV:   2    -0.284529109987E+02   -0.37156E-04   -0.38706E-04   400   0.731E-02
   6 F= -.28452911E+02 E0= -.28452911E+02  d E =-.587716E-03  mag=     1.0000
 ZBRENT: can't locate minimum, use default step
 trial-energy change:   -0.000588  1 .order   -0.000531   -0.000557   -0.000506
 step:  10.2400(harm= 27.8015)  dis= 0.00744  next Energy=   -28.455348 (dE=-0.302E-02)
 bond charge predicted
       N       E                     dE             d eps       ncg     rms          rms(c)
DAV:   1    -0.284541756616E+02   -0.13018E-02   -0.77396E-01   444   0.227E+00    0.370E-02
DAV:   2    -0.284545252611E+02   -0.34960E-03   -0.36158E-03   456   0.222E-01    0.385E-02
DAV:   3    -0.284545204616E+02    0.47995E-05   -0.54365E-05   272   0.292E-02
   7 F= -.28454520E+02 E0= -.28454520E+02  d E =-.219718E-02  mag=     1.0000
 curvature:  -6.42 expect dE=-0.951E-03 dE for cont linesearch -0.911E-03
 trial: gam=-0.15324 g(F)=  0.148E-03 g(S)=  0.000E+00 ort = 0.166E-03 (trialstep = 0.410E+01)
 search vector abs. value=  0.102E-03
 bond charge predicted
       N       E                     dE             d eps       ncg     rms          rms(c)
DAV:   1    -0.284550273478E+02   -0.50209E-03   -0.11589E-01   444   0.881E-01    0.189E-02
DAV:   2    -0.284550753052E+02   -0.47957E-04   -0.51362E-04   440   0.837E-02
   8 F= -.28455075E+02 E0= -.28455075E+02  d E =-.554844E-03  mag=     1.0000
 ZBRENT: can't locate minimum, use default step
 trial-energy change:   -0.000555  1 .order   -0.000482   -0.000502   -0.000463
 step:  16.3840(harm= 52.4480)  dis= 0.00746  next Energy=   -28.457734 (dE=-0.321E-02)
 bond charge predicted
       N       E                     dE             d eps       ncg     rms          rms(c)
DAV:   1    -0.284561602485E+02   -0.11329E-02   -0.10324E+00   448   0.263E+00    0.391E-02
DAV:   2    -0.284566205058E+02   -0.46026E-03   -0.48087E-03   456   0.257E-01    0.447E-02
DAV:   3    -0.284566149482E+02    0.55576E-05   -0.72536E-05   272   0.337E-02
   9 F= -.28456615E+02 E0= -.28456615E+02  d E =-.209449E-02  mag=     1.0000
 curvature:  -9.65 expect dE=-0.841E-03 dE for cont linesearch -0.829E-03
 trial: gam=-0.17248 g(F)=  0.872E-04 g(S)=  0.000E+00 ort = 0.934E-04 (trialstep = 0.655E+01)
 search vector abs. value=  0.580E-04
 bond charge predicted
       N       E                     dE             d eps       ncg     rms          rms(c)
DAV:   1    -0.284570824080E+02   -0.46190E-03   -0.16901E-01   444   0.106E+00    0.248E-02
DAV:   2    -0.284571480307E+02   -0.65623E-04   -0.73329E-04   432   0.100E-01
  10 F= -.28457148E+02 E0= -.28457148E+02  d E =-.533082E-03  mag=     1.0000
 ZBRENT: can't locate minimum, use default step
 trial-energy change:   -0.000533  1 .order   -0.000436   -0.000466   -0.000406
 step:  26.2144(harm= 51.4190)  dis= 0.00863  next Energy=   -28.458442 (dE=-0.183E-02)
 bond charge predicted
       N       E                     dE             d eps       ncg     rms          rms(c)
DAV:   1    -0.284579091734E+02   -0.82677E-03   -0.15069E+00   440   0.317E+00    0.476E-02
DAV:   2    -0.284585772966E+02   -0.66812E-03   -0.70000E-03   448   0.310E-01    0.538E-02
DAV:   3    -0.284585682199E+02    0.90767E-05   -0.10559E-04   280   0.407E-02
  11 F= -.28458568E+02 E0= -.28458568E+02  d E =-.195327E-02  mag=     1.0000
 curvature: -14.35 expect dE=-0.557E-03 dE for cont linesearch -0.471E-03
 trial: gam=-0.17002 g(F)=  0.388E-04 g(S)=  0.000E+00 ort = 0.436E-04 (trialstep = 0.105E+02)
 search vector abs. value=  0.257E-04
 bond charge predicted
       N       E                     dE             d eps       ncg     rms          rms(c)
DAV:   1    -0.284588831664E+02   -0.30587E-03   -0.19166E-01   444   0.114E+00    0.281E-02
DAV:   2    -0.284589600987E+02   -0.76932E-04   -0.83704E-04   432   0.107E-01
  12 F= -.28458960E+02 E0= -.28458960E+02  d E =-.391879E-03  mag=     1.0000
 trial-energy change:   -0.000392  1 .order   -0.000287   -0.000329   -0.000244
 step:  40.5201(harm= 40.5201)  dis= 0.00562  next Energy=   -28.459204 (dE=-0.636E-03)
 bond charge predicted
       N       E                     dE             d eps       ncg     rms          rms(c)
DAV:   1    -0.284591406301E+02   -0.25746E-03   -0.15579E+00   440   0.323E+00    0.545E-02
DAV:   2    -0.284598469940E+02   -0.70636E-03   -0.72964E-03   444   0.318E-01    0.580E-02
DAV:   3    -0.284598388862E+02    0.81077E-05   -0.11200E-04   272   0.421E-02
  13 F= -.28459839E+02 E0= -.28459839E+02  d E =-.127067E-02  mag=     1.0000
 curvature: -16.55 expect dE=-0.938E-03 dE for cont linesearch -0.322E-04
 trial: gam= 1.13533 g(F)=  0.567E-04 g(S)=  0.000E+00 ort = 0.707E-05 (trialstep = 0.400E+01)
 search vector abs. value=  0.106E-03
 bond charge predicted
       N       E                     dE             d eps       ncg     rms          rms(c)
DAV:   1    -0.284600763951E+02   -0.22940E-03   -0.11521E-01   452   0.882E-01    0.218E-02
DAV:   2    -0.284601264201E+02   -0.50025E-04   -0.50529E-04   432   0.825E-02
  14 F= -.28460126E+02 E0= -.28460126E+02  d E =-.287534E-03  mag=     1.0000
 trial-energy change:   -0.000288  1 .order   -0.000225   -0.000259   -0.000192
 step:  15.5052(harm= 15.5052)  dis= 0.00527  next Energy=   -28.460340 (dE=-0.501E-03)
 bond charge predicted
       N       E                     dE             d eps       ncg     rms          rms(c)
DAV:   1    -0.284603196988E+02   -0.24330E-03   -0.94330E-01   440   0.252E+00    0.437E-02
DAV:   2    -0.284607352870E+02   -0.41559E-03   -0.43921E-03   444   0.244E-01    0.413E-02
DAV:   3    -0.284607255297E+02    0.97573E-05   -0.66552E-05   272   0.322E-02
  15 F= -.28460726E+02 E0= -.28460726E+02  d E =-.886643E-03  mag=     1.0000
 curvature: -12.68 expect dE=-0.217E-03 dE for cont linesearch -0.167E-04
 trial: gam= 0.00000 g(F)=  0.171E-04 g(S)=  0.000E+00 ort = 0.118E-04 (trialstep = 0.630E+01)
 search vector abs. value=  0.171E-04
 reached required accuracy - stopping structural energy minimisation
Application 90930825 resources: utime ~5039s, stime ~66s, Rss ~76524, inblocks ~81415, outblocks ~150551
