  15  15   0   0
  0.6124815E+03  0.2094409E-08  0.2094409E-08  0.2094409E-08  0.1000000E-15
  1.000000000000000E-004
  CAR 
 unknown system                          
      1.17003900     -9.80473953  301     -3.67715485      1.00000000
     -9.805  0.0000E+00  0.0000E+00  0.0000E+00  0.0000E+00
     -9.768  0.0000E+00  0.0000E+00  0.0000E+00  0.0000E+00
     -9.732  0.0000E+00  0.0000E+00  0.0000E+00  0.0000E+00
     -9.695  0.0000E+00  0.0000E+00  0.0000E+00  0.0000E+00
     -9.658  0.0000E+00  0.0000E+00  0.0000E+00  0.0000E+00
     -9.622  0.0000E+00  0.0000E+00  0.0000E+00  0.0000E+00
     -9.585  0.0000E+00  0.0000E+00  0.0000E+00  0.0000E+00
     -9.549  0.0000E+00  0.0000E+00  0.0000E+00  0.0000E+00
     -9.512  0.0000E+00  0.0000E+00  0.0000E+00  0.0000E+00
     -9.475  0.0000E+00  0.0000E+00  0.0000E+00  0.0000E+00
     -9.439  0.0000E+00  0.0000E+00  0.0000E+00  0.0000E+00
     -9.402  0.0000E+00  0.0000E+00  0.0000E+00  0.0000E+00
     -9.366  0.0000E+00  0.0000E+00  0.0000E+00  0.0000E+00
     -9.329  0.0000E+00  0.0000E+00  0.0000E+00  0.0000E+00
     -9.293  0.0000E+00  0.0000E+00  0.1000E-02  0.0000E+00
     -9.256  0.0000E+00  0.0000E+00  0.1000E-02  0.1000E-02
     -9.219  0.0000E+00  0.0000E+00  0.1000E-02  0.1000E-02
     -9.183  0.0000E+00  0.0000E+00  0.1000E-02  0.1000E-02
     -9.146  0.0000E+00  0.0000E+00  0.1000E-02  0.1000E-02
     -9.110  0.0000E+00  0.0000E+00  0.1000E-02  0.1000E-02
     -9.073  0.0000E+00  0.0000E+00  0.3000E-02  0.2000E-02
     -9.037  0.0000E+00  0.0000E+00  0.3000E-02  0.3000E-02
     -9.000  0.0000E+00  0.0000E+00  0.4000E-02  0.3000E-02
     -8.963  0.0000E+00  0.0000E+00  0.5000E-02  0.5000E-02
     -8.927  0.0000E+00  0.0000E+00  0.6000E-02  0.5000E-02
     -8.890  0.0000E+00  0.0000E+00  0.7000E-02  0.7000E-02
     -8.854  0.0000E+00  0.0000E+00  0.8000E-02  0.7000E-02
     -8.817  0.0000E+00  0.0000E+00  0.9000E-02  0.9000E-02
     -8.780  0.0000E+00  0.0000E+00  0.1000E-01  0.1000E-01
     -8.744  0.0000E+00  0.0000E+00  0.1100E-01  0.1100E-01
     -8.707  0.0000E+00  0.0000E+00  0.1200E-01  0.1100E-01
     -8.671  0.0000E+00  0.0000E+00  0.1200E-01  0.1200E-01
     -8.634  0.0000E+00  0.0000E+00  0.1200E-01  0.1200E-01
     -8.598  0.0000E+00  0.0000E+00  0.1400E-01  0.1300E-01
     -8.561  0.0000E+00  0.0000E+00  0.1400E-01  0.1400E-01
     -8.524  0.0000E+00  0.0000E+00  0.1400E-01  0.1400E-01
     -8.488  0.0000E+00  0.0000E+00  0.1600E-01  0.1500E-01
     -8.451  0.0000E+00  0.0000E+00  0.1600E-01  0.1600E-01
     -8.415  0.0000E+00  0.0000E+00  0.1700E-01  0.1700E-01
     -8.378  0.0000E+00  0.0000E+00  0.1800E-01  0.1800E-01
     -8.341  0.0000E+00  0.0000E+00  0.2000E-01  0.1900E-01
     -8.305  0.0000E+00  0.0000E+00  0.2100E-01  0.2100E-01
     -8.268  0.0000E+00  0.0000E+00  0.2100E-01  0.2100E-01
     -8.232  0.0000E+00  0.0000E+00  0.2300E-01  0.2200E-01
     -8.195  0.0000E+00  0.0000E+00  0.2300E-01  0.2300E-01
     -8.159  0.0000E+00  0.0000E+00  0.2400E-01  0.2300E-01
     -8.122  0.0000E+00  0.0000E+00  0.2500E-01  0.2500E-01
     -8.085  0.0000E+00  0.0000E+00  0.2600E-01  0.2500E-01
     -8.049  0.0000E+00  0.0000E+00  0.2700E-01  0.2600E-01
     -8.012  0.0000E+00  0.0000E+00  0.2700E-01  0.2700E-01
     -7.976  0.0000E+00  0.0000E+00  0.2800E-01  0.2800E-01
     -7.939  0.0000E+00  0.0000E+00  0.2900E-01  0.2800E-01
     -7.902  0.0000E+00  0.0000E+00  0.3000E-01  0.3000E-01
     -7.866  0.0000E+00  0.0000E+00  0.3000E-01  0.3000E-01
     -7.829  0.0000E+00  0.0000E+00  0.3100E-01  0.3100E-01
     -7.793  0.0000E+00  0.0000E+00  0.3200E-01  0.3200E-01
     -7.756  0.0000E+00  0.0000E+00  0.3200E-01  0.3200E-01
     -7.720  0.0000E+00  0.0000E+00  0.3200E-01  0.3200E-01
     -7.683  0.0000E+00  0.0000E+00  0.3300E-01  0.3300E-01
     -7.646  0.0000E+00  0.0000E+00  0.3400E-01  0.3400E-01
     -7.610  0.0000E+00  0.0000E+00  0.3500E-01  0.3500E-01
     -7.573  0.0000E+00  0.0000E+00  0.3600E-01  0.3500E-01
     -7.537  0.0000E+00  0.0000E+00  0.3800E-01  0.3600E-01
     -7.500  0.0000E+00  0.0000E+00  0.3800E-01  0.3800E-01
     -7.463  0.0000E+00  0.0000E+00  0.3900E-01  0.3900E-01
     -7.427  0.0000E+00  0.0000E+00  0.4000E-01  0.3900E-01
     -7.390  0.0000E+00  0.0000E+00  0.4100E-01  0.4100E-01
     -7.354  0.0000E+00  0.0000E+00  0.4200E-01  0.4100E-01
     -7.317  0.0000E+00  0.0000E+00  0.4400E-01  0.4300E-01
     -7.281  0.0000E+00  0.2559E-05  0.4500E-01  0.4400E-01
     -7.244  0.0000E+00  0.0000E+00  0.4700E-01  0.4600E-01
     -7.207  0.0000E+00  0.0000E+00  0.4900E-01  0.4800E-01
     -7.171  0.0000E+00  0.0000E+00  0.5000E-01  0.5000E-01
     -7.134  0.8551E-11  0.0000E+00  0.5200E-01  0.5200E-01
     -7.098  0.0000E+00  0.0000E+00  0.5400E-01  0.5300E-01
     -7.061  0.0000E+00  0.0000E+00  0.5500E-01  0.5400E-01
     -7.024  0.0000E+00  0.0000E+00  0.5600E-01  0.5600E-01
     -6.988  0.0000E+00  0.0000E+00  0.5800E-01  0.5800E-01
     -6.951  0.0000E+00  0.0000E+00  0.5900E-01  0.5800E-01
     -6.915  0.0000E+00  0.0000E+00  0.6100E-01  0.6000E-01
     -6.878  0.0000E+00  0.0000E+00  0.6200E-01  0.6200E-01
     -6.842  0.0000E+00  0.0000E+00  0.6400E-01  0.6300E-01
     -6.805  0.0000E+00  0.0000E+00  0.6500E-01  0.6500E-01
     -6.768  0.0000E+00  0.0000E+00  0.6600E-01  0.6600E-01
     -6.732  0.0000E+00  0.0000E+00  0.6800E-01  0.6700E-01
     -6.695  0.0000E+00  0.0000E+00  0.6900E-01  0.6900E-01
     -6.659  0.0000E+00  0.0000E+00  0.7000E-01  0.6900E-01
     -6.622  0.0000E+00  0.0000E+00  0.7200E-01  0.7100E-01
     -6.585  0.0000E+00  0.0000E+00  0.7300E-01  0.7300E-01
     -6.549  0.0000E+00  0.0000E+00  0.7400E-01  0.7300E-01
     -6.512  0.0000E+00  0.0000E+00  0.7500E-01  0.7400E-01
     -6.476  0.0000E+00  0.0000E+00  0.7600E-01  0.7600E-01
     -6.439  0.0000E+00  0.0000E+00  0.7700E-01  0.7700E-01
     -6.403  0.0000E+00  0.0000E+00  0.7700E-01  0.7700E-01
     -6.366  0.0000E+00  0.0000E+00  0.7700E-01  0.7700E-01
     -6.329  0.0000E+00  0.0000E+00  0.7700E-01  0.7700E-01
     -6.293  0.0000E+00  0.0000E+00  0.7700E-01  0.7700E-01
     -6.256  0.0000E+00  0.0000E+00  0.7700E-01  0.7700E-01
     -6.220  0.0000E+00  0.0000E+00  0.7700E-01  0.7700E-01
     -6.183  0.0000E+00  0.0000E+00  0.7700E-01  0.7700E-01
     -6.146  0.0000E+00  0.0000E+00  0.7700E-01  0.7700E-01
     -6.110  0.0000E+00  0.0000E+00  0.7700E-01  0.7700E-01
     -6.073  0.0000E+00  0.0000E+00  0.7800E-01  0.7700E-01
     -6.037  0.0000E+00  0.0000E+00  0.7800E-01  0.7800E-01
     -6.000  0.0000E+00  0.0000E+00  0.7800E-01  0.7800E-01
     -5.964  0.0000E+00  0.0000E+00  0.7800E-01  0.7800E-01
     -5.927  0.0000E+00  0.0000E+00  0.7800E-01  0.7800E-01
     -5.890  0.0000E+00  0.0000E+00  0.7800E-01  0.7800E-01
     -5.854  0.0000E+00  0.0000E+00  0.7800E-01  0.7800E-01
     -5.817  0.0000E+00  0.0000E+00  0.7800E-01  0.7800E-01
     -5.781  0.0000E+00  0.0000E+00  0.7800E-01  0.7800E-01
     -5.744  0.0000E+00  0.0000E+00  0.7800E-01  0.7800E-01
     -5.707  0.0000E+00  0.0000E+00  0.7800E-01  0.7800E-01
     -5.671  0.0000E+00  0.0000E+00  0.7800E-01  0.7800E-01
     -5.634  0.0000E+00  0.0000E+00  0.7800E-01  0.7800E-01
     -5.598  0.0000E+00  0.0000E+00  0.7800E-01  0.7800E-01
     -5.561  0.0000E+00  0.0000E+00  0.7800E-01  0.7800E-01
     -5.525  0.0000E+00  0.0000E+00  0.7800E-01  0.7800E-01
     -5.488  0.0000E+00  0.0000E+00  0.7800E-01  0.7800E-01
     -5.451  0.0000E+00  0.0000E+00  0.7800E-01  0.7800E-01
     -5.415  0.0000E+00  0.0000E+00  0.7800E-01  0.7800E-01
     -5.378  0.0000E+00  0.0000E+00  0.7800E-01  0.7800E-01
     -5.342  0.0000E+00  0.0000E+00  0.7800E-01  0.7800E-01
     -5.305  0.0000E+00  0.0000E+00  0.7800E-01  0.7800E-01
     -5.268  0.0000E+00  0.0000E+00  0.7800E-01  0.7800E-01
     -5.232  0.0000E+00  0.0000E+00  0.7800E-01  0.7800E-01
     -5.195  0.0000E+00  0.0000E+00  0.7800E-01  0.7800E-01
     -5.159  0.0000E+00  0.0000E+00  0.7800E-01  0.7800E-01
     -5.122  0.0000E+00  0.0000E+00  0.7900E-01  0.7800E-01
     -5.086  0.0000E+00  0.0000E+00  0.7900E-01  0.7800E-01
     -5.049  0.0000E+00  0.0000E+00  0.7900E-01  0.7900E-01
     -5.012  0.0000E+00  0.0000E+00  0.7900E-01  0.7900E-01
     -4.976  0.0000E+00  0.0000E+00  0.7900E-01  0.7900E-01
     -4.939  0.0000E+00  0.0000E+00  0.7900E-01  0.7900E-01
     -4.903  0.0000E+00  0.0000E+00  0.7900E-01  0.7900E-01
     -4.866  0.0000E+00  0.0000E+00  0.8000E-01  0.7900E-01
     -4.830  0.0000E+00  0.0000E+00  0.8000E-01  0.8000E-01
     -4.793  0.0000E+00  0.0000E+00  0.8000E-01  0.8000E-01
     -4.756  0.0000E+00  0.0000E+00  0.8100E-01  0.8000E-01
     -4.720  0.0000E+00  0.0000E+00  0.8100E-01  0.8000E-01
     -4.683  0.0000E+00  0.0000E+00  0.8100E-01  0.8100E-01
     -4.647  0.0000E+00  0.0000E+00  0.8100E-01  0.8100E-01
     -4.610  0.0000E+00  0.0000E+00  0.8100E-01  0.8100E-01
     -4.573  0.0000E+00  0.0000E+00  0.8100E-01  0.8100E-01
     -4.537  0.0000E+00  0.0000E+00  0.8100E-01  0.8100E-01
     -4.500  0.0000E+00  0.0000E+00  0.8100E-01  0.8100E-01
     -4.464  0.0000E+00  0.0000E+00  0.8100E-01  0.8100E-01
     -4.427  0.0000E+00  0.0000E+00  0.8100E-01  0.8100E-01
     -4.391  0.0000E+00  0.0000E+00  0.8100E-01  0.8100E-01
     -4.354  0.0000E+00  0.0000E+00  0.8100E-01  0.8100E-01
     -4.317  0.0000E+00  0.0000E+00  0.8100E-01  0.8100E-01
     -4.281  0.0000E+00  0.0000E+00  0.8100E-01  0.8100E-01
     -4.244  0.0000E+00  0.0000E+00  0.8100E-01  0.8100E-01
     -4.208  0.0000E+00  0.0000E+00  0.8100E-01  0.8100E-01
     -4.171  0.0000E+00  0.0000E+00  0.8100E-01  0.8100E-01
     -4.134  0.0000E+00  0.0000E+00  0.8100E-01  0.8100E-01
     -4.098  0.0000E+00  0.0000E+00  0.8100E-01  0.8100E-01
     -4.061  0.0000E+00  0.0000E+00  0.8100E-01  0.8100E-01
     -4.025  0.0000E+00  0.0000E+00  0.8100E-01  0.8100E-01
     -3.988  0.0000E+00  0.0000E+00  0.8200E-01  0.8100E-01
     -3.952  0.0000E+00  0.0000E+00  0.8200E-01  0.8200E-01
     -3.915  0.0000E+00  0.0000E+00  0.8200E-01  0.8200E-01
     -3.878  0.0000E+00  0.0000E+00  0.8200E-01  0.8200E-01
     -3.842  0.0000E+00  0.0000E+00  0.8200E-01  0.8200E-01
     -3.805  0.0000E+00  0.0000E+00  0.8200E-01  0.8200E-01
     -3.769  0.0000E+00  0.0000E+00  0.8200E-01  0.8200E-01
     -3.732  0.0000E+00  0.0000E+00  0.8200E-01  0.8200E-01
     -3.695  0.0000E+00  0.0000E+00  0.8200E-01  0.8200E-01
     -3.659  0.0000E+00  0.0000E+00  0.8300E-01  0.8200E-01
     -3.622  0.0000E+00  0.0000E+00  0.8300E-01  0.8200E-01
     -3.586  0.0000E+00  0.0000E+00  0.8300E-01  0.8200E-01
     -3.549  0.0000E+00  0.0000E+00  0.8300E-01  0.8200E-01
     -3.513  0.0000E+00  0.0000E+00  0.8300E-01  0.8300E-01
     -3.476  0.0000E+00  0.0000E+00  0.8300E-01  0.8300E-01
     -3.439  0.0000E+00  0.0000E+00  0.8300E-01  0.8300E-01
     -3.403  0.0000E+00  0.0000E+00  0.8300E-01  0.8300E-01
     -3.366  0.0000E+00  0.0000E+00  0.8300E-01  0.8300E-01
     -3.330  0.0000E+00  0.0000E+00  0.8300E-01  0.8300E-01
     -3.293  0.0000E+00  0.0000E+00  0.8300E-01  0.8300E-01
     -3.256  0.0000E+00  0.0000E+00  0.8300E-01  0.8300E-01
     -3.220  0.0000E+00  0.0000E+00  0.8300E-01  0.8300E-01
     -3.183  0.0000E+00  0.0000E+00  0.8400E-01  0.8300E-01
     -3.147  0.0000E+00  0.0000E+00  0.8400E-01  0.8400E-01
     -3.110  0.0000E+00  0.0000E+00  0.8400E-01  0.8400E-01
     -3.074  0.0000E+00  0.0000E+00  0.8400E-01  0.8400E-01
     -3.037  0.0000E+00  0.0000E+00  0.8400E-01  0.8400E-01
     -3.000  0.3000E-14  0.0000E+00  0.8400E-01  0.8400E-01
     -2.964  0.0000E+00  0.0000E+00  0.8500E-01  0.8400E-01
     -2.927  0.0000E+00  0.0000E+00  0.8500E-01  0.8500E-01
     -2.891  0.0000E+00  0.0000E+00  0.8500E-01  0.8500E-01
     -2.854  0.0000E+00  0.0000E+00  0.8500E-01  0.8500E-01
     -2.817  0.0000E+00  0.0000E+00  0.8500E-01  0.8500E-01
     -2.781  0.0000E+00  0.0000E+00  0.8500E-01  0.8500E-01
     -2.744  0.0000E+00  0.0000E+00  0.8500E-01  0.8500E-01
     -2.708  0.0000E+00  0.0000E+00  0.8600E-01  0.8500E-01
     -2.671  0.0000E+00  0.0000E+00  0.8600E-01  0.8600E-01
     -2.635  0.0000E+00  0.0000E+00  0.8600E-01  0.8600E-01
     -2.598  0.0000E+00  0.0000E+00  0.8600E-01  0.8600E-01
     -2.561  0.0000E+00  0.0000E+00  0.8600E-01  0.8600E-01
     -2.525  0.0000E+00  0.0000E+00  0.8600E-01  0.8600E-01
     -2.488  0.0000E+00  0.0000E+00  0.8600E-01  0.8600E-01
     -2.452  0.0000E+00  0.0000E+00  0.8600E-01  0.8600E-01
     -2.415  0.0000E+00  0.0000E+00  0.8600E-01  0.8600E-01
     -2.378  0.0000E+00  0.0000E+00  0.8700E-01  0.8600E-01
     -2.342  0.0000E+00  0.0000E+00  0.8700E-01  0.8600E-01
     -2.305  0.0000E+00  0.0000E+00  0.8700E-01  0.8700E-01
     -2.269  0.0000E+00  0.0000E+00  0.8700E-01  0.8700E-01
     -2.232  0.0000E+00  0.0000E+00  0.8700E-01  0.8700E-01
     -2.196  0.0000E+00  0.0000E+00  0.8800E-01  0.8700E-01
     -2.159  0.0000E+00  0.0000E+00  0.8800E-01  0.8700E-01
     -2.122  0.0000E+00  0.0000E+00  0.8800E-01  0.8800E-01
     -2.086  0.0000E+00  0.0000E+00  0.8800E-01  0.8800E-01
     -2.049  0.0000E+00  0.0000E+00  0.8800E-01  0.8800E-01
     -2.013  0.0000E+00  0.0000E+00  0.8800E-01  0.8800E-01
     -1.976  0.0000E+00  0.0000E+00  0.8800E-01  0.8800E-01
     -1.939  0.0000E+00  0.0000E+00  0.8800E-01  0.8800E-01
     -1.903  0.0000E+00  0.0000E+00  0.8900E-01  0.8800E-01
     -1.866  0.0000E+00  0.0000E+00  0.8900E-01  0.8800E-01
     -1.830  0.0000E+00  0.0000E+00  0.8900E-01  0.8900E-01
     -1.793  0.0000E+00  0.0000E+00  0.9000E-01  0.8900E-01
     -1.757  0.0000E+00  0.0000E+00  0.9000E-01  0.9000E-01
     -1.720  0.0000E+00  0.0000E+00  0.9000E-01  0.9000E-01
     -1.683  0.0000E+00  0.0000E+00  0.9000E-01  0.9000E-01
     -1.647  0.0000E+00  0.0000E+00  0.9000E-01  0.9000E-01
     -1.610  0.0000E+00  0.0000E+00  0.9000E-01  0.9000E-01
     -1.574  0.0000E+00  0.0000E+00  0.9000E-01  0.9000E-01
     -1.537  0.0000E+00  0.0000E+00  0.9100E-01  0.9000E-01
     -1.500  0.0000E+00  0.0000E+00  0.9100E-01  0.9000E-01
     -1.464  0.0000E+00  0.0000E+00  0.9100E-01  0.9000E-01
     -1.427  0.0000E+00  0.0000E+00  0.9100E-01  0.9100E-01
     -1.391  0.0000E+00  0.0000E+00  0.9100E-01  0.9100E-01
     -1.354  0.0000E+00  0.0000E+00  0.9100E-01  0.9100E-01
     -1.318  0.0000E+00  0.0000E+00  0.9100E-01  0.9100E-01
     -1.281  0.0000E+00  0.0000E+00  0.9100E-01  0.9100E-01
     -1.244  0.0000E+00  0.0000E+00  0.9200E-01  0.9100E-01
     -1.208  0.0000E+00  0.0000E+00  0.9200E-01  0.9200E-01
     -1.171  0.0000E+00  0.0000E+00  0.9200E-01  0.9200E-01
     -1.135  0.0000E+00  0.0000E+00  0.9300E-01  0.9200E-01
     -1.098  0.0000E+00  0.0000E+00  0.9300E-01  0.9200E-01
     -1.061  0.0000E+00  0.0000E+00  0.9300E-01  0.9300E-01
     -1.025  0.0000E+00  0.0000E+00  0.9400E-01  0.9300E-01
     -0.988  0.0000E+00  0.0000E+00  0.9400E-01  0.9300E-01
     -0.952  0.0000E+00  0.0000E+00  0.9400E-01  0.9400E-01
     -0.915  0.0000E+00  0.0000E+00  0.9400E-01  0.9400E-01
     -0.879  0.0000E+00  0.0000E+00  0.9400E-01  0.9400E-01
     -0.842  0.0000E+00  0.0000E+00  0.9400E-01  0.9400E-01
     -0.805  0.0000E+00  0.0000E+00  0.9500E-01  0.9400E-01
     -0.769  0.0000E+00  0.0000E+00  0.9500E-01  0.9400E-01
     -0.732  0.0000E+00  0.0000E+00  0.9500E-01  0.9500E-01
     -0.696  0.0000E+00  0.0000E+00  0.9600E-01  0.9500E-01
     -0.659  0.0000E+00  0.0000E+00  0.9600E-01  0.9600E-01
     -0.623  0.0000E+00  0.0000E+00  0.9600E-01  0.9600E-01
     -0.586  0.0000E+00  0.0000E+00  0.9700E-01  0.9600E-01
     -0.549  0.0000E+00  0.0000E+00  0.9700E-01  0.9600E-01
     -0.513  0.0000E+00  0.0000E+00  0.9700E-01  0.9700E-01
     -0.476  0.0000E+00  0.0000E+00  0.9700E-01  0.9700E-01
     -0.440  0.0000E+00  0.0000E+00  0.9700E-01  0.9700E-01
     -0.403  0.0000E+00  0.0000E+00  0.9700E-01  0.9700E-01
     -0.366  0.0000E+00  0.0000E+00  0.9700E-01  0.9700E-01
     -0.330  0.0000E+00  0.0000E+00  0.9700E-01  0.9700E-01
     -0.293  0.0000E+00  0.0000E+00  0.9700E-01  0.9700E-01
     -0.257  0.0000E+00  0.0000E+00  0.9700E-01  0.9700E-01
     -0.220  0.2734E-01  0.0000E+00  0.9800E-01  0.9700E-01
     -0.184  0.0000E+00  0.0000E+00  0.9800E-01  0.9700E-01
     -0.147  0.0000E+00  0.2734E-01  0.9900E-01  0.9800E-01
     -0.110  0.0000E+00  0.0000E+00  0.9900E-01  0.9900E-01
     -0.074  0.0000E+00  0.0000E+00  0.9900E-01  0.9900E-01
     -0.037  0.0000E+00  0.0000E+00  0.9900E-01  0.9900E-01
     -0.001  0.0000E+00  0.0000E+00  0.9900E-01  0.9900E-01
      0.036  0.0000E+00  0.0000E+00  0.9900E-01  0.9900E-01
      0.073  0.0000E+00  0.0000E+00  0.1000E+00  0.9900E-01
      0.109  0.0000E+00  0.0000E+00  0.1000E+00  0.9900E-01
      0.146  0.0000E+00  0.0000E+00  0.1000E+00  0.9900E-01
      0.182  0.0000E+00  0.0000E+00  0.1010E+00  0.1000E+00
      0.219  0.0000E+00  0.0000E+00  0.1010E+00  0.1010E+00
      0.255  0.0000E+00  0.0000E+00  0.1010E+00  0.1010E+00
      0.292  0.0000E+00  0.0000E+00  0.1020E+00  0.1010E+00
      0.329  0.0000E+00  0.0000E+00  0.1020E+00  0.1020E+00
      0.365  0.0000E+00  0.0000E+00  0.1030E+00  0.1020E+00
      0.402  0.0000E+00  0.0000E+00  0.1030E+00  0.1020E+00
      0.438  0.0000E+00  0.0000E+00  0.1030E+00  0.1030E+00
      0.475  0.0000E+00  0.0000E+00  0.1040E+00  0.1030E+00
      0.512  0.0000E+00  0.0000E+00  0.1040E+00  0.1040E+00
      0.548  0.0000E+00  0.1446E-02  0.1050E+00  0.1041E+00
      0.585  0.0000E+00  0.0000E+00  0.1060E+00  0.1060E+00
      0.621  0.0000E+00  0.0000E+00  0.1080E+00  0.1070E+00
      0.658  0.0000E+00  0.0000E+00  0.1080E+00  0.1070E+00
      0.694  0.0000E+00  0.0000E+00  0.1080E+00  0.1080E+00
      0.731  0.0000E+00  0.0000E+00  0.1080E+00  0.1080E+00
      0.768  0.0000E+00  0.0000E+00  0.1080E+00  0.1080E+00
      0.804  0.0000E+00  0.0000E+00  0.1080E+00  0.1080E+00
      0.841  0.0000E+00  0.0000E+00  0.1080E+00  0.1080E+00
      0.877  0.0000E+00  0.0000E+00  0.1080E+00  0.1080E+00
      0.914  0.0000E+00  0.0000E+00  0.1080E+00  0.1080E+00
      0.951  0.0000E+00  0.0000E+00  0.1080E+00  0.1080E+00
      0.987  0.0000E+00  0.0000E+00  0.1080E+00  0.1080E+00
      1.024  0.0000E+00  0.0000E+00  0.1080E+00  0.1080E+00
      1.060  0.0000E+00  0.0000E+00  0.1080E+00  0.1080E+00
      1.097  0.0000E+00  0.0000E+00  0.1080E+00  0.1080E+00
      1.133  0.0000E+00  0.0000E+00  0.1080E+00  0.1080E+00
      1.170  0.0000E+00  0.0000E+00  0.1080E+00  0.1080E+00
