 running on   32 total cores
 distrk:  each k-point on   32 cores,    1 groups
 distr:  one band on    8 cores,    4 groups
 using from now: INCAR     
 vasp.5.3.5 31Mar14 (build Feb 01 2018 12:10:03) gamma-only                     
  
 POSCAR found type information on POSCAR  Ag
 POSCAR found :  1 types and      25 ions
 scaLAPACK will be used

 ----------------------------------------------------------------------------- 
|                                                                             |
|  ADVICE TO THIS USER RUNNING 'VASP/VAMP'   (HEAR YOUR MASTER'S VOICE ...):  |
|                                                                             |
|      You have a (more or less) 'large supercell' and for larger cells       |
|      it might be more efficient to use real space projection opertators     |
|      So try LREAL= Auto  in the INCAR   file.                               |
|      Mind: At the moment your POTCAR file does not contain real space       |
|       projectors, and has to be modified,  BUT if you                       |
|      want to do an extremely  accurate calculation you might also keep the  |
|      reciprocal projection scheme          (i.e. LREAL=.FALSE.)             |
|                                                                             |
 ----------------------------------------------------------------------------- 

 LDA part: xc-table for Pade appr. of Perdew
 POSCAR, INCAR and KPOINTS ok, starting setup
 WARNING: small aliasing (wrap around) errors must be expected
 FFT: planning ...
 WAVECAR not read
 entering main loop
       N       E                     dE             d eps       ncg     rms          rms(c)
DAV:   1     0.243059103100E+04    0.24306E+04   -0.48727E+04   720   0.578E+02
DAV:   2     0.608428692411E+03   -0.18222E+04   -0.16187E+04  1264   0.135E+02
DAV:   3    -0.139606257167E+02   -0.62239E+03   -0.57429E+03   976   0.894E+01
DAV:   4    -0.496936694600E+02   -0.35733E+02   -0.35304E+02   788   0.241E+01
DAV:   5    -0.501977885637E+02   -0.50412E+00   -0.50337E+00   792   0.341E+00    0.283E+01
DAV:   6    -0.131984404168E+02    0.36999E+02   -0.11098E+02   724   0.170E+01    0.146E+01
DAV:   7    -0.776793033068E+01    0.54305E+01   -0.60330E+00   780   0.475E+00    0.868E+00
DAV:   8    -0.122076708280E+02   -0.44397E+01   -0.25073E+00   780   0.294E+00    0.470E+00
DAV:   9    -0.181037306904E+02   -0.58961E+01   -0.20874E+00   784   0.232E+00    0.355E+00
DAV:  10    -0.195096481486E+02   -0.14059E+01   -0.28371E-01   800   0.143E+00    0.314E+00
DAV:  11    -0.276786551665E+02   -0.81690E+01   -0.32872E+00   724   0.295E+00    0.310E+00
DAV:  12    -0.305296607352E+02   -0.28510E+01   -0.75639E-01   792   0.156E+00    0.240E+00
DAV:  13    -0.384051769486E+02   -0.78755E+01   -0.37019E+00   736   0.264E+00    0.144E+00
DAV:  14    -0.428871155367E+02   -0.44819E+01   -0.13882E+00   760   0.146E+00    0.109E+00
DAV:  15    -0.455123650228E+02   -0.26252E+01   -0.55073E-01   752   0.933E-01    0.760E-01
DAV:  16    -0.477966206774E+02   -0.22843E+01   -0.55475E-01   744   0.102E+00    0.425E-01
DAV:  17    -0.486516120366E+02   -0.85499E+00   -0.58519E-02   776   0.353E-01    0.289E-01
DAV:  18    -0.492677888269E+02   -0.61618E+00   -0.26427E-02   748   0.238E-01    0.165E-01
DAV:  19    -0.496019197648E+02   -0.33413E+00   -0.12557E-02   784   0.200E-01    0.113E-01
DAV:  20    -0.496854825069E+02   -0.83563E-01   -0.24080E-03   772   0.110E-01    0.668E-02
DAV:  21    -0.497203346601E+02   -0.34852E-01   -0.11585E-03   648   0.654E-02    0.361E-02
DAV:  22    -0.497328751939E+02   -0.12541E-01   -0.65502E-04   544   0.323E-02    0.274E-02
DAV:  23    -0.497343862960E+02   -0.15111E-02   -0.26994E-04   528   0.298E-02    0.176E-02
DAV:  24    -0.497369354199E+02   -0.25491E-02   -0.19799E-04   528   0.224E-02    0.100E-02
DAV:  25    -0.497391703035E+02   -0.22349E-02   -0.79179E-05   504   0.136E-02    0.752E-03
DAV:  26    -0.497406002614E+02   -0.14300E-02   -0.30068E-05   512   0.923E-03    0.406E-03
DAV:  27    -0.497413098887E+02   -0.70963E-03   -0.13000E-05   472   0.515E-03    0.221E-03
DAV:  28    -0.497414621558E+02   -0.15227E-03   -0.49492E-06   504   0.341E-03    0.143E-03
DAV:  29    -0.497414699791E+02   -0.78234E-05   -0.21650E-06   472   0.259E-03
   1 F= -.49741470E+02 E0= -.49741470E+02  d E =-.497415E+02  mag=     1.0008
 curvature:   0.00 expect dE= 0.000E+00 dE for cont linesearch  0.000E+00
 trial: gam= 0.00000 g(F)=  0.147E-01 g(S)=  0.000E+00 ort = 0.000E+00 (trialstep = 0.100E+01)
 search vector abs. value=  0.147E-01
 bond charge predicted
       N       E                     dE             d eps       ncg     rms          rms(c)
DAV:   1    -0.497553672090E+02   -0.13905E-01   -0.98274E-01   760   0.199E+00    0.701E-02
DAV:   2    -0.497558514262E+02   -0.48422E-03   -0.46532E-03   760   0.197E-01    0.532E-02
DAV:   3    -0.497558562476E+02   -0.48214E-05   -0.81733E-05   472   0.302E-02
   2 F= -.49755856E+02 E0= -.49755856E+02  d E =-.143863E-01  mag=     1.0004
 ZBRENT: can't locate minimum, use default step
 trial-energy change:   -0.014386  1 .order   -0.014166   -0.014687   -0.013645
 step:   4.0000(harm= 14.0879)  dis= 0.01201  next Energy=   -49.844927 (dE=-0.103E+00)
 bond charge predicted
       N       E                     dE             d eps       ncg     rms          rms(c)
DAV:   1    -0.497905087243E+02   -0.34657E-01   -0.88644E+00   740   0.599E+00    0.208E-01
DAV:   2    -0.497946150755E+02   -0.41064E-02   -0.41723E-02   772   0.590E-01    0.161E-01
DAV:   3    -0.497945589738E+02    0.56102E-04   -0.79029E-04   784   0.894E-02
   3 F= -.49794559E+02 E0= -.49794559E+02  d E =-.530890E-01  mag=     1.0003
 curvature:  -2.86 expect dE=-0.270E-01 dE for cont linesearch -0.265E-01
 ZBRENT: increasing intervall
 opt :  10.0000  next Energy=   -49.852640 (dE=-0.111E+00)
 bond charge predicted
       N       E                     dE             d eps       ncg     rms          rms(c)
DAV:   1    -0.498372149431E+02   -0.42600E-01   -0.35479E+01   720   0.120E+01    0.400E-01
DAV:   2    -0.498537400172E+02   -0.16525E-01   -0.16641E-01   744   0.118E+00    0.324E-01
DAV:   3    -0.498535583883E+02    0.18163E-03   -0.30770E-03   784   0.173E-01    0.213E-01
DAV:   4    -0.498532184086E+02    0.33998E-03   -0.13923E-03   760   0.869E-02    0.564E-02
DAV:   5    -0.498532330901E+02   -0.14681E-04   -0.60620E-05   488   0.252E-02
   4 F= -.49853233E+02 E0= -.49853233E+02  d E =-.111763E+00  mag=     1.0001
 curvature:  -6.27 expect dE=-0.323E-01 dE for cont linesearch -0.266E-01
 ZBRENT: increasing intervall
 opt :  22.0000  next Energy=   -49.902667 (dE=-0.161E+00)
 bond charge predicted
       N       E                     dE             d eps       ncg     rms          rms(c)
DAV:   1    -0.498376286080E+02    0.15590E-01   -0.14223E+02   720   0.240E+01    0.689E-01
DAV:   2    -0.499023676631E+02   -0.64739E-01   -0.65901E-01   752   0.235E+00    0.617E-01
DAV:   3    -0.499019801300E+02    0.38753E-03   -0.11704E-02   756   0.329E-01    0.434E-01
DAV:   4    -0.499003891764E+02    0.15910E-02   -0.47499E-03   756   0.159E-01    0.175E-01
DAV:   5    -0.499004574971E+02   -0.68321E-04   -0.75068E-04   760   0.677E-02
   5 F= -.49900457E+02 E0= -.49900457E+02  d E =-.158988E+00  mag=     1.0000
 curvature: -11.66 expect dE=-0.412E-01 dE for cont linesearch -0.632E-04
 trial: gam= 0.22134 g(F)=  0.353E-02 g(S)=  0.000E+00 ort = 0.282E-03 (trialstep = 0.520E+01)
 search vector abs. value=  0.438E-02
 bond charge predicted
       N       E                     dE             d eps       ncg     rms          rms(c)
DAV:   1    -0.499120929271E+02   -0.11704E-01   -0.79403E+00   724   0.567E+00    0.171E-01
DAV:   2    -0.499158440200E+02   -0.37511E-02   -0.37939E-02   776   0.551E-01    0.131E-01
DAV:   3    -0.499158163209E+02    0.27699E-04   -0.67146E-04   776   0.752E-02
   6 F= -.49915816E+02 E0= -.49915816E+02  d E =-.153588E-01  mag=     1.0000
 trial-energy change:   -0.015359  1 .order   -0.015196   -0.018697   -0.011694
 step:  13.8832(harm= 13.8832)  dis= 0.02951  next Energy=   -49.925417 (dE=-0.250E-01)
 bond charge predicted
       N       E                     dE             d eps       ncg     rms          rms(c)
DAV:   1    -0.499170165551E+02   -0.11725E-02   -0.22210E+01   724   0.949E+00    0.287E-01
DAV:   2    -0.499273117014E+02   -0.10295E-01   -0.10480E-01   768   0.915E-01    0.225E-01
DAV:   3    -0.499271630333E+02    0.14867E-03   -0.18373E-03   800   0.122E-01    0.147E-01
DAV:   4    -0.499269415138E+02    0.22152E-03   -0.83141E-04   768   0.675E-02    0.423E-02
DAV:   5    -0.499269707363E+02   -0.29223E-04   -0.43330E-05   496   0.213E-02
   7 F= -.49926971E+02 E0= -.49926971E+02  d E =-.265132E-01  mag=     1.0000
 curvature:  -8.45 expect dE=-0.114E-01 dE for cont linesearch -0.235E-03
 trial: gam= 0.28937 g(F)=  0.135E-02 g(S)=  0.000E+00 ort = 0.349E-03 (trialstep = 0.694E+01)
 search vector abs. value=  0.192E-02
 bond charge predicted
       N       E                     dE             d eps       ncg     rms          rms(c)
DAV:   1    -0.499330811905E+02   -0.61397E-02   -0.61888E+00   728   0.501E+00    0.998E-02
DAV:   2    -0.499360745604E+02   -0.29934E-02   -0.29323E-02   776   0.485E-01    0.867E-02
DAV:   3    -0.499360531019E+02    0.21458E-04   -0.46158E-04   800   0.605E-02
   8 F= -.49936053E+02 E0= -.49936053E+02  d E =-.908237E-02  mag=     1.0000
 ZBRENT: can't locate minimum, use default step
 trial-energy change:   -0.009082  1 .order   -0.008983   -0.010088   -0.007878
 step:  27.7466(harm= 31.6588)  dis= 0.03057  next Energy=   -49.949993 (dE=-0.230E-01)
 bond charge predicted
       N       E                     dE             d eps       ncg     rms          rms(c)
DAV:   1    -0.499242995900E+02    0.11775E-01   -0.55851E+01   720   0.151E+01    0.325E-01
DAV:   2    -0.499509913859E+02   -0.26692E-01   -0.26385E-01   752   0.146E+00    0.278E-01
DAV:   3    -0.499505748243E+02    0.41656E-03   -0.42059E-03   792   0.182E-01    0.199E-01
DAV:   4    -0.499497244209E+02    0.85040E-03   -0.18843E-03   768   0.944E-02    0.840E-02
DAV:   5    -0.499497473324E+02   -0.22912E-04   -0.54669E-04   792   0.527E-02
   9 F= -.49949747E+02 E0= -.49949747E+02  d E =-.227766E-01  mag=     1.0000
 curvature: -20.39 expect dE=-0.196E-01 dE for cont linesearch -0.569E-03
 trial: gam= 0.64523 g(F)=  0.963E-03 g(S)=  0.000E+00 ort = 0.232E-03 (trialstep = 0.103E+02)
 search vector abs. value=  0.206E-02
 bond charge predicted
       N       E                     dE             d eps       ncg     rms          rms(c)
DAV:   1    -0.499515512191E+02   -0.18268E-02   -0.14791E+01   720   0.773E+00    0.150E-01
DAV:   2    -0.499587685739E+02   -0.72174E-02   -0.70990E-02   760   0.752E-01    0.137E-01
DAV:   3    -0.499587065314E+02    0.62043E-04   -0.10945E-03   792   0.921E-02    0.997E-02
DAV:   4    -0.499585413370E+02    0.16519E-03   -0.36422E-04   664   0.420E-02    0.524E-02
DAV:   5    -0.499585917424E+02   -0.50405E-04   -0.24749E-04   552   0.370E-02
  10 F= -.49958592E+02 E0= -.49958592E+02  d E =-.884441E-02  mag=     1.0000
 trial-energy change:   -0.008844  1 .order   -0.009158   -0.011505   -0.006812
 step:  25.3642(harm= 25.3642)  dis= 0.02590  next Energy=   -49.963849 (dE=-0.141E-01)
 bond charge predicted
       N       E                     dE             d eps       ncg     rms          rms(c)
DAV:   1    -0.499475827562E+02    0.10959E-01   -0.31180E+01   720   0.112E+01    0.223E-01
DAV:   2    -0.499626502101E+02   -0.15067E-01   -0.14918E-01   756   0.109E+00    0.200E-01
DAV:   3    -0.499624585210E+02    0.19169E-03   -0.23105E-03   784   0.134E-01    0.145E-01
DAV:   4    -0.499620135380E+02    0.44498E-03   -0.86758E-04   768   0.636E-02    0.717E-02
DAV:   5    -0.499620249203E+02   -0.11382E-04   -0.42928E-04   776   0.464E-02
  11 F= -.49962025E+02 E0= -.49962025E+02  d E =-.122776E-01  mag=     1.0000
 curvature: -23.51 expect dE=-0.245E-01 dE for cont linesearch -0.114E-03
 trial: gam= 1.31212 g(F)=  0.104E-02 g(S)=  0.000E+00 ort =-0.100E-03 (trialstep = 0.636E+01)
 search vector abs. value=  0.433E-02
 bond charge predicted
       N       E                     dE             d eps       ncg     rms          rms(c)
DAV:   1    -0.499611676581E+02    0.84588E-03   -0.11724E+01   720   0.686E+00    0.110E-01
DAV:   2    -0.499669519652E+02   -0.57843E-02   -0.56293E-02   756   0.673E-01    0.119E-01
DAV:   3    -0.499669242548E+02    0.27710E-04   -0.86075E-04   800   0.818E-02
  12 F= -.49966924E+02 E0= -.49966924E+02  d E =-.489933E-02  mag=     1.0000
 trial-energy change:   -0.004899  1 .order   -0.004937   -0.005780   -0.004093
 step:  21.7862(harm= 21.7862)  dis= 0.03877  next Energy=   -49.971923 (dE=-0.990E-02)
 bond charge predicted
       N       E                     dE             d eps       ncg     rms          rms(c)
DAV:   1    -0.499397803695E+02    0.27172E-01   -0.69197E+01   720   0.167E+01    0.290E-01
DAV:   2    -0.499729738198E+02   -0.33193E-01   -0.32740E-01   760   0.163E+00    0.321E-01
DAV:   3    -0.499726114653E+02    0.36235E-03   -0.50009E-03   800   0.196E-01    0.254E-01
DAV:   4    -0.499712229702E+02    0.13885E-02   -0.17264E-03   744   0.890E-02    0.158E-01
DAV:   5    -0.499709665859E+02    0.25638E-03   -0.24263E-03   776   0.104E-01    0.620E-02
DAV:   6    -0.499710064043E+02   -0.39818E-04   -0.46842E-05   472   0.157E-02
  13 F= -.49971006E+02 E0= -.49971006E+02  d E =-.898148E-02  mag=     1.0000
 curvature: -51.86 expect dE=-0.360E-01 dE for cont linesearch -0.233E-04
 trial: gam= 0.14664 g(F)=  0.693E-03 g(S)=  0.000E+00 ort = 0.441E-04 (trialstep = 0.945E+01)
 search vector abs. value=  0.799E-03
 bond charge predicted
       N       E                     dE             d eps       ncg     rms          rms(c)
DAV:   1    -0.499738465601E+02   -0.28800E-02   -0.47895E+00   728   0.441E+00    0.101E-01
DAV:   2    -0.499761672633E+02   -0.23207E-02   -0.22829E-02   768   0.425E-01    0.869E-02
DAV:   3    -0.499761573825E+02    0.98808E-05   -0.33796E-04   592   0.521E-02
  14 F= -.49976157E+02 E0= -.49976157E+02  d E =-.515098E-02  mag=     1.0000
 trial-energy change:   -0.005151  1 .order   -0.004557   -0.006610   -0.002504
 step:  12.1670(harm= 15.2092)  dis= 0.00862  next Energy=   -49.976532 (dE=-0.553E-02)
 bond charge predicted
       N       E                     dE             d eps       ncg     rms          rms(c)
DAV:   1    -0.499768527315E+02   -0.68547E-03   -0.40397E-01   760   0.129E+00    0.445E-02
DAV:   2    -0.499770526577E+02   -0.19993E-03   -0.18520E-03   800   0.120E-01    0.340E-02
DAV:   3    -0.499770609429E+02   -0.82852E-05   -0.29486E-05   472   0.147E-02
  15 F= -.49977061E+02 E0= -.49977061E+02  d E =-.605454E-02  mag=     1.0000
 curvature:  -6.27 expect dE=-0.155E-02 dE for cont linesearch -0.458E-03
 trial: gam= 0.00347 g(F)=  0.248E-03 g(S)=  0.000E+00 ort = 0.242E-03 (trialstep = 0.999E+01)
 search vector abs. value=  0.249E-03
 bond charge predicted
       N       E                     dE             d eps       ncg     rms          rms(c)
DAV:   1    -0.499784688128E+02   -0.14162E-02   -0.16713E+00   752   0.260E+00    0.558E-02
DAV:   2    -0.499792759768E+02   -0.80716E-03   -0.79137E-03   792   0.252E-01    0.511E-02
DAV:   3    -0.499792748592E+02    0.11176E-05   -0.11473E-04   456   0.318E-02
  16 F= -.49979275E+02 E0= -.49979275E+02  d E =-.221392E-02  mag=     1.0000
 trial-energy change:   -0.002214  1 .order   -0.001859   -0.002483   -0.001236
 step:  19.8968(harm= 19.8968)  dis= 0.00826  next Energy=   -49.979533 (dE=-0.247E-02)
 bond charge predicted
       N       E                     dE             d eps       ncg     rms          rms(c)
DAV:   1    -0.499798062937E+02   -0.53032E-03   -0.16500E+00   744   0.259E+00    0.638E-02
DAV:   2    -0.499805772435E+02   -0.77095E-03   -0.76673E-03   800   0.248E-01    0.575E-02
DAV:   3    -0.499805683944E+02    0.88490E-05   -0.11011E-04   464   0.308E-02
  17 F= -.49980568E+02 E0= -.49980568E+02  d E =-.350745E-02  mag=     1.0000
 curvature:  -9.98 expect dE=-0.191E-02 dE for cont linesearch -0.619E-04
 trial: gam= 0.61711 g(F)=  0.191E-03 g(S)=  0.000E+00 ort = 0.393E-04 (trialstep = 0.892E+01)
 search vector abs. value=  0.335E-03
 bond charge predicted
       N       E                     dE             d eps       ncg     rms          rms(c)
DAV:   1    -0.499815520560E+02   -0.97481E-03   -0.17911E+00   752   0.270E+00    0.521E-02
DAV:   2    -0.499824055764E+02   -0.85352E-03   -0.83387E-03   784   0.259E-01    0.512E-02
DAV:   3    -0.499823993230E+02    0.62534E-05   -0.11493E-04   464   0.314E-02
  18 F= -.49982399E+02 E0= -.49982399E+02  d E =-.183093E-02  mag=     1.0000
 trial-energy change:   -0.001831  1 .order   -0.001431   -0.001922   -0.000939
 step:  11.0344(harm= 17.4357)  dis= 0.00616  next Energy=   -49.982516 (dE=-0.195E-02)
 bond charge predicted
       N       E                     dE             d eps       ncg     rms          rms(c)
DAV:   1    -0.499826509775E+02   -0.24540E-03   -0.10288E-01   760   0.648E-01    0.239E-02
DAV:   2    -0.499826953848E+02   -0.44407E-04   -0.43920E-04   728   0.598E-02
  19 F= -.49982695E+02 E0= -.49982695E+02  d E =-.212699E-02  mag=     1.0000
 curvature:  -5.89 expect dE=-0.383E-03 dE for cont linesearch -0.190E-03
 trial: gam= 0.07486 g(F)=  0.650E-04 g(S)=  0.000E+00 ort = 0.104E-03 (trialstep = 0.934E+01)
 search vector abs. value=  0.824E-04
 reached required accuracy - stopping structural energy minimisation
Application 90962326 resources: utime ~14997s, stime ~106s, Rss ~82944, inblocks ~81607, outblocks ~151334
