       N       E                     dE             d eps       ncg     rms          rms(c)
DAV:   1     0.343554623188E+04    0.34355E+04   -0.78692E+04  1040   0.612E+02
DAV:   2     0.618223046599E+03   -0.28173E+04   -0.25474E+04  1704   0.161E+02
DAV:   3    -0.457157070827E+02   -0.66394E+03   -0.60894E+03  1288   0.856E+01
DAV:   4    -0.754051878436E+02   -0.29689E+02   -0.29415E+02  1128   0.194E+01
DAV:   5    -0.758295071515E+02   -0.42432E+00   -0.42369E+00  1160   0.271E+00    0.402E+01
DAV:   6    -0.300985928233E+02    0.45731E+02   -0.13694E+02  1032   0.165E+01    0.223E+01
DAV:   7    -0.214994913590E+02    0.85991E+01   -0.95435E+00  1080   0.575E+00    0.127E+01
DAV:   8    -0.195321124859E+02    0.19674E+01   -0.25891E+00  1064   0.297E+00    0.607E+00
DAV:   9    -0.236816822667E+02   -0.41496E+01   -0.71040E-01  1112   0.127E+00    0.381E+00
DAV:  10    -0.345166448216E+02   -0.10835E+02   -0.28362E+00  1048   0.228E+00    0.356E+00
DAV:  11    -0.405249740061E+02   -0.60083E+01   -0.15972E+00  1088   0.209E+00    0.339E+00
DAV:  12    -0.440393703323E+02   -0.35144E+01   -0.77607E-01  1096   0.140E+00    0.351E+00
DAV:  13    -0.448866498893E+02   -0.84728E+00   -0.96360E-02  1168   0.604E-01    0.324E+00
DAV:  14    -0.549832986935E+02   -0.10097E+02   -0.54755E+00  1056   0.345E+00    0.191E+00
DAV:  15    -0.627893855119E+02   -0.78061E+01   -0.35262E+00  1056   0.187E+00    0.139E+00
DAV:  16    -0.658998566345E+02   -0.31105E+01   -0.57953E-01  1072   0.872E-01    0.111E+00
DAV:  17    -0.698234379249E+02   -0.39236E+01   -0.81807E-01  1064   0.111E+00    0.850E-01
DAV:  18    -0.717233017994E+02   -0.18999E+01   -0.30922E-01  1056   0.643E-01    0.549E-01
DAV:  19    -0.727221355508E+02   -0.99883E+00   -0.86997E-02  1064   0.606E-01    0.371E-01
DAV:  20    -0.731666120794E+02   -0.44448E+00   -0.18335E-02  1096   0.238E-01    0.242E-01
DAV:  21    -0.734882702583E+02   -0.32166E+00   -0.11678E-02  1072   0.201E-01    0.140E-01
DAV:  22    -0.736698814605E+02   -0.18161E+00   -0.46666E-03  1072   0.971E-02    0.846E-02
DAV:  23    -0.737403749188E+02   -0.70493E-01   -0.17617E-03   888   0.551E-02    0.565E-02
DAV:  24    -0.737529569417E+02   -0.12582E-01   -0.93943E-04   800   0.488E-02    0.365E-02
DAV:  25    -0.737581550565E+02   -0.51981E-02   -0.48399E-04   728   0.355E-02    0.247E-02
DAV:  26    -0.737635497545E+02   -0.53947E-02   -0.27532E-04   680   0.188E-02    0.139E-02
DAV:  27    -0.737672786745E+02   -0.37289E-02   -0.17431E-04   720   0.171E-02    0.109E-02
DAV:  28    -0.737689457503E+02   -0.16671E-02   -0.25586E-05   728   0.741E-03    0.787E-03
DAV:  29    -0.737702913792E+02   -0.13456E-02   -0.19124E-05   696   0.673E-03    0.528E-03
DAV:  30    -0.737705934703E+02   -0.30209E-03   -0.95314E-06   720   0.608E-03    0.265E-03
DAV:  31    -0.737705997155E+02   -0.62451E-05   -0.18176E-06   656   0.277E-03
   1 F= -.73770600E+02 E0= -.73770600E+02  d E =-.737706E+02  mag=     2.0017
       N       E                     dE             d eps       ncg     rms          rms(c)
DAV:   1    -0.742438450437E+02   -0.47325E+00   -0.36111E+01  1048   0.102E+01    0.900E-01
DAV:   2    -0.742601475205E+02   -0.16302E-01   -0.17333E-01  1072   0.980E-01    0.644E-01
DAV:   3    -0.742593577875E+02    0.78973E-03   -0.61401E-03  1080   0.193E-01    0.242E-01
DAV:   4    -0.742592692136E+02    0.88574E-04   -0.65749E-04  1104   0.105E-01
   2 F= -.74259269E+02 E0= -.74259269E+02  d E =-.488669E+00  mag=     2.0008
       N       E                     dE             d eps       ncg     rms          rms(c)
DAV:   1    -0.751345659041E+02   -0.87521E+00   -0.32679E+02  1024   0.309E+01    0.222E+00
DAV:   2    -0.752794650620E+02   -0.14490E+00   -0.15320E+00  1088   0.295E+00    0.171E+00
DAV:   3    -0.752741656356E+02    0.52994E-02   -0.38501E-02  1088   0.485E-01    0.846E-01
DAV:   4    -0.752732477982E+02    0.91784E-03   -0.92253E-03  1096   0.273E-01    0.103E-01
DAV:   5    -0.752728937121E+02    0.35409E-03   -0.11767E-03  1088   0.866E-02    0.640E-02
DAV:   6    -0.752729156721E+02   -0.21960E-04   -0.51195E-04  1112   0.371E-02
   3 F= -.75272916E+02 E0= -.75272916E+02  d E =-.150232E+01  mag=     2.0003
       N       E                     dE             d eps       ncg     rms          rms(c)
DAV:   1    -0.751287197609E+02    0.14417E+00   -0.13327E+03  1024   0.633E+01    0.329E+00
DAV:   2    -0.755900875167E+02   -0.46137E+00   -0.64322E+00  1088   0.635E+00    0.313E+00
DAV:   3    -0.756471156217E+02   -0.57028E-01   -0.15065E-01  1088   0.123E+00    0.212E+00
DAV:   4    -0.756881250399E+02   -0.41009E-01   -0.77371E-02  1072   0.734E-01    0.144E+00
DAV:   5    -0.756482970086E+02    0.39828E-01   -0.62979E-02  1040   0.101E+00    0.872E-01
DAV:   6    -0.756738917880E+02   -0.25595E-01   -0.11410E-02  1040   0.527E-01    0.329E-01
DAV:   7    -0.756921449386E+02   -0.18253E-01   -0.42161E-03  1096   0.193E-01    0.100E+00
DAV:   8    -0.756828456511E+02    0.92993E-02   -0.16555E-03  1048   0.138E-01    0.928E-01
DAV:   9    -0.756722749120E+02    0.10571E-01   -0.99933E-04  1096   0.896E-02    0.870E-01
DAV:  10    -0.756581980092E+02    0.14077E-01   -0.13635E-03  1096   0.115E-01    0.786E-01
DAV:  11    -0.756531793508E+02    0.50187E-02   -0.52398E-04   856   0.675E-02    0.733E-01
DAV:  12    -0.756483728153E+02    0.48065E-02   -0.37536E-03  1056   0.195E-01    0.576E-01
DAV:  13    -0.756414043695E+02    0.69684E-02   -0.92348E-03  1104   0.244E-01    0.366E-01
DAV:  14    -0.756384218521E+02    0.29825E-02   -0.60872E-04  1120   0.603E-02    0.376E-01
DAV:  15    -0.756394889430E+02   -0.10671E-02   -0.63821E-05   656   0.636E-03    0.380E-01
DAV:  16    -0.756383840896E+02    0.11049E-02   -0.58127E-05   664   0.100E-02    0.377E-01
DAV:  17    -0.756721094838E+02   -0.33725E-01   -0.30254E-02  1048   0.122E-01    0.332E-01
DAV:  18    -0.756873328569E+02   -0.15223E-01   -0.10390E-02  1128   0.972E-02    0.203E-01
DAV:  19    -0.756881467486E+02   -0.81389E-03   -0.84911E-05   752   0.197E-02    0.199E-01
DAV:  20    -0.757002261759E+02   -0.12079E-01   -0.13029E-03  1048   0.420E-02    0.140E-01
DAV:  21    -0.757122010998E+02   -0.11975E-01   -0.13351E-03  1080   0.613E-02    0.107E-01
DAV:  22    -0.757139720550E+02   -0.17710E-02   -0.21565E-04   736   0.512E-02    0.636E-02
DAV:  23    -0.757173690569E+02   -0.33970E-02   -0.12089E-04   712   0.134E-02    0.666E-02
DAV:  24    -0.757199826690E+02   -0.26136E-02   -0.78639E-04   744   0.481E-02    0.194E-02
DAV:  25    -0.757220712063E+02   -0.20885E-02   -0.83565E-05   712   0.134E-02    0.825E-03
DAV:  26    -0.757234424032E+02   -0.13712E-02   -0.43485E-05   720   0.938E-03    0.114E-02
DAV:  27    -0.757242257952E+02   -0.78339E-03   -0.20907E-05   704   0.787E-03    0.605E-03
DAV:  28    -0.757245512791E+02   -0.32548E-03   -0.85523E-06   720   0.311E-03    0.448E-03
DAV:  29    -0.757247072644E+02   -0.15599E-03   -0.29718E-06   696   0.186E-03    0.453E-03
DAV:  30    -0.757248312558E+02   -0.12399E-03   -0.66168E-06   688   0.352E-03    0.231E-03
DAV:  31    -0.757248781446E+02   -0.46889E-04   -0.20870E-06   696   0.192E-03
   4 F= -.75724878E+02 E0= -.75724878E+02  d E =-.195428E+01  mag=     0.0011
       N       E                     dE             d eps       ncg     rms          rms(c)
DAV:   1    -0.757496919117E+02   -0.24861E-01   -0.67644E+01  1032   0.139E+01    0.722E-01
DAV:   2    -0.757810838538E+02   -0.31392E-01   -0.33552E-01  1072   0.137E+00    0.486E-01
DAV:   3    -0.757803521861E+02    0.73167E-03   -0.70315E-03  1104   0.201E-01    0.279E-01
DAV:   4    -0.757801406590E+02    0.21153E-03   -0.21421E-03  1088   0.109E-01    0.583E-02
DAV:   5    -0.757801270445E+02    0.13614E-04   -0.12260E-04   696   0.335E-02
   5 F= -.75780127E+02 E0= -.75780127E+02  d E =-.200953E+01  mag=     0.0005
       N       E                     dE             d eps       ncg     rms          rms(c)
DAV:   1    -0.760026758355E+02   -0.22254E+00   -0.62512E+01  1024   0.133E+01    0.843E-01
DAV:   2    -0.760290005659E+02   -0.26325E-01   -0.26977E-01  1048   0.124E+00    0.524E-01
DAV:   3    -0.760276628498E+02    0.13377E-02   -0.68465E-03  1104   0.265E-01    0.327E-01
DAV:   4    -0.760275081477E+02    0.15470E-03   -0.34187E-03  1096   0.130E-01    0.811E-02
DAV:   5    -0.760273660406E+02    0.14211E-03   -0.44661E-04   968   0.425E-02    0.259E-02
DAV:   6    -0.760273809045E+02   -0.14864E-04   -0.87775E-05   720   0.175E-02
   6 F= -.76027381E+02 E0= -.76027381E+02  d E =-.247254E+00  mag=     0.0002
       N       E                     dE             d eps       ncg     rms          rms(c)
DAV:   1    -0.761126961583E+02   -0.85330E-01   -0.46399E+02  1024   0.367E+01    0.181E+00
DAV:   2    -0.763148977209E+02   -0.20220E+00   -0.20784E+00  1064   0.350E+00    0.116E+00
DAV:   3    -0.763080408784E+02    0.68568E-02   -0.42685E-02  1080   0.694E-01    0.857E-01
DAV:   4    -0.763047060588E+02    0.33348E-02   -0.28964E-02  1088   0.303E-01    0.139E-01
DAV:   5    -0.763040037512E+02    0.70231E-03   -0.20270E-03  1080   0.135E-01    0.701E-02
DAV:   6    -0.763040743449E+02   -0.70594E-04   -0.58335E-04  1104   0.441E-02
   7 F= -.76304074E+02 E0= -.76304074E+02  d E =-.523947E+00  mag=     0.0001
       N       E                     dE             d eps       ncg     rms          rms(c)
DAV:   1    -0.763530001950E+02   -0.48996E-01   -0.19268E+01  1024   0.746E+00    0.322E-01
DAV:   2    -0.763615631934E+02   -0.85630E-02   -0.87718E-02  1088   0.707E-01    0.243E-01
DAV:   3    -0.763613643716E+02    0.19882E-03   -0.16981E-03  1104   0.995E-02    0.148E-01
DAV:   4    -0.763613242614E+02    0.40110E-04   -0.80130E-04  1064   0.566E-02
   8 F= -.76361324E+02 E0= -.76361324E+02  d E =-.572499E-01  mag=     0.0000
       N       E                     dE             d eps       ncg     rms          rms(c)
DAV:   1    -0.763615264717E+02   -0.16210E-03   -0.16066E+02  1024   0.216E+01    0.836E-01
DAV:   2    -0.764327624844E+02   -0.71236E-01   -0.73482E-01  1072   0.205E+00    0.655E-01
DAV:   3    -0.764311919610E+02    0.15705E-02   -0.13314E-02  1112   0.279E-01    0.426E-01
DAV:   4    -0.764295414805E+02    0.16505E-02   -0.63058E-03  1072   0.157E-01    0.112E-01
DAV:   5    -0.764295849945E+02   -0.43514E-04   -0.26004E-04   736   0.476E-02
   9 F= -.76429585E+02 E0= -.76429585E+02  d E =-.125511E+00  mag=     0.0000
       N       E                     dE             d eps       ncg     rms          rms(c)
DAV:   1    -0.764450112223E+02   -0.15470E-01   -0.13245E+01  1024   0.619E+00    0.155E-01
DAV:   2    -0.764510233734E+02   -0.60122E-02   -0.59936E-02  1096   0.584E-01    0.130E-01
DAV:   3    -0.764509395139E+02    0.83860E-04   -0.96271E-04  1104   0.758E-02
  10 F= -.76450940E+02 E0= -.76450940E+02  d E =-.213545E-01  mag=     0.0000
       N       E                     dE             d eps       ncg     rms          rms(c)
DAV:   1    -0.764357887233E+02    0.15235E-01   -0.11978E+02  1024   0.187E+01    0.463E-01
DAV:   2    -0.764892213189E+02   -0.53433E-01   -0.53529E-01  1080   0.175E+00    0.416E-01
DAV:   3    -0.764881894873E+02    0.10318E-02   -0.84350E-03  1128   0.220E-01    0.312E-01
DAV:   4    -0.764860435641E+02    0.21459E-02   -0.44837E-03  1088   0.117E-01    0.135E-01
DAV:   5    -0.764857199852E+02    0.32358E-03   -0.18393E-03  1104   0.769E-02    0.522E-02
DAV:   6    -0.764857205099E+02   -0.52471E-06   -0.14095E-04   680   0.222E-02
  11 F= -.76485721E+02 E0= -.76485721E+02  d E =-.561355E-01  mag=     0.0000
       N       E                     dE             d eps       ncg     rms          rms(c)
DAV:   1    -0.764802182873E+02    0.55017E-02   -0.19907E+01  1024   0.759E+00    0.179E-01
DAV:   2    -0.764892779629E+02   -0.90597E-02   -0.89770E-02  1088   0.715E-01    0.157E-01
DAV:   3    -0.764891797455E+02    0.98217E-04   -0.14303E-03  1128   0.914E-02    0.117E-01
DAV:   4    -0.764890287695E+02    0.15098E-03   -0.65488E-04  1048   0.432E-02    0.556E-02
DAV:   5    -0.764891897182E+02   -0.16095E-03   -0.42696E-04   744   0.343E-02    0.199E-02
DAV:   6    -0.764893203566E+02   -0.13064E-03   -0.57095E-05   688   0.140E-02    0.152E-02
DAV:   7    -0.764894996159E+02   -0.17926E-03   -0.45788E-05   672   0.708E-03    0.858E-03
DAV:   8    -0.764897154204E+02   -0.21580E-03   -0.50201E-05   680   0.555E-03    0.629E-03
DAV:   9    -0.764901470986E+02   -0.43168E-03   -0.18072E-04   704   0.829E-03    0.585E-03
DAV:  10    -0.764905033316E+02   -0.35623E-03   -0.11438E-04   728   0.614E-03    0.475E-03
DAV:  11    -0.764908400251E+02   -0.33669E-03   -0.11206E-04   704   0.585E-03    0.255E-03
DAV:  12    -0.764910896992E+02   -0.24967E-03   -0.75877E-05   712   0.486E-03    0.164E-03
DAV:  13    -0.764911950735E+02   -0.10537E-03   -0.12072E-05   704   0.227E-03    0.105E-03
DAV:  14    -0.764912753402E+02   -0.80267E-04   -0.55160E-06   696   0.159E-03
  12 F= -.76491275E+02 E0= -.76491275E+02  d E =-.616903E-01  mag=    -0.0000
       N       E                     dE             d eps       ncg     rms          rms(c)
DAV:   1    -0.765031995762E+02   -0.12005E-01   -0.19121E+01  1024   0.744E+00    0.146E-01
DAV:   2    -0.765116765428E+02   -0.84770E-02   -0.85058E-02  1088   0.699E-01    0.145E-01
DAV:   3    -0.765115630240E+02    0.11352E-03   -0.13408E-03  1104   0.904E-02    0.110E-01
DAV:   4    -0.765113190467E+02    0.24398E-03   -0.27903E-04   728   0.335E-02    0.701E-02
DAV:   5    -0.765112709792E+02    0.48067E-04   -0.67125E-04  1088   0.503E-02
  13 F= -.76511271E+02 E0= -.76511271E+02  d E =-.199956E-01  mag=    -0.0000
       N       E                     dE             d eps       ncg     rms          rms(c)
DAV:   1    -0.764747730574E+02    0.36546E-01   -0.17275E+02  1024   0.224E+01    0.445E-01
DAV:   2    -0.765518281467E+02   -0.77055E-01   -0.77144E-01  1088   0.211E+00    0.437E-01
DAV:   3    -0.765508494451E+02    0.97870E-03   -0.12018E-02  1096   0.267E-01    0.330E-01
DAV:   4    -0.765486806007E+02    0.21688E-02   -0.25940E-03  1096   0.979E-02    0.206E-01
DAV:   5    -0.765481087703E+02    0.57183E-03   -0.44532E-03  1048   0.124E-01    0.637E-02
DAV:   6    -0.765481174452E+02   -0.86749E-05   -0.59164E-05   672   0.207E-02
  14 F= -.76548117E+02 E0= -.76548117E+02  d E =-.568421E-01  mag=    -0.0000
       N       E                     dE             d eps       ncg     rms          rms(c)
DAV:   1    -0.762108211444E+02    0.33729E+00   -0.70025E+02  1024   0.455E+01    0.104E+00
DAV:   2    -0.765291790323E+02   -0.31836E+00   -0.31863E+00  1088   0.432E+00    0.904E-01
DAV:   3    -0.765245270753E+02    0.46520E-02   -0.49487E-02  1104   0.539E-01    0.658E-01
DAV:   4    -0.765161752686E+02    0.83518E-02   -0.10697E-02  1104   0.196E-01    0.401E-01
DAV:   5    -0.765141603461E+02    0.20149E-02   -0.12313E-02  1056   0.202E-01    0.117E-01
DAV:   6    -0.765142610633E+02   -0.10072E-03   -0.16293E-04   744   0.314E-02    0.705E-02
DAV:   7    -0.765143250859E+02   -0.64023E-04   -0.99203E-05   672   0.236E-02
  15 F= -.76514325E+02 E0= -.76514325E+02  d E =-.230497E-01  mag=    -0.0000
       N       E                     dE             d eps       ncg     rms          rms(c)
DAV:   1    -0.764073117851E+02    0.10695E+00   -0.33534E+02  1024   0.313E+01    0.724E-01
DAV:   2    -0.765602877832E+02   -0.15298E+00   -0.15315E+00  1088   0.297E+00    0.583E-01
DAV:   3    -0.765577299395E+02    0.25578E-02   -0.23968E-02  1104   0.377E-01    0.420E-01
DAV:   4    -0.765536494725E+02    0.40805E-02   -0.62954E-03  1088   0.146E-01    0.222E-01
DAV:   5    -0.765530952072E+02    0.55427E-03   -0.50006E-03  1056   0.129E-01    0.646E-02
DAV:   6    -0.765530901095E+02    0.50977E-05   -0.11853E-04   736   0.255E-02
  16 F= -.76553090E+02 E0= -.76553090E+02  d E =-.618148E-01  mag=    -0.0000
       N       E                     dE             d eps       ncg     rms          rms(c)
DAV:   1    -0.765535574724E+02   -0.46227E-03   -0.68578E+01  1024   0.141E+01    0.318E-01
DAV:   2    -0.765842939843E+02   -0.30737E-01   -0.30912E-01  1072   0.133E+00    0.267E-01
DAV:   3    -0.765837513292E+02    0.54266E-03   -0.48662E-03  1096   0.172E-01    0.196E-01
DAV:   4    -0.765828449369E+02    0.90639E-03   -0.15643E-03  1064   0.711E-02    0.935E-02
DAV:   5    -0.765827887493E+02    0.56188E-04   -0.10267E-03  1088   0.584E-02    0.320E-02
DAV:   6    -0.765827738956E+02    0.14854E-04   -0.37701E-05   656   0.131E-02
  17 F= -.76582774E+02 E0= -.76582774E+02  d E =-.296838E-01  mag=    -0.0000
       N       E                     dE             d eps       ncg     rms          rms(c)
DAV:   1    -0.765514474601E+02    0.31341E-01   -0.12068E+02  1024   0.187E+01    0.449E-01
DAV:   2    -0.766058566324E+02   -0.54409E-01   -0.54731E-01  1072   0.177E+00    0.356E-01
DAV:   3    -0.766048326244E+02    0.10240E-02   -0.86830E-03  1088   0.232E-01    0.255E-01
DAV:   4    -0.766033021748E+02    0.15304E-02   -0.29724E-03  1088   0.988E-02    0.114E-01
DAV:   5    -0.766032527354E+02    0.49439E-04   -0.14529E-03  1072   0.710E-02    0.396E-02
DAV:   6    -0.766032321311E+02    0.20604E-04   -0.66064E-05   656   0.179E-02
  18 F= -.76603232E+02 E0= -.76603232E+02  d E =-.501420E-01  mag=    -0.0000
       N       E                     dE             d eps       ncg     rms          rms(c)
DAV:   1    -0.765936597073E+02    0.95930E-02   -0.27074E+01  1024   0.885E+00    0.203E-01
DAV:   2    -0.766058216692E+02   -0.12162E-01   -0.12191E-01  1088   0.837E-01    0.173E-01
DAV:   3    -0.766056276185E+02    0.19405E-03   -0.19236E-03  1104   0.109E-01    0.127E-01
DAV:   4    -0.766052881000E+02    0.33952E-03   -0.66503E-04  1088   0.465E-02    0.597E-02
DAV:   5    -0.766052886807E+02   -0.58069E-06   -0.38927E-04  1024   0.367E-02
  19 F= -.76605289E+02 E0= -.76605289E+02  d E =-.521986E-01  mag=    -0.0000
       N       E                     dE             d eps       ncg     rms          rms(c)
DAV:   1    -0.765868524487E+02    0.18436E-01   -0.12652E+02  1024   0.192E+01    0.422E-01
DAV:   2    -0.766440753506E+02   -0.57223E-01   -0.57251E-01  1072   0.182E+00    0.364E-01
DAV:   3    -0.766432270358E+02    0.84831E-03   -0.90311E-03  1104   0.233E-01    0.265E-01
DAV:   4    -0.766416237355E+02    0.16033E-02   -0.24575E-03  1088   0.896E-02    0.139E-01
DAV:   5    -0.766414455635E+02    0.17817E-03   -0.21549E-03  1056   0.828E-02    0.449E-02
DAV:   6    -0.766414382846E+02    0.72789E-05   -0.57256E-05   640   0.149E-02
  20 F= -.76641438E+02 E0= -.76641438E+02  d E =-.361496E-01  mag=    -0.0000
       N       E                     dE             d eps       ncg     rms          rms(c)
DAV:   1    -0.765512422544E+02    0.90203E-01   -0.24706E+02  1024   0.268E+01    0.637E-01
DAV:   2    -0.766633769211E+02   -0.11213E+00   -0.11258E+00  1072   0.255E+00    0.515E-01
DAV:   3    -0.766614195136E+02    0.19574E-02   -0.17976E-02  1104   0.334E-01    0.366E-01
DAV:   4    -0.766582355200E+02    0.31840E-02   -0.52108E-03  1088   0.131E-01    0.182E-01
DAV:   5    -0.766579274890E+02    0.30803E-03   -0.34536E-03  1056   0.106E-01    0.571E-02
DAV:   6    -0.766579158362E+02    0.11653E-04   -0.10469E-04   672   0.220E-02
  21 F= -.76657916E+02 E0= -.76657916E+02  d E =-.526272E-01  mag=    -0.0000
       N       E                     dE             d eps       ncg     rms          rms(c)
DAV:   1    -0.766199075753E+02    0.38020E-01   -0.16523E+02  1024   0.219E+01    0.440E-01
DAV:   2    -0.766941624481E+02   -0.74255E-01   -0.74228E-01  1104   0.207E+00    0.420E-01
DAV:   3    -0.766931214205E+02    0.10410E-02   -0.11111E-02  1120   0.257E-01    0.314E-01
DAV:   4    -0.766909361381E+02    0.21853E-02   -0.25838E-03  1104   0.924E-02    0.187E-01
DAV:   5    -0.766903926120E+02    0.54353E-03   -0.38508E-03  1040   0.110E-01    0.575E-02
DAV:   6    -0.766904082263E+02   -0.15614E-04   -0.55881E-05   656   0.156E-02
  22 F= -.76690408E+02 E0= -.76690408E+02  d E =-.324924E-01  mag=    -0.0000
       N       E                     dE             d eps       ncg     rms          rms(c)
DAV:   1    -0.766233094141E+02    0.67083E-01   -0.17608E+02  1024   0.226E+01    0.463E-01
DAV:   2    -0.767023904593E+02   -0.79081E-01   -0.79152E-01  1104   0.214E+00    0.434E-01
DAV:   3    -0.767011813248E+02    0.12091E-02   -0.11867E-02  1104   0.266E-01    0.322E-01
DAV:   4    -0.766988263945E+02    0.23549E-02   -0.28822E-03  1088   0.973E-02    0.188E-01
DAV:   5    -0.766982949168E+02    0.53148E-03   -0.38686E-03  1040   0.111E-01    0.578E-02
DAV:   6    -0.766983086906E+02   -0.13774E-04   -0.60329E-05   656   0.163E-02
  23 F= -.76698309E+02 E0= -.76698309E+02  d E =-.403929E-01  mag=    -0.0000
       N       E                     dE             d eps       ncg     rms          rms(c)
DAV:   1    -0.766356614043E+02    0.62634E-01   -0.23035E+02  1024   0.259E+01    0.522E-01
DAV:   2    -0.767381648897E+02   -0.10250E+00   -0.10277E+00  1088   0.243E+00    0.521E-01
DAV:   3    -0.767367325158E+02    0.14324E-02   -0.15904E-02  1104   0.302E-01    0.402E-01
DAV:   4    -0.767334170241E+02    0.33155E-02   -0.37382E-03  1072   0.112E-01    0.242E-01
DAV:   5    -0.767325013492E+02    0.91567E-03   -0.57403E-03  1040   0.137E-01    0.736E-02
DAV:   6    -0.767325393229E+02   -0.37974E-04   -0.69905E-05   672   0.214E-02
  24 F= -.76732539E+02 E0= -.76732539E+02  d E =-.342306E-01  mag=    -0.0000
       N       E                     dE             d eps       ncg     rms          rms(c)
DAV:   1    -0.766869069377E+02    0.45594E-01   -0.11921E+02  1024   0.186E+01    0.364E-01
DAV:   2    -0.767398007454E+02   -0.52894E-01   -0.53102E-01  1088   0.175E+00    0.368E-01
DAV:   3    -0.767390829814E+02    0.71776E-03   -0.81859E-03  1104   0.217E-01    0.285E-01
DAV:   4    -0.767373790656E+02    0.17039E-02   -0.19592E-03  1072   0.809E-02    0.171E-01
DAV:   5    -0.767369526275E+02    0.42644E-03   -0.31533E-03  1056   0.101E-01    0.547E-02
DAV:   6    -0.767369686433E+02   -0.16016E-04   -0.40875E-05   656   0.149E-02
  25 F= -.76736969E+02 E0= -.76736969E+02  d E =-.386600E-01  mag=    -0.0000
       N       E                     dE             d eps       ncg     rms          rms(c)
DAV:   1    -0.767085300999E+02    0.28423E-01   -0.15815E+02  1024   0.214E+01    0.412E-01
DAV:   2    -0.767790541396E+02   -0.70524E-01   -0.69864E-01  1088   0.198E+00    0.421E-01
DAV:   3    -0.767781165560E+02    0.93758E-03   -0.10152E-02  1104   0.226E-01    0.339E-01
DAV:   4    -0.767755304009E+02    0.25862E-02   -0.33384E-03  1056   0.104E-01    0.187E-01
DAV:   5    -0.767750579189E+02    0.47248E-03   -0.35337E-03  1040   0.107E-01    0.644E-02
DAV:   6    -0.767750957344E+02   -0.37816E-04   -0.43547E-05   640   0.167E-02
  26 F= -.76775096E+02 E0= -.76775096E+02  d E =-.381271E-01  mag=    -0.0000
       N       E                     dE             d eps       ncg     rms          rms(c)
DAV:   1    -0.766857047655E+02    0.89353E-01   -0.24425E+02  1024   0.266E+01    0.523E-01
DAV:   2    -0.767950017750E+02   -0.10930E+00   -0.10844E+00  1088   0.248E+00    0.522E-01
DAV:   3    -0.767934069279E+02    0.15948E-02   -0.15834E-02  1120   0.283E-01    0.417E-01
DAV:   4    -0.767896143573E+02    0.37926E-02   -0.47653E-03  1056   0.125E-01    0.236E-01
DAV:   5    -0.767888077469E+02    0.80661E-03   -0.50472E-03  1056   0.128E-01    0.766E-02
DAV:   6    -0.767888799838E+02   -0.72237E-04   -0.62985E-05   672   0.201E-02
  27 F= -.76788880E+02 E0= -.76788880E+02  d E =-.519113E-01  mag=    -0.0000
       N       E                     dE             d eps       ncg     rms          rms(c)
DAV:   1    -0.767595551108E+02    0.29253E-01   -0.13804E+02  1024   0.199E+01    0.411E-01
DAV:   2    -0.768219378418E+02   -0.62383E-01   -0.62046E-01  1056   0.187E+00    0.382E-01
DAV:   3    -0.768209241704E+02    0.10137E-02   -0.92177E-03  1120   0.217E-01    0.295E-01
DAV:   4    -0.768188291223E+02    0.20950E-02   -0.31611E-03  1056   0.999E-02    0.153E-01
DAV:   5    -0.768185750878E+02    0.25403E-03   -0.23831E-03  1072   0.877E-02    0.508E-02
DAV:   6    -0.768185968791E+02   -0.21791E-04   -0.41892E-05   640   0.141E-02
  28 F= -.76818597E+02 E0= -.76818597E+02  d E =-.297169E-01  mag=    -0.0000
       N       E                     dE             d eps       ncg     rms          rms(c)
DAV:   1    -0.767878412418E+02    0.30734E-01   -0.87790E+01  1024   0.158E+01    0.317E-01
DAV:   2    -0.768276616955E+02   -0.39820E-01   -0.39308E-01  1056   0.149E+00    0.306E-01
DAV:   3    -0.768270890713E+02    0.57262E-03   -0.58159E-03  1120   0.173E-01    0.239E-01
DAV:   4    -0.768257095758E+02    0.13795E-02   -0.20132E-03  1056   0.798E-02    0.127E-01
DAV:   5    -0.768255257321E+02    0.18384E-03   -0.17536E-03  1040   0.747E-02    0.443E-02
DAV:   6    -0.768255371823E+02   -0.11450E-04   -0.31327E-05   656   0.118E-02
  29 F= -.76825537E+02 E0= -.76825537E+02  d E =-.366572E-01  mag=    -0.0000
       N       E                     dE             d eps       ncg     rms          rms(c)
DAV:   1    -0.768123001764E+02    0.13226E-01   -0.94170E+01  1024   0.164E+01    0.339E-01
DAV:   2    -0.768546087160E+02   -0.42309E-01   -0.42494E-01  1040   0.155E+00    0.322E-01
DAV:   3    -0.768538991061E+02    0.70961E-03   -0.64809E-03  1152   0.188E-01    0.246E-01
DAV:   4    -0.768524581091E+02    0.14410E-02   -0.20539E-03  1056   0.824E-02    0.133E-01
DAV:   5    -0.768522552700E+02    0.20284E-03   -0.19532E-03  1072   0.802E-02    0.451E-02
DAV:   6    -0.768522558440E+02   -0.57399E-06   -0.43190E-05   640   0.134E-02
  30 F= -.76852256E+02 E0= -.76852256E+02  d E =-.267187E-01  mag=    -0.0000
       N       E                     dE             d eps       ncg     rms          rms(c)
DAV:   1    -0.768190064736E+02    0.33249E-01   -0.96073E+01  1024   0.166E+01    0.350E-01
DAV:   2    -0.768620510425E+02   -0.43045E-01   -0.43315E-01  1056   0.156E+00    0.327E-01
DAV:   3    -0.768612896894E+02    0.76135E-03   -0.65947E-03  1120   0.189E-01    0.249E-01
DAV:   4    -0.768598148545E+02    0.14748E-02   -0.22515E-03  1056   0.860E-02    0.130E-01
DAV:   5    -0.768596512637E+02    0.16359E-03   -0.18243E-03  1040   0.779E-02    0.450E-02
DAV:   6    -0.768596513788E+02   -0.11508E-06   -0.47190E-05   640   0.138E-02
  31 F= -.76859651E+02 E0= -.76859651E+02  d E =-.341142E-01  mag=    -0.0000
       N       E                     dE             d eps       ncg     rms          rms(c)
DAV:   1    -0.768346391271E+02    0.25012E-01   -0.11003E+02  1024   0.178E+01    0.371E-01
DAV:   2    -0.768842925598E+02   -0.49653E-01   -0.49698E-01  1056   0.168E+00    0.342E-01
DAV:   3    -0.768834076296E+02    0.88493E-03   -0.75246E-03  1136   0.203E-01    0.261E-01
DAV:   4    -0.768817074929E+02    0.17001E-02   -0.25805E-03  1072   0.914E-02    0.133E-01
DAV:   5    -0.768815159541E+02    0.19154E-03   -0.20956E-03  1040   0.829E-02    0.467E-02
DAV:   6    -0.768815166046E+02   -0.65057E-06   -0.50193E-05   640   0.143E-02
  32 F= -.76881517E+02 E0= -.76881517E+02  d E =-.218652E-01  mag=    -0.0000
       N       E                     dE             d eps       ncg     rms          rms(c)
DAV:   1    -0.768602925939E+02    0.21223E-01   -0.59219E+01  1024   0.131E+01    0.268E-01
DAV:   2    -0.768869601622E+02   -0.26668E-01   -0.26672E-01  1072   0.123E+00    0.255E-01
DAV:   3    -0.768865196528E+02    0.44051E-03   -0.40411E-03  1120   0.149E-01    0.196E-01
DAV:   4    -0.768855977451E+02    0.92191E-03   -0.13841E-03  1072   0.672E-02    0.102E-01
DAV:   5    -0.768855017067E+02    0.96038E-04   -0.12570E-03  1056   0.644E-02    0.369E-02
DAV:   6    -0.768855041551E+02   -0.24484E-05   -0.29189E-05   624   0.110E-02
  33 F= -.76885504E+02 E0= -.76885504E+02  d E =-.258528E-01  mag=    -0.0000
       N       E                     dE             d eps       ncg     rms          rms(c)
DAV:   1    -0.768613271624E+02    0.24175E-01   -0.10750E+02  1024   0.177E+01    0.336E-01
DAV:   2    -0.769096676424E+02   -0.48340E-01   -0.48885E-01  1056   0.168E+00    0.371E-01
DAV:   3    -0.769090820365E+02    0.58561E-03   -0.77949E-03  1120   0.214E-01    0.284E-01
DAV:   4    -0.769075031678E+02    0.15789E-02   -0.16163E-03  1088   0.781E-02    0.191E-01
DAV:   5    -0.769069755502E+02    0.52762E-03   -0.38811E-03  1040   0.114E-01    0.656E-02
DAV:   6    -0.769069818589E+02   -0.63086E-05   -0.50579E-05   656   0.161E-02
  34 F= -.76906982E+02 E0= -.76906982E+02  d E =-.214777E-01  mag=    -0.0000
       N       E                     dE             d eps       ncg     rms          rms(c)
DAV:   1    -0.768895910744E+02    0.17384E-01   -0.48160E+01  1024   0.118E+01    0.227E-01
DAV:   2    -0.769112379165E+02   -0.21647E-01   -0.21985E-01  1040   0.112E+00    0.248E-01
DAV:   3    -0.769109835810E+02    0.25434E-03   -0.35735E-03  1120   0.149E-01    0.187E-01
DAV:   4    -0.769103173535E+02    0.66623E-03   -0.69983E-04  1088   0.537E-02    0.127E-01
DAV:   5    -0.769100994341E+02    0.21792E-03   -0.18133E-03  1024   0.795E-02    0.425E-02
DAV:   6    -0.769101072454E+02   -0.78113E-05   -0.24400E-05   656   0.122E-02
  35 F= -.76910107E+02 E0= -.76910107E+02  d E =-.246031E-01  mag=     0.0000
       N       E                     dE             d eps       ncg     rms          rms(c)
DAV:   1    -0.768754671108E+02    0.34632E-01   -0.12327E+02  1024   0.189E+01    0.381E-01
DAV:   2    -0.769307880510E+02   -0.55321E-01   -0.55691E-01  1040   0.179E+00    0.375E-01
DAV:   3    -0.769299308636E+02    0.85719E-03   -0.89106E-03  1120   0.234E-01    0.280E-01
DAV:   4    -0.769282886369E+02    0.16422E-02   -0.19039E-03  1088   0.918E-02    0.178E-01
DAV:   5    -0.769277995667E+02    0.48907E-03   -0.37983E-03  1024   0.117E-01    0.533E-02
DAV:   6    -0.769278020210E+02   -0.24543E-05   -0.59882E-05   656   0.220E-02
  36 F= -.76927802E+02 E0= -.76927802E+02  d E =-.176948E-01  mag=     0.0000
       N       E                     dE             d eps       ncg     rms          rms(c)
DAV:   1    -0.769209315476E+02    0.68680E-02   -0.18083E+01  1024   0.723E+00    0.141E-01
DAV:   2    -0.769290197790E+02   -0.80882E-02   -0.81503E-02  1040   0.682E-01    0.142E-01
DAV:   3    -0.769289078553E+02    0.11192E-03   -0.12981E-03  1120   0.896E-02    0.106E-01
DAV:   4    -0.769286809368E+02    0.22692E-03   -0.24982E-04   656   0.355E-02    0.711E-02
DAV:   5    -0.769286322467E+02    0.48690E-04   -0.73309E-04  1040   0.531E-02
  37 F= -.76928632E+02 E0= -.76928632E+02  d E =-.185250E-01  mag=     0.0000
       N       E                     dE             d eps       ncg     rms          rms(c)
DAV:   1    -0.768911715768E+02    0.37509E-01   -0.12516E+02  1024   0.190E+01    0.361E-01
DAV:   2    -0.769482415795E+02   -0.57070E-01   -0.56780E-01  1072   0.179E+00    0.355E-01
DAV:   3    -0.769475630872E+02    0.67849E-03   -0.83927E-03  1120   0.209E-01    0.277E-01
DAV:   4    -0.769458442090E+02    0.17189E-02   -0.22247E-03  1056   0.895E-02    0.159E-01
DAV:   5    -0.769455175197E+02    0.32669E-03   -0.28447E-03  1040   0.976E-02    0.538E-02
DAV:   6    -0.769455331361E+02   -0.15616E-04   -0.43055E-05   640   0.210E-02
  38 F= -.76945533E+02 E0= -.76945533E+02  d E =-.169009E-01  mag=     0.0000
       N       E                     dE             d eps       ncg     rms          rms(c)
DAV:   1    -0.769236366618E+02    0.21881E-01   -0.55989E+01  1024   0.127E+01    0.238E-01
DAV:   2    -0.769490959718E+02   -0.25459E-01   -0.25334E-01  1040   0.119E+00    0.234E-01
DAV:   3    -0.769487879504E+02    0.30802E-03   -0.37249E-03  1136   0.139E-01    0.184E-01
DAV:   4    -0.769480156719E+02    0.77228E-03   -0.10340E-03  1056   0.609E-02    0.104E-01
DAV:   5    -0.769478885132E+02    0.12716E-03   -0.12991E-03  1024   0.663E-02    0.362E-02
DAV:   6    -0.769478983018E+02   -0.97886E-05   -0.20183E-05   640   0.144E-02
  39 F= -.76947898E+02 E0= -.76947898E+02  d E =-.192661E-01  mag=     0.0000
       N       E                     dE             d eps       ncg     rms          rms(c)
DAV:   1    -0.769192807483E+02    0.28608E-01   -0.10176E+02  1024   0.171E+01    0.336E-01
DAV:   2    -0.769661951846E+02   -0.46914E-01   -0.46601E-01  1088   0.162E+00    0.308E-01
DAV:   3    -0.769655630317E+02    0.63215E-03   -0.69442E-03  1088   0.194E-01    0.235E-01
DAV:   4    -0.769642433291E+02    0.13197E-02   -0.18022E-03  1072   0.818E-02    0.133E-01
DAV:   5    -0.769640047474E+02    0.23858E-03   -0.22006E-03  1072   0.915E-02    0.422E-02
DAV:   6    -0.769640073996E+02   -0.26522E-05   -0.48160E-05   640   0.241E-02
  40 F= -.76964007E+02 E0= -.76964007E+02  d E =-.161091E-01  mag=     0.0000
       N       E                     dE             d eps       ncg     rms          rms(c)
DAV:   1    -0.768879201507E+02    0.76085E-01   -0.18301E+02  1024   0.229E+01    0.482E-01
DAV:   2    -0.769728280650E+02   -0.84908E-01   -0.84338E-01  1056   0.218E+00    0.418E-01
DAV:   3    -0.769715564985E+02    0.12716E-02   -0.12761E-02  1088   0.268E-01    0.311E-01
DAV:   4    -0.769692475735E+02    0.23089E-02   -0.33449E-03  1088   0.115E-01    0.175E-01
DAV:   5    -0.769688416553E+02    0.40592E-03   -0.35952E-03  1056   0.123E-01    0.529E-02
DAV:   6    -0.769688416611E+02   -0.58280E-08   -0.10157E-04   656   0.367E-02
  41 F= -.76968842E+02 E0= -.76968842E+02  d E =-.209434E-01  mag=     0.0000
       N       E                     dE             d eps       ncg     rms          rms(c)
DAV:   1    -0.769289881818E+02    0.39853E-01   -0.12558E+02  1024   0.189E+01    0.384E-01
DAV:   2    -0.769866785925E+02   -0.57690E-01   -0.57433E-01  1072   0.179E+00    0.337E-01
DAV:   3    -0.769858609869E+02    0.81761E-03   -0.85531E-03  1104   0.217E-01    0.257E-01
DAV:   4    -0.769843425669E+02    0.15184E-02   -0.21461E-03  1056   0.916E-02    0.142E-01
DAV:   5    -0.769840512561E+02    0.29131E-03   -0.23929E-03  1056   0.102E-01    0.428E-02
DAV:   6    -0.769840702991E+02   -0.19043E-04   -0.67408E-05   608   0.311E-02
  42 F= -.76984070E+02 E0= -.76984070E+02  d E =-.152286E-01  mag=     0.0000
       N       E                     dE             d eps       ncg     rms          rms(c)
DAV:   1    -0.769439115998E+02    0.40140E-01   -0.96981E+01  1024   0.166E+01    0.337E-01
DAV:   2    -0.769882804870E+02   -0.44369E-01   -0.44245E-01  1088   0.157E+00    0.297E-01
DAV:   3    -0.769876814310E+02    0.59906E-03   -0.65951E-03  1088   0.191E-01    0.226E-01
DAV:   4    -0.769865366991E+02    0.11447E-02   -0.16966E-03  1072   0.820E-02    0.124E-01
DAV:   5    -0.769863400564E+02    0.19664E-03   -0.18657E-03  1056   0.916E-02    0.385E-02
DAV:   6    -0.769863548556E+02   -0.14799E-04   -0.56058E-05   608   0.284E-02
  43 F= -.76986355E+02 E0= -.76986355E+02  d E =-.175132E-01  mag=    -0.0000
       N       E                     dE             d eps       ncg     rms          rms(c)
DAV:   1    -0.769746964923E+02    0.11644E-01   -0.58745E+01  1024   0.129E+01    0.259E-01
DAV:   2    -0.770013615662E+02   -0.26665E-01   -0.26718E-01  1056   0.122E+00    0.239E-01
DAV:   3    -0.770010602401E+02    0.30133E-03   -0.42324E-03  1088   0.163E-01    0.178E-01
DAV:   4    -0.770004896410E+02    0.57060E-03   -0.71679E-04  1104   0.619E-02    0.116E-01
DAV:   5    -0.770003019994E+02    0.18764E-03   -0.16148E-03  1056   0.819E-02    0.306E-02
DAV:   6    -0.770003139994E+02   -0.12000E-04   -0.32231E-05   640   0.189E-02
  44 F= -.77000314E+02 E0= -.77000314E+02  d E =-.139591E-01  mag=    -0.0000
       N       E                     dE             d eps       ncg     rms          rms(c)
DAV:   1    -0.769900800747E+02    0.10222E-01   -0.28512E+01  1024   0.900E+00    0.180E-01
DAV:   2    -0.770029363288E+02   -0.12856E-01   -0.12920E-01  1056   0.849E-01    0.165E-01
DAV:   3    -0.770027886384E+02    0.14769E-03   -0.20209E-03  1088   0.112E-01    0.124E-01
DAV:   4    -0.770025050030E+02    0.28364E-03   -0.37005E-04  1008   0.437E-02    0.784E-02
DAV:   5    -0.770024314000E+02    0.73603E-04   -0.77589E-04  1040   0.569E-02
  45 F= -.77002431E+02 E0= -.77002431E+02  d E =-.160765E-01  mag=    -0.0000
       N       E                     dE             d eps       ncg     rms          rms(c)
DAV:   1    -0.770004308024E+02    0.20742E-02   -0.31543E+01  1024   0.953E+00    0.215E-01
DAV:   2    -0.770145362901E+02   -0.14105E-01   -0.14495E-01  1072   0.913E-01    0.188E-01
DAV:   3    -0.770143036672E+02    0.23262E-03   -0.26420E-03  1056   0.150E-01    0.134E-01
DAV:   4    -0.770140181682E+02    0.28550E-03   -0.36526E-04   912   0.446E-02    0.880E-02
DAV:   5    -0.770139192689E+02    0.98899E-04   -0.10285E-03  1040   0.626E-02    0.224E-02
DAV:   6    -0.770139182405E+02    0.10284E-05   -0.16365E-05   640   0.103E-02
  46 F= -.77013918E+02 E0= -.77013918E+02  d E =-.114868E-01  mag=     0.0000
       N       E                     dE             d eps       ncg     rms          rms(c)
DAV:   1    -0.770050037326E+02    0.89155E-02   -0.29066E+01  1024   0.915E+00    0.204E-01
DAV:   2    -0.770179532861E+02   -0.12950E-01   -0.13316E-01  1040   0.876E-01    0.180E-01
DAV:   3    -0.770177335426E+02    0.21974E-03   -0.24976E-03  1056   0.144E-01    0.130E-01
DAV:   4    -0.770174552262E+02    0.27832E-03   -0.32413E-04   816   0.416E-02    0.861E-02
DAV:   5    -0.770173525765E+02    0.10265E-03   -0.10410E-03  1040   0.623E-02    0.222E-02
DAV:   6    -0.770173511438E+02    0.14327E-05   -0.15987E-05   640   0.976E-03
  47 F= -.77017351E+02 E0= -.77017351E+02  d E =-.149197E-01  mag=     0.0000
       N       E                     dE             d eps       ncg     rms          rms(c)
DAV:   1    -0.770070603358E+02    0.10292E-01   -0.43851E+01  1024   0.113E+01    0.243E-01
DAV:   2    -0.770266007029E+02   -0.19540E-01   -0.20240E-01  1040   0.109E+00    0.255E-01
DAV:   3    -0.770263090329E+02    0.29167E-03   -0.37172E-03  1040   0.172E-01    0.175E-01
DAV:   4    -0.770257787926E+02    0.53024E-03   -0.62262E-04  1088   0.539E-02    0.120E-01
DAV:   5    -0.770256201282E+02    0.15866E-03   -0.15481E-03  1072   0.733E-02    0.365E-02
DAV:   6    -0.770256115824E+02    0.85458E-05   -0.29548E-05   672   0.118E-02
  48 F= -.77025612E+02 E0= -.77025612E+02  d E =-.826044E-02  mag=     0.0000
       N       E                     dE             d eps       ncg     rms          rms(c)
DAV:   1    -0.770248237330E+02    0.79640E-03   -0.20137E+00  1056   0.241E+00    0.530E-02
DAV:   2    -0.770257324349E+02   -0.90870E-03   -0.93274E-03  1056   0.234E-01    0.551E-02
DAV:   3    -0.770257253957E+02    0.70392E-05   -0.15870E-04   624   0.366E-02
  49 F= -.77025725E+02 E0= -.77025725E+02  d E =-.837425E-02  mag=     0.0000
       N       E                     dE             d eps       ncg     rms          rms(c)
DAV:   1    -0.770199725319E+02    0.57599E-02   -0.17404E+01  1024   0.709E+00    0.242E-01
DAV:   2    -0.770276648819E+02   -0.76923E-02   -0.80993E-02  1056   0.671E-01    0.189E-01
DAV:   3    -0.770275373557E+02    0.12753E-03   -0.15571E-03  1104   0.982E-02    0.124E-01
DAV:   4    -0.770274047759E+02    0.13258E-03   -0.59194E-04  1072   0.561E-02    0.422E-02
DAV:   5    -0.770274148197E+02   -0.10044E-04   -0.78978E-05   656   0.354E-02
  50 F= -.77027415E+02 E0= -.77027415E+02  d E =-.168942E-02  mag=     0.0000
       N       E                     dE             d eps       ncg     rms          rms(c)
DAV:   1    -0.770278524101E+02   -0.44763E-03   -0.27038E+00  1040   0.279E+00    0.984E-02
DAV:   2    -0.770290407107E+02   -0.11883E-02   -0.12377E-02  1056   0.264E-01    0.790E-02
DAV:   3    -0.770290116882E+02    0.29023E-04   -0.22776E-04   672   0.393E-02
  51 F= -.77029012E+02 E0= -.77029012E+02  d E =-.328629E-02  mag=     0.0000
       N       E                     dE             d eps       ncg     rms          rms(c)
DAV:   1    -0.770282495292E+02    0.79118E-03   -0.94527E+00  1024   0.522E+00    0.106E-01
DAV:   2    -0.770324983332E+02   -0.42488E-02   -0.43642E-02  1040   0.505E-01    0.111E-01
DAV:   3    -0.770324362644E+02    0.62069E-04   -0.76049E-04  1088   0.750E-02
  52 F= -.77032436E+02 E0= -.77032436E+02  d E =-.342458E-02  mag=     0.0000
       N       E                     dE             d eps       ncg     rms          rms(c)
DAV:   1    -0.770320677423E+02    0.43059E-03   -0.26457E+00  1056   0.277E+00    0.830E-02
DAV:   2    -0.770330996013E+02   -0.10319E-02   -0.11217E-02  1104   0.256E-01    0.827E-02
DAV:   3    -0.770330482423E+02    0.51359E-04   -0.15326E-04   608   0.310E-02
  53 F= -.77033048E+02 E0= -.77033048E+02  d E =-.403655E-02  mag=     0.0000
       N       E                     dE             d eps       ncg     rms          rms(c)
DAV:   1    -0.770315390305E+02    0.15606E-02   -0.77162E+00  1024   0.473E+00    0.121E-01
DAV:   2    -0.770349133813E+02   -0.33744E-02   -0.34253E-02  1088   0.442E-01    0.110E-01
DAV:   3    -0.770348510490E+02    0.62332E-04   -0.53183E-04  1072   0.560E-02
  54 F= -.77034851E+02 E0= -.77034851E+02  d E =-.180281E-02  mag=     0.0000
       N       E                     dE             d eps       ncg     rms          rms(c)
DAV:   1    -0.770347510578E+02    0.16232E-03   -0.11036E-02  1056   0.183E-01    0.410E-02
DAV:   2    -0.770347508222E+02    0.23561E-06   -0.48133E-05   640   0.254E-02
  55 F= -.77034751E+02 E0= -.77034751E+02  d E =-.170258E-02  mag=     0.0000
       N       E                     dE             d eps       ncg     rms          rms(c)
DAV:   1    -0.770340018721E+02    0.74919E-03   -0.50983E+00  1024   0.385E+00    0.785E-02
DAV:   2    -0.770362469405E+02   -0.22451E-02   -0.22615E-02  1072   0.361E-01    0.804E-02
DAV:   3    -0.770362070922E+02    0.39848E-04   -0.32579E-04   736   0.456E-02
  56 F= -.77036207E+02 E0= -.77036207E+02  d E =-.145627E-02  mag=     0.0000
       N       E                     dE             d eps       ncg     rms          rms(c)
DAV:   1    -0.770361167257E+02    0.13021E-03   -0.14102E-04   624   0.214E-02    0.317E-02
DAV:   2    -0.770361117967E+02    0.49290E-05   -0.54781E-05   608   0.202E-02
  57 F= -.77036112E+02 E0= -.77036112E+02  d E =-.136097E-02  mag=     0.0000
       N       E                     dE             d eps       ncg     rms          rms(c)
DAV:   1    -0.770362616928E+02   -0.14497E-03   -0.11637E+00  1024   0.184E+00    0.594E-02
DAV:   2    -0.770367734813E+02   -0.51179E-03   -0.53148E-03  1072   0.174E-01    0.478E-02
DAV:   3    -0.770367640712E+02    0.94101E-05   -0.80581E-05   640   0.226E-02
  58 F= -.77036764E+02 E0= -.77036764E+02  d E =-.652274E-03  mag=    -0.0000
       N       E                     dE             d eps       ncg     rms          rms(c)
DAV:   1    -0.770367300476E+02    0.43434E-04   -0.10718E-02  1056   0.175E-01    0.572E-03
DAV:   2    -0.770367365478E+02   -0.65002E-05   -0.46998E-05   608   0.186E-02
  59 F= -.77036737E+02 E0= -.77036737E+02  d E =-.624751E-03  mag=    -0.0000
