<?xml version="1.0" encoding="ISO-8859-1"?>
<modeling>
 <generator>
  <i name="program" type="string">vasp </i>
  <i name="version" type="string">5.3.5  </i>
  <i name="subversion" type="string">31Mar14 (build Feb 01 2018 12:10:03) gamma-only                       parallel </i>
  <i name="platform" type="string">LinuxIFC </i>
  <i name="date" type="string">2019 03 21 </i>
  <i name="time" type="string">19:20:49 </i>
 </generator>
 <incar>
  <i type="string" name="PREC">normal</i>
  <i type="int" name="ISPIN">     2</i>
  <i type="int" name="IBRION">     2</i>
  <i type="int" name="NSW">  1000</i>
  <i type="int" name="ISIF">     2</i>
  <i name="POTIM">      0.10000000</i>
  <i type="logical" name="LPLANE"> T  </i>
  <i type="int" name="ISMEAR">     0</i>
  <i name="SIGMA">      0.00010000</i>
  <i type="logical" name="LWAVE"> F  </i>
  <i type="logical" name="LCHARG"> F  </i>
  <i type="logical" name="LVTOT"> F  </i>
  <i type="string" name="GGA"> PE</i>
 </incar>
 <kpoints>
  <varray name="kpointlist" >
   <v>       0.00000000       0.00000000       0.00000000 </v>
  </varray>
  <varray name="weights" >
   <v>       1.00000000 </v>
  </varray>
 </kpoints>
 <parameters>
  <separator name="general" >
   <i type="string" name="SYSTEM">unknown system</i>
   <i type="logical" name="LCOMPAT"> F  </i>
  </separator>
  <separator name="electronic" >
   <i type="string" name="PREC">normal</i>
   <i name="ENMAX">    249.84400000</i>
   <i name="ENAUG">    412.49600000</i>
   <i name="EDIFF">      0.00010000</i>
   <i type="int" name="IALGO">    38</i>
   <i type="int" name="IWAVPR">    11</i>
   <i type="int" name="NBANDS">   100</i>
   <i name="NELECT">    154.00000000</i>
   <i type="int" name="TURBO">     0</i>
   <i type="int" name="IRESTART">     0</i>
   <i type="int" name="NREBOOT">     0</i>
   <i type="int" name="NMIN">     0</i>
   <i name="EREF">      0.00000000</i>
   <separator name="electronic smearing" >
    <i type="int" name="ISMEAR">     0</i>
    <i name="SIGMA">      0.00010000</i>
    <i name="KSPACING">      0.50000000</i>
    <i type="logical" name="KGAMMA"> T  </i>
   </separator>
   <separator name="electronic projectors" >
    <i type="logical" name="LREAL"> F  </i>
    <v name="ROPT">      0.00000000</v>
    <i type="int" name="LMAXPAW">  -100</i>
    <i type="int" name="LMAXMIX">     2</i>
    <i type="logical" name="NLSPLINE"> F  </i>
   </separator>
   <separator name="electronic startup" >
    <i type="int" name="ISTART">     0</i>
    <i type="int" name="ICHARG">     2</i>
    <i type="int" name="INIWAV">     1</i>
   </separator>
   <separator name="electronic spin" >
    <i type="int" name="ISPIN">     2</i>
    <i type="logical" name="LNONCOLLINEAR"> F  </i>
    <v name="MAGMOM">      1.00000000      1.00000000      1.00000000      1.00000000      1.00000000      1.00000000      1.00000000      1.00000000      1.00000000      1.00000000      1.00000000      1.00000000      1.00000000      1.00000000</v>
    <i name="NUPDOWN">     -1.00000000</i>
    <i type="logical" name="LSORBIT"> F  </i>
    <v name="SAXIS">      0.00000000      0.00000000      1.00000000</v>
    <i type="logical" name="LSPIRAL"> F  </i>
    <v name="QSPIRAL">      0.00000000      0.00000000      0.00000000</v>
    <i type="logical" name="LZEROZ"> F  </i>
   </separator>
   <separator name="electronic exchange-correlation" >
    <i type="logical" name="LASPH"> F  </i>
    <i type="logical" name="LMETAGGA"> F  </i>
   </separator>
   <separator name="electronic convergence" >
    <i type="int" name="NELM">    60</i>
    <i type="int" name="NELMDL">    -5</i>
    <i type="int" name="NELMIN">     2</i>
    <i name="ENINI">    249.84400000</i>
    <separator name="electronic convergence detail" >
     <i type="logical" name="LDIAG"> T  </i>
     <i type="logical" name="LSUBROT"> F  </i>
     <i name="WEIMIN">      0.00100000</i>
     <i name="EBREAK">      0.00000025</i>
     <i name="DEPER">      0.30000000</i>
     <i type="int" name="NRMM">     4</i>
     <i name="TIME">      0.40000000</i>
    </separator>
   </separator>
   <separator name="electronic mixer" >
    <i name="AMIX">      0.40000000</i>
    <i name="BMIX">      1.00000000</i>
    <i name="AMIN">      0.10000000</i>
    <i name="AMIX_MAG">      1.60000000</i>
    <i name="BMIX_MAG">      1.00000000</i>
    <separator name="electronic mixer details" >
     <i type="int" name="IMIX">     4</i>
     <i type="int" name="MAXMIX">   -45</i>
     <i name="WC">    100.00000000</i>
     <i type="int" name="INIMIX">     1</i>
     <i type="int" name="MIXPRE">     1</i>
     <i type="int" name="MREMOVE">     5</i>
    </separator>
   </separator>
   <separator name="electronic dipolcorrection" >
    <i type="logical" name="LDIPOL"> F  </i>
    <i type="logical" name="LMONO"> F  </i>
    <i type="int" name="IDIPOL">     0</i>
    <i name="EPSILON">      1.00000000</i>
    <v name="DIPOL">   -100.00000000   -100.00000000   -100.00000000</v>
    <i name="EFIELD">      0.00000000</i>
   </separator>
  </separator>
  <separator name="grids" >
   <i type="int" name="NGX">    70</i>
   <i type="int" name="NGY">    70</i>
   <i type="int" name="NGZ">    70</i>
   <i type="int" name="NGXF">   140</i>
   <i type="int" name="NGYF">   140</i>
   <i type="int" name="NGZF">   140</i>
   <i type="logical" name="ADDGRID"> F  </i>
  </separator>
  <separator name="ionic" >
   <i type="int" name="NSW">  1000</i>
   <i type="int" name="IBRION">     2</i>
   <i type="int" name="ISIF">     2</i>
   <i name="PSTRESS">      0.00000000</i>
   <i name="EDIFFG">      0.00100000</i>
   <i type="int" name="NFREE">     1</i>
   <i name="POTIM">      0.10000000</i>
   <i name="SMASS">     -3.00000000</i>
   <i name="SCALEE">      1.00000000</i>
  </separator>
  <separator name="ionic md" >
   <i name="TEBEG">      0.00010000</i>
   <i name="TEEND">      0.00010000</i>
   <i type="int" name="NBLOCK">     1</i>
   <i type="int" name="KBLOCK">  1000</i>
   <i type="int" name="NPACO">   256</i>
   <i name="APACO">     16.00000000</i>
  </separator>
  <separator name="symmetry" >
   <i type="int" name="ISYM">     2</i>
   <i name="SYMPREC">      0.00001000</i>
  </separator>
  <separator name="dos" >
   <i type="logical" name="LORBIT"> F  </i>
   <v name="RWIGS">     -1.00000000</v>
   <i type="int" name="NEDOS">   301</i>
   <i name="EMIN">     10.00000000</i>
   <i name="EMAX">    -10.00000000</i>
   <i name="EFERMI">      0.00000000</i>
  </separator>
  <separator name="writing" >
   <i type="int" name="NWRITE">     2</i>
   <i type="logical" name="LWAVE"> F  </i>
   <i type="logical" name="LCHARG"> F  </i>
   <i type="logical" name="LPARD"> F  </i>
   <i type="logical" name="LVTOT"> F  </i>
   <i type="logical" name="LVHAR"> F  </i>
   <i type="logical" name="LELF"> F  </i>
   <i type="logical" name="LOPTICS"> F  </i>
   <v name="STM">      0.00000000      0.00000000      0.00000000      0.00000000      0.00000000      0.00000000      0.00000000</v>
  </separator>
  <separator name="performance" >
   <i type="int" name="NPAR">     4</i>
   <i type="int" name="NSIM">     4</i>
   <i type="int" name="NBLK">    -1</i>
   <i type="logical" name="LPLANE"> T  </i>
   <i type="logical" name="LSCALAPACK"> T  </i>
   <i type="logical" name="LSCAAWARE"> F  </i>
   <i type="logical" name="LSCALU"> F  </i>
   <i type="logical" name="LASYNC"> F  </i>
   <i type="logical" name="LORBITALREAL"> F  </i>
  </separator>
  <separator name="miscellaneous" >
   <i type="int" name="IDIOT">     3</i>
   <i type="logical" name="LMUSIC"> F  </i>
   <v name="POMASS">    107.86800000</v>
   <v name="DARWINR">      0.00000000</v>
   <v name="DARWINV">      1.00000000</v>
   <i type="logical" name="LCORR"> T  </i>
  </separator>
  <i type="logical" name="GGA_COMPAT"> T  </i>
  <i type="logical" name="LBERRY"> F  </i>
  <i type="int" name="ICORELEVEL">     0</i>
  <i type="logical" name="LDAU"> F  </i>
  <i type="int" name="I_CONSTRAINED_M">     0</i>
  <separator name="electronic exchange-correlation" >
   <i type="string" name="GGA">PE</i>
   <i type="int" name="VOSKOWN">     0</i>
   <i type="logical" name="LHFCALC"> F  </i>
   <i type="string" name="PRECFOCK"></i>
   <i type="logical" name="LSYMGRAD"> F  </i>
   <i type="logical" name="LHFONE"> F  </i>
   <i type="logical" name="LRHFCALC"> F  </i>
   <i type="logical" name="LTHOMAS"> F  </i>
   <i type="logical" name="LMODELHF"> F  </i>
   <i name="ENCUT4O">     -1.00000000</i>
   <i type="int" name="EXXOEP">     0</i>
   <i type="int" name="FOURORBIT">     0</i>
   <i name="AEXX">      0.00000000</i>
   <i name="HFALPHA">      0.00000000</i>
   <i name="MCALPHA">      0.00000000</i>
   <i name="ALDAX">      1.00000000</i>
   <i name="AGGAX">      1.00000000</i>
   <i name="ALDAC">      1.00000000</i>
   <i name="AGGAC">      1.00000000</i>
   <i type="int" name="NKREDX">     1</i>
   <i type="int" name="NKREDY">     1</i>
   <i type="int" name="NKREDZ">     1</i>
   <i type="logical" name="SHIFTRED"> F  </i>
   <i type="logical" name="ODDONLY"> F  </i>
   <i type="logical" name="EVENONLY"> F  </i>
   <i type="int" name="LMAXFOCK">     0</i>
   <i type="int" name="NMAXFOCKAE">     0</i>
   <i type="logical" name="LFOCKAEDFT"> F  </i>
   <i name="HFSCREEN">      0.00000000</i>
   <i name="HFSCREENC">      0.00000000</i>
   <i type="int" name="NBANDSGWLOW">     0</i>
  </separator>
  <separator name="vdW DFT" >
   <i type="logical" name="LUSE_VDW"> F  </i>
   <i name="Zab_VDW">     -0.84910000</i>
   <i name="PARAM1">      0.12340000</i>
   <i name="PARAM2">      1.00000000</i>
   <i name="PARAM3">      0.00000000</i>
  </separator>
  <separator name="model GW" >
   <i type="int" name="MODEL_GW">     0</i>
   <i name="MODEL_EPS0">    221.01690838</i>
   <i name="MODEL_ALPHA">      1.00000000</i>
  </separator>
  <separator name="linear response parameters" >
   <i type="logical" name="LEPSILON"> F  </i>
   <i type="logical" name="LRPA"> F  </i>
   <i type="logical" name="LNABLA"> F  </i>
   <i type="logical" name="LVEL"> F  </i>
   <i type="int" name="KINTER">     0</i>
   <i name="CSHIFT">      0.10000000</i>
   <i name="OMEGAMAX">     -1.00000000</i>
   <i name="DEG_THRESHOLD">      0.00200000</i>
  </separator>
  <separator name="orbital magnetization" >
   <i type="logical" name="NUCIND"> F  </i>
   <v name="MAGPOS">      0.00000000      0.00000000      0.00000000</v>
   <i type="logical" name="LNICSALL"> T  </i>
   <i type="logical" name="ORBITALMAG"> F  </i>
   <i type="logical" name="LMAGBLOCH"> F  </i>
   <i type="logical" name="LCHIMAG"> F  </i>
   <i type="logical" name="LGAUGE"> T  </i>
   <i type="int" name="MAGATOM">     0</i>
   <v name="MAGDIPOL">      0.00000000      0.00000000      0.00000000</v>
   <v name="AVECCONST">      0.00000000      0.00000000      0.00000000</v>
  </separator>
  <separator name="response functions" >
   <i type="logical" name="LADDER"> F  </i>
   <i type="logical" name="LFXC"> F  </i>
   <i type="logical" name="LHARTREE"> T  </i>
   <i type="int" name="IBSE">     0</i>
   <i type="logical" name="LTCTE"> F  </i>
   <i type="logical" name="LTETE"> F  </i>
   <i type="logical" name="LTRIPLET"> F  </i>
   <i type="logical" name="LFXCEPS"> F  </i>
   <i type="logical" name="LFXHEG"> F  </i>
   <i type="logical" name="L2ORDER"> F  </i>
   <i type="logical" name="LUSEW"> F  </i>
   <i name="ENCUTGW">     -2.00000000</i>
   <i name="ENCUTGWSOFT">     -2.00000000</i>
   <i name="ENCUTLF">     -1.00000000</i>
   <i type="int" name="LMAXMP2">    -1</i>
   <i name="SCISSOR">      0.00000000</i>
   <i type="int" name="NOMEGA">     0</i>
   <i type="int" name="NOMEGAR">     0</i>
   <i type="int" name="NBANDSGW">    -1</i>
   <i type="int" name="NBANDSO">    -1</i>
   <i type="int" name="NBANDSV">    -1</i>
   <i type="int" name="NELM">     1</i>
   <i type="int" name="DIM">     3</i>
   <i type="int" name="ANTIRES">     0</i>
   <i name="OMEGAMAX">    -30.00000000</i>
   <i name="OMEGAMIN">    -30.00000000</i>
   <i name="OMEGATL">   -200.00000000</i>
   <i type="int" name="OMEGAGRID">     0</i>
   <i name="CSHIFT">     -0.10000000</i>
   <i type="logical" name="SELFENERGY"> F  </i>
   <i type="logical" name="LSPECTRAL"> F  </i>
   <i type="logical" name="ODDONLYGW"> F  </i>
   <i type="logical" name="EVENONLYGW"> F  </i>
   <i type="int" name="NKREDLFX">     1</i>
   <i type="int" name="NKREDLFY">     1</i>
   <i type="int" name="NKREDLFZ">     1</i>
   <i type="int" name="MAXMEM">  1800</i>
   <i type="int" name="TELESCOPE">     0</i>
   <i type="int" name="TAUPAR">     1</i>
  </separator>
  <separator name="External order field" >
   <i name="OFIELD_KAPPA">      0.00000000</i>
   <v name="OFIELD_K">      0.00000000      0.00000000      0.00000000</v>
   <i name="OFIELD_Q6_NEAR">      0.00000000</i>
   <i name="OFIELD_Q6_FAR">      0.00000000</i>
   <i name="OFIELD_A">      0.00000000</i>
  </separator>
 </parameters>
 <atominfo>
  <atoms>      14 </atoms>
  <types>       1 </types>
  <array name="atoms" >
   <dimension dim="1">ion</dimension>
   <field type="string">element</field>
   <field type="int">atomtype</field>
   <set>
    <rc><c>Ag</c><c>   1</c></rc>
    <rc><c>Ag</c><c>   1</c></rc>
    <rc><c>Ag</c><c>   1</c></rc>
    <rc><c>Ag</c><c>   1</c></rc>
    <rc><c>Ag</c><c>   1</c></rc>
    <rc><c>Ag</c><c>   1</c></rc>
    <rc><c>Ag</c><c>   1</c></rc>
    <rc><c>Ag</c><c>   1</c></rc>
    <rc><c>Ag</c><c>   1</c></rc>
    <rc><c>Ag</c><c>   1</c></rc>
    <rc><c>Ag</c><c>   1</c></rc>
    <rc><c>Ag</c><c>   1</c></rc>
    <rc><c>Ag</c><c>   1</c></rc>
    <rc><c>Ag</c><c>   1</c></rc>
   </set>
  </array>
  <array name="atomtypes" >
   <dimension dim="1">type</dimension>
   <field type="int">atomspertype</field>
   <field type="string">element</field>
   <field>mass</field>
   <field>valence</field>
   <field type="string">pseudopotential</field>
   <set>
    <rc><c>  14</c><c>Ag</c><c>    107.86800000</c><c>     11.00000000</c><c>  PAW_PBE Ag 02Apr2005                  </c></rc>
   </set>
  </array>
 </atominfo>
 <structure name="initialpos" >
  <crystal>
   <varray name="basis" >
    <v>      17.27696400       0.00000000       0.00000000 </v>
    <v>       0.00000000      17.27696400       0.00000000 </v>
    <v>       0.00000000       0.00000000      17.27696400 </v>
   </varray>
   <i name="volume">   5157.06119557 </i>
   <varray name="rec_basis" >
    <v>       0.05788054       0.00000000       0.00000000 </v>
    <v>       0.00000000       0.05788054       0.00000000 </v>
    <v>       0.00000000       0.00000000       0.05788054 </v>
   </varray>
  </crystal>
  <varray name="positions" >
   <v>       0.50000000       0.50000000       0.62377649 </v>
   <v>       0.50000000       0.62377649       0.50000000 </v>
   <v>       0.37622351       0.50000000       0.50000000 </v>
   <v>       0.50000000       0.50000000       0.37622351 </v>
   <v>       0.62377649       0.50000000       0.50000000 </v>
   <v>       0.50000000       0.37622351       0.50000000 </v>
   <v>       0.38541708       0.38541708       0.61458292 </v>
   <v>       0.61458292       0.61458292       0.38541708 </v>
   <v>       0.61458292       0.38541708       0.38541708 </v>
   <v>       0.61458292       0.61458292       0.61458292 </v>
   <v>       0.38541708       0.61458292       0.61458292 </v>
   <v>       0.38541708       0.61458292       0.38541708 </v>
   <v>       0.38541708       0.38541708       0.38541708 </v>
   <v>       0.61458292       0.38541708       0.61458292 </v>
  </varray>
 </structure>
 <calculation>
  <scstep>
   <time name="dav">    0.69    0.69</time>
   <time name="total">    0.86    0.88</time>
   <energy>
    <i name="alphaZ">     32.32719086 </i>
    <i name="ewald">  14609.96014145 </i>
    <i name="hartreedc"> -28559.99169064 </i>
    <i name="XCdc">   -157.43097009 </i>
    <i name="pawpsdc">  14047.21049297 </i>
    <i name="pawaedc"> -13401.70452430 </i>
    <i name="eentropy">     -0.00000000 </i>
    <i name="bandstr">    226.86722395 </i>
    <i name="atom">  14520.78082121 </i>
    <i name="e_fr_energy">   1318.01868541 </i>
    <i name="e_wo_entrp">   1318.01868541 </i>
    <i name="e_0_energy">   1318.01868541 </i>
   </energy>
  </scstep>
  <scstep>
   <time name="dav">    1.08    1.08</time>
   <time name="total">    1.08    1.09</time>
   <energy>
    <i name="e_fr_energy">    398.13185523 </i>
    <i name="e_wo_entrp">    398.13185523 </i>
    <i name="e_0_energy">    398.13185523 </i>
   </energy>
  </scstep>
  <scstep>
   <time name="dav">    0.90    0.90</time>
   <time name="total">    0.90    0.91</time>
   <energy>
    <i name="e_fr_energy">     14.12532552 </i>
    <i name="e_wo_entrp">     14.12532552 </i>
    <i name="e_0_energy">     14.12532552 </i>
   </energy>
  </scstep>
  <scstep>
   <time name="dav">    0.74    0.74</time>
   <time name="total">    0.74    0.75</time>
   <energy>
    <i name="e_fr_energy">    -25.06921771 </i>
    <i name="e_wo_entrp">    -25.06921771 </i>
    <i name="e_0_energy">    -25.06921771 </i>
   </energy>
  </scstep>
  <scstep>
   <time name="dav">    0.72    0.72</time>
   <time name="total">    0.86    0.87</time>
   <energy>
    <i name="e_fr_energy">    -25.78708812 </i>
    <i name="e_wo_entrp">    -25.78708812 </i>
    <i name="e_0_energy">    -25.78708812 </i>
   </energy>
  </scstep>
  <scstep>
   <time name="dav">    0.69    0.69</time>
   <time name="total">    0.98    0.98</time>
   <energy>
    <i name="e_fr_energy">     -6.30595420 </i>
    <i name="e_wo_entrp">     -6.30595420 </i>
    <i name="e_0_energy">     -6.30595420 </i>
   </energy>
  </scstep>
  <scstep>
   <time name="dav">    0.69    0.69</time>
   <time name="total">    0.99    0.99</time>
   <energy>
    <i name="e_fr_energy">    -10.60796424 </i>
    <i name="e_wo_entrp">    -10.60796424 </i>
    <i name="e_0_energy">    -10.60796424 </i>
   </energy>
  </scstep>
  <scstep>
   <time name="dav">    0.70    0.70</time>
   <time name="total">    0.99    0.99</time>
   <energy>
    <i name="e_fr_energy">    -13.82540349 </i>
    <i name="e_wo_entrp">    -13.82540349 </i>
    <i name="e_0_energy">    -13.82540349 </i>
   </energy>
  </scstep>
  <scstep>
   <time name="dav">    0.71    0.71</time>
   <time name="total">    1.00    1.00</time>
   <energy>
    <i name="e_fr_energy">    -10.57364015 </i>
    <i name="e_wo_entrp">    -10.57364015 </i>
    <i name="e_0_energy">    -10.57364015 </i>
   </energy>
  </scstep>
  <scstep>
   <time name="dav">    0.73    0.73</time>
   <time name="total">    1.02    1.02</time>
   <energy>
    <i name="e_fr_energy">    -11.10790601 </i>
    <i name="e_wo_entrp">    -11.10790601 </i>
    <i name="e_0_energy">    -11.10790601 </i>
   </energy>
  </scstep>
  <scstep>
   <time name="dav">    0.69    0.69</time>
   <time name="total">    0.98    0.99</time>
   <energy>
    <i name="e_fr_energy">    -16.82583751 </i>
    <i name="e_wo_entrp">    -16.82583751 </i>
    <i name="e_0_energy">    -16.82583751 </i>
   </energy>
  </scstep>
  <scstep>
   <time name="dav">    0.69    0.69</time>
   <time name="total">    0.98    0.99</time>
   <energy>
    <i name="e_fr_energy">    -20.03304994 </i>
    <i name="e_wo_entrp">    -20.03304994 </i>
    <i name="e_0_energy">    -20.03304994 </i>
   </energy>
  </scstep>
  <scstep>
   <time name="dav">    0.69    0.69</time>
   <time name="total">    0.99    0.99</time>
   <energy>
    <i name="e_fr_energy">    -22.54089601 </i>
    <i name="e_wo_entrp">    -22.54089601 </i>
    <i name="e_0_energy">    -22.54089601 </i>
   </energy>
  </scstep>
  <scstep>
   <time name="dav">    0.69    0.69</time>
   <time name="total">    0.98    0.99</time>
   <energy>
    <i name="e_fr_energy">    -24.74191180 </i>
    <i name="e_wo_entrp">    -24.74191180 </i>
    <i name="e_0_energy">    -24.74191180 </i>
   </energy>
  </scstep>
  <scstep>
   <time name="dav">    0.69    0.69</time>
   <time name="total">    0.99    0.99</time>
   <energy>
    <i name="e_fr_energy">    -25.24841224 </i>
    <i name="e_wo_entrp">    -25.24841224 </i>
    <i name="e_0_energy">    -25.24841224 </i>
   </energy>
  </scstep>
  <scstep>
   <time name="dav">    0.71    0.71</time>
   <time name="total">    1.00    1.05</time>
   <energy>
    <i name="e_fr_energy">    -25.34763438 </i>
    <i name="e_wo_entrp">    -25.34763438 </i>
    <i name="e_0_energy">    -25.34763438 </i>
   </energy>
  </scstep>
  <scstep>
   <time name="dav">    0.69    0.69</time>
   <time name="total">    0.98    0.99</time>
   <energy>
    <i name="e_fr_energy">    -25.53318513 </i>
    <i name="e_wo_entrp">    -25.53318513 </i>
    <i name="e_0_energy">    -25.53318513 </i>
   </energy>
  </scstep>
  <scstep>
   <time name="dav">    0.71    0.71</time>
   <time name="total">    1.01    1.01</time>
   <energy>
    <i name="e_fr_energy">    -25.60338191 </i>
    <i name="e_wo_entrp">    -25.60338191 </i>
    <i name="e_0_energy">    -25.60338191 </i>
   </energy>
  </scstep>
  <scstep>
   <time name="dav">    0.62    0.62</time>
   <time name="total">    0.91    0.92</time>
   <energy>
    <i name="e_fr_energy">    -25.61034268 </i>
    <i name="e_wo_entrp">    -25.61034268 </i>
    <i name="e_0_energy">    -25.61034268 </i>
   </energy>
  </scstep>
  <scstep>
   <time name="dav">    0.61    0.61</time>
   <time name="total">    0.91    0.91</time>
   <energy>
    <i name="e_fr_energy">    -25.61608171 </i>
    <i name="e_wo_entrp">    -25.61608171 </i>
    <i name="e_0_energy">    -25.61608171 </i>
   </energy>
  </scstep>
  <scstep>
   <time name="dav">    0.54    0.54</time>
   <time name="total">    0.84    0.84</time>
   <energy>
    <i name="e_fr_energy">    -25.61731531 </i>
    <i name="e_wo_entrp">    -25.61731531 </i>
    <i name="e_0_energy">    -25.61731531 </i>
   </energy>
  </scstep>
  <scstep>
   <time name="dav">    0.55    0.55</time>
   <time name="total">    0.84    0.85</time>
   <energy>
    <i name="e_fr_energy">    -25.61808805 </i>
    <i name="e_wo_entrp">    -25.61808805 </i>
    <i name="e_0_energy">    -25.61808805 </i>
   </energy>
  </scstep>
  <scstep>
   <time name="dav">    0.53    0.53</time>
   <time name="total">    0.69    2.18</time>
   <energy>
    <i name="alphaZ">     32.32719086 </i>
    <i name="ewald">  14609.96014145 </i>
    <i name="hartreedc"> -28576.38541551 </i>
    <i name="XCdc">   -161.61402978 </i>
    <i name="pawpsdc">  14842.58794983 </i>
    <i name="pawaedc"> -14216.31255867 </i>
    <i name="eentropy">      0.00000000 </i>
    <i name="bandstr">  -1076.96218197 </i>
    <i name="atom">  14520.78082121 </i>
    <i name="e_fr_energy">    -25.61808259 </i>
    <i name="e_wo_entrp">    -25.61808259 </i>
    <i name="e_0_energy">    -25.61808259 </i>
   </energy>
  </scstep>
  <structure>
   <crystal>
    <varray name="basis" >
     <v>      17.27696400       0.00000000       0.00000000 </v>
     <v>       0.00000000      17.27696400       0.00000000 </v>
     <v>       0.00000000       0.00000000      17.27696400 </v>
    </varray>
    <i name="volume">   5157.06119557 </i>
    <varray name="rec_basis" >
     <v>       0.05788054       0.00000000       0.00000000 </v>
     <v>       0.00000000       0.05788054       0.00000000 </v>
     <v>       0.00000000       0.00000000       0.05788054 </v>
    </varray>
   </crystal>
   <varray name="positions" >
    <v>       0.50000000       0.50000000       0.62377649 </v>
    <v>       0.50000000       0.62377649       0.50000000 </v>
    <v>       0.37622351       0.50000000       0.50000000 </v>
    <v>       0.50000000       0.50000000       0.37622351 </v>
    <v>       0.62377649       0.50000000       0.50000000 </v>
    <v>       0.50000000       0.37622351       0.50000000 </v>
    <v>       0.38541708       0.38541708       0.61458292 </v>
    <v>       0.61458292       0.61458292       0.38541708 </v>
    <v>       0.61458292       0.38541708       0.38541708 </v>
    <v>       0.61458292       0.61458292       0.61458292 </v>
    <v>       0.38541708       0.61458292       0.61458292 </v>
    <v>       0.38541708       0.61458292       0.38541708 </v>
    <v>       0.38541708       0.38541708       0.38541708 </v>
    <v>       0.61458292       0.38541708       0.61458292 </v>
   </varray>
  </structure>
  <varray name="forces" >
   <v>       0.00000000       0.00000000      -0.27815547 </v>
   <v>       0.00000000      -0.27815547      -0.00000000 </v>
   <v>       0.27815547      -0.00000000      -0.00000000 </v>
   <v>       0.00000000      -0.00000000       0.27815547 </v>
   <v>      -0.27815547       0.00000000      -0.00000000 </v>
   <v>       0.00000000       0.27815547      -0.00000000 </v>
   <v>       0.17792687       0.17792687      -0.17792687 </v>
   <v>      -0.17792687      -0.17792687       0.17792687 </v>
   <v>      -0.17792687       0.17792687       0.17792687 </v>
   <v>      -0.17792687      -0.17792687      -0.17792687 </v>
   <v>       0.17792687      -0.17792687      -0.17792687 </v>
   <v>       0.17792687      -0.17792687       0.17792687 </v>
   <v>       0.17792687       0.17792687       0.17792687 </v>
   <v>      -0.17792687       0.17792687      -0.17792687 </v>
  </varray>
  <varray name="stress" >
   <v>      -2.71746619       0.00000000      -0.00000000 </v>
   <v>      -0.00000000      -2.71746619       0.00000000 </v>
   <v>      -0.00000000      -0.00000000      -2.71746619 </v>
  </varray>
  <energy>
   <i name="e_fr_energy">    -25.61808259 </i>
   <i name="e_wo_entrp">    -25.61808259 </i>
   <i name="e_0_energy">      0.00000000 </i>
  </energy>
  <time name="totalsc">   22.77   24.42</time>
 </calculation>
 <calculation>
  <scstep>
   <time name="dav">    0.70    0.70</time>
   <time name="total">    1.00    1.01</time>
   <energy>
    <i name="alphaZ">     32.32719086 </i>
    <i name="ewald">  14648.32193564 </i>
    <i name="hartreedc"> -28614.47449842 </i>
    <i name="XCdc">   -161.55151442 </i>
    <i name="pawpsdc">  14842.95870433 </i>
    <i name="pawaedc"> -14216.68720186 </i>
    <i name="eentropy">      0.00000000 </i>
    <i name="bandstr">  -1077.30489467 </i>
    <i name="atom">  14520.78082121 </i>
    <i name="e_fr_energy">    -25.62945732 </i>
    <i name="e_wo_entrp">    -25.62945732 </i>
    <i name="e_0_energy">    -25.62945732 </i>
   </energy>
  </scstep>
  <scstep>
   <time name="dav">    0.76    0.75</time>
   <time name="total">    1.04    1.05</time>
   <energy>
    <i name="e_fr_energy">    -25.62998596 </i>
    <i name="e_wo_entrp">    -25.62998596 </i>
    <i name="e_0_energy">    -25.62998596 </i>
   </energy>
  </scstep>
  <scstep>
   <time name="dav">    0.54    0.54</time>
   <time name="total">    0.83    0.83</time>
   <energy>
    <i name="e_fr_energy">    -25.63009121 </i>
    <i name="e_wo_entrp">    -25.63009121 </i>
    <i name="e_0_energy">    -25.63009121 </i>
   </energy>
  </scstep>
  <scstep>
   <time name="dav">    0.53    0.54</time>
   <time name="total">    0.70    0.70</time>
   <energy>
    <i name="alphaZ">     32.32719086 </i>
    <i name="ewald">  14648.32193564 </i>
    <i name="hartreedc"> -28614.00207231 </i>
    <i name="XCdc">   -161.56565211 </i>
    <i name="pawpsdc">  14850.36804976 </i>
    <i name="pawaedc"> -14224.22628154 </i>
    <i name="eentropy">      0.00000000 </i>
    <i name="bandstr">  -1077.63416176 </i>
    <i name="atom">  14520.78082121 </i>
    <i name="e_fr_energy">    -25.63017025 </i>
    <i name="e_wo_entrp">    -25.63017025 </i>
    <i name="e_0_energy">    -25.63017025 </i>
   </energy>
  </scstep>
  <structure>
   <crystal>
    <varray name="basis" >
     <v>      17.27696400       0.00000000       0.00000000 </v>
     <v>       0.00000000      17.27696400       0.00000000 </v>
     <v>       0.00000000       0.00000000      17.27696400 </v>
    </varray>
    <i name="volume">   5157.06119557 </i>
    <varray name="rec_basis" >
     <v>       0.05788054       0.00000000       0.00000000 </v>
     <v>       0.00000000       0.05788054       0.00000000 </v>
     <v>       0.00000000       0.00000000       0.05788054 </v>
    </varray>
   </crystal>
   <varray name="positions" >
    <v>       0.50000000       0.50000000       0.62362115 </v>
    <v>       0.50000000       0.62362115       0.50000000 </v>
    <v>       0.37637885       0.50000000       0.50000000 </v>
    <v>       0.50000000       0.50000000       0.37637885 </v>
    <v>       0.62362115       0.50000000       0.50000000 </v>
    <v>       0.50000000       0.37637885       0.50000000 </v>
    <v>       0.38551644       0.38551644       0.61448356 </v>
    <v>       0.61448356       0.61448356       0.38551644 </v>
    <v>       0.61448356       0.38551644       0.38551644 </v>
    <v>       0.61448356       0.61448356       0.61448356 </v>
    <v>       0.38551644       0.61448356       0.61448356 </v>
    <v>       0.38551644       0.61448356       0.38551644 </v>
    <v>       0.38551644       0.38551644       0.38551644 </v>
    <v>       0.61448356       0.38551644       0.61448356 </v>
   </varray>
  </structure>
  <varray name="forces" >
   <v>      -0.00000000       0.00000000      -0.26532059 </v>
   <v>      -0.00000000      -0.26532059       0.00000000 </v>
   <v>       0.26532059      -0.00000000       0.00000000 </v>
   <v>      -0.00000000      -0.00000000       0.26532059 </v>
   <v>      -0.26532059       0.00000000      -0.00000000 </v>
   <v>      -0.00000000       0.26532059      -0.00000000 </v>
   <v>       0.16862323       0.16862323      -0.16862323 </v>
   <v>      -0.16862323      -0.16862323       0.16862323 </v>
   <v>      -0.16862323       0.16862323       0.16862323 </v>
   <v>      -0.16862323      -0.16862323      -0.16862323 </v>
   <v>       0.16862323      -0.16862323      -0.16862323 </v>
   <v>       0.16862323      -0.16862323       0.16862323 </v>
   <v>       0.16862323       0.16862323       0.16862323 </v>
   <v>      -0.16862323       0.16862323      -0.16862323 </v>
  </varray>
  <varray name="stress" >
   <v>      -2.66489545       0.00000000       0.00000000 </v>
   <v>      -0.00000000      -2.66489545      -0.00000000 </v>
   <v>       0.00000000       0.00000000      -2.66489545 </v>
  </varray>
  <energy>
   <i name="e_fr_energy">    -25.63017025 </i>
   <i name="e_wo_entrp">    -25.63017025 </i>
   <i name="e_0_energy">      0.00000000 </i>
  </energy>
  <time name="totalsc">    4.81    9.44</time>
 </calculation>
 <calculation>
  <scstep>
   <time name="dav">    0.70    0.69</time>
   <time name="total">    0.98    1.00</time>
   <energy>
    <i name="alphaZ">     32.32719086 </i>
    <i name="ewald">  14763.89978940 </i>
    <i name="hartreedc"> -28729.05501637 </i>
    <i name="XCdc">   -161.37708985 </i>
    <i name="pawpsdc">  14850.40965246 </i>
    <i name="pawaedc"> -14224.26879499 </i>
    <i name="eentropy">      0.00000000 </i>
    <i name="bandstr">  -1078.37455205 </i>
    <i name="atom">  14520.78082121 </i>
    <i name="e_fr_energy">    -25.65799934 </i>
    <i name="e_wo_entrp">    -25.65799934 </i>
    <i name="e_0_energy">    -25.65799934 </i>
   </energy>
  </scstep>
  <scstep>
   <time name="dav">    0.74    0.74</time>
   <time name="total">    1.04    1.04</time>
   <energy>
    <i name="e_fr_energy">    -25.66139531 </i>
    <i name="e_wo_entrp">    -25.66139531 </i>
    <i name="e_0_energy">    -25.66139531 </i>
   </energy>
  </scstep>
  <scstep>
   <time name="dav">    0.72    0.72</time>
   <time name="total">    0.88    0.90</time>
   <energy>
    <i name="alphaZ">     32.32719086 </i>
    <i name="ewald">  14763.89978940 </i>
    <i name="hartreedc"> -28728.12718337 </i>
    <i name="XCdc">   -161.41205771 </i>
    <i name="pawpsdc">  14865.40530018 </i>
    <i name="pawaedc"> -14239.52208057 </i>
    <i name="eentropy">      0.00000000 </i>
    <i name="bandstr">  -1079.01313479 </i>
    <i name="atom">  14520.78082121 </i>
    <i name="e_fr_energy">    -25.66135479 </i>
    <i name="e_wo_entrp">    -25.66135479 </i>
    <i name="e_0_energy">    -25.66135479 </i>
   </energy>
  </scstep>
  <structure>
   <crystal>
    <varray name="basis" >
     <v>      17.27696400       0.00000000       0.00000000 </v>
     <v>       0.00000000      17.27696400       0.00000000 </v>
     <v>       0.00000000       0.00000000      17.27696400 </v>
    </varray>
    <i name="volume">   5157.06119557 </i>
    <varray name="rec_basis" >
     <v>       0.05788054       0.00000000       0.00000000 </v>
     <v>       0.00000000       0.05788054       0.00000000 </v>
     <v>       0.00000000       0.00000000       0.05788054 </v>
    </varray>
   </crystal>
   <varray name="positions" >
    <v>       0.50000000       0.50000000       0.62315513 </v>
    <v>       0.50000000       0.62315513       0.50000000 </v>
    <v>       0.37684487       0.50000000       0.50000000 </v>
    <v>       0.50000000       0.50000000       0.37684487 </v>
    <v>       0.62315513       0.50000000       0.50000000 </v>
    <v>       0.50000000       0.37684487       0.50000000 </v>
    <v>       0.38581454       0.38581454       0.61418546 </v>
    <v>       0.61418546       0.61418546       0.38581454 </v>
    <v>       0.61418546       0.38581454       0.38581454 </v>
    <v>       0.61418546       0.61418546       0.61418546 </v>
    <v>       0.38581454       0.61418546       0.61418546 </v>
    <v>       0.38581454       0.61418546       0.38581454 </v>
    <v>       0.38581454       0.38581454       0.38581454 </v>
    <v>       0.61418546       0.38581454       0.61418546 </v>
   </varray>
  </structure>
  <varray name="forces" >
   <v>      -0.00000000      -0.00000000      -0.22382455 </v>
   <v>      -0.00000000      -0.22382455       0.00000000 </v>
   <v>       0.22382455      -0.00000000       0.00000000 </v>
   <v>      -0.00000000      -0.00000000       0.22382455 </v>
   <v>      -0.22382455      -0.00000000      -0.00000000 </v>
   <v>      -0.00000000       0.22382455      -0.00000000 </v>
   <v>       0.13937533       0.13937533      -0.13937533 </v>
   <v>      -0.13937533      -0.13937533       0.13937533 </v>
   <v>      -0.13937533       0.13937533       0.13937533 </v>
   <v>      -0.13937533      -0.13937533      -0.13937533 </v>
   <v>       0.13937533      -0.13937533      -0.13937533 </v>
   <v>       0.13937533      -0.13937533       0.13937533 </v>
   <v>       0.13937533       0.13937533       0.13937533 </v>
   <v>      -0.13937533       0.13937533      -0.13937533 </v>
  </varray>
  <varray name="stress" >
   <v>      -2.47198841       0.00000000      -0.00000000 </v>
   <v>       0.00000000      -2.47198841       0.00000000 </v>
   <v>       0.00000000       0.00000000      -2.47198841 </v>
  </varray>
  <energy>
   <i name="e_fr_energy">    -25.66135479 </i>
   <i name="e_wo_entrp">    -25.66135479 </i>
   <i name="e_0_energy">      0.00000000 </i>
  </energy>
  <time name="totalsc">    4.16    4.29</time>
 </calculation>
 <calculation>
  <scstep>
   <time name="dav">    0.70    0.70</time>
   <time name="total">    0.99    1.01</time>
   <energy>
    <i name="alphaZ">     32.32719086 </i>
    <i name="ewald">  14997.29335285 </i>
    <i name="hartreedc"> -28960.02391164 </i>
    <i name="XCdc">   -161.03414509 </i>
    <i name="pawpsdc">  14872.71601125 </i>
    <i name="pawaedc"> -14246.97187639 </i>
    <i name="eentropy">      0.00000000 </i>
    <i name="bandstr">  -1080.78131777 </i>
    <i name="atom">  14520.78082121 </i>
    <i name="e_fr_energy">    -25.69387473 </i>
    <i name="e_wo_entrp">    -25.69387473 </i>
    <i name="e_0_energy">    -25.69387473 </i>
   </energy>
  </scstep>
  <scstep>
   <time name="dav">    0.74    0.75</time>
   <time name="total">    1.04    1.04</time>
   <energy>
    <i name="e_fr_energy">    -25.70747313 </i>
    <i name="e_wo_entrp">    -25.70747313 </i>
    <i name="e_0_energy">    -25.70747313 </i>
   </energy>
  </scstep>
  <scstep>
   <time name="dav">    0.74    0.74</time>
   <time name="total">    1.03    1.05</time>
   <energy>
    <i name="e_fr_energy">    -25.70726101 </i>
    <i name="e_wo_entrp">    -25.70726101 </i>
    <i name="e_0_energy">    -25.70726101 </i>
   </energy>
  </scstep>
  <scstep>
   <time name="dav">    0.72    0.71</time>
   <time name="total">    0.87    0.88</time>
   <energy>
    <i name="alphaZ">     32.32719086 </i>
    <i name="ewald">  14997.29335285 </i>
    <i name="hartreedc"> -28957.57946529 </i>
    <i name="XCdc">   -161.11962694 </i>
    <i name="pawpsdc">  14919.20893068 </i>
    <i name="pawaedc"> -14294.28088150 </i>
    <i name="eentropy">      0.00000000 </i>
    <i name="bandstr">  -1082.33756803 </i>
    <i name="atom">  14520.78082121 </i>
    <i name="e_fr_energy">    -25.70724616 </i>
    <i name="e_wo_entrp">    -25.70724616 </i>
    <i name="e_0_energy">    -25.70724616 </i>
   </energy>
  </scstep>
  <structure>
   <crystal>
    <varray name="basis" >
     <v>      17.27696400       0.00000000       0.00000000 </v>
     <v>       0.00000000      17.27696400       0.00000000 </v>
     <v>       0.00000000       0.00000000      17.27696400 </v>
    </varray>
    <i name="volume">   5157.06119557 </i>
    <varray name="rec_basis" >
     <v>       0.05788054       0.00000000       0.00000000 </v>
     <v>       0.00000000       0.05788054       0.00000000 </v>
     <v>       0.00000000       0.00000000       0.05788054 </v>
    </varray>
   </crystal>
   <varray name="positions" >
    <v>       0.50000000       0.50000000       0.62222310 </v>
    <v>       0.50000000       0.62222310       0.50000000 </v>
    <v>       0.37777690       0.50000000       0.50000000 </v>
    <v>       0.50000000       0.50000000       0.37777690 </v>
    <v>       0.62222310       0.50000000       0.50000000 </v>
    <v>       0.50000000       0.37777690       0.50000000 </v>
    <v>       0.38641073       0.38641073       0.61358927 </v>
    <v>       0.61358927       0.61358927       0.38641073 </v>
    <v>       0.61358927       0.38641073       0.38641073 </v>
    <v>       0.61358927       0.61358927       0.61358927 </v>
    <v>       0.38641073       0.61358927       0.61358927 </v>
    <v>       0.38641073       0.61358927       0.38641073 </v>
    <v>       0.38641073       0.38641073       0.38641073 </v>
    <v>       0.61358927       0.38641073       0.61358927 </v>
   </varray>
  </structure>
  <varray name="forces" >
   <v>      -0.00000000      -0.00000000      -0.14418155 </v>
   <v>      -0.00000000      -0.14418155       0.00000000 </v>
   <v>       0.14418155       0.00000000       0.00000000 </v>
   <v>      -0.00000000       0.00000000       0.14418155 </v>
   <v>      -0.14418155      -0.00000000       0.00000000 </v>
   <v>      -0.00000000       0.14418155       0.00000000 </v>
   <v>       0.08349378       0.08349378      -0.08349378 </v>
   <v>      -0.08349378      -0.08349378       0.08349378 </v>
   <v>      -0.08349378       0.08349378       0.08349378 </v>
   <v>      -0.08349378      -0.08349378      -0.08349378 </v>
   <v>       0.08349378      -0.08349378      -0.08349378 </v>
   <v>       0.08349378      -0.08349378       0.08349378 </v>
   <v>       0.08349378       0.08349378       0.08349378 </v>
   <v>      -0.08349378       0.08349378      -0.08349378 </v>
  </varray>
  <varray name="stress" >
   <v>      -2.08771200      -0.00000000      -0.00000000 </v>
   <v>      -0.00000000      -2.08771200      -0.00000000 </v>
   <v>      -0.00000000       0.00000000      -2.08771200 </v>
  </varray>
  <energy>
   <i name="e_fr_energy">    -25.70724616 </i>
   <i name="e_wo_entrp">    -25.70724616 </i>
   <i name="e_0_energy">      0.00000000 </i>
  </energy>
  <time name="totalsc">    5.19    5.26</time>
 </calculation>
 <calculation>
  <scstep>
   <time name="dav">    0.69    0.70</time>
   <time name="total">    0.99    1.00</time>
   <energy>
    <i name="alphaZ">     32.32719086 </i>
    <i name="ewald">  15473.21865720 </i>
    <i name="hartreedc"> -29431.04211025 </i>
    <i name="XCdc">   -160.31605503 </i>
    <i name="pawpsdc">  14918.76802322 </i>
    <i name="pawaedc"> -14293.83394864 </i>
    <i name="eentropy">      0.00000000 </i>
    <i name="bandstr">  -1085.57443474 </i>
    <i name="atom">  14520.78082121 </i>
    <i name="e_fr_energy">    -25.67185617 </i>
    <i name="e_wo_entrp">    -25.67185617 </i>
    <i name="e_0_energy">    -25.67185617 </i>
   </energy>
  </scstep>
  <scstep>
   <time name="dav">    0.74    0.74</time>
   <time name="total">    1.03    1.04</time>
   <energy>
    <i name="e_fr_energy">    -25.72838329 </i>
    <i name="e_wo_entrp">    -25.72838329 </i>
    <i name="e_0_energy">    -25.72838329 </i>
   </energy>
  </scstep>
  <scstep>
   <time name="dav">    0.74    0.74</time>
   <time name="total">    1.03    1.03</time>
   <energy>
    <i name="e_fr_energy">    -25.72739975 </i>
    <i name="e_wo_entrp">    -25.72739975 </i>
    <i name="e_0_energy">    -25.72739975 </i>
   </energy>
  </scstep>
  <scstep>
   <time name="dav">    0.72    0.72</time>
   <time name="total">    1.01    1.02</time>
   <energy>
    <i name="e_fr_energy">    -25.72736874 </i>
    <i name="e_wo_entrp">    -25.72736874 </i>
    <i name="e_0_energy">    -25.72736874 </i>
   </energy>
  </scstep>
  <scstep>
   <time name="dav">    0.67    0.67</time>
   <time name="total">    0.96    0.97</time>
   <energy>
    <i name="e_fr_energy">    -25.72724482 </i>
    <i name="e_wo_entrp">    -25.72724482 </i>
    <i name="e_0_energy">    -25.72724482 </i>
   </energy>
  </scstep>
  <scstep>
   <time name="dav">    0.55    0.55</time>
   <time name="total">    0.71    0.71</time>
   <energy>
    <i name="alphaZ">     32.32719086 </i>
    <i name="ewald">  15473.21865720 </i>
    <i name="hartreedc"> -29426.18225306 </i>
    <i name="XCdc">   -160.49072772 </i>
    <i name="pawpsdc">  15018.07202043 </i>
    <i name="pawaedc"> -14394.83230183 </i>
    <i name="eentropy">      0.00000000 </i>
    <i name="bandstr">  -1088.62065143 </i>
    <i name="atom">  14520.78082121 </i>
    <i name="e_fr_energy">    -25.72724435 </i>
    <i name="e_wo_entrp">    -25.72724435 </i>
    <i name="e_0_energy">    -25.72724435 </i>
   </energy>
  </scstep>
  <structure>
   <crystal>
    <varray name="basis" >
     <v>      17.27696400       0.00000000       0.00000000 </v>
     <v>       0.00000000      17.27696400       0.00000000 </v>
     <v>       0.00000000       0.00000000      17.27696400 </v>
    </varray>
    <i name="volume">   5157.06119557 </i>
    <varray name="rec_basis" >
     <v>       0.05788054       0.00000000       0.00000000 </v>
     <v>       0.00000000       0.05788054       0.00000000 </v>
     <v>       0.00000000       0.00000000       0.05788054 </v>
    </varray>
   </crystal>
   <varray name="positions" >
    <v>       0.50000000       0.50000000       0.62035903 </v>
    <v>       0.50000000       0.62035903       0.50000000 </v>
    <v>       0.37964097       0.50000000       0.50000000 </v>
    <v>       0.50000000       0.50000000       0.37964097 </v>
    <v>       0.62035903       0.50000000       0.50000000 </v>
    <v>       0.50000000       0.37964097       0.50000000 </v>
    <v>       0.38760312       0.38760312       0.61239688 </v>
    <v>       0.61239688       0.61239688       0.38760312 </v>
    <v>       0.61239688       0.38760312       0.38760312 </v>
    <v>       0.61239688       0.61239688       0.61239688 </v>
    <v>       0.38760312       0.61239688       0.61239688 </v>
    <v>       0.38760312       0.61239688       0.38760312 </v>
    <v>       0.38760312       0.38760312       0.38760312 </v>
    <v>       0.61239688       0.38760312       0.61239688 </v>
   </varray>
  </structure>
  <varray name="forces" >
   <v>      -0.00000000       0.00000000       0.04397112 </v>
   <v>      -0.00000000       0.04397112      -0.00000000 </v>
   <v>      -0.04397112       0.00000000       0.00000000 </v>
   <v>      -0.00000000       0.00000000      -0.04397112 </v>
   <v>       0.04397112       0.00000000      -0.00000000 </v>
   <v>      -0.00000000      -0.04397112       0.00000000 </v>
   <v>      -0.04874075      -0.04874075       0.04874075 </v>
   <v>       0.04874075       0.04874075      -0.04874075 </v>
   <v>       0.04874075      -0.04874075      -0.04874075 </v>
   <v>       0.04874075       0.04874075       0.04874075 </v>
   <v>      -0.04874075       0.04874075       0.04874075 </v>
   <v>      -0.04874075       0.04874075      -0.04874075 </v>
   <v>      -0.04874075      -0.04874075      -0.04874075 </v>
   <v>       0.04874075      -0.04874075       0.04874075 </v>
  </varray>
  <varray name="stress" >
   <v>      -1.25788166       0.00000000       0.00000000 </v>
   <v>      -0.00000000      -1.25788166       0.00000000 </v>
   <v>      -0.00000000      -0.00000000      -1.25788166 </v>
  </varray>
  <energy>
   <i name="e_fr_energy">    -25.72724435 </i>
   <i name="e_wo_entrp">    -25.72724435 </i>
   <i name="e_0_energy">      0.00000000 </i>
  </energy>
  <time name="totalsc">    6.99    7.05</time>
 </calculation>
 <calculation>
  <scstep>
   <time name="dav">    0.70    0.70</time>
   <time name="total">    0.99    1.00</time>
   <energy>
    <i name="alphaZ">     32.32719086 </i>
    <i name="ewald">  15319.39351739 </i>
    <i name="hartreedc"> -29273.23053276 </i>
    <i name="XCdc">   -160.75220087 </i>
    <i name="pawpsdc">  15017.96741436 </i>
    <i name="pawaedc"> -14394.73010769 </i>
    <i name="eentropy">      0.00000000 </i>
    <i name="bandstr">  -1087.48264605 </i>
    <i name="atom">  14520.78082121 </i>
    <i name="e_fr_energy">    -25.72654355 </i>
    <i name="e_wo_entrp">    -25.72654355 </i>
    <i name="e_0_energy">    -25.72654355 </i>
   </energy>
  </scstep>
  <scstep>
   <time name="dav">    0.72    0.72</time>
   <time name="total">    1.01    1.06</time>
   <energy>
    <i name="e_fr_energy">    -25.73193988 </i>
    <i name="e_wo_entrp">    -25.73193988 </i>
    <i name="e_0_energy">    -25.73193988 </i>
   </energy>
  </scstep>
  <scstep>
   <time name="dav">    0.74    0.73</time>
   <time name="total">    1.02    1.03</time>
   <energy>
    <i name="e_fr_energy">    -25.73183373 </i>
    <i name="e_wo_entrp">    -25.73183373 </i>
    <i name="e_0_energy">    -25.73183373 </i>
   </energy>
  </scstep>
  <scstep>
   <time name="dav">    0.68    0.68</time>
   <time name="total">    0.84    0.84</time>
   <energy>
    <i name="alphaZ">     32.32719086 </i>
    <i name="ewald">  15319.39351739 </i>
    <i name="hartreedc"> -29274.71601304 </i>
    <i name="XCdc">   -160.69986194 </i>
    <i name="pawpsdc">  14984.05776335 </i>
    <i name="pawaedc"> -14360.25626869 </i>
    <i name="eentropy">      0.00000000 </i>
    <i name="bandstr">  -1086.61895976 </i>
    <i name="atom">  14520.78082121 </i>
    <i name="e_fr_energy">    -25.73181062 </i>
    <i name="e_wo_entrp">    -25.73181062 </i>
    <i name="e_0_energy">    -25.73181062 </i>
   </energy>
  </scstep>
  <structure>
   <crystal>
    <varray name="basis" >
     <v>      17.27696400       0.00000000       0.00000000 </v>
     <v>       0.00000000      17.27696400       0.00000000 </v>
     <v>       0.00000000       0.00000000      17.27696400 </v>
    </varray>
    <i name="volume">   5157.06119557 </i>
    <varray name="rec_basis" >
     <v>       0.05788054       0.00000000       0.00000000 </v>
     <v>       0.00000000       0.05788054       0.00000000 </v>
     <v>       0.00000000       0.00000000       0.05788054 </v>
    </varray>
   </crystal>
   <varray name="positions" >
    <v>       0.50000000       0.50000000       0.62095625 </v>
    <v>       0.50000000       0.62095625       0.50000000 </v>
    <v>       0.37904375       0.50000000       0.50000000 </v>
    <v>       0.50000000       0.50000000       0.37904375 </v>
    <v>       0.62095625       0.50000000       0.50000000 </v>
    <v>       0.50000000       0.37904375       0.50000000 </v>
    <v>       0.38722109       0.38722109       0.61277891 </v>
    <v>       0.61277891       0.61277891       0.38722109 </v>
    <v>       0.61277891       0.38722109       0.38722109 </v>
    <v>       0.61277891       0.61277891       0.61277891 </v>
    <v>       0.38722109       0.61277891       0.61277891 </v>
    <v>       0.38722109       0.61277891       0.38722109 </v>
    <v>       0.38722109       0.38722109       0.38722109 </v>
    <v>       0.61277891       0.38722109       0.61277891 </v>
   </varray>
  </structure>
  <varray name="forces" >
   <v>       0.00000000       0.00000000      -0.02152202 </v>
   <v>       0.00000000      -0.02152202       0.00000000 </v>
   <v>       0.02152202       0.00000000       0.00000000 </v>
   <v>       0.00000000       0.00000000       0.02152202 </v>
   <v>      -0.02152202       0.00000000       0.00000000 </v>
   <v>       0.00000000       0.02152202       0.00000000 </v>
   <v>      -0.00416388      -0.00416388       0.00416388 </v>
   <v>       0.00416388       0.00416388      -0.00416388 </v>
   <v>       0.00416388      -0.00416388      -0.00416388 </v>
   <v>       0.00416388       0.00416388       0.00416388 </v>
   <v>      -0.00416388       0.00416388       0.00416388 </v>
   <v>      -0.00416388       0.00416388      -0.00416388 </v>
   <v>      -0.00416388      -0.00416388      -0.00416388 </v>
   <v>       0.00416388      -0.00416388       0.00416388 </v>
  </varray>
  <varray name="stress" >
   <v>      -1.55729117       0.00000000      -0.00000000 </v>
   <v>       0.00000000      -1.55729117      -0.00000000 </v>
   <v>       0.00000000       0.00000000      -1.55729117 </v>
  </varray>
  <energy>
   <i name="e_fr_energy">    -25.73181062 </i>
   <i name="e_wo_entrp">    -25.73181062 </i>
   <i name="e_0_energy">      0.00000000 </i>
  </energy>
  <time name="totalsc">    5.06    7.42</time>
  <eigenvalues>
   <array>
    <dimension dim="1">band</dimension>
    <dimension dim="2">kpoint</dimension>
    <dimension dim="3">spin</dimension>
    <field>eigene</field>
    <field>occ</field>
    <set>
     <set comment="spin 1">
      <set comment="kpoint 1">
       <r>   -8.8612    1.0000 </r>
       <r>   -8.6565    1.0000 </r>
       <r>   -8.6511    1.0000 </r>
       <r>   -8.6511    1.0000 </r>
       <r>   -8.6511    1.0000 </r>
       <r>   -8.6477    1.0000 </r>
       <r>   -8.6477    1.0000 </r>
       <r>   -8.6477    1.0000 </r>
       <r>   -8.5562    1.0000 </r>
       <r>   -8.5562    1.0000 </r>
       <r>   -8.5133    1.0000 </r>
       <r>   -8.1253    1.0000 </r>
       <r>   -8.1253    1.0000 </r>
       <r>   -8.1250    1.0000 </r>
       <r>   -8.1250    1.0000 </r>
       <r>   -8.1250    1.0000 </r>
       <r>   -7.9599    1.0000 </r>
       <r>   -7.9599    1.0000 </r>
       <r>   -7.9599    1.0000 </r>
       <r>   -7.8998    1.0000 </r>
       <r>   -7.8998    1.0000 </r>
       <r>   -7.8998    1.0000 </r>
       <r>   -7.5534    1.0000 </r>
       <r>   -7.5534    1.0000 </r>
       <r>   -7.2644    1.0000 </r>
       <r>   -7.2644    1.0000 </r>
       <r>   -7.2644    1.0000 </r>
       <r>   -7.2274    1.0000 </r>
       <r>   -7.2274    1.0000 </r>
       <r>   -7.2274    1.0000 </r>
       <r>   -7.0061    1.0000 </r>
       <r>   -7.0061    1.0000 </r>
       <r>   -7.0061    1.0000 </r>
       <r>   -7.0053    1.0000 </r>
       <r>   -7.0053    1.0000 </r>
       <r>   -7.0053    1.0000 </r>
       <r>   -6.8927    1.0000 </r>
       <r>   -6.8793    1.0000 </r>
       <r>   -6.8793    1.0000 </r>
       <r>   -6.8793    1.0000 </r>
       <r>   -6.8679    1.0000 </r>
       <r>   -6.8679    1.0000 </r>
       <r>   -6.8679    1.0000 </r>
       <r>   -6.8198    1.0000 </r>
       <r>   -6.8198    1.0000 </r>
       <r>   -6.8198    1.0000 </r>
       <r>   -6.7928    1.0000 </r>
       <r>   -6.7928    1.0000 </r>
       <r>   -6.7928    1.0000 </r>
       <r>   -6.7742    1.0000 </r>
       <r>   -6.7742    1.0000 </r>
       <r>   -6.7513    1.0000 </r>
       <r>   -6.6875    1.0000 </r>
       <r>   -6.6875    1.0000 </r>
       <r>   -6.6605    1.0000 </r>
       <r>   -6.4806    1.0000 </r>
       <r>   -6.4806    1.0000 </r>
       <r>   -6.4806    1.0000 </r>
       <r>   -6.4771    1.0000 </r>
       <r>   -6.4771    1.0000 </r>
       <r>   -6.4771    1.0000 </r>
       <r>   -6.4126    1.0000 </r>
       <r>   -6.4126    1.0000 </r>
       <r>   -6.4126    1.0000 </r>
       <r>   -6.3593    1.0000 </r>
       <r>   -6.3593    1.0000 </r>
       <r>   -6.3593    1.0000 </r>
       <r>   -6.3350    1.0000 </r>
       <r>   -6.3350    1.0000 </r>
       <r>   -5.9400    1.0000 </r>
       <r>   -5.9400    1.0000 </r>
       <r>   -5.6343    1.0000 </r>
       <r>   -5.6343    1.0000 </r>
       <r>   -5.6343    1.0000 </r>
       <r>   -3.8328    1.0000 </r>
       <r>   -3.8328    1.0000 </r>
       <r>   -3.8328    1.0000 </r>
       <r>   -2.8440    0.0000 </r>
       <r>   -2.7348    0.0000 </r>
       <r>   -2.7348    0.0000 </r>
       <r>   -2.1876    0.0000 </r>
       <r>   -1.4949    0.0000 </r>
       <r>   -1.4949    0.0000 </r>
       <r>   -1.4949    0.0000 </r>
       <r>   -0.7295    0.0000 </r>
       <r>   -0.7295    0.0000 </r>
       <r>   -0.7295    0.0000 </r>
       <r>   -0.5793    0.0000 </r>
       <r>   -0.5793    0.0000 </r>
       <r>   -0.5793    0.0000 </r>
       <r>   -0.4183    0.0000 </r>
       <r>   -0.4183    0.0000 </r>
       <r>   -0.4183    0.0000 </r>
       <r>    0.2278    0.0000 </r>
       <r>    0.6599    0.0000 </r>
       <r>    0.7366    0.0000 </r>
       <r>    0.7366    0.0000 </r>
       <r>    1.0251    0.0000 </r>
       <r>    1.0251    0.0000 </r>
       <r>    1.0251    0.0000 </r>
      </set>
     </set>
     <set comment="spin 2">
      <set comment="kpoint 1">
       <r>   -8.8612    1.0000 </r>
       <r>   -8.6565    1.0000 </r>
       <r>   -8.6511    1.0000 </r>
       <r>   -8.6511    1.0000 </r>
       <r>   -8.6511    1.0000 </r>
       <r>   -8.6477    1.0000 </r>
       <r>   -8.6477    1.0000 </r>
       <r>   -8.6477    1.0000 </r>
       <r>   -8.5562    1.0000 </r>
       <r>   -8.5562    1.0000 </r>
       <r>   -8.5133    1.0000 </r>
       <r>   -8.1253    1.0000 </r>
       <r>   -8.1253    1.0000 </r>
       <r>   -8.1250    1.0000 </r>
       <r>   -8.1250    1.0000 </r>
       <r>   -8.1250    1.0000 </r>
       <r>   -7.9599    1.0000 </r>
       <r>   -7.9599    1.0000 </r>
       <r>   -7.9599    1.0000 </r>
       <r>   -7.8998    1.0000 </r>
       <r>   -7.8998    1.0000 </r>
       <r>   -7.8998    1.0000 </r>
       <r>   -7.5534    1.0000 </r>
       <r>   -7.5534    1.0000 </r>
       <r>   -7.2644    1.0000 </r>
       <r>   -7.2644    1.0000 </r>
       <r>   -7.2644    1.0000 </r>
       <r>   -7.2275    1.0000 </r>
       <r>   -7.2275    1.0000 </r>
       <r>   -7.2275    1.0000 </r>
       <r>   -7.0061    1.0000 </r>
       <r>   -7.0061    1.0000 </r>
       <r>   -7.0061    1.0000 </r>
       <r>   -7.0053    1.0000 </r>
       <r>   -7.0053    1.0000 </r>
       <r>   -7.0053    1.0000 </r>
       <r>   -6.8927    1.0000 </r>
       <r>   -6.8793    1.0000 </r>
       <r>   -6.8793    1.0000 </r>
       <r>   -6.8793    1.0000 </r>
       <r>   -6.8679    1.0000 </r>
       <r>   -6.8679    1.0000 </r>
       <r>   -6.8679    1.0000 </r>
       <r>   -6.8199    1.0000 </r>
       <r>   -6.8199    1.0000 </r>
       <r>   -6.8199    1.0000 </r>
       <r>   -6.7928    1.0000 </r>
       <r>   -6.7928    1.0000 </r>
       <r>   -6.7928    1.0000 </r>
       <r>   -6.7742    1.0000 </r>
       <r>   -6.7742    1.0000 </r>
       <r>   -6.7513    1.0000 </r>
       <r>   -6.6875    1.0000 </r>
       <r>   -6.6875    1.0000 </r>
       <r>   -6.6605    1.0000 </r>
       <r>   -6.4806    1.0000 </r>
       <r>   -6.4806    1.0000 </r>
       <r>   -6.4806    1.0000 </r>
       <r>   -6.4771    1.0000 </r>
       <r>   -6.4771    1.0000 </r>
       <r>   -6.4771    1.0000 </r>
       <r>   -6.4126    1.0000 </r>
       <r>   -6.4126    1.0000 </r>
       <r>   -6.4126    1.0000 </r>
       <r>   -6.3593    1.0000 </r>
       <r>   -6.3593    1.0000 </r>
       <r>   -6.3593    1.0000 </r>
       <r>   -6.3350    1.0000 </r>
       <r>   -6.3350    1.0000 </r>
       <r>   -5.9400    1.0000 </r>
       <r>   -5.9400    1.0000 </r>
       <r>   -5.6343    1.0000 </r>
       <r>   -5.6343    1.0000 </r>
       <r>   -5.6343    1.0000 </r>
       <r>   -3.8328    1.0000 </r>
       <r>   -3.8328    1.0000 </r>
       <r>   -3.8328    1.0000 </r>
       <r>   -2.8440    0.0000 </r>
       <r>   -2.7348    0.0000 </r>
       <r>   -2.7348    0.0000 </r>
       <r>   -2.1876    0.0000 </r>
       <r>   -1.4949    0.0000 </r>
       <r>   -1.4949    0.0000 </r>
       <r>   -1.4949    0.0000 </r>
       <r>   -0.7296    0.0000 </r>
       <r>   -0.7296    0.0000 </r>
       <r>   -0.7296    0.0000 </r>
       <r>   -0.5794    0.0000 </r>
       <r>   -0.5794    0.0000 </r>
       <r>   -0.5794    0.0000 </r>
       <r>   -0.4183    0.0000 </r>
       <r>   -0.4183    0.0000 </r>
       <r>   -0.4183    0.0000 </r>
       <r>    0.2271    0.0000 </r>
       <r>    0.6603    0.0000 </r>
       <r>    0.7345    0.0000 </r>
       <r>    0.7345    0.0000 </r>
       <r>    1.0210    0.0000 </r>
       <r>    1.0210    0.0000 </r>
       <r>    1.0210    0.0000 </r>
      </set>
     </set>
    </set>
   </array>
  </eigenvalues>
  <separator name="orbital magnetization" >
   <v name="MAGDIPOLOUT">      0.00000000      0.00000000      0.00000000</v>
  </separator>
  <dos>
   <i name="efermi">     -3.82745680 </i>
   <total>
    <array>
     <dimension dim="1">gridpoints</dimension>
     <dimension dim="2">spin</dimension>
     <field>energy</field>
     <field>total</field>
     <field>integrated</field>
     <set>
      <set comment="spin 1">
       <r>    -9.3556     0.0000     0.0000 </r>
       <r>    -9.3193     0.0000     0.0000 </r>
       <r>    -9.2831     0.0000     0.0000 </r>
       <r>    -9.2468     0.0000     0.0000 </r>
       <r>    -9.2106     0.0000     0.0000 </r>
       <r>    -9.1743     0.0000     0.0000 </r>
       <r>    -9.1381     0.0000     0.0000 </r>
       <r>    -9.1018     0.0000     0.0000 </r>
       <r>    -9.0656     0.0000     0.0000 </r>
       <r>    -9.0293     0.0000     0.0000 </r>
       <r>    -8.9931     0.0000     0.0000 </r>
       <r>    -8.9568     0.0000     0.0000 </r>
       <r>    -8.9206     0.0000     0.0000 </r>
       <r>    -8.8843     0.0000     0.0000 </r>
       <r>    -8.8481     0.0000     1.0000 </r>
       <r>    -8.8118     0.0000     1.0000 </r>
       <r>    -8.7756     0.0000     1.0000 </r>
       <r>    -8.7393     0.0000     1.0000 </r>
       <r>    -8.7031     0.0000     1.0000 </r>
       <r>    -8.6668     0.0000     1.0000 </r>
       <r>    -8.6306     0.0000     8.0000 </r>
       <r>    -8.5943     0.0000     8.0000 </r>
       <r>    -8.5581     0.0000     8.0000 </r>
       <r>    -8.5218     0.0000    10.0000 </r>
       <r>    -8.4856     0.0000    11.0000 </r>
       <r>    -8.4493     0.0000    11.0000 </r>
       <r>    -8.4131     0.0000    11.0000 </r>
       <r>    -8.3768     0.0000    11.0000 </r>
       <r>    -8.3406     0.0000    11.0000 </r>
       <r>    -8.3043     0.0000    11.0000 </r>
       <r>    -8.2681     0.0000    11.0000 </r>
       <r>    -8.2318     0.0000    11.0000 </r>
       <r>    -8.1956     0.0000    11.0000 </r>
       <r>    -8.1593     0.0000    11.0000 </r>
       <r>    -8.1231     0.0000    16.0000 </r>
       <r>    -8.0868     0.0000    16.0000 </r>
       <r>    -8.0506     0.0000    16.0000 </r>
       <r>    -8.0143     0.0000    16.0000 </r>
       <r>    -7.9781     0.0000    16.0000 </r>
       <r>    -7.9418     0.0000    19.0000 </r>
       <r>    -7.9056     0.0000    19.0000 </r>
       <r>    -7.8693     0.0000    22.0000 </r>
       <r>    -7.8331     0.0000    22.0000 </r>
       <r>    -7.7968     0.0000    22.0000 </r>
       <r>    -7.7606     0.0000    22.0000 </r>
       <r>    -7.7243     0.0000    22.0000 </r>
       <r>    -7.6881     0.0000    22.0000 </r>
       <r>    -7.6518     0.0000    22.0000 </r>
       <r>    -7.6156     0.0000    22.0000 </r>
       <r>    -7.5793     0.0000    22.0000 </r>
       <r>    -7.5431     0.0000    24.0000 </r>
       <r>    -7.5068     0.0000    24.0000 </r>
       <r>    -7.4706     0.0000    24.0000 </r>
       <r>    -7.4343     0.0000    24.0000 </r>
       <r>    -7.3981     0.0000    24.0000 </r>
       <r>    -7.3618     0.0000    24.0000 </r>
       <r>    -7.3256     0.0000    24.0000 </r>
       <r>    -7.2893     0.0000    24.0000 </r>
       <r>    -7.2531     0.0000    27.0000 </r>
       <r>    -7.2168     0.0000    30.0000 </r>
       <r>    -7.1806     0.0000    30.0000 </r>
       <r>    -7.1443     0.0000    30.0000 </r>
       <r>    -7.1081     0.0000    30.0000 </r>
       <r>    -7.0718     0.0000    30.0000 </r>
       <r>    -7.0356     0.0000    30.0000 </r>
       <r>    -6.9993     0.0000    36.0000 </r>
       <r>    -6.9631     0.0000    36.0000 </r>
       <r>    -6.9268     0.0000    36.0000 </r>
       <r>    -6.8906     0.0000    37.0000 </r>
       <r>    -6.8543     0.0000    43.0000 </r>
       <r>    -6.8181     0.0000    46.0000 </r>
       <r>    -6.7818     0.0000    49.0000 </r>
       <r>    -6.7456     0.0000    52.0000 </r>
       <r>    -6.7093     0.0000    52.0000 </r>
       <r>    -6.6731     0.0000    54.0000 </r>
       <r>    -6.6368     0.0000    55.0000 </r>
       <r>    -6.6006     0.0000    55.0000 </r>
       <r>    -6.5643     0.0000    55.0000 </r>
       <r>    -6.5281     0.0000    55.0000 </r>
       <r>    -6.4918     0.0000    55.0000 </r>
       <r>    -6.4556     0.0000    61.0000 </r>
       <r>    -6.4193     0.0000    61.0000 </r>
       <r>    -6.3831     0.0000    64.0000 </r>
       <r>    -6.3468     0.0000    67.0000 </r>
       <r>    -6.3106     0.0000    69.0000 </r>
       <r>    -6.2743     0.0000    69.0000 </r>
       <r>    -6.2381     0.0000    69.0000 </r>
       <r>    -6.2018     0.0000    69.0000 </r>
       <r>    -6.1656     0.0000    69.0000 </r>
       <r>    -6.1293     0.0000    69.0000 </r>
       <r>    -6.0931     0.0000    69.0000 </r>
       <r>    -6.0568     0.0000    69.0000 </r>
       <r>    -6.0206     0.0000    69.0000 </r>
       <r>    -5.9843     0.0000    69.0000 </r>
       <r>    -5.9481     0.0000    69.0000 </r>
       <r>    -5.9118     0.0000    71.0000 </r>
       <r>    -5.8756     0.0000    71.0000 </r>
       <r>    -5.8393     0.0000    71.0000 </r>
       <r>    -5.8031     0.0000    71.0000 </r>
       <r>    -5.7668     0.0000    71.0000 </r>
       <r>    -5.7306     0.0000    71.0000 </r>
       <r>    -5.6943     0.0000    71.0000 </r>
       <r>    -5.6581     0.0000    71.0000 </r>
       <r>    -5.6218     0.0000    74.0000 </r>
       <r>    -5.5856     0.0000    74.0000 </r>
       <r>    -5.5493     0.0000    74.0000 </r>
       <r>    -5.5131     0.0000    74.0000 </r>
       <r>    -5.4768     0.0000    74.0000 </r>
       <r>    -5.4406     0.0000    74.0000 </r>
       <r>    -5.4043     0.0000    74.0000 </r>
       <r>    -5.3681     0.0000    74.0000 </r>
       <r>    -5.3318     0.0000    74.0000 </r>
       <r>    -5.2956     0.0000    74.0000 </r>
       <r>    -5.2593     0.0000    74.0000 </r>
       <r>    -5.2231     0.0000    74.0000 </r>
       <r>    -5.1868     0.0000    74.0000 </r>
       <r>    -5.1506     0.0000    74.0000 </r>
       <r>    -5.1143     0.0000    74.0000 </r>
       <r>    -5.0781     0.0000    74.0000 </r>
       <r>    -5.0418     0.0000    74.0000 </r>
       <r>    -5.0056     0.0000    74.0000 </r>
       <r>    -4.9693     0.0000    74.0000 </r>
       <r>    -4.9331     0.0000    74.0000 </r>
       <r>    -4.8968     0.0000    74.0000 </r>
       <r>    -4.8606     0.0000    74.0000 </r>
       <r>    -4.8243     0.0000    74.0000 </r>
       <r>    -4.7881     0.0000    74.0000 </r>
       <r>    -4.7518     0.0000    74.0000 </r>
       <r>    -4.7156     0.0000    74.0000 </r>
       <r>    -4.6793     0.0000    74.0000 </r>
       <r>    -4.6431     0.0000    74.0000 </r>
       <r>    -4.6068     0.0000    74.0000 </r>
       <r>    -4.5706     0.0000    74.0000 </r>
       <r>    -4.5343     0.0000    74.0000 </r>
       <r>    -4.4981     0.0000    74.0000 </r>
       <r>    -4.4618     0.0000    74.0000 </r>
       <r>    -4.4256     0.0000    74.0000 </r>
       <r>    -4.3893     0.0000    74.0000 </r>
       <r>    -4.3531     0.0000    74.0000 </r>
       <r>    -4.3168     0.0000    74.0000 </r>
       <r>    -4.2806     0.0000    74.0000 </r>
       <r>    -4.2443     0.0000    74.0000 </r>
       <r>    -4.2081     0.0000    74.0000 </r>
       <r>    -4.1718     0.0000    74.0000 </r>
       <r>    -4.1356     0.0000    74.0000 </r>
       <r>    -4.0993     0.0000    74.0000 </r>
       <r>    -4.0631     0.0000    74.0000 </r>
       <r>    -4.0268     0.0000    74.0000 </r>
       <r>    -3.9906     0.0000    74.0000 </r>
       <r>    -3.9543     0.0000    74.0000 </r>
       <r>    -3.9181     0.0000    74.0000 </r>
       <r>    -3.8818     0.0000    74.0000 </r>
       <r>    -3.8456     0.0000    74.0000 </r>
       <r>    -3.8093     0.0000    77.0000 </r>
       <r>    -3.7731     0.0000    77.0000 </r>
       <r>    -3.7368     0.0000    77.0000 </r>
       <r>    -3.7006     0.0000    77.0000 </r>
       <r>    -3.6643     0.0000    77.0000 </r>
       <r>    -3.6281     0.0000    77.0000 </r>
       <r>    -3.5918     0.0000    77.0000 </r>
       <r>    -3.5556     0.0000    77.0000 </r>
       <r>    -3.5193     0.0000    77.0000 </r>
       <r>    -3.4831     0.0000    77.0000 </r>
       <r>    -3.4468     0.0000    77.0000 </r>
       <r>    -3.4106     0.0000    77.0000 </r>
       <r>    -3.3743     0.0000    77.0000 </r>
       <r>    -3.3381     0.0000    77.0000 </r>
       <r>    -3.3018     0.0000    77.0000 </r>
       <r>    -3.2656     0.0000    77.0000 </r>
       <r>    -3.2293     0.0000    77.0000 </r>
       <r>    -3.1931     0.0000    77.0000 </r>
       <r>    -3.1568     0.0000    77.0000 </r>
       <r>    -3.1206     0.0000    77.0000 </r>
       <r>    -3.0843     0.0000    77.0000 </r>
       <r>    -3.0481     0.0000    77.0000 </r>
       <r>    -3.0118     0.0000    77.0000 </r>
       <r>    -2.9756     0.0000    77.0000 </r>
       <r>    -2.9393     0.0000    77.0000 </r>
       <r>    -2.9031     0.0000    77.0000 </r>
       <r>    -2.8668     0.0000    77.0000 </r>
       <r>    -2.8306     0.0000    78.0000 </r>
       <r>    -2.7943     0.0000    78.0000 </r>
       <r>    -2.7581     0.0000    78.0000 </r>
       <r>    -2.7218     0.0000    80.0000 </r>
       <r>    -2.6856     0.0000    80.0000 </r>
       <r>    -2.6493     0.0000    80.0000 </r>
       <r>    -2.6131     0.0000    80.0000 </r>
       <r>    -2.5768     0.0000    80.0000 </r>
       <r>    -2.5406     0.0000    80.0000 </r>
       <r>    -2.5043     0.0000    80.0000 </r>
       <r>    -2.4681     0.0000    80.0000 </r>
       <r>    -2.4318     0.0000    80.0000 </r>
       <r>    -2.3956     0.0000    80.0000 </r>
       <r>    -2.3593     0.0000    80.0000 </r>
       <r>    -2.3231     0.0000    80.0000 </r>
       <r>    -2.2868     0.0000    80.0000 </r>
       <r>    -2.2506     0.0000    80.0000 </r>
       <r>    -2.2143     0.0000    80.0000 </r>
       <r>    -2.1781     0.0000    81.0000 </r>
       <r>    -2.1418     0.0000    81.0000 </r>
       <r>    -2.1056     0.0000    81.0000 </r>
       <r>    -2.0693     0.0000    81.0000 </r>
       <r>    -2.0331     0.0000    81.0000 </r>
       <r>    -1.9968     0.0000    81.0000 </r>
       <r>    -1.9606     0.0000    81.0000 </r>
       <r>    -1.9243     0.0000    81.0000 </r>
       <r>    -1.8881     0.0000    81.0000 </r>
       <r>    -1.8518     0.0000    81.0000 </r>
       <r>    -1.8156     0.0000    81.0000 </r>
       <r>    -1.7793     0.0000    81.0000 </r>
       <r>    -1.7431     0.0000    81.0000 </r>
       <r>    -1.7068     0.0000    81.0000 </r>
       <r>    -1.6706     0.0000    81.0000 </r>
       <r>    -1.6343     0.0000    81.0000 </r>
       <r>    -1.5981     0.0000    81.0000 </r>
       <r>    -1.5618     0.0000    81.0000 </r>
       <r>    -1.5256     0.0000    81.0000 </r>
       <r>    -1.4893     0.0000    84.0000 </r>
       <r>    -1.4531     0.0000    84.0000 </r>
       <r>    -1.4168     0.0000    84.0000 </r>
       <r>    -1.3806     0.0000    84.0000 </r>
       <r>    -1.3443     0.0000    84.0000 </r>
       <r>    -1.3081     0.0000    84.0000 </r>
       <r>    -1.2718     0.0000    84.0000 </r>
       <r>    -1.2356     0.0000    84.0000 </r>
       <r>    -1.1993     0.0000    84.0000 </r>
       <r>    -1.1631     0.0000    84.0000 </r>
       <r>    -1.1268     0.0000    84.0000 </r>
       <r>    -1.0906     0.0000    84.0000 </r>
       <r>    -1.0543     0.0000    84.0000 </r>
       <r>    -1.0181     0.0000    84.0000 </r>
       <r>    -0.9818     0.0000    84.0000 </r>
       <r>    -0.9456     0.0000    84.0000 </r>
       <r>    -0.9093     0.0000    84.0000 </r>
       <r>    -0.8731     0.0000    84.0000 </r>
       <r>    -0.8368     0.0000    84.0000 </r>
       <r>    -0.8006     0.0000    84.0000 </r>
       <r>    -0.7643     0.0000    84.0000 </r>
       <r>    -0.7281     0.0000    87.0000 </r>
       <r>    -0.6918     0.0000    87.0000 </r>
       <r>    -0.6556     0.0000    87.0000 </r>
       <r>    -0.6193     0.0000    87.0000 </r>
       <r>    -0.5831     0.0000    87.0000 </r>
       <r>    -0.5468     0.0000    90.0000 </r>
       <r>    -0.5106     0.0000    90.0000 </r>
       <r>    -0.4744     0.0000    90.0000 </r>
       <r>    -0.4381     0.0000    90.0000 </r>
       <r>    -0.4019     0.0000    93.0000 </r>
       <r>    -0.3656     0.0000    93.0000 </r>
       <r>    -0.3294     0.0000    93.0000 </r>
       <r>    -0.2931     0.0000    93.0000 </r>
       <r>    -0.2569     0.0000    93.0000 </r>
       <r>    -0.2206     0.0000    93.0000 </r>
       <r>    -0.1844     0.0000    93.0000 </r>
       <r>    -0.1481     0.0000    93.0000 </r>
       <r>    -0.1119     0.0000    93.0000 </r>
       <r>    -0.0756     0.0000    93.0000 </r>
       <r>    -0.0394     0.0000    93.0000 </r>
       <r>    -0.0031     0.0000    93.0000 </r>
       <r>     0.0331     0.0000    93.0000 </r>
       <r>     0.0694     0.0000    93.0000 </r>
       <r>     0.1056     0.0000    93.0000 </r>
       <r>     0.1419     0.0000    93.0000 </r>
       <r>     0.1781     0.0000    93.0000 </r>
       <r>     0.2144     0.0000    93.0000 </r>
       <r>     0.2506     0.0000    94.0000 </r>
       <r>     0.2869     0.0000    94.0000 </r>
       <r>     0.3231     0.0000    94.0000 </r>
       <r>     0.3594     0.0000    94.0000 </r>
       <r>     0.3956     0.0000    94.0000 </r>
       <r>     0.4319     0.0000    94.0000 </r>
       <r>     0.4681     0.0000    94.0000 </r>
       <r>     0.5044     0.0000    94.0000 </r>
       <r>     0.5406     0.0000    94.0000 </r>
       <r>     0.5769     0.0000    94.0000 </r>
       <r>     0.6131     0.0000    94.0000 </r>
       <r>     0.6494     0.0000    94.0000 </r>
       <r>     0.6856     0.0000    95.0000 </r>
       <r>     0.7219     0.0000    95.0000 </r>
       <r>     0.7581     0.0000    97.0000 </r>
       <r>     0.7944     0.0000    97.0000 </r>
       <r>     0.8306     0.0000    97.0000 </r>
       <r>     0.8669     0.0000    97.0000 </r>
       <r>     0.9031     0.0000    97.0000 </r>
       <r>     0.9394     0.0000    97.0000 </r>
       <r>     0.9756     0.0000    97.0000 </r>
       <r>     1.0119     0.0000    97.0000 </r>
       <r>     1.0481     0.0000   100.0000 </r>
       <r>     1.0844     0.0000   100.0000 </r>
       <r>     1.1206     0.0000   100.0000 </r>
       <r>     1.1569     0.0000   100.0000 </r>
       <r>     1.1931     0.0000   100.0000 </r>
       <r>     1.2294     0.0000   100.0000 </r>
       <r>     1.2656     0.0000   100.0000 </r>
       <r>     1.3019     0.0000   100.0000 </r>
       <r>     1.3381     0.0000   100.0000 </r>
       <r>     1.3744     0.0000   100.0000 </r>
       <r>     1.4106     0.0000   100.0000 </r>
       <r>     1.4469     0.0000   100.0000 </r>
       <r>     1.4831     0.0000   100.0000 </r>
       <r>     1.5194     0.0000   100.0000 </r>
      </set>
      <set comment="spin 2">
       <r>    -9.3556     0.0000     0.0000 </r>
       <r>    -9.3193     0.0000     0.0000 </r>
       <r>    -9.2831     0.0000     0.0000 </r>
       <r>    -9.2468     0.0000     0.0000 </r>
       <r>    -9.2106     0.0000     0.0000 </r>
       <r>    -9.1743     0.0000     0.0000 </r>
       <r>    -9.1381     0.0000     0.0000 </r>
       <r>    -9.1018     0.0000     0.0000 </r>
       <r>    -9.0656     0.0000     0.0000 </r>
       <r>    -9.0293     0.0000     0.0000 </r>
       <r>    -8.9931     0.0000     0.0000 </r>
       <r>    -8.9568     0.0000     0.0000 </r>
       <r>    -8.9206     0.0000     0.0000 </r>
       <r>    -8.8843     0.0000     0.0000 </r>
       <r>    -8.8481     0.0000     1.0000 </r>
       <r>    -8.8118     0.0000     1.0000 </r>
       <r>    -8.7756     0.0000     1.0000 </r>
       <r>    -8.7393     0.0000     1.0000 </r>
       <r>    -8.7031     0.0000     1.0000 </r>
       <r>    -8.6668     0.0000     1.0000 </r>
       <r>    -8.6306     0.0000     8.0000 </r>
       <r>    -8.5943     0.0000     8.0000 </r>
       <r>    -8.5581     0.0000     8.0000 </r>
       <r>    -8.5218     0.0000    10.0000 </r>
       <r>    -8.4856     0.0000    11.0000 </r>
       <r>    -8.4493     0.0000    11.0000 </r>
       <r>    -8.4131     0.0000    11.0000 </r>
       <r>    -8.3768     0.0000    11.0000 </r>
       <r>    -8.3406     0.0000    11.0000 </r>
       <r>    -8.3043     0.0000    11.0000 </r>
       <r>    -8.2681     0.0000    11.0000 </r>
       <r>    -8.2318     0.0000    11.0000 </r>
       <r>    -8.1956     0.0000    11.0000 </r>
       <r>    -8.1593     0.0000    11.0000 </r>
       <r>    -8.1231     0.0000    16.0000 </r>
       <r>    -8.0868     0.0000    16.0000 </r>
       <r>    -8.0506     0.0000    16.0000 </r>
       <r>    -8.0143     0.0000    16.0000 </r>
       <r>    -7.9781     0.0000    16.0000 </r>
       <r>    -7.9418     0.0000    19.0000 </r>
       <r>    -7.9056     0.0000    19.0000 </r>
       <r>    -7.8693     0.0000    22.0000 </r>
       <r>    -7.8331     0.0000    22.0000 </r>
       <r>    -7.7968     0.0000    22.0000 </r>
       <r>    -7.7606     0.0000    22.0000 </r>
       <r>    -7.7243     0.0000    22.0000 </r>
       <r>    -7.6881     0.0000    22.0000 </r>
       <r>    -7.6518     0.0000    22.0000 </r>
       <r>    -7.6156     0.0000    22.0000 </r>
       <r>    -7.5793     0.0000    22.0000 </r>
       <r>    -7.5431     0.0000    24.0000 </r>
       <r>    -7.5068     0.0000    24.0000 </r>
       <r>    -7.4706     0.0000    24.0000 </r>
       <r>    -7.4343     0.0000    24.0000 </r>
       <r>    -7.3981     0.0000    24.0000 </r>
       <r>    -7.3618     0.0000    24.0000 </r>
       <r>    -7.3256     0.0000    24.0000 </r>
       <r>    -7.2893     0.0000    24.0000 </r>
       <r>    -7.2531     0.0000    27.0000 </r>
       <r>    -7.2168     0.0000    30.0000 </r>
       <r>    -7.1806     0.0000    30.0000 </r>
       <r>    -7.1443     0.0000    30.0000 </r>
       <r>    -7.1081     0.0000    30.0000 </r>
       <r>    -7.0718     0.0000    30.0000 </r>
       <r>    -7.0356     0.0000    30.0000 </r>
       <r>    -6.9993     0.0000    36.0000 </r>
       <r>    -6.9631     0.0000    36.0000 </r>
       <r>    -6.9268     0.0000    36.0000 </r>
       <r>    -6.8906     0.0000    37.0000 </r>
       <r>    -6.8543     0.0000    43.0000 </r>
       <r>    -6.8181     0.0000    46.0000 </r>
       <r>    -6.7818     0.0000    49.0000 </r>
       <r>    -6.7456     0.0000    52.0000 </r>
       <r>    -6.7093     0.0000    52.0000 </r>
       <r>    -6.6731     0.0000    54.0000 </r>
       <r>    -6.6368     0.0000    55.0000 </r>
       <r>    -6.6006     0.0000    55.0000 </r>
       <r>    -6.5643     0.0000    55.0000 </r>
       <r>    -6.5281     0.0000    55.0000 </r>
       <r>    -6.4918     0.0000    55.0000 </r>
       <r>    -6.4556     0.0000    61.0000 </r>
       <r>    -6.4193     0.0000    61.0000 </r>
       <r>    -6.3831     0.0000    64.0000 </r>
       <r>    -6.3468     0.0000    67.0000 </r>
       <r>    -6.3106     0.0000    69.0000 </r>
       <r>    -6.2743     0.0000    69.0000 </r>
       <r>    -6.2381     0.0000    69.0000 </r>
       <r>    -6.2018     0.0000    69.0000 </r>
       <r>    -6.1656     0.0000    69.0000 </r>
       <r>    -6.1293     0.0000    69.0000 </r>
       <r>    -6.0931     0.0000    69.0000 </r>
       <r>    -6.0568     0.0000    69.0000 </r>
       <r>    -6.0206     0.0000    69.0000 </r>
       <r>    -5.9843     0.0000    69.0000 </r>
       <r>    -5.9481     0.0000    69.0000 </r>
       <r>    -5.9118     0.0000    71.0000 </r>
       <r>    -5.8756     0.0000    71.0000 </r>
       <r>    -5.8393     0.0000    71.0000 </r>
       <r>    -5.8031     0.0000    71.0000 </r>
       <r>    -5.7668     0.0000    71.0000 </r>
       <r>    -5.7306     0.0000    71.0000 </r>
       <r>    -5.6943     0.0000    71.0000 </r>
       <r>    -5.6581     0.0000    71.0000 </r>
       <r>    -5.6218     0.0000    74.0000 </r>
       <r>    -5.5856     0.0000    74.0000 </r>
       <r>    -5.5493     0.0000    74.0000 </r>
       <r>    -5.5131     0.0000    74.0000 </r>
       <r>    -5.4768     0.0000    74.0000 </r>
       <r>    -5.4406     0.0000    74.0000 </r>
       <r>    -5.4043     0.0000    74.0000 </r>
       <r>    -5.3681     0.0000    74.0000 </r>
       <r>    -5.3318     0.0000    74.0000 </r>
       <r>    -5.2956     0.0000    74.0000 </r>
       <r>    -5.2593     0.0000    74.0000 </r>
       <r>    -5.2231     0.0000    74.0000 </r>
       <r>    -5.1868     0.0000    74.0000 </r>
       <r>    -5.1506     0.0000    74.0000 </r>
       <r>    -5.1143     0.0000    74.0000 </r>
       <r>    -5.0781     0.0000    74.0000 </r>
       <r>    -5.0418     0.0000    74.0000 </r>
       <r>    -5.0056     0.0000    74.0000 </r>
       <r>    -4.9693     0.0000    74.0000 </r>
       <r>    -4.9331     0.0000    74.0000 </r>
       <r>    -4.8968     0.0000    74.0000 </r>
       <r>    -4.8606     0.0000    74.0000 </r>
       <r>    -4.8243     0.0000    74.0000 </r>
       <r>    -4.7881     0.0000    74.0000 </r>
       <r>    -4.7518     0.0000    74.0000 </r>
       <r>    -4.7156     0.0000    74.0000 </r>
       <r>    -4.6793     0.0000    74.0000 </r>
       <r>    -4.6431     0.0000    74.0000 </r>
       <r>    -4.6068     0.0000    74.0000 </r>
       <r>    -4.5706     0.0000    74.0000 </r>
       <r>    -4.5343     0.0000    74.0000 </r>
       <r>    -4.4981     0.0000    74.0000 </r>
       <r>    -4.4618     0.0000    74.0000 </r>
       <r>    -4.4256     0.0000    74.0000 </r>
       <r>    -4.3893     0.0000    74.0000 </r>
       <r>    -4.3531     0.0000    74.0000 </r>
       <r>    -4.3168     0.0000    74.0000 </r>
       <r>    -4.2806     0.0000    74.0000 </r>
       <r>    -4.2443     0.0000    74.0000 </r>
       <r>    -4.2081     0.0000    74.0000 </r>
       <r>    -4.1718     0.0000    74.0000 </r>
       <r>    -4.1356     0.0000    74.0000 </r>
       <r>    -4.0993     0.0000    74.0000 </r>
       <r>    -4.0631     0.0000    74.0000 </r>
       <r>    -4.0268     0.0000    74.0000 </r>
       <r>    -3.9906     0.0000    74.0000 </r>
       <r>    -3.9543     0.0000    74.0000 </r>
       <r>    -3.9181     0.0000    74.0000 </r>
       <r>    -3.8818     0.0000    74.0000 </r>
       <r>    -3.8456     0.0000    74.0000 </r>
       <r>    -3.8093     0.0000    77.0000 </r>
       <r>    -3.7731     0.0000    77.0000 </r>
       <r>    -3.7368     0.0000    77.0000 </r>
       <r>    -3.7006     0.0000    77.0000 </r>
       <r>    -3.6643     0.0000    77.0000 </r>
       <r>    -3.6281     0.0000    77.0000 </r>
       <r>    -3.5918     0.0000    77.0000 </r>
       <r>    -3.5556     0.0000    77.0000 </r>
       <r>    -3.5193     0.0000    77.0000 </r>
       <r>    -3.4831     0.0000    77.0000 </r>
       <r>    -3.4468     0.0000    77.0000 </r>
       <r>    -3.4106     0.0000    77.0000 </r>
       <r>    -3.3743     0.0000    77.0000 </r>
       <r>    -3.3381     0.0000    77.0000 </r>
       <r>    -3.3018     0.0000    77.0000 </r>
       <r>    -3.2656     0.0000    77.0000 </r>
       <r>    -3.2293     0.0000    77.0000 </r>
       <r>    -3.1931     0.0000    77.0000 </r>
       <r>    -3.1568     0.0000    77.0000 </r>
       <r>    -3.1206     0.0000    77.0000 </r>
       <r>    -3.0843     0.0000    77.0000 </r>
       <r>    -3.0481     0.0000    77.0000 </r>
       <r>    -3.0118     0.0000    77.0000 </r>
       <r>    -2.9756     0.0000    77.0000 </r>
       <r>    -2.9393     0.0000    77.0000 </r>
       <r>    -2.9031     0.0000    77.0000 </r>
       <r>    -2.8668     0.0000    77.0000 </r>
       <r>    -2.8306     0.0000    78.0000 </r>
       <r>    -2.7943     0.0000    78.0000 </r>
       <r>    -2.7581     0.0000    78.0000 </r>
       <r>    -2.7218     0.0000    80.0000 </r>
       <r>    -2.6856     0.0000    80.0000 </r>
       <r>    -2.6493     0.0000    80.0000 </r>
       <r>    -2.6131     0.0000    80.0000 </r>
       <r>    -2.5768     0.0000    80.0000 </r>
       <r>    -2.5406     0.0000    80.0000 </r>
       <r>    -2.5043     0.0000    80.0000 </r>
       <r>    -2.4681     0.0000    80.0000 </r>
       <r>    -2.4318     0.0000    80.0000 </r>
       <r>    -2.3956     0.0000    80.0000 </r>
       <r>    -2.3593     0.0000    80.0000 </r>
       <r>    -2.3231     0.0000    80.0000 </r>
       <r>    -2.2868     0.0000    80.0000 </r>
       <r>    -2.2506     0.0000    80.0000 </r>
       <r>    -2.2143     0.0000    80.0000 </r>
       <r>    -2.1781     0.0000    81.0000 </r>
       <r>    -2.1418     0.0000    81.0000 </r>
       <r>    -2.1056     0.0000    81.0000 </r>
       <r>    -2.0693     0.0000    81.0000 </r>
       <r>    -2.0331     0.0000    81.0000 </r>
       <r>    -1.9968     0.0000    81.0000 </r>
       <r>    -1.9606     0.0000    81.0000 </r>
       <r>    -1.9243     0.0000    81.0000 </r>
       <r>    -1.8881     0.0000    81.0000 </r>
       <r>    -1.8518     0.0000    81.0000 </r>
       <r>    -1.8156     0.0000    81.0000 </r>
       <r>    -1.7793     0.0000    81.0000 </r>
       <r>    -1.7431     0.0000    81.0000 </r>
       <r>    -1.7068     0.0000    81.0000 </r>
       <r>    -1.6706     0.0000    81.0000 </r>
       <r>    -1.6343     0.0000    81.0000 </r>
       <r>    -1.5981     0.0000    81.0000 </r>
       <r>    -1.5618     0.0000    81.0000 </r>
       <r>    -1.5256     0.0000    81.0000 </r>
       <r>    -1.4893     0.0000    84.0000 </r>
       <r>    -1.4531     0.0000    84.0000 </r>
       <r>    -1.4168     0.0000    84.0000 </r>
       <r>    -1.3806     0.0000    84.0000 </r>
       <r>    -1.3443     0.0000    84.0000 </r>
       <r>    -1.3081     0.0000    84.0000 </r>
       <r>    -1.2718     0.0000    84.0000 </r>
       <r>    -1.2356     0.0000    84.0000 </r>
       <r>    -1.1993     0.0000    84.0000 </r>
       <r>    -1.1631     0.0000    84.0000 </r>
       <r>    -1.1268     0.0000    84.0000 </r>
       <r>    -1.0906     0.0000    84.0000 </r>
       <r>    -1.0543     0.0000    84.0000 </r>
       <r>    -1.0181     0.0000    84.0000 </r>
       <r>    -0.9818     0.0000    84.0000 </r>
       <r>    -0.9456     0.0000    84.0000 </r>
       <r>    -0.9093     0.0000    84.0000 </r>
       <r>    -0.8731     0.0000    84.0000 </r>
       <r>    -0.8368     0.0000    84.0000 </r>
       <r>    -0.8006     0.0000    84.0000 </r>
       <r>    -0.7643     0.0000    84.0000 </r>
       <r>    -0.7281     0.0000    87.0000 </r>
       <r>    -0.6918     0.0000    87.0000 </r>
       <r>    -0.6556     0.0000    87.0000 </r>
       <r>    -0.6193     0.0000    87.0000 </r>
       <r>    -0.5831     0.0000    87.0000 </r>
       <r>    -0.5468     0.0000    90.0000 </r>
       <r>    -0.5106     0.0000    90.0000 </r>
       <r>    -0.4744     0.0000    90.0000 </r>
       <r>    -0.4381     0.0000    90.0000 </r>
       <r>    -0.4019     0.0000    93.0000 </r>
       <r>    -0.3656     0.0000    93.0000 </r>
       <r>    -0.3294     0.0000    93.0000 </r>
       <r>    -0.2931     0.0000    93.0000 </r>
       <r>    -0.2569     0.0000    93.0000 </r>
       <r>    -0.2206     0.0000    93.0000 </r>
       <r>    -0.1844     0.0000    93.0000 </r>
       <r>    -0.1481     0.0000    93.0000 </r>
       <r>    -0.1119     0.0000    93.0000 </r>
       <r>    -0.0756     0.0000    93.0000 </r>
       <r>    -0.0394     0.0000    93.0000 </r>
       <r>    -0.0031     0.0000    93.0000 </r>
       <r>     0.0331     0.0000    93.0000 </r>
       <r>     0.0694     0.0000    93.0000 </r>
       <r>     0.1056     0.0000    93.0000 </r>
       <r>     0.1419     0.0000    93.0000 </r>
       <r>     0.1781     0.0000    93.0000 </r>
       <r>     0.2144     0.0000    93.0000 </r>
       <r>     0.2506     0.0000    94.0000 </r>
       <r>     0.2869     0.0000    94.0000 </r>
       <r>     0.3231     0.0000    94.0000 </r>
       <r>     0.3594     0.0000    94.0000 </r>
       <r>     0.3956     0.0000    94.0000 </r>
       <r>     0.4319     0.0000    94.0000 </r>
       <r>     0.4681     0.0000    94.0000 </r>
       <r>     0.5044     0.0000    94.0000 </r>
       <r>     0.5406     0.0000    94.0000 </r>
       <r>     0.5769     0.0000    94.0000 </r>
       <r>     0.6131     0.0000    94.0000 </r>
       <r>     0.6494     0.0000    94.0000 </r>
       <r>     0.6856     0.0000    95.0000 </r>
       <r>     0.7219     0.0000    95.0000 </r>
       <r>     0.7581     0.0000    97.0000 </r>
       <r>     0.7944     0.0000    97.0000 </r>
       <r>     0.8306     0.0000    97.0000 </r>
       <r>     0.8669     0.0000    97.0000 </r>
       <r>     0.9031     0.0000    97.0000 </r>
       <r>     0.9394     0.0000    97.0000 </r>
       <r>     0.9756     0.0000    97.0000 </r>
       <r>     1.0119     0.0000    97.0000 </r>
       <r>     1.0481     0.0000   100.0000 </r>
       <r>     1.0844     0.0000   100.0000 </r>
       <r>     1.1206     0.0000   100.0000 </r>
       <r>     1.1569     0.0000   100.0000 </r>
       <r>     1.1931     0.0000   100.0000 </r>
       <r>     1.2294     0.0000   100.0000 </r>
       <r>     1.2656     0.0000   100.0000 </r>
       <r>     1.3019     0.0000   100.0000 </r>
       <r>     1.3381     0.0000   100.0000 </r>
       <r>     1.3744     0.0000   100.0000 </r>
       <r>     1.4106     0.0000   100.0000 </r>
       <r>     1.4469     0.0000   100.0000 </r>
       <r>     1.4831     0.0000   100.0000 </r>
       <r>     1.5194     0.0000   100.0000 </r>
      </set>
     </set>
    </array>
   </total>
  </dos>
 </calculation>
 <structure name="finalpos" >
  <crystal>
   <varray name="basis" >
    <v>      17.27696400       0.00000000       0.00000000 </v>
    <v>       0.00000000      17.27696400       0.00000000 </v>
    <v>       0.00000000       0.00000000      17.27696400 </v>
   </varray>
   <i name="volume">   5157.06119557 </i>
   <varray name="rec_basis" >
    <v>       0.05788054       0.00000000       0.00000000 </v>
    <v>       0.00000000       0.05788054       0.00000000 </v>
    <v>       0.00000000       0.00000000       0.05788054 </v>
   </varray>
  </crystal>
  <varray name="positions" >
   <v>       0.50000000       0.50000000       0.62095625 </v>
   <v>       0.50000000       0.62095625       0.50000000 </v>
   <v>       0.37904375       0.50000000       0.50000000 </v>
   <v>       0.50000000       0.50000000       0.37904375 </v>
   <v>       0.62095625       0.50000000       0.50000000 </v>
   <v>       0.50000000       0.37904375       0.50000000 </v>
   <v>       0.38722109       0.38722109       0.61277891 </v>
   <v>       0.61277891       0.61277891       0.38722109 </v>
   <v>       0.61277891       0.38722109       0.38722109 </v>
   <v>       0.61277891       0.61277891       0.61277891 </v>
   <v>       0.38722109       0.61277891       0.61277891 </v>
   <v>       0.38722109       0.61277891       0.38722109 </v>
   <v>       0.38722109       0.38722109       0.38722109 </v>
   <v>       0.61277891       0.38722109       0.61277891 </v>
  </varray>
 </structure>
</modeling>
