  45  45   0   0
  0.2714235E+03  0.2302961E-08  0.2302961E-08  0.2302961E-08  0.1000000E-15
  1.000000000000000E-004
  CAR 
 unknown system                          
      2.00193065    -10.34842645  301     -3.32930683      1.00000000
    -10.348  0.0000E+00  0.0000E+00  0.0000E+00  0.0000E+00
    -10.307  0.0000E+00  0.0000E+00  0.0000E+00  0.0000E+00
    -10.266  0.0000E+00  0.0000E+00  0.0000E+00  0.0000E+00
    -10.225  0.0000E+00  0.0000E+00  0.0000E+00  0.0000E+00
    -10.184  0.0000E+00  0.0000E+00  0.0000E+00  0.0000E+00
    -10.143  0.0000E+00  0.0000E+00  0.0000E+00  0.0000E+00
    -10.101  0.0000E+00  0.0000E+00  0.0000E+00  0.0000E+00
    -10.060  0.0000E+00  0.0000E+00  0.0000E+00  0.0000E+00
    -10.019  0.0000E+00  0.0000E+00  0.0000E+00  0.0000E+00
     -9.978  0.0000E+00  0.0000E+00  0.0000E+00  0.0000E+00
     -9.937  0.0000E+00  0.0000E+00  0.0000E+00  0.0000E+00
     -9.896  0.0000E+00  0.0000E+00  0.0000E+00  0.0000E+00
     -9.854  0.0000E+00  0.0000E+00  0.0000E+00  0.0000E+00
     -9.813  0.0000E+00  0.0000E+00  0.0000E+00  0.0000E+00
     -9.772  0.0000E+00  0.0000E+00  0.1000E-02  0.1000E-02
     -9.731  0.0000E+00  0.0000E+00  0.1000E-02  0.1000E-02
     -9.690  0.0000E+00  0.0000E+00  0.1000E-02  0.1000E-02
     -9.649  0.0000E+00  0.0000E+00  0.1000E-02  0.1000E-02
     -9.607  0.0000E+00  0.0000E+00  0.1000E-02  0.1000E-02
     -9.566  0.0000E+00  0.0000E+00  0.1000E-02  0.1000E-02
     -9.525  0.0000E+00  0.0000E+00  0.1000E-02  0.1000E-02
     -9.484  0.0000E+00  0.0000E+00  0.1000E-02  0.1000E-02
     -9.443  0.0000E+00  0.0000E+00  0.1000E-02  0.1000E-02
     -9.402  0.0000E+00  0.0000E+00  0.1000E-02  0.1000E-02
     -9.360  0.0000E+00  0.0000E+00  0.1000E-02  0.1000E-02
     -9.319  0.0000E+00  0.0000E+00  0.1000E-02  0.1000E-02
     -9.278  0.0000E+00  0.0000E+00  0.1000E-02  0.1000E-02
     -9.237  0.0000E+00  0.0000E+00  0.2000E-02  0.2000E-02
     -9.196  0.0000E+00  0.0000E+00  0.2000E-02  0.2000E-02
     -9.155  0.0000E+00  0.0000E+00  0.4000E-02  0.4000E-02
     -9.113  0.0000E+00  0.0000E+00  0.5000E-02  0.4000E-02
     -9.072  0.0000E+00  0.0000E+00  0.6000E-02  0.5000E-02
     -9.031  0.0000E+00  0.2429E-01  0.7000E-02  0.7000E-02
     -8.990  0.0000E+00  0.0000E+00  0.8000E-02  0.8000E-02
     -8.949  0.0000E+00  0.0000E+00  0.9000E-02  0.9000E-02
     -8.908  0.0000E+00  0.0000E+00  0.1100E-01  0.1100E-01
     -8.866  0.0000E+00  0.0000E+00  0.1400E-01  0.1400E-01
     -8.825  0.0000E+00  0.0000E+00  0.1500E-01  0.1500E-01
     -8.784  0.0000E+00  0.0000E+00  0.1700E-01  0.1700E-01
     -8.743  0.0000E+00  0.0000E+00  0.1900E-01  0.1800E-01
     -8.702  0.0000E+00  0.2429E-01  0.2200E-01  0.2100E-01
     -8.661  0.0000E+00  0.2429E-01  0.2300E-01  0.2300E-01
     -8.619  0.2429E-01  0.0000E+00  0.2600E-01  0.2500E-01
     -8.578  0.0000E+00  0.0000E+00  0.2900E-01  0.2800E-01
     -8.537  0.0000E+00  0.0000E+00  0.3000E-01  0.3000E-01
     -8.496  0.0000E+00  0.2429E-01  0.3400E-01  0.3400E-01
     -8.455  0.0000E+00  0.0000E+00  0.3700E-01  0.3700E-01
     -8.414  0.0000E+00  0.0000E+00  0.3900E-01  0.3900E-01
     -8.372  0.0000E+00  0.0000E+00  0.4100E-01  0.4100E-01
     -8.331  0.6736E-04  0.0000E+00  0.4400E-01  0.4400E-01
     -8.290  0.0000E+00  0.0000E+00  0.4600E-01  0.4600E-01
     -8.249  0.2415E-01  0.0000E+00  0.4999E-01  0.4900E-01
     -8.208  0.0000E+00  0.0000E+00  0.5300E-01  0.5200E-01
     -8.167  0.2380E-01  0.0000E+00  0.5698E-01  0.5600E-01
     -8.125  0.0000E+00  0.0000E+00  0.5800E-01  0.5800E-01
     -8.084  0.0000E+00  0.0000E+00  0.6000E-01  0.6000E-01
     -8.043  0.0000E+00  0.1071E-01  0.6400E-01  0.6344E-01
     -8.002  0.2429E-01  0.0000E+00  0.6700E-01  0.6600E-01
     -7.961  0.0000E+00  0.2429E-01  0.7000E-01  0.7000E-01
     -7.920  0.0000E+00  0.0000E+00  0.7400E-01  0.7200E-01
     -7.878  0.0000E+00  0.0000E+00  0.7600E-01  0.7600E-01
     -7.837  0.0000E+00  0.0000E+00  0.7900E-01  0.7900E-01
     -7.796  0.0000E+00  0.2429E-01  0.8300E-01  0.8200E-01
     -7.755  0.0000E+00  0.0000E+00  0.8600E-01  0.8500E-01
     -7.714  0.0000E+00  0.0000E+00  0.8900E-01  0.8800E-01
     -7.673  0.0000E+00  0.0000E+00  0.9100E-01  0.9100E-01
     -7.631  0.0000E+00  0.0000E+00  0.9400E-01  0.9400E-01
     -7.590  0.0000E+00  0.0000E+00  0.9800E-01  0.9800E-01
     -7.549  0.0000E+00  0.2617E-04  0.1010E+00  0.1000E+00
     -7.508  0.0000E+00  0.0000E+00  0.1040E+00  0.1030E+00
     -7.467  0.2341E-01  0.0000E+00  0.1070E+00  0.1060E+00
     -7.426  0.0000E+00  0.0000E+00  0.1100E+00  0.1090E+00
     -7.384  0.0000E+00  0.0000E+00  0.1120E+00  0.1120E+00
     -7.343  0.0000E+00  0.0000E+00  0.1160E+00  0.1150E+00
     -7.302  0.0000E+00  0.0000E+00  0.1170E+00  0.1170E+00
     -7.261  0.0000E+00  0.2429E-01  0.1210E+00  0.1210E+00
     -7.220  0.0000E+00  0.0000E+00  0.1240E+00  0.1240E+00
     -7.179  0.0000E+00  0.0000E+00  0.1270E+00  0.1270E+00
     -7.137  0.0000E+00  0.0000E+00  0.1310E+00  0.1300E+00
     -7.096  0.0000E+00  0.0000E+00  0.1340E+00  0.1340E+00
     -7.055  0.0000E+00  0.2429E-01  0.1370E+00  0.1370E+00
     -7.014  0.0000E+00  0.0000E+00  0.1400E+00  0.1400E+00
     -6.973  0.0000E+00  0.2429E-01  0.1440E+00  0.1440E+00
     -6.931  0.0000E+00  0.0000E+00  0.1470E+00  0.1460E+00
     -6.890  0.0000E+00  0.2429E-01  0.1520E+00  0.1520E+00
     -6.849  0.1662E-02  0.0000E+00  0.1541E+00  0.1540E+00
     -6.808  0.0000E+00  0.0000E+00  0.1590E+00  0.1580E+00
     -6.767  0.0000E+00  0.0000E+00  0.1640E+00  0.1630E+00
     -6.726  0.0000E+00  0.0000E+00  0.1690E+00  0.1690E+00
     -6.684  0.0000E+00  0.0000E+00  0.1740E+00  0.1720E+00
     -6.643  0.0000E+00  0.0000E+00  0.1780E+00  0.1780E+00
     -6.602  0.1172E-06  0.0000E+00  0.1830E+00  0.1830E+00
     -6.561  0.0000E+00  0.0000E+00  0.1870E+00  0.1870E+00
     -6.520  0.0000E+00  0.0000E+00  0.1910E+00  0.1910E+00
     -6.479  0.0000E+00  0.0000E+00  0.1960E+00  0.1960E+00
     -6.437  0.0000E+00  0.0000E+00  0.2000E+00  0.1990E+00
     -6.396  0.0000E+00  0.0000E+00  0.2040E+00  0.2030E+00
     -6.355  0.0000E+00  0.0000E+00  0.2070E+00  0.2070E+00
     -6.314  0.2429E-01  0.0000E+00  0.2130E+00  0.2120E+00
     -6.273  0.0000E+00  0.2429E-01  0.2160E+00  0.2160E+00
     -6.232  0.2429E-01  0.0000E+00  0.2210E+00  0.2190E+00
     -6.190  0.0000E+00  0.0000E+00  0.2240E+00  0.2240E+00
     -6.149  0.2429E-01  0.0000E+00  0.2270E+00  0.2260E+00
     -6.108  0.0000E+00  0.0000E+00  0.2280E+00  0.2280E+00
     -6.067  0.0000E+00  0.0000E+00  0.2300E+00  0.2300E+00
     -6.026  0.0000E+00  0.0000E+00  0.2310E+00  0.2300E+00
     -5.985  0.0000E+00  0.0000E+00  0.2310E+00  0.2310E+00
     -5.943  0.0000E+00  0.0000E+00  0.2310E+00  0.2310E+00
     -5.902  0.0000E+00  0.0000E+00  0.2320E+00  0.2320E+00
     -5.861  0.0000E+00  0.0000E+00  0.2320E+00  0.2320E+00
     -5.820  0.0000E+00  0.0000E+00  0.2330E+00  0.2330E+00
     -5.779  0.0000E+00  0.0000E+00  0.2330E+00  0.2330E+00
     -5.738  0.0000E+00  0.0000E+00  0.2340E+00  0.2340E+00
     -5.696  0.0000E+00  0.0000E+00  0.2340E+00  0.2340E+00
     -5.655  0.0000E+00  0.0000E+00  0.2340E+00  0.2340E+00
     -5.614  0.0000E+00  0.0000E+00  0.2340E+00  0.2340E+00
     -5.573  0.0000E+00  0.0000E+00  0.2340E+00  0.2340E+00
     -5.532  0.0000E+00  0.0000E+00  0.2340E+00  0.2340E+00
     -5.491  0.0000E+00  0.0000E+00  0.2340E+00  0.2340E+00
     -5.449  0.0000E+00  0.0000E+00  0.2350E+00  0.2340E+00
     -5.408  0.0000E+00  0.0000E+00  0.2350E+00  0.2350E+00
     -5.367  0.0000E+00  0.0000E+00  0.2350E+00  0.2350E+00
     -5.326  0.0000E+00  0.0000E+00  0.2350E+00  0.2350E+00
     -5.285  0.0000E+00  0.0000E+00  0.2350E+00  0.2350E+00
     -5.244  0.0000E+00  0.0000E+00  0.2350E+00  0.2350E+00
     -5.202  0.0000E+00  0.0000E+00  0.2350E+00  0.2350E+00
     -5.161  0.0000E+00  0.0000E+00  0.2350E+00  0.2350E+00
     -5.120  0.0000E+00  0.0000E+00  0.2350E+00  0.2350E+00
     -5.079  0.0000E+00  0.0000E+00  0.2350E+00  0.2350E+00
     -5.038  0.0000E+00  0.0000E+00  0.2360E+00  0.2360E+00
     -4.997  0.0000E+00  0.0000E+00  0.2360E+00  0.2360E+00
     -4.955  0.0000E+00  0.0000E+00  0.2360E+00  0.2360E+00
     -4.914  0.0000E+00  0.0000E+00  0.2370E+00  0.2360E+00
     -4.873  0.0000E+00  0.0000E+00  0.2370E+00  0.2370E+00
     -4.832  0.0000E+00  0.0000E+00  0.2380E+00  0.2370E+00
     -4.791  0.0000E+00  0.0000E+00  0.2380E+00  0.2380E+00
     -4.750  0.0000E+00  0.0000E+00  0.2390E+00  0.2390E+00
     -4.708  0.0000E+00  0.0000E+00  0.2390E+00  0.2390E+00
     -4.667  0.0000E+00  0.0000E+00  0.2390E+00  0.2390E+00
     -4.626  0.0000E+00  0.0000E+00  0.2390E+00  0.2390E+00
     -4.585  0.0000E+00  0.0000E+00  0.2390E+00  0.2390E+00
     -4.544  0.0000E+00  0.0000E+00  0.2400E+00  0.2400E+00
     -4.503  0.0000E+00  0.0000E+00  0.2400E+00  0.2400E+00
     -4.461  0.0000E+00  0.0000E+00  0.2400E+00  0.2400E+00
     -4.420  0.0000E+00  0.0000E+00  0.2400E+00  0.2400E+00
     -4.379  0.0000E+00  0.0000E+00  0.2400E+00  0.2400E+00
     -4.338  0.0000E+00  0.0000E+00  0.2410E+00  0.2410E+00
     -4.297  0.0000E+00  0.0000E+00  0.2420E+00  0.2420E+00
     -4.256  0.0000E+00  0.0000E+00  0.2420E+00  0.2420E+00
     -4.214  0.0000E+00  0.0000E+00  0.2420E+00  0.2420E+00
     -4.173  0.0000E+00  0.0000E+00  0.2420E+00  0.2420E+00
     -4.132  0.0000E+00  0.0000E+00  0.2420E+00  0.2420E+00
     -4.091  0.0000E+00  0.0000E+00  0.2420E+00  0.2420E+00
     -4.050  0.0000E+00  0.0000E+00  0.2420E+00  0.2420E+00
     -4.009  0.0000E+00  0.0000E+00  0.2430E+00  0.2420E+00
     -3.967  0.0000E+00  0.0000E+00  0.2440E+00  0.2440E+00
     -3.926  0.0000E+00  0.0000E+00  0.2440E+00  0.2440E+00
     -3.885  0.0000E+00  0.0000E+00  0.2440E+00  0.2440E+00
     -3.844  0.0000E+00  0.0000E+00  0.2440E+00  0.2440E+00
     -3.803  0.0000E+00  0.0000E+00  0.2440E+00  0.2440E+00
     -3.762  0.0000E+00  0.0000E+00  0.2440E+00  0.2440E+00
     -3.720  0.0000E+00  0.0000E+00  0.2440E+00  0.2440E+00
     -3.679  0.0000E+00  0.0000E+00  0.2440E+00  0.2440E+00
     -3.638  0.0000E+00  0.0000E+00  0.2440E+00  0.2440E+00
     -3.597  0.0000E+00  0.0000E+00  0.2440E+00  0.2440E+00
     -3.556  0.0000E+00  0.0000E+00  0.2440E+00  0.2440E+00
     -3.515  0.0000E+00  0.0000E+00  0.2450E+00  0.2450E+00
     -3.473  0.0000E+00  0.0000E+00  0.2450E+00  0.2450E+00
     -3.432  0.0000E+00  0.2429E-01  0.2460E+00  0.2460E+00
     -3.391  0.0000E+00  0.0000E+00  0.2470E+00  0.2460E+00
     -3.350  0.0000E+00  0.0000E+00  0.2470E+00  0.2470E+00
     -3.309  0.0000E+00  0.0000E+00  0.2480E+00  0.2470E+00
     -3.268  0.0000E+00  0.0000E+00  0.2480E+00  0.2470E+00
     -3.226  0.0000E+00  0.0000E+00  0.2480E+00  0.2480E+00
     -3.185  0.0000E+00  0.0000E+00  0.2480E+00  0.2480E+00
     -3.144  0.0000E+00  0.0000E+00  0.2480E+00  0.2480E+00
     -3.103  0.0000E+00  0.0000E+00  0.2490E+00  0.2490E+00
     -3.062  0.0000E+00  0.0000E+00  0.2490E+00  0.2490E+00
     -3.021  0.0000E+00  0.2443E-09  0.2500E+00  0.2490E+00
     -2.979  0.0000E+00  0.0000E+00  0.2500E+00  0.2500E+00
     -2.938  0.0000E+00  0.0000E+00  0.2500E+00  0.2500E+00
     -2.897  0.0000E+00  0.0000E+00  0.2510E+00  0.2510E+00
     -2.856  0.0000E+00  0.0000E+00  0.2520E+00  0.2510E+00
     -2.815  0.0000E+00  0.0000E+00  0.2520E+00  0.2520E+00
     -2.774  0.0000E+00  0.0000E+00  0.2520E+00  0.2520E+00
     -2.732  0.0000E+00  0.0000E+00  0.2520E+00  0.2520E+00
     -2.691  0.0000E+00  0.0000E+00  0.2520E+00  0.2520E+00
     -2.650  0.0000E+00  0.0000E+00  0.2520E+00  0.2520E+00
     -2.609  0.0000E+00  0.0000E+00  0.2520E+00  0.2520E+00
     -2.568  0.0000E+00  0.0000E+00  0.2530E+00  0.2520E+00
     -2.527  0.0000E+00  0.0000E+00  0.2530E+00  0.2530E+00
     -2.485  0.0000E+00  0.0000E+00  0.2540E+00  0.2540E+00
     -2.444  0.0000E+00  0.0000E+00  0.2540E+00  0.2540E+00
     -2.403  0.0000E+00  0.0000E+00  0.2550E+00  0.2540E+00
     -2.362  0.0000E+00  0.0000E+00  0.2560E+00  0.2550E+00
     -2.321  0.0000E+00  0.0000E+00  0.2570E+00  0.2570E+00
     -2.280  0.0000E+00  0.0000E+00  0.2570E+00  0.2570E+00
     -2.238  0.0000E+00  0.0000E+00  0.2570E+00  0.2570E+00
     -2.197  0.0000E+00  0.0000E+00  0.2570E+00  0.2570E+00
     -2.156  0.0000E+00  0.0000E+00  0.2570E+00  0.2570E+00
     -2.115  0.0000E+00  0.0000E+00  0.2580E+00  0.2570E+00
     -2.074  0.0000E+00  0.0000E+00  0.2580E+00  0.2580E+00
     -2.033  0.0000E+00  0.0000E+00  0.2590E+00  0.2590E+00
     -1.991  0.0000E+00  0.0000E+00  0.2590E+00  0.2590E+00
     -1.950  0.0000E+00  0.0000E+00  0.2600E+00  0.2600E+00
     -1.909  0.0000E+00  0.0000E+00  0.2600E+00  0.2600E+00
     -1.868  0.0000E+00  0.0000E+00  0.2600E+00  0.2600E+00
     -1.827  0.0000E+00  0.0000E+00  0.2600E+00  0.2600E+00
     -1.786  0.0000E+00  0.0000E+00  0.2610E+00  0.2600E+00
     -1.744  0.0000E+00  0.0000E+00  0.2610E+00  0.2610E+00
     -1.703  0.0000E+00  0.0000E+00  0.2620E+00  0.2620E+00
     -1.662  0.0000E+00  0.0000E+00  0.2620E+00  0.2620E+00
     -1.621  0.0000E+00  0.2039E-01  0.2630E+00  0.2628E+00
     -1.580  0.0000E+00  0.0000E+00  0.2630E+00  0.2630E+00
     -1.539  0.0000E+00  0.0000E+00  0.2630E+00  0.2630E+00
     -1.497  0.0000E+00  0.0000E+00  0.2640E+00  0.2630E+00
     -1.456  0.0000E+00  0.0000E+00  0.2650E+00  0.2640E+00
     -1.415  0.0000E+00  0.0000E+00  0.2650E+00  0.2650E+00
     -1.374  0.0000E+00  0.0000E+00  0.2650E+00  0.2650E+00
     -1.333  0.0000E+00  0.0000E+00  0.2660E+00  0.2660E+00
     -1.291  0.0000E+00  0.0000E+00  0.2660E+00  0.2660E+00
     -1.250  0.0000E+00  0.0000E+00  0.2680E+00  0.2660E+00
     -1.209  0.0000E+00  0.0000E+00  0.2680E+00  0.2680E+00
     -1.168  0.0000E+00  0.0000E+00  0.2690E+00  0.2680E+00
     -1.127  0.0000E+00  0.0000E+00  0.2690E+00  0.2690E+00
     -1.086  0.0000E+00  0.0000E+00  0.2690E+00  0.2690E+00
     -1.044  0.0000E+00  0.2429E-01  0.2700E+00  0.2700E+00
     -1.003  0.0000E+00  0.0000E+00  0.2700E+00  0.2700E+00
     -0.962  0.0000E+00  0.0000E+00  0.2710E+00  0.2700E+00
     -0.921  0.0000E+00  0.0000E+00  0.2710E+00  0.2710E+00
     -0.880  0.0000E+00  0.0000E+00  0.2720E+00  0.2720E+00
     -0.839  0.0000E+00  0.0000E+00  0.2730E+00  0.2730E+00
     -0.797  0.0000E+00  0.0000E+00  0.2730E+00  0.2730E+00
     -0.756  0.0000E+00  0.0000E+00  0.2730E+00  0.2730E+00
     -0.715  0.0000E+00  0.2192E-13  0.2740E+00  0.2730E+00
     -0.674  0.0000E+00  0.0000E+00  0.2740E+00  0.2740E+00
     -0.633  0.0000E+00  0.0000E+00  0.2750E+00  0.2740E+00
     -0.592  0.0000E+00  0.0000E+00  0.2760E+00  0.2750E+00
     -0.550  0.0000E+00  0.0000E+00  0.2760E+00  0.2760E+00
     -0.509  0.0000E+00  0.0000E+00  0.2760E+00  0.2760E+00
     -0.468  0.0000E+00  0.0000E+00  0.2770E+00  0.2770E+00
     -0.427  0.2424E-01  0.0000E+00  0.2780E+00  0.2770E+00
     -0.386  0.0000E+00  0.0000E+00  0.2790E+00  0.2780E+00
     -0.345  0.0000E+00  0.0000E+00  0.2790E+00  0.2790E+00
     -0.303  0.0000E+00  0.0000E+00  0.2790E+00  0.2790E+00
     -0.262  0.0000E+00  0.0000E+00  0.2790E+00  0.2790E+00
     -0.221  0.0000E+00  0.0000E+00  0.2790E+00  0.2790E+00
     -0.180  0.0000E+00  0.0000E+00  0.2790E+00  0.2790E+00
     -0.139  0.0000E+00  0.0000E+00  0.2790E+00  0.2790E+00
     -0.098  0.0000E+00  0.0000E+00  0.2800E+00  0.2800E+00
     -0.056  0.0000E+00  0.0000E+00  0.2800E+00  0.2800E+00
     -0.015  0.0000E+00  0.0000E+00  0.2800E+00  0.2800E+00
      0.026  0.0000E+00  0.0000E+00  0.2810E+00  0.2800E+00
      0.067  0.0000E+00  0.0000E+00  0.2820E+00  0.2810E+00
      0.108  0.0000E+00  0.0000E+00  0.2820E+00  0.2820E+00
      0.149  0.0000E+00  0.0000E+00  0.2820E+00  0.2820E+00
      0.191  0.0000E+00  0.0000E+00  0.2830E+00  0.2830E+00
      0.232  0.0000E+00  0.0000E+00  0.2840E+00  0.2840E+00
      0.273  0.0000E+00  0.0000E+00  0.2860E+00  0.2850E+00
      0.314  0.0000E+00  0.0000E+00  0.2860E+00  0.2860E+00
      0.355  0.0000E+00  0.0000E+00  0.2860E+00  0.2860E+00
      0.396  0.0000E+00  0.0000E+00  0.2860E+00  0.2860E+00
      0.438  0.0000E+00  0.0000E+00  0.2870E+00  0.2870E+00
      0.479  0.0000E+00  0.0000E+00  0.2880E+00  0.2880E+00
      0.520  0.0000E+00  0.0000E+00  0.2890E+00  0.2880E+00
      0.561  0.0000E+00  0.0000E+00  0.2900E+00  0.2890E+00
      0.602  0.0000E+00  0.0000E+00  0.2900E+00  0.2900E+00
      0.643  0.0000E+00  0.0000E+00  0.2900E+00  0.2900E+00
      0.685  0.0000E+00  0.0000E+00  0.2930E+00  0.2920E+00
      0.726  0.0000E+00  0.0000E+00  0.2930E+00  0.2930E+00
      0.767  0.0000E+00  0.0000E+00  0.2940E+00  0.2940E+00
      0.808  0.0000E+00  0.0000E+00  0.2950E+00  0.2950E+00
      0.849  0.0000E+00  0.0000E+00  0.2960E+00  0.2960E+00
      0.890  0.0000E+00  0.0000E+00  0.2960E+00  0.2960E+00
      0.932  0.0000E+00  0.0000E+00  0.2980E+00  0.2980E+00
      0.973  0.0000E+00  0.0000E+00  0.3010E+00  0.3000E+00
      1.014  0.0000E+00  0.0000E+00  0.3030E+00  0.3030E+00
      1.055  0.0000E+00  0.0000E+00  0.3040E+00  0.3040E+00
      1.096  0.0000E+00  0.0000E+00  0.3070E+00  0.3050E+00
      1.137  0.0000E+00  0.0000E+00  0.3090E+00  0.3080E+00
      1.179  0.0000E+00  0.0000E+00  0.3090E+00  0.3090E+00
      1.220  0.0000E+00  0.0000E+00  0.3120E+00  0.3120E+00
      1.261  0.0000E+00  0.0000E+00  0.3130E+00  0.3130E+00
      1.302  0.0000E+00  0.0000E+00  0.3140E+00  0.3140E+00
      1.343  0.0000E+00  0.0000E+00  0.3150E+00  0.3150E+00
      1.384  0.0000E+00  0.0000E+00  0.3160E+00  0.3160E+00
      1.426  0.0000E+00  0.0000E+00  0.3190E+00  0.3190E+00
      1.467  0.0000E+00  0.0000E+00  0.3200E+00  0.3200E+00
      1.508  0.0000E+00  0.0000E+00  0.3200E+00  0.3200E+00
      1.549  0.0000E+00  0.0000E+00  0.3200E+00  0.3200E+00
      1.590  0.0000E+00  0.0000E+00  0.3200E+00  0.3200E+00
      1.631  0.0000E+00  0.0000E+00  0.3200E+00  0.3200E+00
      1.673  0.0000E+00  0.0000E+00  0.3200E+00  0.3200E+00
      1.714  0.0000E+00  0.0000E+00  0.3200E+00  0.3200E+00
      1.755  0.0000E+00  0.0000E+00  0.3200E+00  0.3200E+00
      1.796  0.0000E+00  0.0000E+00  0.3200E+00  0.3200E+00
      1.837  0.0000E+00  0.0000E+00  0.3200E+00  0.3200E+00
      1.878  0.0000E+00  0.0000E+00  0.3200E+00  0.3200E+00
      1.920  0.0000E+00  0.0000E+00  0.3200E+00  0.3200E+00
      1.961  0.0000E+00  0.0000E+00  0.3200E+00  0.3200E+00
      2.002  0.0000E+00  0.0000E+00  0.3200E+00  0.3200E+00
