       N       E                     dE             d eps       ncg     rms          rms(c)
DAV:   1     0.235234403085E+04    0.23523E+04   -0.51358E+04   720   0.590E+02
DAV:   2     0.514214328500E+03   -0.18381E+04   -0.16447E+04  1216   0.145E+02
DAV:   3    -0.229627108990E+02   -0.53718E+03   -0.48945E+03   952   0.859E+01
DAV:   4    -0.501401328061E+02   -0.27177E+02   -0.26927E+02   776   0.214E+01
DAV:   5    -0.505288555584E+02   -0.38872E+00   -0.38826E+00   824   0.303E+00    0.281E+01
DAV:   6    -0.173435882979E+02    0.33185E+02   -0.10230E+02   724   0.158E+01    0.140E+01
DAV:   7    -0.163894318845E+02    0.95416E+00   -0.54510E+00   772   0.428E+00    0.871E+00
DAV:   8    -0.134938315609E+02    0.28956E+01   -0.19468E+00   776   0.481E+00    0.451E+00
DAV:   9    -0.189075519930E+02   -0.54137E+01   -0.14929E+00   776   0.217E+00    0.279E+00
DAV:  10    -0.279819908918E+02   -0.90744E+01   -0.28260E+00   736   0.279E+00    0.206E+00
DAV:  11    -0.371088476098E+02   -0.91269E+01   -0.38699E+00   744   0.267E+00    0.223E+00
DAV:  12    -0.381206278807E+02   -0.10118E+01   -0.18010E-01   864   0.756E-01    0.189E+00
DAV:  13    -0.414270523131E+02   -0.33064E+01   -0.89685E-01   728   0.146E+00    0.231E+00
DAV:  14    -0.422791311763E+02   -0.85208E+00   -0.11441E-01   792   0.699E-01    0.193E+00
DAV:  15    -0.454319560818E+02   -0.31528E+01   -0.10776E+00   728   0.162E+00    0.112E+00
DAV:  16    -0.473721688565E+02   -0.19402E+01   -0.56141E-01   756   0.895E-01    0.654E-01
DAV:  17    -0.482018650895E+02   -0.82970E+00   -0.12456E-01   728   0.512E-01    0.420E-01
DAV:  18    -0.493851421664E+02   -0.11833E+01   -0.12937E-01   744   0.459E-01    0.203E-01
DAV:  19    -0.497996891379E+02   -0.41455E+00   -0.19058E-02   796   0.236E-01    0.137E-01
DAV:  20    -0.499399462444E+02   -0.14026E+00   -0.41953E-03   760   0.896E-02    0.875E-02
DAV:  21    -0.500213603964E+02   -0.81414E-01   -0.36895E-03   756   0.957E-02    0.397E-02
DAV:  22    -0.500311895712E+02   -0.98292E-02   -0.97410E-04   564   0.392E-02    0.281E-02
DAV:  23    -0.500393278856E+02   -0.81383E-02   -0.67780E-04   520   0.352E-02    0.254E-02
DAV:  24    -0.500419903886E+02   -0.26625E-02   -0.28902E-04   528   0.307E-02    0.126E-02
DAV:  25    -0.500450509298E+02   -0.30605E-02   -0.81592E-05   504   0.120E-02    0.946E-03
DAV:  26    -0.500479025038E+02   -0.28516E-02   -0.57325E-05   504   0.881E-03    0.549E-03
DAV:  27    -0.500483509256E+02   -0.44842E-03   -0.21300E-05   504   0.588E-03    0.349E-03
DAV:  28    -0.500483489961E+02    0.19296E-05   -0.57062E-06   476   0.501E-03
   1 F= -.50048349E+02 E0= -.50048349E+02  d E =-.500483E+02  mag=     0.9975
       N       E                     dE             d eps       ncg     rms          rms(c)
DAV:   1    -0.500509912304E+02   -0.26403E-02   -0.19036E-01   744   0.877E-01    0.315E-02
DAV:   2    -0.500511527518E+02   -0.16152E-03   -0.92283E-04   744   0.851E-02    0.225E-02
DAV:   3    -0.500511976237E+02   -0.44872E-04   -0.16436E-05   456   0.118E-02
   2 F= -.50051198E+02 E0= -.50051198E+02  d E =-.284863E-02  mag=     0.9987
       N       E                     dE             d eps       ncg     rms          rms(c)
DAV:   1    -0.500574566391E+02   -0.63039E-02   -0.17162E+00   740   0.264E+00    0.945E-02
DAV:   2    -0.500582612148E+02   -0.80458E-03   -0.82883E-03   760   0.254E-01    0.672E-02
DAV:   3    -0.500582474311E+02    0.13784E-04   -0.14419E-04   456   0.343E-02
   3 F= -.50058247E+02 E0= -.50058247E+02  d E =-.989844E-02  mag=     0.9993
       N       E                     dE             d eps       ncg     rms          rms(c)
DAV:   1    -0.500638576707E+02   -0.55965E-02   -0.68706E+00   752   0.527E+00    0.184E-01
DAV:   2    -0.500670371113E+02   -0.31794E-02   -0.33125E-02   752   0.508E-01    0.132E-01
DAV:   3    -0.500669737010E+02    0.63410E-04   -0.61857E-04   792   0.678E-02
   4 F= -.50066974E+02 E0= -.50066974E+02  d E =-.186247E-01  mag=     0.9996
       N       E                     dE             d eps       ncg     rms          rms(c)
DAV:   1    -0.500515579881E+02    0.15479E-01   -0.27458E+01   728   0.105E+01    0.347E-01
DAV:   2    -0.500642935494E+02   -0.12736E-01   -0.13202E-01   744   0.102E+00    0.259E-01
DAV:   3    -0.500640878263E+02    0.20572E-03   -0.24029E-03   792   0.133E-01    0.166E-01
DAV:   4    -0.500638756004E+02    0.21223E-03   -0.88849E-04   776   0.751E-02    0.398E-02
DAV:   5    -0.500638842501E+02   -0.86497E-05   -0.33712E-05   480   0.244E-02
   5 F= -.50063884E+02 E0= -.50063884E+02  d E =-.155353E-01  mag=     0.9999
       N       E                     dE             d eps       ncg     rms          rms(c)
DAV:   1    -0.500641338382E+02   -0.25824E-03   -0.10193E+01   736   0.642E+00    0.216E-01
DAV:   2    -0.500690103768E+02   -0.48765E-02   -0.49306E-02   752   0.620E-01    0.149E-01
DAV:   3    -0.500689731260E+02    0.37251E-04   -0.94097E-04   792   0.827E-02
   6 F= -.50068973E+02 E0= -.50068973E+02  d E =-.206241E-01  mag=     0.9999
       N       E                     dE             d eps       ncg     rms          rms(c)
DAV:   1    -0.500715693689E+02   -0.25590E-02   -0.10794E+00   756   0.208E+00    0.553E-02
DAV:   2    -0.500720848207E+02   -0.51545E-03   -0.51153E-03   768   0.204E-01    0.441E-02
DAV:   3    -0.500720756454E+02    0.91753E-05   -0.77328E-05   460   0.262E-02
   7 F= -.50072076E+02 E0= -.50072076E+02  d E =-.310252E-02  mag=     1.0000
       N       E                     dE             d eps       ncg     rms          rms(c)
DAV:   1    -0.500738732338E+02   -0.17884E-02   -0.97655E+00   736   0.628E+00    0.159E-01
DAV:   2    -0.500784553952E+02   -0.45822E-02   -0.45964E-02   760   0.609E-01    0.138E-01
DAV:   3    -0.500783763186E+02    0.79077E-04   -0.75022E-04   800   0.760E-02
   8 F= -.50078376E+02 E0= -.50078376E+02  d E =-.940319E-02  mag=     1.0000
       N       E                     dE             d eps       ncg     rms          rms(c)
DAV:   1    -0.500592534499E+02    0.19202E-01   -0.39069E+01   720   0.126E+01    0.324E-01
DAV:   2    -0.500774854891E+02   -0.18232E-01   -0.18306E-01   768   0.121E+00    0.284E-01
DAV:   3    -0.500771569551E+02    0.32853E-03   -0.29623E-03   808   0.149E-01    0.198E-01
DAV:   4    -0.500765373991E+02    0.61956E-03   -0.15982E-03   792   0.889E-02    0.744E-02
DAV:   5    -0.500765251645E+02    0.12235E-04   -0.18148E-04   504   0.377E-02
   9 F= -.50076525E+02 E0= -.50076525E+02  d E =-.755204E-02  mag=     1.0000
       N       E                     dE             d eps       ncg     rms          rms(c)
DAV:   1    -0.500809403498E+02   -0.44030E-02   -0.77537E+00   736   0.560E+00    0.194E-01
DAV:   2    -0.500845293587E+02   -0.35890E-02   -0.37098E-02   760   0.551E-01    0.151E-01
DAV:   3    -0.500845144953E+02    0.14863E-04   -0.74355E-04   800   0.764E-02
  10 F= -.50084514E+02 E0= -.50084514E+02  d E =-.798933E-02  mag=     1.0000
       N       E                     dE             d eps       ncg     rms          rms(c)
DAV:   1    -0.500847859156E+02   -0.25656E-03   -0.10145E+00   760   0.203E+00    0.943E-02
DAV:   2    -0.500852702269E+02   -0.48431E-03   -0.49133E-03   784   0.196E-01    0.648E-02
DAV:   3    -0.500852872838E+02   -0.17057E-04   -0.94656E-05   496   0.269E-02
  11 F= -.50085287E+02 E0= -.50085287E+02  d E =-.876212E-02  mag=     1.0000
       N       E                     dE             d eps       ncg     rms          rms(c)
DAV:   1    -0.500866993126E+02   -0.14291E-02   -0.32158E+00   752   0.361E+00    0.106E-01
DAV:   2    -0.500882584753E+02   -0.15592E-02   -0.15303E-02   784   0.348E-01    0.774E-02
DAV:   3    -0.500882427303E+02    0.15745E-04   -0.23752E-04   472   0.449E-02
  12 F= -.50088243E+02 E0= -.50088243E+02  d E =-.295545E-02  mag=     1.0000
       N       E                     dE             d eps       ncg     rms          rms(c)
DAV:   1    -0.500884765313E+02   -0.21806E-03   -0.66999E-02   776   0.524E-01    0.233E-02
DAV:   2    -0.500885105347E+02   -0.34003E-04   -0.30447E-04   584   0.499E-02
  13 F= -.50088511E+02 E0= -.50088511E+02  d E =-.322325E-02  mag=     1.0000
       N       E                     dE             d eps       ncg     rms          rms(c)
DAV:   1    -0.500891401038E+02   -0.66357E-03   -0.57342E-01   752   0.152E+00    0.320E-02
DAV:   2    -0.500894132703E+02   -0.27317E-03   -0.26699E-03   784   0.147E-01    0.300E-02
DAV:   3    -0.500894111945E+02    0.20758E-05   -0.37138E-05   448   0.181E-02
  14 F= -.50089411E+02 E0= -.50089411E+02  d E =-.900660E-03  mag=     1.0000
       N       E                     dE             d eps       ncg     rms          rms(c)
DAV:   1    -0.500893390125E+02    0.74258E-04   -0.28606E+00   736   0.340E+00    0.762E-02
DAV:   2    -0.500906727386E+02   -0.13337E-02   -0.13250E-02   752   0.326E-01    0.696E-02
DAV:   3    -0.500906520111E+02    0.20728E-04   -0.18979E-04   480   0.404E-02
  15 F= -.50090652E+02 E0= -.50090652E+02  d E =-.214148E-02  mag=     1.0000
       N       E                     dE             d eps       ncg     rms          rms(c)
DAV:   1    -0.500911584365E+02   -0.48570E-03   -0.27725E-01   752   0.106E+00    0.210E-02
DAV:   2    -0.500912833223E+02   -0.12489E-03   -0.12289E-03   776   0.999E-02    0.207E-02
DAV:   3    -0.500912815041E+02    0.18182E-05   -0.16394E-05   432   0.117E-02
  16 F= -.50091282E+02 E0= -.50091282E+02  d E =-.629493E-03  mag=     1.0000
       N       E                     dE             d eps       ncg     rms          rms(c)
DAV:   1    -0.500918877266E+02   -0.60440E-03   -0.24694E+00   732   0.316E+00    0.545E-02
DAV:   2    -0.500930613403E+02   -0.11736E-02   -0.11399E-02   760   0.302E-01    0.542E-02
DAV:   3    -0.500930499940E+02    0.11346E-04   -0.15508E-04   488   0.363E-02
  17 F= -.50093050E+02 E0= -.50093050E+02  d E =-.239798E-02  mag=     1.0000
       N       E                     dE             d eps       ncg     rms          rms(c)
DAV:   1    -0.500932075997E+02   -0.14626E-03   -0.53924E-02   768   0.466E-01    0.226E-02
DAV:   2    -0.500932274813E+02   -0.19882E-04   -0.20556E-04   464   0.441E-02
  18 F= -.50093227E+02 E0= -.50093227E+02  d E =-.177487E-03  mag=     1.0000
       N       E                     dE             d eps       ncg     rms          rms(c)
DAV:   1    -0.500935067606E+02   -0.29916E-03   -0.47636E-01   760   0.138E+00    0.363E-02
DAV:   2    -0.500937310019E+02   -0.22424E-03   -0.22187E-03   784   0.134E-01    0.306E-02
DAV:   3    -0.500937285178E+02    0.24841E-05   -0.33083E-05   464   0.172E-02
  19 F= -.50093729E+02 E0= -.50093729E+02  d E =-.678524E-03  mag=     1.0000
