   9   9   0   0
  0.7677627E+03  0.1904685E-08  0.1904685E-08  0.1904685E-08  0.1000000E-15
  1.000000000000000E-004
  CAR 
 unknown system                          
      0.86859419     -9.41639756  301     -3.64823135      1.00000000
     -9.416  0.0000E+00  0.0000E+00  0.0000E+00  0.0000E+00
     -9.382  0.0000E+00  0.0000E+00  0.0000E+00  0.0000E+00
     -9.348  0.0000E+00  0.0000E+00  0.0000E+00  0.0000E+00
     -9.314  0.0000E+00  0.0000E+00  0.0000E+00  0.0000E+00
     -9.279  0.0000E+00  0.0000E+00  0.0000E+00  0.0000E+00
     -9.245  0.0000E+00  0.0000E+00  0.0000E+00  0.0000E+00
     -9.211  0.0000E+00  0.0000E+00  0.0000E+00  0.0000E+00
     -9.176  0.0000E+00  0.0000E+00  0.0000E+00  0.0000E+00
     -9.142  0.0000E+00  0.0000E+00  0.0000E+00  0.0000E+00
     -9.108  0.0000E+00  0.0000E+00  0.0000E+00  0.0000E+00
     -9.074  0.0000E+00  0.0000E+00  0.0000E+00  0.0000E+00
     -9.039  0.0000E+00  0.0000E+00  0.0000E+00  0.0000E+00
     -9.005  0.0000E+00  0.0000E+00  0.0000E+00  0.0000E+00
     -8.971  0.0000E+00  0.0000E+00  0.0000E+00  0.0000E+00
     -8.936  0.0000E+00  0.0000E+00  0.1000E-02  0.0000E+00
     -8.902  0.0000E+00  0.0000E+00  0.1000E-02  0.1000E-02
     -8.868  0.0000E+00  0.0000E+00  0.1000E-02  0.1000E-02
     -8.834  0.0000E+00  0.0000E+00  0.1000E-02  0.1000E-02
     -8.799  0.0000E+00  0.0000E+00  0.2000E-02  0.1000E-02
     -8.765  0.0000E+00  0.0000E+00  0.2000E-02  0.2000E-02
     -8.731  0.0000E+00  0.0000E+00  0.2000E-02  0.2000E-02
     -8.696  0.0000E+00  0.0000E+00  0.2000E-02  0.2000E-02
     -8.662  0.0000E+00  0.0000E+00  0.3000E-02  0.3000E-02
     -8.628  0.0000E+00  0.0000E+00  0.5000E-02  0.3000E-02
     -8.594  0.0000E+00  0.0000E+00  0.5000E-02  0.5000E-02
     -8.559  0.0000E+00  0.0000E+00  0.5000E-02  0.5000E-02
     -8.525  0.0000E+00  0.0000E+00  0.6000E-02  0.5000E-02
     -8.491  0.0000E+00  0.0000E+00  0.7000E-02  0.6000E-02
     -8.456  0.0000E+00  0.0000E+00  0.7000E-02  0.7000E-02
     -8.422  0.0000E+00  0.0000E+00  0.7000E-02  0.7000E-02
     -8.388  0.0000E+00  0.0000E+00  0.7000E-02  0.7000E-02
     -8.354  0.0000E+00  0.0000E+00  0.7000E-02  0.7000E-02
     -8.319  0.0000E+00  0.0000E+00  0.7000E-02  0.7000E-02
     -8.285  0.0000E+00  0.0000E+00  0.7000E-02  0.7000E-02
     -8.251  0.0000E+00  0.0000E+00  0.7000E-02  0.7000E-02
     -8.216  0.0000E+00  0.0000E+00  0.7000E-02  0.7000E-02
     -8.182  0.0000E+00  0.0000E+00  0.7000E-02  0.7000E-02
     -8.148  0.0000E+00  0.0000E+00  0.1100E-01  0.7000E-02
     -8.114  0.0000E+00  0.0000E+00  0.1100E-01  0.1100E-01
     -8.079  0.0000E+00  0.0000E+00  0.1100E-01  0.1100E-01
     -8.045  0.0000E+00  0.0000E+00  0.1100E-01  0.1100E-01
     -8.011  0.0000E+00  0.0000E+00  0.1100E-01  0.1100E-01
     -7.976  0.0000E+00  0.0000E+00  0.1100E-01  0.1100E-01
     -7.942  0.0000E+00  0.0000E+00  0.1200E-01  0.1100E-01
     -7.908  0.0000E+00  0.0000E+00  0.1300E-01  0.1200E-01
     -7.874  0.0000E+00  0.0000E+00  0.1300E-01  0.1300E-01
     -7.839  0.0000E+00  0.0000E+00  0.1500E-01  0.1300E-01
     -7.805  0.0000E+00  0.0000E+00  0.1500E-01  0.1500E-01
     -7.771  0.0000E+00  0.0000E+00  0.1500E-01  0.1500E-01
     -7.737  0.0000E+00  0.0000E+00  0.1500E-01  0.1500E-01
     -7.702  0.0000E+00  0.0000E+00  0.1500E-01  0.1500E-01
     -7.668  0.0000E+00  0.0000E+00  0.1500E-01  0.1500E-01
     -7.634  0.0000E+00  0.0000E+00  0.1500E-01  0.1500E-01
     -7.599  0.0000E+00  0.0000E+00  0.1500E-01  0.1500E-01
     -7.565  0.0000E+00  0.0000E+00  0.1900E-01  0.1600E-01
     -7.531  0.0000E+00  0.0000E+00  0.2000E-01  0.1700E-01
     -7.497  0.0000E+00  0.0000E+00  0.2000E-01  0.2000E-01
     -7.462  0.0000E+00  0.2917E-01  0.2100E-01  0.2100E-01
     -7.428  0.0000E+00  0.0000E+00  0.2200E-01  0.2100E-01
     -7.394  0.0000E+00  0.0000E+00  0.2300E-01  0.2200E-01
     -7.359  0.0000E+00  0.0000E+00  0.2300E-01  0.2200E-01
     -7.325  0.0000E+00  0.0000E+00  0.2700E-01  0.2300E-01
     -7.291  0.0000E+00  0.0000E+00  0.2700E-01  0.2700E-01
     -7.257  0.0000E+00  0.0000E+00  0.2800E-01  0.2800E-01
     -7.222  0.0000E+00  0.0000E+00  0.3000E-01  0.3000E-01
     -7.188  0.0000E+00  0.0000E+00  0.3000E-01  0.3000E-01
     -7.154  0.0000E+00  0.0000E+00  0.3000E-01  0.3000E-01
     -7.119  0.0000E+00  0.0000E+00  0.3000E-01  0.3000E-01
     -7.085  0.0000E+00  0.2032E-07  0.3100E-01  0.3000E-01
     -7.051  0.0000E+00  0.0000E+00  0.3100E-01  0.3100E-01
     -7.017  0.0000E+00  0.0000E+00  0.3300E-01  0.3100E-01
     -6.982  0.0000E+00  0.0000E+00  0.3400E-01  0.3300E-01
     -6.948  0.0000E+00  0.0000E+00  0.3400E-01  0.3300E-01
     -6.914  0.0000E+00  0.0000E+00  0.3600E-01  0.3400E-01
     -6.879  0.0000E+00  0.0000E+00  0.3600E-01  0.3600E-01
     -6.845  0.0000E+00  0.0000E+00  0.3600E-01  0.3600E-01
     -6.811  0.0000E+00  0.0000E+00  0.3800E-01  0.3600E-01
     -6.777  0.0000E+00  0.0000E+00  0.3800E-01  0.3800E-01
     -6.742  0.0000E+00  0.0000E+00  0.4000E-01  0.3800E-01
     -6.708  0.0000E+00  0.0000E+00  0.4100E-01  0.4000E-01
     -6.674  0.0000E+00  0.0000E+00  0.4200E-01  0.4100E-01
     -6.639  0.0000E+00  0.0000E+00  0.4400E-01  0.4300E-01
     -6.605  0.0000E+00  0.0000E+00  0.4400E-01  0.4400E-01
     -6.571  0.0000E+00  0.0000E+00  0.4400E-01  0.4400E-01
     -6.537  0.0000E+00  0.0000E+00  0.4400E-01  0.4400E-01
     -6.502  0.0000E+00  0.0000E+00  0.4500E-01  0.4500E-01
     -6.468  0.0000E+00  0.0000E+00  0.4500E-01  0.4500E-01
     -6.434  0.0000E+00  0.0000E+00  0.4500E-01  0.4500E-01
     -6.399  0.0000E+00  0.0000E+00  0.4500E-01  0.4500E-01
     -6.365  0.0000E+00  0.0000E+00  0.4500E-01  0.4500E-01
     -6.331  0.0000E+00  0.0000E+00  0.4500E-01  0.4500E-01
     -6.297  0.0000E+00  0.0000E+00  0.4500E-01  0.4500E-01
     -6.262  0.0000E+00  0.0000E+00  0.4500E-01  0.4500E-01
     -6.228  0.0000E+00  0.0000E+00  0.4500E-01  0.4500E-01
     -6.194  0.0000E+00  0.0000E+00  0.4500E-01  0.4500E-01
     -6.159  0.0000E+00  0.0000E+00  0.4500E-01  0.4500E-01
     -6.125  0.0000E+00  0.0000E+00  0.4600E-01  0.4500E-01
     -6.091  0.0000E+00  0.0000E+00  0.4600E-01  0.4500E-01
     -6.057  0.0000E+00  0.0000E+00  0.4600E-01  0.4600E-01
     -6.022  0.0000E+00  0.0000E+00  0.4600E-01  0.4600E-01
     -5.988  0.0000E+00  0.0000E+00  0.4600E-01  0.4600E-01
     -5.954  0.0000E+00  0.0000E+00  0.4600E-01  0.4600E-01
     -5.920  0.0000E+00  0.0000E+00  0.4600E-01  0.4600E-01
     -5.885  0.0000E+00  0.0000E+00  0.4600E-01  0.4600E-01
     -5.851  0.0000E+00  0.0000E+00  0.4600E-01  0.4600E-01
     -5.817  0.0000E+00  0.0000E+00  0.4600E-01  0.4600E-01
     -5.782  0.0000E+00  0.0000E+00  0.4600E-01  0.4600E-01
     -5.748  0.0000E+00  0.0000E+00  0.4600E-01  0.4600E-01
     -5.714  0.0000E+00  0.0000E+00  0.4800E-01  0.4600E-01
     -5.680  0.0000E+00  0.0000E+00  0.4800E-01  0.4600E-01
     -5.645  0.0000E+00  0.0000E+00  0.4800E-01  0.4600E-01
     -5.611  0.0000E+00  0.0000E+00  0.4800E-01  0.4800E-01
     -5.577  0.0000E+00  0.0000E+00  0.4800E-01  0.4800E-01
     -5.542  0.0000E+00  0.0000E+00  0.4800E-01  0.4800E-01
     -5.508  0.0000E+00  0.0000E+00  0.4800E-01  0.4800E-01
     -5.474  0.0000E+00  0.0000E+00  0.4800E-01  0.4800E-01
     -5.440  0.0000E+00  0.0000E+00  0.4800E-01  0.4800E-01
     -5.405  0.0000E+00  0.0000E+00  0.4800E-01  0.4800E-01
     -5.371  0.0000E+00  0.0000E+00  0.4800E-01  0.4800E-01
     -5.337  0.0000E+00  0.0000E+00  0.4800E-01  0.4800E-01
     -5.302  0.0000E+00  0.0000E+00  0.4800E-01  0.4800E-01
     -5.268  0.0000E+00  0.0000E+00  0.4800E-01  0.4800E-01
     -5.234  0.0000E+00  0.0000E+00  0.4800E-01  0.4800E-01
     -5.200  0.0000E+00  0.0000E+00  0.4800E-01  0.4800E-01
     -5.165  0.0000E+00  0.0000E+00  0.4800E-01  0.4800E-01
     -5.131  0.0000E+00  0.0000E+00  0.4800E-01  0.4800E-01
     -5.097  0.0000E+00  0.0000E+00  0.4800E-01  0.4800E-01
     -5.062  0.0000E+00  0.0000E+00  0.4800E-01  0.4800E-01
     -5.028  0.0000E+00  0.0000E+00  0.4800E-01  0.4800E-01
     -4.994  0.0000E+00  0.0000E+00  0.4800E-01  0.4800E-01
     -4.960  0.0000E+00  0.0000E+00  0.4800E-01  0.4800E-01
     -4.925  0.0000E+00  0.0000E+00  0.4800E-01  0.4800E-01
     -4.891  0.0000E+00  0.0000E+00  0.4800E-01  0.4800E-01
     -4.857  0.0000E+00  0.0000E+00  0.4800E-01  0.4800E-01
     -4.822  0.0000E+00  0.0000E+00  0.4800E-01  0.4800E-01
     -4.788  0.0000E+00  0.0000E+00  0.4800E-01  0.4800E-01
     -4.754  0.0000E+00  0.0000E+00  0.4800E-01  0.4800E-01
     -4.720  0.0000E+00  0.0000E+00  0.4800E-01  0.4800E-01
     -4.685  0.0000E+00  0.0000E+00  0.4800E-01  0.4800E-01
     -4.651  0.0000E+00  0.0000E+00  0.4800E-01  0.4800E-01
     -4.617  0.0000E+00  0.0000E+00  0.4800E-01  0.4800E-01
     -4.582  0.0000E+00  0.0000E+00  0.4900E-01  0.4800E-01
     -4.548  0.0000E+00  0.0000E+00  0.4900E-01  0.4800E-01
     -4.514  0.0000E+00  0.0000E+00  0.4900E-01  0.4900E-01
     -4.480  0.0000E+00  0.0000E+00  0.4900E-01  0.4900E-01
     -4.445  0.0000E+00  0.0000E+00  0.4900E-01  0.4900E-01
     -4.411  0.0000E+00  0.0000E+00  0.4900E-01  0.4900E-01
     -4.377  0.0000E+00  0.0000E+00  0.4900E-01  0.4900E-01
     -4.342  0.0000E+00  0.0000E+00  0.4900E-01  0.4900E-01
     -4.308  0.0000E+00  0.0000E+00  0.4900E-01  0.4900E-01
     -4.274  0.0000E+00  0.0000E+00  0.4900E-01  0.4900E-01
     -4.240  0.0000E+00  0.0000E+00  0.4900E-01  0.4900E-01
     -4.205  0.0000E+00  0.0000E+00  0.4900E-01  0.4900E-01
     -4.171  0.0000E+00  0.0000E+00  0.4900E-01  0.4900E-01
     -4.137  0.0000E+00  0.0000E+00  0.4900E-01  0.4900E-01
     -4.102  0.0000E+00  0.0000E+00  0.4900E-01  0.4900E-01
     -4.068  0.0000E+00  0.0000E+00  0.4900E-01  0.4900E-01
     -4.034  0.0000E+00  0.0000E+00  0.4900E-01  0.4900E-01
     -4.000  0.0000E+00  0.0000E+00  0.4900E-01  0.4900E-01
     -3.965  0.0000E+00  0.0000E+00  0.4900E-01  0.4900E-01
     -3.931  0.0000E+00  0.0000E+00  0.4900E-01  0.4900E-01
     -3.897  0.0000E+00  0.0000E+00  0.4900E-01  0.4900E-01
     -3.863  0.0000E+00  0.0000E+00  0.4900E-01  0.4900E-01
     -3.828  0.0000E+00  0.0000E+00  0.4900E-01  0.4900E-01
     -3.794  0.0000E+00  0.0000E+00  0.4900E-01  0.4900E-01
     -3.760  0.0000E+00  0.0000E+00  0.4900E-01  0.4900E-01
     -3.725  0.0000E+00  0.0000E+00  0.4900E-01  0.4900E-01
     -3.691  0.0000E+00  0.0000E+00  0.4900E-01  0.4900E-01
     -3.657  0.0000E+00  0.0000E+00  0.5000E-01  0.4900E-01
     -3.623  0.0000E+00  0.0000E+00  0.5000E-01  0.4900E-01
     -3.588  0.0000E+00  0.0000E+00  0.5000E-01  0.4900E-01
     -3.554  0.0000E+00  0.0000E+00  0.5000E-01  0.4900E-01
     -3.520  0.0000E+00  0.0000E+00  0.5000E-01  0.4900E-01
     -3.485  0.0000E+00  0.0000E+00  0.5100E-01  0.4900E-01
     -3.451  0.0000E+00  0.0000E+00  0.5100E-01  0.4900E-01
     -3.417  0.0000E+00  0.0000E+00  0.5100E-01  0.5100E-01
     -3.383  0.0000E+00  0.0000E+00  0.5100E-01  0.5100E-01
     -3.348  0.0000E+00  0.0000E+00  0.5100E-01  0.5100E-01
     -3.314  0.0000E+00  0.0000E+00  0.5100E-01  0.5100E-01
     -3.280  0.0000E+00  0.0000E+00  0.5100E-01  0.5100E-01
     -3.245  0.0000E+00  0.0000E+00  0.5100E-01  0.5100E-01
     -3.211  0.0000E+00  0.0000E+00  0.5100E-01  0.5100E-01
     -3.177  0.0000E+00  0.0000E+00  0.5100E-01  0.5100E-01
     -3.143  0.0000E+00  0.0000E+00  0.5100E-01  0.5100E-01
     -3.108  0.0000E+00  0.0000E+00  0.5100E-01  0.5100E-01
     -3.074  0.0000E+00  0.0000E+00  0.5100E-01  0.5100E-01
     -3.040  0.0000E+00  0.0000E+00  0.5100E-01  0.5100E-01
     -3.005  0.0000E+00  0.0000E+00  0.5100E-01  0.5100E-01
     -2.971  0.0000E+00  0.0000E+00  0.5100E-01  0.5100E-01
     -2.937  0.0000E+00  0.0000E+00  0.5100E-01  0.5100E-01
     -2.903  0.0000E+00  0.0000E+00  0.5100E-01  0.5100E-01
     -2.868  0.0000E+00  0.0000E+00  0.5100E-01  0.5100E-01
     -2.834  0.0000E+00  0.0000E+00  0.5100E-01  0.5100E-01
     -2.800  0.0000E+00  0.0000E+00  0.5100E-01  0.5100E-01
     -2.765  0.0000E+00  0.0000E+00  0.5100E-01  0.5100E-01
     -2.731  0.0000E+00  0.0000E+00  0.5100E-01  0.5100E-01
     -2.697  0.0000E+00  0.0000E+00  0.5100E-01  0.5100E-01
     -2.663  0.0000E+00  0.0000E+00  0.5100E-01  0.5100E-01
     -2.628  0.0000E+00  0.0000E+00  0.5100E-01  0.5100E-01
     -2.594  0.0000E+00  0.0000E+00  0.5100E-01  0.5100E-01
     -2.560  0.0000E+00  0.0000E+00  0.5100E-01  0.5100E-01
     -2.525  0.0000E+00  0.0000E+00  0.5100E-01  0.5100E-01
     -2.491  0.0000E+00  0.0000E+00  0.5300E-01  0.5100E-01
     -2.457  0.0000E+00  0.0000E+00  0.5300E-01  0.5100E-01
     -2.423  0.0000E+00  0.2917E-01  0.5300E-01  0.5300E-01
     -2.388  0.0000E+00  0.0000E+00  0.5300E-01  0.5300E-01
     -2.354  0.0000E+00  0.0000E+00  0.5300E-01  0.5300E-01
     -2.320  0.0000E+00  0.0000E+00  0.5300E-01  0.5300E-01
     -2.285  0.0000E+00  0.0000E+00  0.5300E-01  0.5300E-01
     -2.251  0.0000E+00  0.0000E+00  0.5300E-01  0.5300E-01
     -2.217  0.0000E+00  0.0000E+00  0.5300E-01  0.5300E-01
     -2.183  0.0000E+00  0.0000E+00  0.5300E-01  0.5300E-01
     -2.148  0.0000E+00  0.0000E+00  0.5300E-01  0.5300E-01
     -2.114  0.0000E+00  0.0000E+00  0.5300E-01  0.5300E-01
     -2.080  0.0000E+00  0.0000E+00  0.5300E-01  0.5300E-01
     -2.045  0.0000E+00  0.0000E+00  0.5400E-01  0.5300E-01
     -2.011  0.0000E+00  0.0000E+00  0.5400E-01  0.5300E-01
     -1.977  0.0000E+00  0.0000E+00  0.5400E-01  0.5400E-01
     -1.943  0.0000E+00  0.0000E+00  0.5400E-01  0.5400E-01
     -1.908  0.0000E+00  0.0000E+00  0.5400E-01  0.5400E-01
     -1.874  0.0000E+00  0.0000E+00  0.5400E-01  0.5400E-01
     -1.840  0.0000E+00  0.0000E+00  0.5400E-01  0.5400E-01
     -1.806  0.0000E+00  0.0000E+00  0.5400E-01  0.5400E-01
     -1.771  0.0000E+00  0.0000E+00  0.5400E-01  0.5400E-01
     -1.737  0.0000E+00  0.0000E+00  0.5400E-01  0.5400E-01
     -1.703  0.0000E+00  0.0000E+00  0.5400E-01  0.5400E-01
     -1.668  0.0000E+00  0.0000E+00  0.5400E-01  0.5400E-01
     -1.634  0.0000E+00  0.0000E+00  0.5400E-01  0.5400E-01
     -1.600  0.0000E+00  0.0000E+00  0.5600E-01  0.5400E-01
     -1.566  0.0000E+00  0.0000E+00  0.5600E-01  0.5400E-01
     -1.531  0.0000E+00  0.0000E+00  0.5600E-01  0.5400E-01
     -1.497  0.0000E+00  0.0000E+00  0.5600E-01  0.5400E-01
     -1.463  0.0000E+00  0.0000E+00  0.5600E-01  0.5600E-01
     -1.428  0.0000E+00  0.0000E+00  0.5600E-01  0.5600E-01
     -1.394  0.0000E+00  0.0000E+00  0.5600E-01  0.5600E-01
     -1.360  0.0000E+00  0.0000E+00  0.5600E-01  0.5600E-01
     -1.326  0.0000E+00  0.0000E+00  0.5600E-01  0.5600E-01
     -1.291  0.0000E+00  0.0000E+00  0.5600E-01  0.5600E-01
     -1.257  0.0000E+00  0.0000E+00  0.5600E-01  0.5600E-01
     -1.223  0.0000E+00  0.0000E+00  0.5600E-01  0.5600E-01
     -1.188  0.0000E+00  0.0000E+00  0.5600E-01  0.5600E-01
     -1.154  0.0000E+00  0.0000E+00  0.5600E-01  0.5600E-01
     -1.120  0.0000E+00  0.0000E+00  0.5600E-01  0.5600E-01
     -1.086  0.0000E+00  0.0000E+00  0.5600E-01  0.5600E-01
     -1.051  0.0000E+00  0.0000E+00  0.5600E-01  0.5600E-01
     -1.017  0.2917E-01  0.0000E+00  0.5800E-01  0.5600E-01
     -0.983  0.0000E+00  0.0000E+00  0.5800E-01  0.5600E-01
     -0.948  0.0000E+00  0.0000E+00  0.5800E-01  0.5600E-01
     -0.914  0.0000E+00  0.0000E+00  0.5800E-01  0.5800E-01
     -0.880  0.0000E+00  0.0000E+00  0.5800E-01  0.5800E-01
     -0.846  0.0000E+00  0.0000E+00  0.5800E-01  0.5800E-01
     -0.811  0.0000E+00  0.0000E+00  0.5800E-01  0.5800E-01
     -0.777  0.0000E+00  0.0000E+00  0.5800E-01  0.5800E-01
     -0.743  0.0000E+00  0.0000E+00  0.5800E-01  0.5800E-01
     -0.708  0.0000E+00  0.0000E+00  0.5900E-01  0.5800E-01
     -0.674  0.0000E+00  0.0000E+00  0.5900E-01  0.5800E-01
     -0.640  0.0000E+00  0.0000E+00  0.5900E-01  0.5800E-01
     -0.606  0.0000E+00  0.0000E+00  0.5900E-01  0.5900E-01
     -0.571  0.0000E+00  0.0000E+00  0.5900E-01  0.5900E-01
     -0.537  0.0000E+00  0.0000E+00  0.5900E-01  0.5900E-01
     -0.503  0.0000E+00  0.0000E+00  0.5900E-01  0.5900E-01
     -0.468  0.0000E+00  0.0000E+00  0.5900E-01  0.5900E-01
     -0.434  0.0000E+00  0.0000E+00  0.5900E-01  0.5900E-01
     -0.400  0.0000E+00  0.0000E+00  0.6000E-01  0.5900E-01
     -0.366  0.0000E+00  0.0000E+00  0.6100E-01  0.5900E-01
     -0.331  0.0000E+00  0.0000E+00  0.6100E-01  0.6000E-01
     -0.297  0.0000E+00  0.0000E+00  0.6100E-01  0.6000E-01
     -0.263  0.0000E+00  0.0000E+00  0.6100E-01  0.6000E-01
     -0.228  0.0000E+00  0.0000E+00  0.6100E-01  0.6100E-01
     -0.194  0.0000E+00  0.0000E+00  0.6100E-01  0.6100E-01
     -0.160  0.0000E+00  0.0000E+00  0.6100E-01  0.6100E-01
     -0.126  0.0000E+00  0.0000E+00  0.6100E-01  0.6100E-01
     -0.091  0.0000E+00  0.0000E+00  0.6100E-01  0.6100E-01
     -0.057  0.0000E+00  0.0000E+00  0.6100E-01  0.6100E-01
     -0.023  0.0000E+00  0.0000E+00  0.6100E-01  0.6100E-01
      0.012  0.0000E+00  0.0000E+00  0.6200E-01  0.6100E-01
      0.046  0.0000E+00  0.0000E+00  0.6200E-01  0.6200E-01
      0.080  0.0000E+00  0.0000E+00  0.6300E-01  0.6200E-01
      0.114  0.0000E+00  0.0000E+00  0.6300E-01  0.6200E-01
      0.149  0.0000E+00  0.0000E+00  0.6300E-01  0.6300E-01
      0.183  0.0000E+00  0.0000E+00  0.6300E-01  0.6300E-01
      0.217  0.0000E+00  0.0000E+00  0.6300E-01  0.6300E-01
      0.251  0.0000E+00  0.0000E+00  0.6300E-01  0.6300E-01
      0.286  0.0000E+00  0.0000E+00  0.6300E-01  0.6300E-01
      0.320  0.0000E+00  0.0000E+00  0.6300E-01  0.6300E-01
      0.354  0.0000E+00  0.0000E+00  0.6300E-01  0.6300E-01
      0.389  0.0000E+00  0.0000E+00  0.6400E-01  0.6300E-01
      0.423  0.0000E+00  0.0000E+00  0.6400E-01  0.6400E-01
      0.457  0.0000E+00  0.0000E+00  0.6400E-01  0.6400E-01
      0.491  0.0000E+00  0.0000E+00  0.6400E-01  0.6400E-01
      0.526  0.0000E+00  0.0000E+00  0.6400E-01  0.6400E-01
      0.560  0.0000E+00  0.0000E+00  0.6400E-01  0.6400E-01
      0.594  0.0000E+00  0.0000E+00  0.6400E-01  0.6400E-01
      0.629  0.0000E+00  0.0000E+00  0.6400E-01  0.6400E-01
      0.663  0.0000E+00  0.0000E+00  0.6400E-01  0.6400E-01
      0.697  0.0000E+00  0.0000E+00  0.6400E-01  0.6400E-01
      0.731  0.0000E+00  0.0000E+00  0.6400E-01  0.6400E-01
      0.766  0.0000E+00  0.0000E+00  0.6400E-01  0.6400E-01
      0.800  0.0000E+00  0.0000E+00  0.6400E-01  0.6400E-01
      0.834  0.0000E+00  0.0000E+00  0.6400E-01  0.6400E-01
      0.869  0.0000E+00  0.0000E+00  0.6400E-01  0.6400E-01
