34
Energy = -71.83505635 eV
Ag 15.375938002068576 10.63826478512991 10.250114319368365
Ag 15.792225129167527 9.55212829683253 12.80538801377249
Ag 14.727716496314603 11.708130227889221 7.7041340645892875
Ag 14.01707306694592 13.110865803443525 10.09809212695417
Ag 14.47140796840562 12.003811178660024 12.687410460063559
Ag 13.964394911389377 8.255740679696418 11.099636778822465
Ag 13.421926898136194 9.353247138493453 8.53804545529534
Ag 13.321937334147018 14.082789516528628 7.556491884322056
Ag 14.760616775632732 10.68647086516837 15.164271438230896
Ag 11.211145738388476 8.13937066606635 11.630237619234803
Ag 12.517558627373635 10.65765284152854 10.848589501319585
Ag 13.01231706566687 9.375330563723082 13.476726700662311
Ag 11.945057534309244 11.681759429530494 7.969490081696229
Ag 13.046825838117682 14.361315642892997 12.444317765518564
Ag 12.319939613182866 15.433377226048906 9.825051859074211
Ag 11.604807543253074 12.064525437050056 13.23372350773109
Ag 12.015050991131782 10.716035901531267 15.724248476792942
Ag 11.086748324432225 13.04978728478719 10.608169787565718
Ag 10.557688093669764 14.083902158265106 7.955188229928224
Ag 10.187604841338713 9.475309944350531 13.950985344451674
Ag 9.549403081514805 11.956130044449218 15.115082725411572
Ag 9.719921167160873 10.689178723716797 11.349860261913285
Ag 10.658042501038043 9.359266818924093 8.940234622247617
Ag 9.341906817353019 7.059966315187478 9.854498425377308
Ag 8.915893505643457 13.207700554990245 12.668516016587963
Ag 8.371934048527 8.271215274197733 12.208671772184802
Ag 7.658775168574628 10.779154186911857 13.3746111160331
Ag 10.53833453396668 15.389389688603886 12.003536946553567
Ag 8.634178027753178 14.288512053920593 9.999964946908289
Ag 7.217424771725851 11.979085798836957 10.701282315560134
Ag 9.153258255065232 11.786355800620328 8.607938862003088
Ag 5.954946546230182 9.625925605552949 11.498528766255006
Ag 7.85351044358787 9.473589801642474 9.416098528333876
Ag 6.570699989876617 7.181351604750454 10.369743261221004
