17
Energy = -11.26283515 eV
Cs -0.13703196655334482 15.56272267957227 11.644835014660051
Cs 0.8232047082182729 14.22540578275472 17.229958223001336
Cs -0.8338586224698261 1.0824847178451216 12.042476430501338
Cs 2.1487954753618075 19.667044267615097 16.94679966334597
Cs 17.790429791674278 9.297801074006532 18.194655817764595
Cs 15.87582760256686 12.84262376666601 14.510409202647102
Cs 14.477683480342973 16.786130278928102 10.8124157249644
Cs 17.087269856319 4.352513365670244 15.845029744094937
Cs 17.095428729982782 17.914242809263357 15.908752506972856
Cs 12.016416680326957 16.421328181746397 15.39634388868656
Cs -0.41123672064384853 12.859671120934811 2.4412011907152316
Cs 15.085821254076214 14.845856036386465 0.032788645077813254
Cs 17.423566128682246 16.304218582434135 6.375909131635754
Cs 13.40540684306799 1.3838351433938443 13.551469298907467
Cs 19.24356121323485 18.122548513718826 1.5444681022808084
Cs 19.54718708532061 3.6762278014375993 0.43094021695606316
Cs 14.649375187493584 0.8239762572312943 19.417902973329305
