17
Energy = -11.30334236 eV
Cs 14.907998107040848 15.415112488906406 10.56319665308029
Cs 17.72945002049979 11.573699914459839 13.08741577309714
Cs 2.3770728105866015 15.863216624769992 14.613996110790024
Cs 10.650275757599482 15.516043253870082 14.663290663996552
Cs 12.397745629316432 1.2590316161530168 11.93731509990348
Cs 17.513085255533536 0.9070317583380071 12.523749226684753
Cs 12.662118901882032 11.079191816054834 13.177732794885529
Cs 16.145387909331987 15.688046422408238 16.079283085180542
Cs 13.221216654124863 1.097539495036857 17.063378667134444
Cs 1.489872325401424 11.753008295282818 17.869713152611684
Cs 0.5116050783094757 1.7980785798863368 17.26004398519692
Cs 15.582585097625195 5.793455912422382 14.908635875018877
Cs 15.131415607353437 10.386422565542833 17.780989036266487
Cs 12.68947248221334 14.8059799115161 0.9350694759299735
Cs 2.739050951018528 16.389972793445196 1.2556677279799473
Cs 16.564688054800847 -0.2310147499645696 2.512630423378847
Cs 17.273013043141383 13.168579687514137 3.3539459346435714
