12
Energy = -7.67689476 eV
Cs 0.17041195310205193 14.20599872201746 16.81360913580507
Cs 0.2605730179110897 0.618690505536576 12.30825820200673
Cs 0.754284583183226 1.0349360651611852 17.45454451083179
Cs 17.7115796962759 13.719981279860756 11.62510181493743
Cs -0.49170813742196273 15.002954803232912 5.219457590232812
Cs 16.43761883709831 8.859749912487898 17.296930520881972
Cs 14.615227094334546 -0.0179501732394286 2.1853166014246797
Cs 15.648928044493319 4.514504263373183 14.7529143691789
Cs 14.557754570726173 17.022714130934798 8.958779935118153
Cs 14.099552349680836 13.063361343645186 1.541192317080843
Cs 13.52241098783416 12.412710194607776 14.477753271993478
Cs 14.087098388305254 17.335245842387103 15.09973523837405
