11
Energy = -6.43035551 eV
Cs 1.885821468280052 15.738773551383908 16.662884437276407
Cs 17.38004498864654 17.202409956569596 12.508544188862254
Cs 2.080744092394172 2.8678623658291977 17.096491615349343
Cs 17.577078885409282 12.200213881318653 13.936469389386485
Cs 17.71461947271959 11.758505060519052 1.018462780112465
Cs 0.2199655237375124 17.81831402414375 2.844613289213966
Cs 14.278258772854237 15.065551283181609 0.2531989628799227
Cs 13.838801370036894 12.527586376314934 10.335844044281929
Cs 12.948552634059723 10.685195903805408 15.279218107184263
Cs 12.55426428547554 16.048217092462416 13.81214401629198
Cs 15.37907317226156 1.5538212314587023 16.660565721259516
