15
Energy = -9.57799335 eV
Cs 13.864585716181514 13.213055730018516 19.09851137737014
Cs 15.165215756292522 16.52884930985899 2.819402718974875
Cs 15.780050560707616 2.549642300992411 15.912833435903085
Cs 13.974069500567316 16.17495751107522 15.014837249848238
Cs 13.133974064669037 20.099622070465283 11.719256677110605
Cs 17.44242193487696 13.865123245985606 11.428384590596858
Cs 13.612322002060973 -0.8903378512476021 -1.1454344132120011
Cs 18.083117412043876 18.81947345141694 12.923314446672665
Cs 13.877681628288016 10.939171801943111 13.99956504281401
Cs 15.792945765520106 7.890307083140526 17.996755657948693
Cs 12.231272541432844 15.118170561799 10.306737929705312
Cs 18.06254866421548 17.073150459685273 18.20815632156348
Cs 18.55296474783189 12.570990490182735 0.9924847409314252
Cs 16.36690342485007 17.477296472241324 7.882154711739206
Cs 18.568686206166774 12.349626367390524 16.257308056602483
