21
Energy = -14.15614474 eV
Cs 20.25391125627935 1.650033858744056 19.281629614937497
Cs 18.47841675447731 0.7506061425456276 3.959483914875806
Cs 15.913454539525649 1.6714942777310275 15.160624426221359
Cs 1.2363752719183212 0.8980728776853646 13.755000689428318
Cs 15.034548080219789 2.5730370725492966 20.26644121665652
Cs 1.0237973987189388 16.830958467546832 2.5444449654016315
Cs 3.548299798235034 18.48092324011574 18.38022867920787
Cs 12.882309985469492 19.635278743564456 3.4277244409720566
Cs 16.31678563707682 16.43869182439619 5.616086693216918
Cs 16.81965041776796 17.938007146534773 0.12951795961942475
Cs 18.705640386752787 17.958493295643063 16.061033258452337
Cs 2.9212892602124 16.31081653443324 13.491326079840478
Cs 12.231018371299074 18.967807588278966 17.979754651060194
Cs 17.589588849530124 12.861509795169592 1.4237745982008658
Cs 0.7643679458658343 13.890082216595376 18.07713529465109
Cs 17.335155077788016 19.4846512436189 10.452525557922215
Cs 12.643904376234579 14.887679352224154 1.0937827315832163
Cs 1.5185029800929093 17.960547406827843 8.401465566519795
Cs 13.853339145490926 17.18517667983671 13.382899692487761
Cs 15.28297097632744 13.768829434402353 17.067964931736938
Cs 18.570065601650768 14.38676640680119 12.606979799612317
