27
Energy = -19.52141428 eV
Cs 17.880482235503983 19.157441813392126 12.789863632503483
Cs 3.5022282651280965 17.10392804122199 13.583360659430104
Cs 0.2740048292810133 5.093142367845407 13.613545749745864
Cs 3.6140647275502427 15.709852281412497 0.26357975995022254
Cs 5.221503868104824 2.9176187320393607 12.506383594130238
Cs 18.70973118134604 15.181840598552203 16.549550325707976
Cs 0.8293050694148805 8.664717500327672 18.602841544352795
Cs 6.785848080643377 0.22266331545808485 17.06939062871197
Cs 13.622111415610807 3.025115052223186 13.498565288178902
Cs 7.74488372588144 18.030938420757323 3.7255836491596837
Cs 0.9699257596178705 1.3218203653225946 17.35251908472443
Cs 4.566603380331511 5.2104902519464105 17.34361450267921
Cs 2.6379287295101914 16.006846591990627 5.617922985459692
Cs 14.304477594831035 0.006619912710797998 17.636563831625818
Cs 16.926254532929175 18.075991757534368 7.278474356367939
Cs 7.023977395812822 17.941682847067568 9.368094657584962
Cs 3.4962042224902543 1.4386716476059762 2.722022340241361
Cs 16.135291503524957 4.78527187711246 18.3007028640504
Cs 9.201562123355046 3.317056622618075 1.2203208604474816
Cs 4.405357970296946 6.605697512162323 3.0493036746578315
Cs 17.92191234890497 17.913080102691502 2.079277822096284
Cs 2.206796096452245 0.8432250309805546 8.661592174921847
Cs 7.054169324546781 3.1728406439595287 6.5963422083840495
Cs 13.607212410427874 1.8593449019321315 4.032863392491846
Cs 16.7706399731405 3.8499457761424813 8.8448488593553
Cs 18.60915067578716 4.32818918280913 3.636688088432967
Cs 2.6061763436791376 5.913237129270947 8.286322432043493
