26
Energy = -17.19825682 eV
Cs 21.05115497895964 1.6066067771512393 13.994694033902727
Cs 19.38744821375645 14.722890640665696 11.37698009606815
Cs 1.624780228744363 18.241209318567194 13.372223010966609
Cs 4.948866484780445 -0.12567393412748815 16.461756041920115
Cs 1.3255183468044638 1.5957682257642765 19.40081472758057
Cs 19.675758876016356 19.27218130429295 17.25909949615905
Cs 2.544542669792899 13.09303526874839 14.055429154764715
Cs 17.831976500045737 3.3541865526058254 17.789084625083653
Cs 15.526592064739138 16.885536024763507 14.848634788519885
Cs 16.885894912433344 8.414022249003176 21.009814033623584
Cs 20.284408961806236 4.650851447887348 1.430466027341848
Cs 4.458304339558112 16.485515084028897 17.660468818928344
Cs 13.915372958981338 21.008061195833882 17.77064516437645
Cs 4.270447241083583 2.383997953920889 2.2608784908565847
Cs 13.810876163828143 3.8738281010316804 0.0015896304443568476
Cs 19.794613738521964 14.202457348258829 16.997881346719822
Cs 2.4070895496427758 11.901480935946191 19.268080256489018
Cs 8.659049415449152 0.864604125410107 20.813531254705534
Cs 0.9224311067028913 17.548876374601072 0.1456758633640026
Cs 15.667841590186605 16.4552025358292 20.18612531023909
Cs 18.072262845509993 -0.005970658376806333 0.38806758050444884
Cs 0.5036642968618835 21.059895812372726 4.425030313111635
Cs 13.107282342000653 20.332859459809825 1.856853126377083
Cs 19.527202876059107 12.994472489889125 1.076380184473602
Cs 17.520877676146327 17.39450871555068 3.611456913858381
Cs 0.013889162293762148 15.52774419127785 6.276487250325481
