26
Energy = -18.36149557 eV
Cs 1.1114651768470545 13.097593603583444 7.871384223287319
Cs 6.720249345721341 -0.13494837050373254 19.30748273274051
Cs 4.153115932286845 10.072213808939535 18.07016019131579
Cs 8.94951088346054 7.724510733209584 19.701187097963476
Cs 18.479767606242792 2.612500145673208 3.864418991508295
Cs 1.1731098115009257 0.4100080697295341 19.34897846749377
Cs 0.42092355646027274 6.498752606206237 0.8087416704877728
Cs 3.859816142685207 2.4981795957570343 3.306301831536614
Cs 3.699117590838538 15.460034201659097 0.2664593813626333
Cs 18.35522376768143 3.8671949409159008 9.126923360741568
Cs 2.07207559024957 6.085972596154305 6.499097840298442
Cs 6.767635631410828 18.227788837586207 4.681625154609836
Cs 6.0829546408773005 13.326440658658 6.304550838262618
Cs 4.686234894366966 4.56455563572238 18.041777167593022
Cs 5.250979994081334 7.8841072801057805 3.3010761964915294
Cs 17.446265585857535 8.206106795728585 5.381104256130348
Cs 0.8257335427330484 17.162884243376638 4.248485890164194
Cs 9.909657665711169 8.27441448083375 5.515331874979451
Cs 5.397366067845608 8.983453695760156 8.99590458769386
Cs 1.5142823659557463 11.446997006520073 3.0274633851696295
Cs 6.925657703512638 3.8589417166419917 7.711924571558497
Cs 3.3167345785344273 4.398291807210859 11.892312504059324
Cs 8.972135777642693 3.4605644884570586 2.9035421974132283
Cs 2.510717702978108 0.42398969953943766 8.146233334601867
Cs 0.29849513234600944 8.953492644045491 10.753230773071236
Cs 7.733106288531273 12.61528824018736 1.637375101187929
