22
Energy = -14.87418811 eV
Cs 11.254905708327813 1.5688433853378594 19.384372642351845
Cs 14.663836741019681 2.7944966338624146 2.5750973454533055
Cs 16.214467502975936 4.444000442004267 18.712883741320585
Cs 12.307830118798607 18.993588154241635 2.222637781137157
Cs 12.569861574420703 17.2610395162381 17.62363976733561
Cs 14.244726092906888 0.9040466239509213 14.948191378263079
Cs 16.097541534551258 20.16938462422858 19.872914378271016
Cs 19.879358620325263 1.9455750802573422 1.0285770286628582
Cs 16.106381816642315 15.427662013171435 1.4216673823187913
Cs 19.502091686249468 1.553386639709709 15.967931985850988
Cs 17.279307519488015 19.623229344980142 4.681101905883172
Cs 16.91905516654505 17.54679360242586 13.756744286502972
Cs 0.3929934953884438 17.673279884953615 1.9823406202162657
Cs 19.651805985841637 17.672791968762436 18.19202571702775
Cs 16.11457180233732 13.364194769842939 17.39866723190438
Cs 3.001340203691139 0.2599489885896394 18.963412956521182
Cs 1.8839133109457666 18.976262645207616 14.136027736249728
Cs 20.282491428245844 12.821521909144002 20.53945606548777
Cs 20.85338509526254 13.884181574511224 14.920791276552482
Cs 3.520727502394505 15.82103863516076 18.600446114295053
Cs 7.4858478156131065 19.25068303430011 16.50207625108495
Cs 5.3895884198759525 15.022972167790305 13.801218461465579
