39
Energy = -27.49387853 eV
Cs 15.761079485118998 1.0434645840756804 17.123270682884534
Cs 20.493436644314105 1.1853975219405986 20.195029226556155
Cs 18.202636571711523 1.4499006436714996 12.159516683130265
Cs 16.06489738069472 3.435631065417402 22.229692581763267
Cs 2.2675966240142165 3.310332982115464 17.655453410926917
Cs 21.961850413522406 21.937097228518088 15.274284083148673
Cs 14.59472678766541 20.196399425749156 12.96930420362633
Cs 12.196508978547573 0.5366457660082831 2.66627854773295
Cs 21.421897100833668 0.5279714495113095 2.547729604699077
Cs 16.1872829332601 20.729609079321836 22.08584082593373
Cs 19.41351157077403 18.608274981922452 11.374406993349472
Cs 0.5486334333130469 19.131891054198164 20.351879526527405
Cs 20.060489994044136 19.566974434655236 6.267051236718582
Cs 4.8296566892215465 20.890049415103203 17.396637961706578
Cs 16.876016127506972 1.3246946492521228 4.957531484488158
Cs 5.91704641682552 17.95074133356794 21.67070436450885
Cs 3.6413988488889255 0.6348395361655754 22.211233300979888
Cs 11.100807546415258 0.38895022930351675 20.08439333941738
Cs 2.5443454102695706 19.243941725263706 3.21594133592292
Cs 0.31016665652015984 15.124683823893077 5.452234224980333
Cs 19.53997187929247 4.668916068461308 16.464760531686263
Cs 4.287934308013991 1.0568782612756684 12.847422147861106
Cs 2.0248121576253792 14.406155905096856 0.49826865672941817
Cs 19.55119483335907 17.39566120176728 1.4723683434299333
Cs 14.86983637236354 18.8950760293396 4.80696555257751
Cs 3.274071970848766 15.637586547440963 17.543883941294894
Cs 18.489175836000417 18.76216373472298 17.403322800955284
Cs 17.790497935963568 14.8608591093193 6.996891486187101
Cs 0.5320466304155816 4.423502686431911 12.57565955574306
Cs 12.840278429953857 18.54803611715914 17.597935965781204
Cs 11.652311909579005 18.050587739001497 0.2651202948206924
Cs 2.5526473272285193 18.483404992661196 12.834496254660623
Cs 19.565010677008996 12.201094644690702 1.7414081346304293
Cs 15.795281436433266 14.978456966406902 20.180535599413272
Cs 16.20316305251064 15.263329419733328 14.456703731901568
Cs 20.751038359365545 14.062159129880266 19.284169663749662
Cs 0.1546561948657923 0.14443654282345744 9.486369761447882
Cs 14.820382117331778 14.204520727127962 2.6650680981122976
Cs 21.566184009117027 14.978472252735065 14.315147676158713
