33
Energy = -23.67943538 eV
Cs 10.609343876030614 1.160205685133072 2.8981952383629106
Cs 12.317188156879785 17.854733730465863 0.7749100004128059
Cs 10.873887371884337 15.619784844441888 16.940521618526333
Cs 9.724559619491533 0.26040084787468676 16.804007394047048
Cs 14.041957351485655 20.332817948934245 7.088260315940752
Cs 16.130555847149374 14.842011036522798 14.041420893521861
Cs 18.893331242583127 16.00063298707053 9.033705537687691
Cs 12.171207680919915 18.60798992476128 12.338446753753496
Cs 14.84064708827676 3.9239272494279733 3.9598018480911823
Cs 15.616910123040922 14.048325946697862 19.920144511265324
Cs 13.753525461015657 2.8594890274750884 19.559181518551743
Cs 16.78511808476386 16.536912946794946 4.182329520478218
Cs 16.911095450507233 -0.07737061132240498 1.4610476484670942
Cs 14.037538494975783 2.3425388816309143 14.187273231802308
Cs 15.191092823137085 19.000248563128018 17.190265240540317
Cs 20.45781612362396 11.957021657876917 12.432089939883076
Cs 18.63383208277443 5.09217761061443 0.2624312351954629
Cs 20.06200275702513 12.223075304010324 17.71913547709628
Cs 17.597515660392727 20.206649150944088 11.922641784071963
Cs 19.014688140473456 1.6942359347686493 17.172925826951445
Cs 0.2591224966011631 16.808748839516998 14.686318860615998
Cs 19.303864292309328 0.3816193355832277 6.290904260511172
Cs 20.203517734985894 13.109333708107014 2.0694024002268665
Cs 19.940290628208455 17.547379588148456 19.94396639117108
Cs 3.4839617006185617 14.911978350061881 10.223442369161615
Cs 3.9478737048316743 12.603413726256765 15.20242753513351
Cs 1.8256657600237032 19.814378845785452 10.360713679469358
Cs 3.1412502933003283 -0.2568624218268738 17.082166434494237
Cs 1.3033456571419244 0.9152885454693298 1.1730480071784108
Cs 3.6691244893140618 15.227915535401296 19.680601008748635
Cs 1.6787544453865813 17.441595891924486 4.347159125877279
Cs 6.287957977466456 17.451698303453636 14.659492940160606
Cs 6.831474037017511 19.269823453126037 20.877986787613676
