32
Energy = -22.18158479 eV
Cs 1.8890936345111635 3.6364613395957703 9.613821396838617
Cs 10.716022492015172 18.845901799656396 20.068159416338172
Cs 2.0288523095498303 1.6230577591229387 16.007254551131048
Cs 1.9055138722240064 0.39928390994045593 -0.010236375185427436
Cs 18.584041384051137 1.324234665860554 14.509328374166838
Cs 3.6373363537541445 11.033182148552454 -1.098931881736947
Cs 14.802396542468001 15.442380682842156 1.0718123219879598
Cs 21.425136474000286 2.869364050200693 4.46468052408081
Cs 13.268885648313187 2.2858562079741653 19.368448652630857
Cs 2.895434164033987 14.27638553443093 3.299280286530222
Cs 19.13225746976486 2.4748960960602466 19.670649763557034
Cs 0.13631699091963517 7.855959795092297 2.0011954884318266
Cs 6.521963414891293 0.3023585856900164 19.240465579259904
Cs 16.514156740907797 3.7918760366862947 2.289218277781938
Cs -0.6859294805649403 18.960368184785214 17.213923831415016
Cs 17.768515134667663 8.002872459849291 20.532452338678215
Cs 6.517433344848093 19.496042847063833 2.699812614129812
Cs 19.25110633708239 15.292445475657413 4.571886962273244
Cs 7.968757184947342 14.75184606515045 0.672967275253846
Cs 20.30310732312277 13.282851921865767 -0.296696110158798
Cs 3.1369868823422244 5.349667160909484 19.939448672019854
Cs 15.85865561039501 5.416914903843848 16.146111224226722
Cs 19.430402061331637 18.848264717213105 0.7157290809762559
Cs 20.97996472264387 6.805151340806127 16.568097119244925
Cs 15.840442284594323 19.51812605965866 18.406323376208427
Cs 3.7179443422900302 6.095538872780608 13.952155093133927
Cs 1.5467269233964756 19.23364532516067 4.7651910585217
Cs 14.479565769251087 20.71473873815338 2.037667138472516
Cs 9.97908257743211 1.8707948990673502 1.9829539653119581
Cs 4.997343341000178 3.1186173152522043 3.3942815866138862
Cs 3.253903121656658 16.932433502809655 20.446539918315604
Cs 18.158271414153912 20.682183225252935 5.826692077559935
