43
Energy = -30.71070133 eV
Cs 18.32686305946749 15.739009882443622 4.912819967269843
Cs 18.05646209832095 20.638257520474312 6.9433926229988066
Cs 14.745780897918644 13.832559679069503 0.6783155356333481
Cs 13.413166472176487 18.468957955248353 3.5449477451490394
Cs 1.6314455533651075 14.49478331280247 2.049986479296706
Cs 9.99425919640299 17.22376550542853 22.395473549711546
Cs 22.608818284440765 19.121173666970193 4.294025966654769
Cs 15.046309655468042 0.7893947074574422 3.431222958588731
Cs 19.811103881147226 15.300908613733597 0.004488515462017543
Cs 11.94837153129853 14.729597654046842 18.042497138854916
Cs 17.48733569079592 13.550410866101483 18.444908646319043
Cs 17.94255687720182 19.947752254568215 1.4989022497520583
Cs 20.636919961299395 1.499801507538526 4.072491716888739
Cs 5.478408723772677 18.34216584352454 2.5252749311587315
Cs 11.62977906243991 22.385099387066365 22.81625444208405
Cs 14.897257722828362 17.90749418156444 20.896857528298547
Cs 5.2723838986771545 15.473988614976582 20.82620303350773
Cs 0.37746725203073644 13.817183066725354 19.53989813774423
Cs 1.19298537646211 18.707683444381253 22.17074293305771
Cs 11.4685015502654 20.777866798723853 17.77569787870179
Cs 17.24120549694309 3.582389305913471 22.555506248722956
Cs 3.7662492884966747 14.483616214476582 15.573382916407507
Cs 21.208092747939524 22.830122346041872 22.171526128525702
Cs 2.7436270387790636 0.13939389052126347 1.8825774674648257
Cs 19.809865860081658 18.71962105157195 18.758992842958328
Cs 16.122396346095083 22.426566587682604 19.821291733234304
Cs 21.583432272358674 15.59439696966899 14.904662736993359
Cs 15.757525690099568 17.605119029209156 15.379043829911764
Cs 1.893009724601445 19.642839689584623 17.45849779602842
Cs 6.4695789683661 20.97481605213912 20.88347107461544
Cs 22.406171023105532 5.036480631643106 22.276892125488917
Cs 7.525101409464518 17.77474995505402 16.541250061640042
Cs 20.364706254169047 1.3518092516651719 17.649775637980007
Cs 14.80371457777763 3.781173471660592 17.484394398219624
Cs 2.602752617948751 1.4851187774271803 19.52751390448893
Cs 18.866527453634504 6.844246329201106 18.477300280075475
Cs 15.725297014668035 22.695846576342163 14.344789845869293
Cs 3.144414959788482 19.118542174889782 12.710032923421096
Cs 20.498697326389365 20.640855420186718 13.421216556099846
Cs 6.158927313099215 -0.1566500726266748 15.672807072222362
Cs 1.2660790112730567 1.2196944946115114 13.970304475044745
Cs 0.5581356791744229 5.627008407999877 16.83260045150067
Cs 19.141906296784608 3.9459024244676093 13.658283708174492
