4
Energy = -1.37431458 eV
Cs 6.184092070038554 9.0283969686142 9.987840838280853
Cs 9.379876212249945 10.165540071282408 6.461484130947735
Cs 6.061086168318748 6.385442348637396 5.872450491914296
Cs 9.871957003859425 5.917632611465775 9.175236538857005
