49
Energy = -35.60981506 eV
Cs 5.704810465032136 21.02775601279504 5.287627235344222
Cs 4.8871589442428895 1.4854393666081591 1.2334975495319416
Cs 7.066986188571837 18.70665032734594 0.40656349000212433
Cs 8.164392395989578 22.342859793804056 19.676326900422513
Cs 3.791164795719402 16.396248953306053 4.188327268108621
Cs 1.6487620137749242 1.342488114736174 6.6542738673831545
Cs 0.7003461584659046 18.98162722371379 8.020893506571849
Cs 0.9237187278195279 20.71146775044428 2.056284053884567
Cs 5.899047433202736 17.27699925867717 17.796150407840987
Cs 22.504682253433696 3.5181680570297673 2.4411087668253395
Cs 2.4498659915859484 16.016742018501006 21.724816861060315
Cs 4.731874572066499 3.679029459212662 19.112122140726207
Cs 4.88885221519353 22.525217054553963 15.189471837102088
Cs 2.962266487484724 21.271697209745685 19.93320516918397
Cs 21.146415313298476 16.134568954283147 4.202243192896321
Cs 19.63641483553829 21.821292379599868 5.567672617725266
Cs 21.013037059702587 19.007453239528363 20.198809813453106
Cs 1.2223050170987975 18.32842992214507 15.585984116083074
Cs 1.486896956543726 4.204800551186392 15.0477952583932
Cs 22.47347266890511 2.5997735321790008 20.19783023967556
Cs 0.08455660198442426 8.072602814602693 19.341030991897185
Cs 18.68748146095294 6.206759682542441 22.096696968835683
Cs 16.400546112368353 17.769364206609385 6.637840966065227
Cs 17.60460345462762 3.925499604958295 4.205377487329924
Cs 21.136221687024175 -0.024528545970594746 16.11859701893231
Cs 19.37196362075117 5.807922863586586 16.121361571039444
Cs 18.561414166410497 0.5306794741849525 0.16115675698582216
Cs 0.804048766960317 13.230267303473017 17.357668642218755
Cs 14.373937035861442 22.246021579889444 3.9387457849787304
Cs 19.130963104173976 15.862279034476401 16.28398616191952
Cs 20.427066789723924 13.85674289137895 21.904638151545004
Cs 16.544604880932855 13.699534224227367 2.8839192659201194
Cs 12.330399726413873 17.349469125534053 2.5748260461169346
Cs 22.381838172402595 14.917143812015354 11.912123446223257
Cs 17.50484766254998 18.57907013859236 1.225188346458193
Cs 13.818748296492856 3.386726988044292 0.2924256962768116
Cs 16.490736672125504 2.301123120393394 18.66352214443215
Cs 16.411056138821095 19.912766701904545 17.61995650537069
Cs 19.529456458924138 19.651806144850624 11.645900616406037
Cs 16.669421570866742 1.0895035020338557 13.416623402104586
Cs 17.63415502182506 10.581676811461406 18.96970238636614
Cs 19.41567012138819 10.976652365647649 14.105729026637137
Cs 13.009917940110048 21.133228057973042 21.561836187548177
Cs 15.049956015536049 15.340779956535997 20.732788018597514
Cs 12.061710498907086 0.14070007419250175 16.132523666322612
Cs 17.09538718674382 14.884065706860778 10.9839411266352
Cs 14.388063011272358 14.080439740615002 15.65711335398788
Cs 11.120726499181872 17.893438646752234 17.786206948867093
Cs 14.220312797149814 18.98191919294771 12.86618359188107
