4
Energy = -1.55588038 eV
Cs 15.745540141148645 17.425891810735532 2.8057341932817654
Cs 18.640090388587346 19.44987990645866 5.606065133459712
Cs 0.9519472557951619 20.340733039103284 11.364070953044852
Cs 20.10288755697361 19.118216324700565 15.436553240081983
