52
Energy = -37.80940486 eV
Cs 6.853915440142333 20.274940580276873 17.541746107073106
Cs 2.5686801703444635 17.221925499637237 12.56327630954529
Cs 3.955382604023749 15.323744069545748 17.515837457227963
Cs 3.852496683461817 22.678761053134963 13.689442892208364
Cs 22.046495403312445 21.229465667089485 11.543895277544125
Cs 6.273131070155376 1.5023876718447848 0.810408575388179
Cs 5.347814363465755 18.996833708357833 22.315214659069863
Cs 0.11068934152119994 12.45503526954956 14.101848187053548
Cs 4.107364032406357 12.994285245043129 22.68167290026865
Cs 3.4892788915504145 1.3442385260097822 19.064307954884434
Cs 4.911799258931895 21.068566763158934 4.502587314041912
Cs 0.9625688011337091 19.851074099784093 16.995006589081058
Cs 19.84542143028539 16.236647471599948 12.086724938424249
Cs 0.27838404945161943 11.652703046210679 19.12577362008227
Cs 1.3524594793476452 2.429906620787159 4.497181652660356
Cs 16.949075313280158 20.423771187641037 10.126225630728685
Cs 22.16794382509529 2.052401577573793 15.357041799083426
Cs 18.043876544885144 2.3175067869153043 11.923667979120738
Cs 2.4466332528647694 5.212043017007124 0.03161487592705189
Cs 18.47153584856679 20.76448082643607 15.323038693643257
Cs 0.7420572233127888 22.018625797537883 0.6974012053029023
Cs 0.5795884142751674 16.66891367363546 21.46125425327741
Cs 2.8657184657143078 16.398541098461912 3.6739702771668044
Cs 1.8015671584980726 6.47674141276697 17.724200446432572
Cs 20.127142559566103 16.13814697326117 17.470263904525677
Cs 22.3382381365237 12.17979189858357 2.1876195431237826
Cs 21.869302412063 15.152083885173978 7.111320393389106
Cs 17.835993275939092 11.857823872767307 16.17780515469488
Cs 18.693716588001017 13.049502047042099 21.525157466426986
Cs 19.67807265444063 6.840994215392117 16.292294726588757
Cs 20.767927319339456 17.62750163387272 2.3256304157638885
Cs 21.329504737946596 2.8375203150953485 20.40120992808081
Cs 19.8146510036478 20.625574126589612 20.25381426822552
Cs 20.9363088781563 8.049244914873402 21.48275972077748
Cs 14.913879798158396 16.970714822624924 14.352860410557199
Cs 13.54799863406945 22.57148878961026 13.621267433543617
Cs 17.08103684550143 13.528992148043157 3.402602956254428
Cs 22.858188383139353 20.223902541096415 6.553728107075463
Cs 19.826953567453792 4.656185871370812 2.3267411848877546
Cs 16.80380820843034 2.3050497197554627 17.252689561798178
Cs 18.87626106133406 -0.050533185089764364 4.381048569936512
Cs 16.13811774792058 18.437772881388717 0.4231226754568089
Cs 17.095480493637886 17.903531681097473 5.904394904014877
Cs 14.6463955034171 15.306136951407405 19.35863214385254
Cs 16.63252380820055 0.6720559273226314 22.59576792158423
Cs 16.25599813331511 6.00692819915815 20.947786343530648
Cs 13.9370441629272 20.522569556015107 18.587709226757937
Cs 12.29786021185581 16.791297227495555 3.282792860666758
Cs 12.029631535904969 2.442115184400368 20.133315135254737
Cs 13.535987871518024 21.875419497354766 4.639763486729446
Cs 14.06834454940066 3.820041657050846 2.4597628127235054
Cs 10.788672527588103 21.04349337088015 0.002104370068329829
