5
Energy = -2.09689359 eV
Cs 10.49681059571465 16.234749784028285 16.47058793817482
Cs 3.162621436416551 17.929803371377368 0.06063259253041871
Cs 17.155810669085724 17.763555419415546 0.3123588372304707
Cs 0.06527203078443514 18.902775817001398 15.237317794844108
Cs 15.39234618077514 15.523743862780579 15.679724452120796
