7
Energy = -3.30345248 eV
Cs 2.7453858165011344 1.3168572382601205 16.238121232069712
Cs 12.122299976619802 16.615546606566056 9.344410787785515
Cs 2.511333124174706 14.129206828691027 0.3789174297165183
Cs 15.738802894423618 16.425067417431624 15.596436446092499
Cs 10.711178252483721 17.24881030189863 13.993301665573142
Cs 16.291249124619323 10.858407300930686 17.150686383186425
Cs 11.94368410380159 13.25947839929424 17.20944509210164
