9
Energy = -5.32769424 eV
Cs 1.1035834025900957 0.008052258102771999 14.541638298421061
Cs 1.0328099120719245 12.950031386708487 16.314913774912416
Cs -1.6415595419599673 4.429201717068438 17.088293965607036
Cs 17.583646256472576 17.083607544824552 1.4167364030973992
Cs 15.374797530971552 14.51951044843262 13.111245582415336
Cs 15.154443582681543 9.14183324011128 14.972997050228928
Cs 14.505114277471339 1.8302347481614063 13.060866310240907
Cs 14.098838349833008 13.32238172684004 0.1588689986391599
Cs 12.975605259733674 0.44040923824713146 -0.0782835367393943
