9
Energy = -4.99703605 eV
Cs 1.131721586991372 15.849028770110003 13.343126497528969
Cs 0.37634669509870927 11.820359223872087 16.371541274011257
Cs 16.624378776635567 1.923892808948003 10.9411902787958
Cs 1.018799284894972 16.630642388004993 0.7636757387052179
Cs 15.104516348328678 1.2670424392911035 16.103408256908693
Cs 13.844629837118871 15.351230487003216 1.6315667696704932
Cs 11.944981603317256 0.1019508809257109 12.215626765130079
Cs 13.950508910535127 13.705214241254133 14.230322890398831
Cs 13.683157522325766 10.281331889717396 0.6441184081612195
