unknown system                          
           1
    22.231526    0.000000    0.000000
     0.000000   22.231526    0.000000
     0.000000    0.000000   22.231526
   Ag
  38
Direct configuration=     1
   0.51645776  0.37285131  0.67696051
   0.40113039  0.40225359  0.64690178
   0.46021736  0.31128610  0.59318295
   0.39998128  0.51596754  0.59450203
   0.48883217  0.49770545  0.67543625
   0.57849457  0.34209233  0.57417671
   0.29971853  0.47687589  0.53185466
   0.58380201  0.59454370  0.65030635
   0.46315808  0.61832407  0.63082812
   0.38657878  0.38441027  0.51985018
   0.59446956  0.46264580  0.63603105
   0.49086246  0.42501775  0.57395199
   0.33216078  0.59394017  0.52089480
   0.49862543  0.32244657  0.47857108
   0.44951843  0.62404680  0.50878561
   0.40322415  0.50591822  0.47215675
   0.52009696  0.54064754  0.56340109
   0.29239111  0.53609390  0.42559746
   0.54343898  0.68464768  0.56556130
   0.31877886  0.42625029  0.42615994
   0.61132327  0.36948564  0.45914788
   0.52899155  0.67551664  0.43627861
   0.51511626  0.45200171  0.45885440
   0.65535796  0.66575900  0.58419145
   0.59953027  0.58828742  0.49369792
   0.62929602  0.45736120  0.52625878
   0.38278883  0.61277119  0.41078620
   0.54679180  0.37238782  0.37250838
   0.62795105  0.70850919  0.47662741
   0.42623889  0.38683881  0.39357808
   0.68545194  0.55136139  0.57869442
   0.38901849  0.50099419  0.35353357
   0.50332987  0.56911174  0.39968933
   0.60732687  0.48561019  0.40033072
   0.63619691  0.61992492  0.38941555
   0.71470077  0.63384799  0.48971165
   0.50008137  0.46940547  0.33652208
   0.70242657  0.52634652  0.45832151
Direct configuration=     2
   0.51679728  0.37279435  0.67764097
   0.40060763  0.40236752  0.64718540
   0.45998312  0.31066814  0.59309124
   0.39970911  0.51603521  0.59463290
   0.48866607  0.49785775  0.67594484
   0.57892244  0.34195532  0.57422342
   0.29943788  0.47668509  0.53236485
   0.58388827  0.59442496  0.65059993
   0.46286184  0.61855379  0.63122937
   0.38658392  0.38431343  0.51980116
   0.59488353  0.46264703  0.63637831
   0.49088086  0.42515914  0.57353074
   0.33197175  0.59437212  0.52132343
   0.49853873  0.32240673  0.47846766
   0.44949051  0.62411539  0.50883667
   0.40368358  0.50579241  0.47226021
   0.52016878  0.54036783  0.56305332
   0.29175355  0.53659398  0.42517350
   0.54304412  0.68481424  0.56553975
   0.31854699  0.42553005  0.42589950
   0.61211573  0.36885765  0.45954959
   0.52846587  0.67582946  0.43595756
   0.51468373  0.45210824  0.45929039
   0.65573418  0.66614405  0.58484867
   0.59933413  0.58804648  0.49380411
   0.62937321  0.45762576  0.52635747
   0.38292312  0.61314552  0.41038476
   0.54651364  0.37172463  0.37160297
   0.62819234  0.70940790  0.47657420
   0.42626787  0.38665558  0.39357717
   0.68548540  0.55107027  0.57903824
   0.38879459  0.50113143  0.35310691
   0.50325032  0.56902920  0.39970669
   0.60769939  0.48583049  0.39990139
   0.63623981  0.61985687  0.38886840
   0.71554134  0.63414051  0.48960351
   0.50007594  0.46963787  0.33588217
   0.70274578  0.52578965  0.45802719
Direct configuration=     3
   0.51781584  0.37262346  0.67968234
   0.39903934  0.40270932  0.64803625
   0.45928039  0.30881424  0.59281612
   0.39889258  0.51623821  0.59502550
   0.48816776  0.49831467  0.67747061
   0.58020607  0.34154427  0.57436355
   0.29859592  0.47611269  0.53389543
   0.58414708  0.59406875  0.65148065
   0.46197311  0.61924297  0.63243312
   0.38659935  0.38402288  0.51965410
   0.59612544  0.46265072  0.63742007
   0.49093607  0.42558329  0.57226701
   0.33140465  0.59566797  0.52260935
   0.49827861  0.32228719  0.47815740
   0.44940675  0.62432116  0.50898984
   0.40506186  0.50541496  0.47257059
   0.52038423  0.53952871  0.56201001
   0.28984087  0.53809423  0.42390162
   0.54185953  0.68531389  0.56547509
   0.31785140  0.42336933  0.42511820
   0.61449311  0.36697369  0.46075472
   0.52688881  0.67676793  0.43499442
   0.51338614  0.45242783  0.46059836
   0.65686286  0.66729921  0.58682032
   0.59874571  0.58732366  0.49412266
   0.62960476  0.45841943  0.52665354
   0.38332600  0.61426850  0.40918042
   0.54567918  0.36973505  0.36888675
   0.62891619  0.71210403  0.47641458
   0.42635482  0.38610588  0.39357445
   0.68558577  0.55019690  0.58006969
   0.38812290  0.50154312  0.35182694
   0.50301168  0.56878157  0.39975876
   0.60881695  0.48649139  0.39861341
   0.63636850  0.61965272  0.38722694
   0.71806304  0.63501807  0.48927909
   0.50005965  0.47033506  0.33396242
   0.70370343  0.52411902  0.45714423
Direct configuration=     4
   0.51985295  0.37228167  0.68376508
   0.39590275  0.40339293  0.64973797
   0.45787493  0.30510645  0.59226586
   0.39725952  0.51664423  0.59581071
   0.48717115  0.49922850  0.68052215
   0.58277332  0.34072218  0.57464381
   0.29691200  0.47496790  0.53695659
   0.58466468  0.59335633  0.65324211
   0.46019564  0.62062133  0.63484062
   0.38663020  0.38344180  0.51935998
   0.59860926  0.46265810  0.63950359
   0.49104648  0.42643160  0.56973953
   0.33027045  0.59825968  0.52518117
   0.49775838  0.32204812  0.47753689
   0.44923923  0.62473270  0.50929619
   0.40781843  0.50466005  0.47319134
   0.52081514  0.53785047  0.55992339
   0.28601551  0.54109472  0.42135785
   0.53949036  0.68631320  0.56534579
   0.31646022  0.41904790  0.42355560
   0.61924786  0.36320577  0.46316497
   0.52373470  0.67864488  0.43306814
   0.51079096  0.45306702  0.46321431
   0.65912022  0.66960953  0.59076362
   0.59756887  0.58587802  0.49475977
   0.63006788  0.46000678  0.52724568
   0.38413176  0.61651447  0.40677175
   0.54401026  0.36575591  0.36345430
   0.63036391  0.71749630  0.47609533
   0.42652873  0.38500648  0.39356902
   0.68578650  0.54845017  0.58213260
   0.38677951  0.50236651  0.34926698
   0.50253439  0.56828633  0.39986290
   0.61105206  0.48781318  0.39603744
   0.63662588  0.61924441  0.38394403
   0.72310645  0.63677321  0.48863026
   0.50002707  0.47172944  0.33012292
   0.70561871  0.52077777  0.45537831
Direct configuration=     5
   0.51950561  0.37233995  0.68306895
   0.39643756  0.40327637  0.64944782
   0.45811457  0.30573865  0.59235968
   0.39753797  0.51657500  0.59567682
   0.48734108  0.49907269  0.68000184
   0.58233558  0.34086235  0.57459603
   0.29719912  0.47516310  0.53643464
   0.58457642  0.59347780  0.65294177
   0.46049871  0.62038631  0.63443012
   0.38662494  0.38354088  0.51941013
   0.59818575  0.46265685  0.63914833
   0.49102766  0.42628696  0.57017048
   0.33046384  0.59781777  0.52474266
   0.49784708  0.32208889  0.47764269
   0.44926779  0.62466253  0.50924395
   0.40734842  0.50478877  0.47308550
   0.52074167  0.53813662  0.56027917
   0.28666776  0.54058312  0.42179158
   0.53989432  0.68614281  0.56536783
   0.31669743  0.41978473  0.42382203
   0.61843714  0.36384823  0.46275401
   0.52427250  0.67832485  0.43339659
   0.51123346  0.45295803  0.46276827
   0.65873533  0.66921560  0.59009126
   0.59776953  0.58612451  0.49465114
   0.62998891  0.45973613  0.52714471
   0.38399437  0.61613152  0.40718245
   0.54429482  0.36643438  0.36438057
   0.63011706  0.71657688  0.47614977
   0.42649907  0.38519394  0.39356994
   0.68575228  0.54874800  0.58178086
   0.38700857  0.50222612  0.34970347
   0.50261577  0.56837077  0.39984514
   0.61067096  0.48758781  0.39647666
   0.63658200  0.61931403  0.38450379
   0.72224652  0.63647395  0.48874089
   0.50003263  0.47149169  0.33077758
   0.70529214  0.52134748  0.45567941
Direct configuration=     6
   0.51978253  0.37240010  0.68350134
   0.39609995  0.40338202  0.64967046
   0.45800531  0.30533919  0.59255264
   0.39711749  0.51682911  0.59614863
   0.48722015  0.49918763  0.68059738
   0.58272676  0.34070587  0.57512093
   0.29695164  0.47495256  0.53666286
   0.58453058  0.59319238  0.65327534
   0.46013052  0.62045774  0.63499429
   0.38658213  0.38333328  0.51937156
   0.59862762  0.46262995  0.64011752
   0.49066519  0.42500249  0.57163402
   0.33013284  0.59819431  0.52501949
   0.49805471  0.32217571  0.47740402
   0.44899177  0.62465079  0.50942254
   0.40672904  0.50503466  0.47299080
   0.52019953  0.53802073  0.56072005
   0.28625728  0.54091632  0.42150480
   0.53984124  0.68638901  0.56525881
   0.31599903  0.41961942  0.42363821
   0.61899358  0.36295206  0.46213798
   0.52406300  0.67917491  0.43299361
   0.51216874  0.45283098  0.46133988
   0.65919314  0.66977745  0.59063702
   0.59867830  0.58675579  0.49383609
   0.62971723  0.45971371  0.52683318
   0.38411796  0.61657052  0.40667859
   0.54445451  0.36555077  0.36407784
   0.63021142  0.71733236  0.47618635
   0.42671425  0.38507928  0.39340298
   0.68584130  0.54883014  0.58234304
   0.38633952  0.50246181  0.34926555
   0.50255452  0.56815406  0.39994758
   0.61038801  0.48749540  0.39567814
   0.63643339  0.61918458  0.38421050
   0.72284006  0.63659443  0.48875536
   0.50023622  0.47151802  0.32981483
   0.70626592  0.52109648  0.45551433
Direct configuration=     7
   0.52059796  0.37257723  0.68477459
   0.39510580  0.40369311  0.65032608
   0.45768355  0.30416292  0.59312084
   0.39587933  0.51757739  0.59753793
   0.48686405  0.49952611  0.68235104
   0.58387863  0.34024508  0.57666660
   0.29622291  0.47433259  0.53733489
   0.58439556  0.59235190  0.65425758
   0.45904630  0.62066807  0.63665557
   0.38645604  0.38272199  0.51925797
   0.59992877  0.46255075  0.64297143
   0.48959784  0.42122018  0.57594364
   0.32915816  0.59930309  0.52583465
   0.49866608  0.32243139  0.47670122
   0.44817897  0.62461619  0.50994843
   0.40490519  0.50575872  0.47271194
   0.51860313  0.53767948  0.56201828
   0.28504857  0.54189749  0.42066031
   0.53968493  0.68711398  0.56493776
   0.31394250  0.41913264  0.42309692
   0.62063210  0.36031315  0.46032401
   0.52344613  0.68167806  0.43180696
   0.51492283  0.45245687  0.45713375
   0.66054122  0.67143191  0.59224409
   0.60135433  0.58861470  0.49143607
   0.62891722  0.45964770  0.52591582
   0.38448188  0.61786323  0.40519489
   0.54492473  0.36294886  0.36318639
   0.63048926  0.71955700  0.47629407
   0.42734786  0.38474167  0.39291132
   0.68610343  0.54907200  0.58399848
   0.38436941  0.50315586  0.34797603
   0.50237414  0.56751594  0.40024923
   0.60955481  0.48722329  0.39332680
   0.63599580  0.61880339  0.38334689
   0.72458783  0.63694920  0.48879797
   0.50083572  0.47159555  0.32697984
   0.70913336  0.52035736  0.45502824
Direct configuration=     8
   0.52066945  0.37259276  0.68488621
   0.39501865  0.40372039  0.65038356
   0.45765535  0.30405980  0.59317065
   0.39577079  0.51764299  0.59765972
   0.48683283  0.49955578  0.68250477
   0.58397961  0.34020469  0.57680210
   0.29615902  0.47427824  0.53739380
   0.58438373  0.59227822  0.65434369
   0.45895126  0.62068651  0.63680120
   0.38644499  0.38266840  0.51924801
   0.60004283  0.46254381  0.64322161
   0.48950428  0.42088862  0.57632144
   0.32907271  0.59940028  0.52590611
   0.49871967  0.32245380  0.47663961
   0.44810772  0.62461316  0.50999453
   0.40474531  0.50582219  0.47268749
   0.51846319  0.53764957  0.56213209
   0.28494262  0.54198351  0.42058628
   0.53967123  0.68717753  0.56490961
   0.31376222  0.41908997  0.42304946
   0.62077574  0.36008182  0.46016500
   0.52339205  0.68189749  0.43170294
   0.51516426  0.45242407  0.45676503
   0.66065939  0.67157695  0.59238497
   0.60158892  0.58877766  0.49122567
   0.62884708  0.45964191  0.52583540
   0.38451378  0.61797655  0.40506482
   0.54496595  0.36272076  0.36310824
   0.63051362  0.71975202  0.47630352
   0.42740341  0.38471207  0.39286822
   0.68612641  0.54909320  0.58414360
   0.38419671  0.50321671  0.34786299
   0.50235833  0.56746000  0.40027567
   0.60948177  0.48719944  0.39312067
   0.63595744  0.61876997  0.38327118
   0.72474105  0.63698030  0.48880170
   0.50088827  0.47160234  0.32673132
   0.70938473  0.52029256  0.45498563
Direct configuration=     9
   0.52079236  0.37253576  0.68534892
   0.39466564  0.40368239  0.65069604
   0.45772270  0.30377173  0.59348427
   0.39540133  0.51789048  0.59809890
   0.48687693  0.49953107  0.68283308
   0.58434599  0.34020831  0.57703990
   0.29618813  0.47419981  0.53714140
   0.58427344  0.59207531  0.65436280
   0.45888841  0.62067755  0.63715097
   0.38640633  0.38260581  0.51899064
   0.60032936  0.46257826  0.64364629
   0.48988389  0.42075942  0.57617029
   0.32866964  0.59936720  0.52572975
   0.49919585  0.32273184  0.47678905
   0.44801715  0.62467011  0.50996041
   0.40414245  0.50583391  0.47242927
   0.51872770  0.53746105  0.56185447
   0.28509802  0.54211043  0.42070211
   0.54007732  0.68709214  0.56473036
   0.31340412  0.41958837  0.42309923
   0.62083838  0.35957274  0.45959238
   0.52338985  0.68225458  0.43162646
   0.51521394  0.45182386  0.45711928
   0.66078433  0.67189725  0.59237234
   0.60178379  0.58901063  0.49165496
   0.62822678  0.45948403  0.52554040
   0.38459426  0.61817070  0.40486775
   0.54524345  0.36225214  0.36322613
   0.63047674  0.71975226  0.47656916
   0.42729029  0.38507483  0.39265214
   0.68585777  0.54933894  0.58431128
   0.38381020  0.50322912  0.34771679
   0.50237415  0.56766105  0.40059588
   0.61005815  0.48734368  0.39236066
   0.63582273  0.61883735  0.38276659
   0.72450443  0.63694205  0.48906091
   0.50074837  0.47123786  0.32597831
   0.70973197  0.52023204  0.45498897
Direct configuration=    10
   0.52115193  0.37236904  0.68670253
   0.39363297  0.40357122  0.65161015
   0.45791973  0.30292900  0.59440172
   0.39432052  0.51861447  0.59938364
   0.48700595  0.49945880  0.68379350
   0.58541779  0.34021888  0.57773554
   0.29627327  0.47397038  0.53640301
   0.58395081  0.59148171  0.65441869
   0.45870457  0.62065134  0.63817416
   0.38629323  0.38242270  0.51823773
   0.60116758  0.46267903  0.64488863
   0.49099440  0.42038149  0.57572814
   0.32749051  0.59927041  0.52521384
   0.50058883  0.32354521  0.47722622
   0.44775218  0.62483671  0.50986060
   0.40237887  0.50586817  0.47167387
   0.51950149  0.53690956  0.56104235
   0.28555263  0.54248172  0.42104094
   0.54126528  0.68684232  0.56420598
   0.31235655  0.42104638  0.42324481
   0.62102163  0.35808351  0.45791728
   0.52338342  0.68329919  0.43140272
   0.51535928  0.45006804  0.45815558
   0.66114981  0.67283423  0.59233538
   0.60235387  0.58969217  0.49291078
   0.62641218  0.45902220  0.52467742
   0.38482968  0.61873864  0.40429124
   0.54605524  0.36088125  0.36357099
   0.63036887  0.71975297  0.47734627
   0.42695937  0.38613602  0.39202005
   0.68507191  0.55005780  0.58480182
   0.38267952  0.50326545  0.34728911
   0.50242043  0.56824920  0.40153262
   0.61174430  0.48776563  0.39013734
   0.63542865  0.61903445  0.38129048
   0.72381222  0.63683017  0.48981918
   0.50033910  0.47017162  0.32377549
   0.71074779  0.52005497  0.45499873
Direct configuration=    11
   0.52115429  0.37243522  0.68691326
   0.39378291  0.40362136  0.65147709
   0.45817914  0.30311471  0.59477473
   0.39412113  0.51883997  0.59971540
   0.48710498  0.49926202  0.68374439
   0.58596937  0.34032154  0.57785774
   0.29632613  0.47393079  0.53626972
   0.58378162  0.59138813  0.65429196
   0.45900445  0.62047877  0.63820038
   0.38664274  0.38238742  0.51808022
   0.60139502  0.46264338  0.64497439
   0.49103927  0.42012956  0.57604512
   0.32714154  0.59921721  0.52497302
   0.50089613  0.32376071  0.47777556
   0.44774821  0.62480038  0.51004435
   0.40228387  0.50582379  0.47151551
   0.51945210  0.53676121  0.56077144
   0.28561448  0.54291093  0.42111790
   0.54147472  0.68643924  0.56411054
   0.31214616  0.42152311  0.42313184
   0.62143874  0.35773431  0.45788804
   0.52342066  0.68354254  0.43146049
   0.51544564  0.44999321  0.45789085
   0.66122047  0.67320445  0.59252320
   0.60278140  0.59009869  0.49293370
   0.62584191  0.45903300  0.52443896
   0.38495821  0.61888923  0.40414652
   0.54584060  0.36073639  0.36340025
   0.63032160  0.71963795  0.47758968
   0.42688534  0.38680443  0.39177707
   0.68444978  0.54994603  0.58468839
   0.38260280  0.50318878  0.34696510
   0.50267549  0.56765765  0.40177350
   0.61178939  0.48787152  0.38958929
   0.63488531  0.61895383  0.38128621
   0.72335754  0.63663814  0.49007692
   0.50009832  0.46986543  0.32377387
   0.71058488  0.51990101  0.45527195
Direct configuration=    12
   0.52116138  0.37263375  0.68754547
   0.39423273  0.40377178  0.65107791
   0.45895740  0.30367185  0.59589373
   0.39352293  0.51951647  0.60071069
   0.48740209  0.49867166  0.68359705
   0.58762412  0.34062952  0.57822437
   0.29648473  0.47381200  0.53586985
   0.58327406  0.59110741  0.65391176
   0.45990409  0.61996103  0.63827903
   0.38769126  0.38228159  0.51760770
   0.60207735  0.46253646  0.64523167
   0.49117386  0.41937375  0.57699606
   0.32609464  0.59905760  0.52425057
   0.50181801  0.32440722  0.47942358
   0.44773629  0.62469142  0.51059563
   0.40199888  0.50569064  0.47104041
   0.51930392  0.53631615  0.55995873
   0.28580001  0.54419854  0.42134878
   0.54210304  0.68523000  0.56382424
   0.31151502  0.42295333  0.42279291
   0.62269007  0.35668670  0.45780031
   0.52353237  0.68427261  0.43163379
   0.51570472  0.44976872  0.45709666
   0.66143243  0.67431508  0.59308665
   0.60406400  0.59131827  0.49300246
   0.62413113  0.45906542  0.52372359
   0.38534379  0.61934099  0.40371235
   0.54519667  0.36030183  0.36288803
   0.63017980  0.71929289  0.47831989
   0.42666322  0.38880965  0.39104811
   0.68258340  0.54961072  0.58434813
   0.38237267  0.50295879  0.34599304
   0.50344067  0.56588299  0.40249613
   0.61192467  0.48818918  0.38794516
   0.63325528  0.61871196  0.38127340
   0.72199351  0.63606208  0.49085011
   0.49937598  0.46894686  0.32376901
   0.71009615  0.51943913  0.45609159
Direct configuration=    13
   0.52136186  0.37272802  0.68797079
   0.39437365  0.40393134  0.65085229
   0.45939960  0.30366558  0.59663519
   0.39322035  0.51982879  0.60071900
   0.48760805  0.49836191  0.68330005
   0.58848177  0.34099321  0.57846318
   0.29670524  0.47377875  0.53598705
   0.58314798  0.59104371  0.65367679
   0.46044786  0.61970764  0.63825672
   0.38824914  0.38239143  0.51718682
   0.60229721  0.46230821  0.64509898
   0.49173805  0.41969495  0.57697310
   0.32601764  0.59915416  0.52416719
   0.50223978  0.32485630  0.47994241
   0.44738748  0.62454866  0.51053532
   0.40231888  0.50578366  0.47101645
   0.51925854  0.53598112  0.55922424
   0.28566702  0.54495784  0.42094520
   0.54209160  0.68454511  0.56391438
   0.31144474  0.42339749  0.42250814
   0.62312743  0.35632204  0.45773831
   0.52314246  0.68374441  0.43165866
   0.51575365  0.44964004  0.45678363
   0.66159818  0.67476177  0.59394114
   0.60380958  0.59148353  0.49337743
   0.62323739  0.45898510  0.52339748
   0.38599774  0.61936652  0.40368408
   0.54490859  0.35999065  0.36315258
   0.63019110  0.71954792  0.47848924
   0.42642717  0.38947471  0.39106311
   0.68163364  0.54928644  0.58433642
   0.38213217  0.50321205  0.34547069
   0.50387902  0.56577056  0.40313492
   0.61176287  0.48822809  0.38741094
   0.63220042  0.61862751  0.38096032
   0.72187794  0.63579090  0.49111022
   0.49924167  0.46871676  0.32374459
   0.70947891  0.51887914  0.45643150
Direct configuration=    14
   0.52173993  0.37290579  0.68877291
   0.39463942  0.40423225  0.65042678
   0.46023355  0.30365376  0.59803351
   0.39264972  0.52041778  0.60073468
   0.48799647  0.49777777  0.68273993
   0.59009921  0.34167908  0.57891356
   0.29712110  0.47371603  0.53620808
   0.58291019  0.59092358  0.65323364
   0.46147335  0.61922978  0.63821465
   0.38930125  0.38259859  0.51639308
   0.60271183  0.46187776  0.64484876
   0.49280204  0.42030070  0.57692980
   0.32587243  0.59933625  0.52400993
   0.50303518  0.32570322  0.48092088
   0.44672964  0.62427945  0.51042160
   0.40292237  0.50595909  0.47097125
   0.51917298  0.53534928  0.55783907
   0.28541621  0.54638980  0.42018408
   0.54207001  0.68325347  0.56408436
   0.31131221  0.42423514  0.42197110
   0.62395224  0.35563435  0.45762140
   0.52240712  0.68274829  0.43170556
   0.51584591  0.44939736  0.45619329
   0.66191078  0.67560419  0.59555264
   0.60332977  0.59179521  0.49408458
   0.62155189  0.45883362  0.52278245
   0.38723102  0.61941468  0.40363077
   0.54436528  0.35940380  0.36365150
   0.63021241  0.72002888  0.47880862
   0.42598199  0.39072896  0.39109139
   0.67984250  0.54867486  0.58431435
   0.38167863  0.50368968  0.34448558
   0.50470570  0.56555853  0.40433961
   0.61145774  0.48830148  0.38640345
   0.63021107  0.61846823  0.38036988
   0.72165997  0.63527950  0.49160074
   0.49898839  0.46828280  0.32369855
   0.70831485  0.51782307  0.45707254
Direct configuration=    15
   0.52212450  0.37301190  0.68902333
   0.39489427  0.40454224  0.64986149
   0.46099651  0.30404176  0.59863215
   0.39275730  0.52073001  0.60052723
   0.48807964  0.49772345  0.68225560
   0.59064039  0.34217974  0.57931289
   0.29759311  0.47365816  0.53625077
   0.58295436  0.59073773  0.65309202
   0.46155755  0.61889823  0.63821802
   0.38990588  0.38290738  0.51615460
   0.60285284  0.46141536  0.64471998
   0.49339182  0.41951859  0.57693337
   0.32592614  0.59948554  0.52406094
   0.50339368  0.32595968  0.48139016
   0.44627305  0.62425550  0.51098585
   0.40308358  0.50620183  0.47082232
   0.51847107  0.53569121  0.55726270
   0.28549101  0.54699428  0.41939221
   0.54211641  0.68293559  0.56420503
   0.31134304  0.42495168  0.42189230
   0.62418487  0.35544684  0.45743356
   0.52221683  0.68240195  0.43190098
   0.51560816  0.44905378  0.45565385
   0.66200369  0.67562628  0.59633571
   0.60322641  0.59232442  0.49367361
   0.62103857  0.45832835  0.52260085
   0.38805317  0.61927880  0.40327896
   0.54422822  0.35895450  0.36447255
   0.62987299  0.72005698  0.47901680
   0.42569789  0.39059563  0.39133792
   0.67942808  0.54850663  0.58449043
   0.38129657  0.50444060  0.34424040
   0.50509994  0.56535911  0.40467806
   0.61118213  0.48815536  0.38606015
   0.62881115  0.61832383  0.38022879
   0.72149951  0.63490831  0.49198748
   0.49906242  0.46865247  0.32361244
   0.70749961  0.51723232  0.45726304
Direct configuration=    16
   0.52249511  0.37311417  0.68926466
   0.39513988  0.40484098  0.64931669
   0.46173180  0.30441570  0.59920907
   0.39286097  0.52103092  0.60032730
   0.48815979  0.49767111  0.68178883
   0.59116194  0.34266224  0.57969774
   0.29804799  0.47360239  0.53629191
   0.58299693  0.59055862  0.65295555
   0.46163871  0.61857870  0.63822127
   0.39048859  0.38320498  0.51592477
   0.60298875  0.46096972  0.64459587
   0.49396020  0.41876486  0.57693682
   0.32597790  0.59962942  0.52411009
   0.50373918  0.32620684  0.48184242
   0.44583301  0.62423241  0.51152964
   0.40323893  0.50643576  0.47067879
   0.51779461  0.53602074  0.55670724
   0.28556310  0.54757684  0.41862907
   0.54216113  0.68262924  0.56432132
   0.31137276  0.42564223  0.42181636
   0.62440905  0.35526614  0.45725254
   0.52203344  0.68206818  0.43208931
   0.51537903  0.44872267  0.45513398
   0.66209323  0.67564757  0.59709039
   0.60312679  0.59283444  0.49327756
   0.62054387  0.45784140  0.52242584
   0.38884549  0.61914785  0.40293992
   0.54409613  0.35852150  0.36526382
   0.62954589  0.72008406  0.47921742
   0.42542409  0.39046714  0.39157550
   0.67902868  0.54834449  0.58466011
   0.38092838  0.50516428  0.34400412
   0.50547988  0.56516692  0.40500424
   0.61091652  0.48801455  0.38572930
   0.62746201  0.61818467  0.38009281
   0.72134488  0.63455059  0.49236019
   0.49913377  0.46900872  0.32352945
   0.70671393  0.51666301  0.45744663
Direct configuration=    17
   0.52233485  0.37306994  0.68916030
   0.39503367  0.40471180  0.64955228
   0.46141384  0.30425400  0.59895959
   0.39281614  0.52090080  0.60041376
   0.48812513  0.49769375  0.68199067
   0.59093640  0.34245359  0.57953132
   0.29785129  0.47362651  0.53627412
   0.58297852  0.59063607  0.65301456
   0.46160361  0.61871687  0.63821987
   0.39023661  0.38307629  0.51602415
   0.60292998  0.46116243  0.64464954
   0.49371441  0.41909080  0.57693533
   0.32595552  0.59956720  0.52408884
   0.50358977  0.32609996  0.48164685
   0.44602330  0.62424240  0.51129449
   0.40317175  0.50633460  0.47074086
   0.51808713  0.53587824  0.55694744
   0.28553192  0.54732492  0.41895908
   0.54214179  0.68276172  0.56427103
   0.31135991  0.42534361  0.42184920
   0.62431211  0.35534428  0.45733082
   0.52211274  0.68221251  0.43200787
   0.51547811  0.44886585  0.45535879
   0.66205451  0.67563836  0.59676404
   0.60316987  0.59261389  0.49344883
   0.62075780  0.45805197  0.52250152
   0.38850286  0.61920448  0.40308653
   0.54415325  0.35870874  0.36492165
   0.62968734  0.72007235  0.47913067
   0.42554249  0.39052271  0.39147276
   0.67920139  0.54841460  0.58458673
   0.38108760  0.50485134  0.34410630
   0.50531559  0.56525003  0.40486319
   0.61103138  0.48807544  0.38587237
   0.62804542  0.61824485  0.38015161
   0.72141175  0.63470528  0.49219902
   0.49910292  0.46885467  0.32356534
   0.70705368  0.51690920  0.45736724
Direct configuration=    18
   0.52268733  0.37314133  0.68951301
   0.39511556  0.40506645  0.64893760
   0.46196900  0.30404959  0.59925218
   0.39313972  0.52100992  0.60015638
   0.48816589  0.49784165  0.68155573
   0.59146675  0.34244508  0.57983746
   0.29832021  0.47360080  0.53626213
   0.58299008  0.59025096  0.65303827
   0.46121182  0.61874789  0.63860755
   0.39045495  0.38343495  0.51605988
   0.60301740  0.46093641  0.64461892
   0.49442481  0.41931904  0.57657285
   0.32567587  0.59954545  0.52394020
   0.50374741  0.32570312  0.48198322
   0.44557103  0.62490106  0.51171264
   0.40304341  0.50666647  0.47040617
   0.51762630  0.53564582  0.55663639
   0.28580635  0.54784090  0.41843058
   0.54226332  0.68294210  0.56445424
   0.31145627  0.42596308  0.42196550
   0.62459335  0.35521867  0.45729094
   0.52186717  0.68238857  0.43237842
   0.51504645  0.44863861  0.45522263
   0.66198801  0.67525904  0.59692089
   0.60314806  0.59268227  0.49350428
   0.62071118  0.45788760  0.52280036
   0.38918123  0.61926241  0.40274377
   0.54394588  0.35850982  0.36532990
   0.62938825  0.71984354  0.47948669
   0.42538027  0.38992437  0.39138376
   0.67930520  0.54829021  0.58448223
   0.38111458  0.50536632  0.34407999
   0.50535876  0.56494592  0.40480091
   0.61088176  0.48773001  0.38577830
   0.62706878  0.61821293  0.37946521
   0.72117394  0.63440440  0.49264695
   0.49897587  0.46914946  0.32359063
   0.70657413  0.51671979  0.45741181
Direct configuration=    19
   0.52309458  0.37322381  0.68992053
   0.39521017  0.40547620  0.64822740
   0.46261042  0.30381342  0.59959023
   0.39351358  0.52113600  0.59985900
   0.48821298  0.49801253  0.68105321
   0.59207951  0.34243524  0.58019117
   0.29886200  0.47357110  0.53624829
   0.58300343  0.58980601  0.65306567
   0.46075914  0.61878373  0.63905547
   0.39070721  0.38384936  0.51610117
   0.60311841  0.46067528  0.64458354
   0.49524558  0.41958275  0.57615405
   0.32535277  0.59952031  0.52376847
   0.50392955  0.32524462  0.48237185
   0.44504849  0.62566208  0.51219577
   0.40289512  0.50704991  0.47001948
   0.51709387  0.53537728  0.55627701
   0.28612342  0.54843706  0.41781997
   0.54240373  0.68315051  0.56466592
   0.31156761  0.42667881  0.42209987
   0.62491829  0.35507354  0.45724486
   0.52158344  0.68259197  0.43280656
   0.51454771  0.44837607  0.45506531
   0.66191118  0.67482079  0.59710210
   0.60312287  0.59276127  0.49356836
   0.62065731  0.45769768  0.52314562
   0.38996500  0.61932936  0.40234774
   0.54370628  0.35827998  0.36580158
   0.62904268  0.71957918  0.47989803
   0.42519285  0.38923306  0.39128092
   0.67942514  0.54814648  0.58436148
   0.38114576  0.50596133  0.34404959
   0.50540865  0.56459456  0.40472895
   0.61070889  0.48733091  0.38566962
   0.62594038  0.61817606  0.37867215
   0.72089917  0.63405677  0.49316448
   0.49882909  0.46949006  0.32361985
   0.70602006  0.51650096  0.45746330
Direct configuration=    20
   0.52322291  0.37332774  0.69003718
   0.39536072  0.40564257  0.64765650
   0.46306539  0.30382454  0.59977216
   0.39367178  0.52128397  0.59957932
   0.48829137  0.49809108  0.68085172
   0.59248035  0.34224036  0.58037110
   0.29909947  0.47356806  0.53637681
   0.58285493  0.58946774  0.65301394
   0.46057614  0.61896612  0.63935007
   0.39093999  0.38409291  0.51619101
   0.60324913  0.46061775  0.64474344
   0.49565596  0.41924181  0.57617752
   0.32503018  0.59948395  0.52361727
   0.50407313  0.32484264  0.48260841
   0.44475721  0.62625049  0.51251013
   0.40282097  0.50742275  0.46977426
   0.51691091  0.53570689  0.55588588
   0.28629679  0.54893218  0.41746611
   0.54227798  0.68325860  0.56497568
   0.31170533  0.42701368  0.42208486
   0.62510198  0.35504336  0.45733033
   0.52126569  0.68261702  0.43306139
   0.51428224  0.44818110  0.45502732
   0.66182863  0.67446655  0.59718247
   0.60299580  0.59263019  0.49357918
   0.62056740  0.45757161  0.52324091
   0.39046465  0.61961392  0.40218118
   0.54357634  0.35824738  0.36591717
   0.62897635  0.71940428  0.48014300
   0.42501795  0.38880494  0.39109869
   0.67960824  0.54798927  0.58429185
   0.38135201  0.50613324  0.34394473
   0.50544398  0.56468544  0.40478547
   0.61060252  0.48697829  0.38568570
   0.62513037  0.61808401  0.37823218
   0.72082781  0.63390078  0.49343924
   0.49865221  0.46940647  0.32365019
   0.70582157  0.51645232  0.45742418
Direct configuration=    21
   0.52360790  0.37363950  0.69038710
   0.39581235  0.40614166  0.64594382
   0.46443032  0.30385791  0.60031793
   0.39414637  0.52172788  0.59874030
   0.48852653  0.49832674  0.68024726
   0.59368286  0.34165571  0.58091092
   0.29981191  0.47355894  0.53676237
   0.58240945  0.58845293  0.65285875
   0.46002714  0.61951327  0.64023387