    7    7 1000    2
  0.8954162E+03  0.1843774E-08  0.1843774E-08  0.1843774E-08  0.1000000E-15
  1.000000000000000E-004
  CAR 
 unknown system                          
     77      1     52
 
  0.0000000E+00  0.0000000E+00  0.0000000E+00  0.1000000E+01
    1       -9.544646     -9.504551
    2       -9.248034     -9.218520
    3       -9.051323     -8.990557
    4       -8.749774     -8.701822
    5       -8.661725     -8.649000
    6       -8.620329     -8.583478
    7       -8.512744     -8.459913
    8       -8.396994     -8.330518
    9       -8.183019     -8.103766
   10       -8.098733     -8.055205
   11       -8.082609     -8.048866
   12       -7.890702     -7.849317
   13       -7.841099     -7.799414
   14       -7.664103     -7.617641
   15       -7.648825     -7.546587
   16       -7.570831     -7.531713
   17       -7.537702     -7.516287
   18       -7.432437     -7.387313
   19       -7.415813     -7.379460
   20       -7.382178     -7.344901
   21       -7.332284     -7.309172
   22       -7.289156     -7.228662
   23       -7.245785     -7.206309
   24       -7.244252     -7.194894
   25       -7.152260     -7.111957
   26       -7.064104     -7.022800
   27       -7.052980     -6.990951
   28       -7.007219     -6.973537
   29       -6.995896     -6.965312
   30       -6.765579     -6.764918
   31       -6.764069     -6.763413
   32       -6.585943     -6.587551
   33       -6.583095     -6.585166
   34       -6.305508     -6.304993
   35       -6.298391     -6.293250
   36       -6.141365     -6.139668
   37       -5.107909     -5.071783
   38       -4.364270     -4.324174
   39       -4.078759     -3.719565
   40       -3.840883     -3.695502
   41       -3.049544     -3.014533
   42       -1.798704     -1.673477
   43       -1.441057     -1.207487
   44       -1.379560     -1.184738
   45       -1.153014     -1.126582
   46       -1.034121     -0.760333
   47       -0.870665     -0.635465
   48       -0.596032     -0.555181
   49       -0.471889     -0.407826
   50       -0.168845     -0.147574
   51        0.166238      0.204221
   52        0.302093      0.461433
