38
Energy = -80.75307504 eV
Ag 14.864525630287233 13.360764488000909 13.335910087023883
Ag 12.620819931974722 12.225992589353798 14.630624217669085
Ag 14.850774233712212 10.65187588787529 13.762021878436256
Ag 12.615256707642093 15.105986419029797 13.280121846425878
Ag 10.378091387300659 13.811108530030923 14.378950739985578
Ag 14.345543454625108 14.803112766484201 10.983470769407687
Ag 8.2506226252064 15.525268184856829 13.82729537873987
Ag 12.291504457771937 9.49662015902271 14.03397042800618
Ag 10.004747658095036 11.045014073223964 14.534042213551057
Ag 10.148957151771413 15.022447700555558 11.831763423730514
Ag 15.104316425204933 11.671801029985225 11.043181556353732
Ag 12.573978448820114 12.835778991262565 11.764122309568377
Ag 14.53693515359614 7.904816117959503 14.132301740254604
Ag 11.800199826304265 14.786884587851056 9.658678163299552
Ag 7.942171798602724 12.7338013795686 13.484098464451993
Ag 9.793881830448404 8.302267585539077 14.052889902865441
Ag 13.787177431035799 13.056685237813467 8.89436263593641
Ag 10.028930432151196 11.982800562968464 11.775001670375184
Ag 7.415712881912216 14.5214930981543 11.36671780624363
Ag 13.991789518667302 8.977010512678364 11.707454249554736
Ag 12.203459789642686 10.644445439109603 10.168589089572997
Ag 8.037172244074597 10.017191216256471 12.717303686932606
Ag 16.124702935898394 11.7930453550376 8.331592549349226
Ag 9.223580918543455 13.748285269698663 9.437079031624924
Ag 7.421815537695394 11.812203936943897 10.601015958549645
Ag 15.119442101836148 9.470599885216597 9.290538031674734
Ag 11.333603264124216 8.049042572084229 11.711501270673645
Ag 9.450035798167288 9.738359818889561 10.200648087031215
Ag 11.204374237104021 12.449636938942152 8.004893511108751
Ag 13.3984467607899 10.679203340275185 7.497256665368722
Ag 8.577181674913884 7.403553158718095 11.689190966704755
Ag 12.7281074490814 8.083483190488034 9.24103652956235
Ag 6.7259971286188645 9.082910642408256 10.28772918570099
Ag 8.589955992058416 11.409864392202161 8.027024494083749
Ag 10.82671445986411 9.589501701186173 7.725412589447698
Ag 10.109166186884337 7.1309557752252335 9.271637095317496
Ag 7.381937999382792 6.40294370907738 9.392626711379382
Ag 8.159437889212972 8.634313109048586 7.889014417059269
