<?xml version="1.0" encoding="ISO-8859-1"?>
<modeling>
 <generator>
  <i name="program" type="string">vasp </i>
  <i name="version" type="string">5.3.5  </i>
  <i name="subversion" type="string">31Mar14 (build Feb 01 2018 12:10:03) gamma-only                       parallel </i>
  <i name="platform" type="string">LinuxIFC </i>
  <i name="date" type="string">2019 03 23 </i>
  <i name="time" type="string">07:38:10 </i>
 </generator>
 <incar>
  <i type="string" name="PREC">normal</i>
  <i type="int" name="ISPIN">     2</i>
  <i type="int" name="IBRION">     2</i>
  <i type="int" name="NSW">  1000</i>
  <i type="int" name="ISIF">     2</i>
  <i name="POTIM">      0.10000000</i>
  <i type="logical" name="LPLANE"> T  </i>
  <i type="int" name="ISMEAR">     0</i>
  <i name="SIGMA">      0.00010000</i>
  <i type="logical" name="LWAVE"> F  </i>
  <i type="logical" name="LCHARG"> F  </i>
  <i type="logical" name="LVTOT"> F  </i>
  <i type="string" name="GGA"> PE</i>
 </incar>
 <kpoints>
  <varray name="kpointlist" >
   <v>       0.00000000       0.00000000       0.00000000 </v>
  </varray>
  <varray name="weights" >
   <v>       1.00000000 </v>
  </varray>
 </kpoints>
 <parameters>
  <separator name="general" >
   <i type="string" name="SYSTEM">unknown system</i>
   <i type="logical" name="LCOMPAT"> F  </i>
  </separator>
  <separator name="electronic" >
   <i type="string" name="PREC">normal</i>
   <i name="ENMAX">    249.84400000</i>
   <i name="ENAUG">    412.49600000</i>
   <i name="EDIFF">      0.00010000</i>
   <i type="int" name="IALGO">    38</i>
   <i type="int" name="IWAVPR">    11</i>
   <i type="int" name="NBANDS">   272</i>
   <i name="NELECT">    418.00000000</i>
   <i type="int" name="TURBO">     0</i>
   <i type="int" name="IRESTART">     0</i>
   <i type="int" name="NREBOOT">     0</i>
   <i type="int" name="NMIN">     0</i>
   <i name="EREF">      0.00000000</i>
   <separator name="electronic smearing" >
    <i type="int" name="ISMEAR">     0</i>
    <i name="SIGMA">      0.00010000</i>
    <i name="KSPACING">      0.50000000</i>
    <i type="logical" name="KGAMMA"> T  </i>
   </separator>
   <separator name="electronic projectors" >
    <i type="logical" name="LREAL"> F  </i>
    <v name="ROPT">      0.00000000</v>
    <i type="int" name="LMAXPAW">  -100</i>
    <i type="int" name="LMAXMIX">     2</i>
    <i type="logical" name="NLSPLINE"> F  </i>
   </separator>
   <separator name="electronic startup" >
    <i type="int" name="ISTART">     0</i>
    <i type="int" name="ICHARG">     2</i>
    <i type="int" name="INIWAV">     1</i>
   </separator>
   <separator name="electronic spin" >
    <i type="int" name="ISPIN">     2</i>
    <i type="logical" name="LNONCOLLINEAR"> F  </i>
    <v name="MAGMOM">      1.00000000      1.00000000      1.00000000      1.00000000      1.00000000      1.00000000      1.00000000      1.00000000      1.00000000      1.00000000      1.00000000      1.00000000      1.00000000      1.00000000      1.00000000      1.00000000      1.00000000      1.00000000      1.00000000      1.00000000
      1.00000000      1.00000000      1.00000000      1.00000000      1.00000000      1.00000000      1.00000000      1.00000000      1.00000000      1.00000000      1.00000000      1.00000000      1.00000000      1.00000000      1.00000000      1.00000000      1.00000000      1.00000000</v>
    <i name="NUPDOWN">     -1.00000000</i>
    <i type="logical" name="LSORBIT"> F  </i>
    <v name="SAXIS">      0.00000000      0.00000000      1.00000000</v>
    <i type="logical" name="LSPIRAL"> F  </i>
    <v name="QSPIRAL">      0.00000000      0.00000000      0.00000000</v>
    <i type="logical" name="LZEROZ"> F  </i>
   </separator>
   <separator name="electronic exchange-correlation" >
    <i type="logical" name="LASPH"> F  </i>
    <i type="logical" name="LMETAGGA"> F  </i>
   </separator>
   <separator name="electronic convergence" >
    <i type="int" name="NELM">    60</i>
    <i type="int" name="NELMDL">    -5</i>
    <i type="int" name="NELMIN">     2</i>
    <i name="ENINI">    249.84400000</i>
    <separator name="electronic convergence detail" >
     <i type="logical" name="LDIAG"> T  </i>
     <i type="logical" name="LSUBROT"> F  </i>
     <i name="WEIMIN">      0.00100000</i>
     <i name="EBREAK">      0.00000009</i>
     <i name="DEPER">      0.30000000</i>
     <i type="int" name="NRMM">     4</i>
     <i name="TIME">      0.40000000</i>
    </separator>
   </separator>
   <separator name="electronic mixer" >
    <i name="AMIX">      0.40000000</i>
    <i name="BMIX">      1.00000000</i>
    <i name="AMIN">      0.10000000</i>
    <i name="AMIX_MAG">      1.60000000</i>
    <i name="BMIX_MAG">      1.00000000</i>
    <separator name="electronic mixer details" >
     <i type="int" name="IMIX">     4</i>
     <i type="int" name="MAXMIX">   -45</i>
     <i name="WC">    100.00000000</i>
     <i type="int" name="INIMIX">     1</i>
     <i type="int" name="MIXPRE">     1</i>
     <i type="int" name="MREMOVE">     5</i>
    </separator>
   </separator>
   <separator name="electronic dipolcorrection" >
    <i type="logical" name="LDIPOL"> F  </i>
    <i type="logical" name="LMONO"> F  </i>
    <i type="int" name="IDIPOL">     0</i>
    <i name="EPSILON">      1.00000000</i>
    <v name="DIPOL">   -100.00000000   -100.00000000   -100.00000000</v>
    <i name="EFIELD">      0.00000000</i>
   </separator>
  </separator>
  <separator name="grids" >
   <i type="int" name="NGX">    84</i>
   <i type="int" name="NGY">    84</i>
   <i type="int" name="NGZ">    84</i>
   <i type="int" name="NGXF">   168</i>
   <i type="int" name="NGYF">   168</i>
   <i type="int" name="NGZF">   168</i>
   <i type="logical" name="ADDGRID"> F  </i>
  </separator>
  <separator name="ionic" >
   <i type="int" name="NSW">  1000</i>
   <i type="int" name="IBRION">     2</i>
   <i type="int" name="ISIF">     2</i>
   <i name="PSTRESS">      0.00000000</i>
   <i name="EDIFFG">      0.00100000</i>
   <i type="int" name="NFREE">     1</i>
   <i name="POTIM">      0.10000000</i>
   <i name="SMASS">     -3.00000000</i>
   <i name="SCALEE">      1.00000000</i>
  </separator>
  <separator name="ionic md" >
   <i name="TEBEG">      0.00010000</i>
   <i name="TEEND">      0.00010000</i>
   <i type="int" name="NBLOCK">     1</i>
   <i type="int" name="KBLOCK">  1000</i>
   <i type="int" name="NPACO">   256</i>
   <i name="APACO">     16.00000000</i>
  </separator>
  <separator name="symmetry" >
   <i type="int" name="ISYM">     2</i>
   <i name="SYMPREC">      0.00001000</i>
  </separator>
  <separator name="dos" >
   <i type="logical" name="LORBIT"> F  </i>
   <v name="RWIGS">     -1.00000000</v>
   <i type="int" name="NEDOS">   301</i>
   <i name="EMIN">     10.00000000</i>
   <i name="EMAX">    -10.00000000</i>
   <i name="EFERMI">      0.00000000</i>
  </separator>
  <separator name="writing" >
   <i type="int" name="NWRITE">     2</i>
   <i type="logical" name="LWAVE"> F  </i>
   <i type="logical" name="LCHARG"> F  </i>
   <i type="logical" name="LPARD"> F  </i>
   <i type="logical" name="LVTOT"> F  </i>
   <i type="logical" name="LVHAR"> F  </i>
   <i type="logical" name="LELF"> F  </i>
   <i type="logical" name="LOPTICS"> F  </i>
   <v name="STM">      0.00000000      0.00000000      0.00000000      0.00000000      0.00000000      0.00000000      0.00000000</v>
  </separator>
  <separator name="performance" >
   <i type="int" name="NPAR">     4</i>
   <i type="int" name="NSIM">     4</i>
   <i type="int" name="NBLK">    -1</i>
   <i type="logical" name="LPLANE"> T  </i>
   <i type="logical" name="LSCALAPACK"> T  </i>
   <i type="logical" name="LSCAAWARE"> F  </i>
   <i type="logical" name="LSCALU"> F  </i>
   <i type="logical" name="LASYNC"> F  </i>
   <i type="logical" name="LORBITALREAL"> F  </i>
  </separator>
  <separator name="miscellaneous" >
   <i type="int" name="IDIOT">     3</i>
   <i type="logical" name="LMUSIC"> F  </i>
   <v name="POMASS">    107.86800000</v>
   <v name="DARWINR">      0.00000000</v>
   <v name="DARWINV">      1.00000000</v>
   <i type="logical" name="LCORR"> T  </i>
  </separator>
  <i type="logical" name="GGA_COMPAT"> T  </i>
  <i type="logical" name="LBERRY"> F  </i>
  <i type="int" name="ICORELEVEL">     0</i>
  <i type="logical" name="LDAU"> F  </i>
  <i type="int" name="I_CONSTRAINED_M">     0</i>
  <separator name="electronic exchange-correlation" >
   <i type="string" name="GGA">PE</i>
   <i type="int" name="VOSKOWN">     0</i>
   <i type="logical" name="LHFCALC"> F  </i>
   <i type="string" name="PRECFOCK"></i>
   <i type="logical" name="LSYMGRAD"> F  </i>
   <i type="logical" name="LHFONE"> F  </i>
   <i type="logical" name="LRHFCALC"> F  </i>
   <i type="logical" name="LTHOMAS"> F  </i>
   <i type="logical" name="LMODELHF"> F  </i>
   <i name="ENCUT4O">     -1.00000000</i>
   <i type="int" name="EXXOEP">     0</i>
   <i type="int" name="FOURORBIT">     0</i>
   <i name="AEXX">      0.00000000</i>
   <i name="HFALPHA">      0.00000000</i>
   <i name="MCALPHA">      0.00000000</i>
   <i name="ALDAX">      1.00000000</i>
   <i name="AGGAX">      1.00000000</i>
   <i name="ALDAC">      1.00000000</i>
   <i name="AGGAC">      1.00000000</i>
   <i type="int" name="NKREDX">     1</i>
   <i type="int" name="NKREDY">     1</i>
   <i type="int" name="NKREDZ">     1</i>
   <i type="logical" name="SHIFTRED"> F  </i>
   <i type="logical" name="ODDONLY"> F  </i>
   <i type="logical" name="EVENONLY"> F  </i>
   <i type="int" name="LMAXFOCK">     0</i>
   <i type="int" name="NMAXFOCKAE">     0</i>
   <i type="logical" name="LFOCKAEDFT"> F  </i>
   <i name="HFSCREEN">      0.00000000</i>
   <i name="HFSCREENC">      0.00000000</i>
   <i type="int" name="NBANDSGWLOW">     0</i>
  </separator>
  <separator name="vdW DFT" >
   <i type="logical" name="LUSE_VDW"> F  </i>
   <i name="Zab_VDW">     -0.84910000</i>
   <i name="PARAM1">      0.12340000</i>
   <i name="PARAM2">      1.00000000</i>
   <i name="PARAM3">      0.00000000</i>
  </separator>
  <separator name="model GW" >
   <i type="int" name="MODEL_GW">     0</i>
   <i name="MODEL_EPS0">    156.98967117</i>
   <i name="MODEL_ALPHA">      1.00000000</i>
  </separator>
  <separator name="linear response parameters" >
   <i type="logical" name="LEPSILON"> F  </i>
   <i type="logical" name="LRPA"> F  </i>
   <i type="logical" name="LNABLA"> F  </i>
   <i type="logical" name="LVEL"> F  </i>
   <i type="int" name="KINTER">     0</i>
   <i name="CSHIFT">      0.10000000</i>
   <i name="OMEGAMAX">     -1.00000000</i>
   <i name="DEG_THRESHOLD">      0.00200000</i>
  </separator>
  <separator name="orbital magnetization" >
   <i type="logical" name="NUCIND"> F  </i>
   <v name="MAGPOS">      0.00000000      0.00000000      0.00000000</v>
   <i type="logical" name="LNICSALL"> T  </i>
   <i type="logical" name="ORBITALMAG"> F  </i>
   <i type="logical" name="LMAGBLOCH"> F  </i>
   <i type="logical" name="LCHIMAG"> F  </i>
   <i type="logical" name="LGAUGE"> T  </i>
   <i type="int" name="MAGATOM">     0</i>
   <v name="MAGDIPOL">      0.00000000      0.00000000      0.00000000</v>
   <v name="AVECCONST">      0.00000000      0.00000000      0.00000000</v>
  </separator>
  <separator name="response functions" >
   <i type="logical" name="LADDER"> F  </i>
   <i type="logical" name="LFXC"> F  </i>
   <i type="logical" name="LHARTREE"> T  </i>
   <i type="int" name="IBSE">     0</i>
   <i type="logical" name="LTCTE"> F  </i>
   <i type="logical" name="LTETE"> F  </i>
   <i type="logical" name="LTRIPLET"> F  </i>
   <i type="logical" name="LFXCEPS"> F  </i>
   <i type="logical" name="LFXHEG"> F  </i>
   <i type="logical" name="L2ORDER"> F  </i>
   <i type="logical" name="LUSEW"> F  </i>
   <i name="ENCUTGW">     -2.00000000</i>
   <i name="ENCUTGWSOFT">     -2.00000000</i>
   <i name="ENCUTLF">     -1.00000000</i>
   <i type="int" name="LMAXMP2">    -1</i>
   <i name="SCISSOR">      0.00000000</i>
   <i type="int" name="NOMEGA">     0</i>
   <i type="int" name="NOMEGAR">     0</i>
   <i type="int" name="NBANDSGW">    -1</i>
   <i type="int" name="NBANDSO">    -1</i>
   <i type="int" name="NBANDSV">    -1</i>
   <i type="int" name="NELM">     1</i>
   <i type="int" name="DIM">     3</i>
   <i type="int" name="ANTIRES">     0</i>
   <i name="OMEGAMAX">    -30.00000000</i>
   <i name="OMEGAMIN">    -30.00000000</i>
   <i name="OMEGATL">   -200.00000000</i>
   <i type="int" name="OMEGAGRID">     0</i>
   <i name="CSHIFT">     -0.10000000</i>
   <i type="logical" name="SELFENERGY"> F  </i>
   <i type="logical" name="LSPECTRAL"> F  </i>
   <i type="logical" name="ODDONLYGW"> F  </i>
   <i type="logical" name="EVENONLYGW"> F  </i>
   <i type="int" name="NKREDLFX">     1</i>
   <i type="int" name="NKREDLFY">     1</i>
   <i type="int" name="NKREDLFZ">     1</i>
   <i type="int" name="MAXMEM">  1800</i>
   <i type="int" name="TELESCOPE">     0</i>
   <i type="int" name="TAUPAR">     1</i>
  </separator>
  <separator name="External order field" >
   <i name="OFIELD_KAPPA">      0.00000000</i>
   <v name="OFIELD_K">      0.00000000      0.00000000      0.00000000</v>
   <i name="OFIELD_Q6_NEAR">      0.00000000</i>
   <i name="OFIELD_Q6_FAR">      0.00000000</i>
   <i name="OFIELD_A">      0.00000000</i>
  </separator>
 </parameters>
 <atominfo>
  <atoms>      38 </atoms>
  <types>       1 </types>
  <array name="atoms" >
   <dimension dim="1">ion</dimension>
   <field type="string">element</field>
   <field type="int">atomtype</field>
   <set>
    <rc><c>Ag</c><c>   1</c></rc>
    <rc><c>Ag</c><c>   1</c></rc>
    <rc><c>Ag</c><c>   1</c></rc>
    <rc><c>Ag</c><c>   1</c></rc>
    <rc><c>Ag</c><c>   1</c></rc>
    <rc><c>Ag</c><c>   1</c></rc>
    <rc><c>Ag</c><c>   1</c></rc>
    <rc><c>Ag</c><c>   1</c></rc>
    <rc><c>Ag</c><c>   1</c></rc>
    <rc><c>Ag</c><c>   1</c></rc>
    <rc><c>Ag</c><c>   1</c></rc>
    <rc><c>Ag</c><c>   1</c></rc>
    <rc><c>Ag</c><c>   1</c></rc>
    <rc><c>Ag</c><c>   1</c></rc>
    <rc><c>Ag</c><c>   1</c></rc>
    <rc><c>Ag</c><c>   1</c></rc>
    <rc><c>Ag</c><c>   1</c></rc>
    <rc><c>Ag</c><c>   1</c></rc>
    <rc><c>Ag</c><c>   1</c></rc>
    <rc><c>Ag</c><c>   1</c></rc>
    <rc><c>Ag</c><c>   1</c></rc>
    <rc><c>Ag</c><c>   1</c></rc>
    <rc><c>Ag</c><c>   1</c></rc>
    <rc><c>Ag</c><c>   1</c></rc>
    <rc><c>Ag</c><c>   1</c></rc>
    <rc><c>Ag</c><c>   1</c></rc>
    <rc><c>Ag</c><c>   1</c></rc>
    <rc><c>Ag</c><c>   1</c></rc>
    <rc><c>Ag</c><c>   1</c></rc>
    <rc><c>Ag</c><c>   1</c></rc>
    <rc><c>Ag</c><c>   1</c></rc>
    <rc><c>Ag</c><c>   1</c></rc>
    <rc><c>Ag</c><c>   1</c></rc>
    <rc><c>Ag</c><c>   1</c></rc>
    <rc><c>Ag</c><c>   1</c></rc>
    <rc><c>Ag</c><c>   1</c></rc>
    <rc><c>Ag</c><c>   1</c></rc>
    <rc><c>Ag</c><c>   1</c></rc>
   </set>
  </array>
  <array name="atomtypes" >
   <dimension dim="1">type</dimension>
   <field type="int">atomspertype</field>
   <field type="string">element</field>
   <field>mass</field>
   <field>valence</field>
   <field type="string">pseudopotential</field>
   <set>
    <rc><c>  38</c><c>Ag</c><c>    107.86800000</c><c>     11.00000000</c><c>  PAW_PBE Ag 02Apr2005                  </c></rc>
   </set>
  </array>
 </atominfo>
 <structure name="initialpos" >
  <crystal>
   <varray name="basis" >
    <v>      21.50310334       0.00000000       0.00000000 </v>
    <v>       0.00000000      21.50310334       0.00000000 </v>
    <v>       0.00000000       0.00000000      21.50310334 </v>
   </varray>
   <i name="volume">   9942.67917423 </i>
   <varray name="rec_basis" >
    <v>       0.04650492       0.00000000       0.00000000 </v>
    <v>       0.00000000       0.04650492       0.00000000 </v>
    <v>       0.00000000       0.00000000       0.04650492 </v>
   </varray>
  </crystal>
  <varray name="positions" >
   <v>       0.68585590       0.62421490       0.61407712 </v>
   <v>       0.58058042       0.57049887       0.67482755 </v>
   <v>       0.68469493       0.49874113       0.64478224 </v>
   <v>       0.57500797       0.69705257       0.62032443 </v>
   <v>       0.47201095       0.63990576       0.66929855 </v>
   <v>       0.65745319       0.71437196       0.52116231 </v>
   <v>       0.38341801       0.72003611       0.63211370 </v>
   <v>       0.56863728       0.44106639       0.65303762 </v>
   <v>       0.46541574       0.51533097       0.66198597 </v>
   <v>       0.47398261       0.70441746       0.54234940 </v>
   <v>       0.69908847       0.53829796       0.52439530 </v>
   <v>       0.57528810       0.59377828       0.55350161 </v>
   <v>       0.67355023       0.37387920       0.65382611 </v>
   <v>       0.56064689       0.66255554       0.45228223 </v>
   <v>       0.35747093       0.58850142       0.62842157 </v>
   <v>       0.45484824       0.39031946       0.65109898 </v>
   <v>       0.68064981       0.62364112       0.43748053 </v>
   <v>       0.45629762       0.56726947       0.54680348 </v>
   <v>       0.34915076       0.67417729       0.52131163 </v>
   <v>       0.65008463       0.41268583       0.53959690 </v>
   <v>       0.58055073       0.49776866       0.47706723 </v>
   <v>       0.36512734       0.46540995       0.59136468 </v>
   <v>       0.72119871       0.54874303       0.35094641 </v>
   <v>       0.43907804       0.62862888       0.44027871 </v>
   <v>       0.33349494       0.55209973       0.50070035 </v>
   <v>       0.70251898       0.45559115       0.43188876 </v>
   <v>       0.53112516       0.36585578       0.54740493 </v>
   <v>       0.46371871       0.45646528       0.48941705 </v>
   <v>       0.52834021       0.56090741       0.38153307 </v>
   <v>       0.61751995       0.48022366       0.33984567 </v>
   <v>       0.40078298       0.34690542       0.54998142 </v>
   <v>       0.59022219       0.38112772       0.42838257 </v>
   <v>       0.33226321       0.43115949       0.46907308 </v>
   <v>       0.40490872       0.51463120       0.39580188 </v>
   <v>       0.50125401       0.43766869       0.34709862 </v>
   <v>       0.47047655       0.34191439       0.43333158 </v>
   <v>       0.34821812       0.30684906       0.44413030 </v>
   <v>       0.38134245       0.39358244       0.35535008 </v>
  </varray>
 </structure>
 <calculation>
  <scstep>
   <time name="dav">    3.11    3.12</time>
   <time name="total">    3.32    3.35</time>
   <energy>
    <i name="alphaZ">    123.53156630 </i>
    <i name="ewald">  91003.59337297 </i>
    <i name="hartreedc">-128905.23504324 </i>
    <i name="XCdc">   -413.59889597 </i>
    <i name="pawpsdc">  38128.14276665 </i>
    <i name="pawaedc"> -36376.05513740 </i>
    <i name="eentropy">     -0.00000000 </i>
    <i name="bandstr">    497.43694460 </i>
    <i name="atom">  39413.54794328 </i>
    <i name="e_fr_energy">   3471.36351719 </i>
    <i name="e_wo_entrp">   3471.36351719 </i>
    <i name="e_0_energy">   3471.36351719 </i>
   </energy>
  </scstep>
  <scstep>
   <time name="dav">    4.54    4.55</time>
   <time name="total">    4.55    4.56</time>
   <energy>
    <i name="e_fr_energy">    546.94354681 </i>
    <i name="e_wo_entrp">    546.94354681 </i>
    <i name="e_0_energy">    546.94354681 </i>
   </energy>
  </scstep>
  <scstep>
   <time name="dav">    3.70    3.70</time>
   <time name="total">    3.70    3.71</time>
   <energy>
    <i name="e_fr_energy">    -56.61217287 </i>
    <i name="e_wo_entrp">    -56.61217287 </i>
    <i name="e_0_energy">    -56.61217287 </i>
   </energy>
  </scstep>
  <scstep>
   <time name="dav">    3.32    3.32</time>
   <time name="total">    3.32    3.33</time>
   <energy>
    <i name="e_fr_energy">    -79.33910111 </i>
    <i name="e_wo_entrp">    -79.33910111 </i>
    <i name="e_0_energy">    -79.33910111 </i>
   </energy>
  </scstep>
  <scstep>
   <time name="dav">    3.37    3.37</time>
   <time name="total">    3.48    3.48</time>
   <energy>
    <i name="e_fr_energy">    -79.67351504 </i>
    <i name="e_wo_entrp">    -79.67351504 </i>
    <i name="e_0_energy">    -79.67351504 </i>
   </energy>
  </scstep>
  <scstep>
   <time name="dav">    3.14    3.14</time>
   <time name="total">    3.50    4.92</time>
   <energy>
    <i name="e_fr_energy">    -33.73877723 </i>
    <i name="e_wo_entrp">    -33.73877723 </i>
    <i name="e_0_energy">    -33.73877723 </i>
   </energy>
  </scstep>
  <scstep>
   <time name="dav">    3.22    3.22</time>
   <time name="total">    3.51    3.52</time>
   <energy>
    <i name="e_fr_energy">    -26.27958250 </i>
    <i name="e_wo_entrp">    -26.27958250 </i>
    <i name="e_0_energy">    -26.27958250 </i>
   </energy>
  </scstep>
  <scstep>
   <time name="dav">    3.28    3.29</time>
   <time name="total">    3.58    3.59</time>
   <energy>
    <i name="e_fr_energy">    -26.74422512 </i>
    <i name="e_wo_entrp">    -26.74422512 </i>
    <i name="e_0_energy">    -26.74422512 </i>
   </energy>
  </scstep>
  <scstep>
   <time name="dav">    3.29    3.30</time>
   <time name="total">    3.59    3.95</time>
   <energy>
    <i name="e_fr_energy">    -28.46421861 </i>
    <i name="e_wo_entrp">    -28.46421861 </i>
    <i name="e_0_energy">    -28.46421861 </i>
   </energy>
  </scstep>
  <scstep>
   <time name="dav">    3.18    3.18</time>
   <time name="total">    3.52    3.53</time>
   <energy>
    <i name="e_fr_energy">    -37.99939214 </i>
    <i name="e_wo_entrp">    -37.99939214 </i>
    <i name="e_0_energy">    -37.99939214 </i>
   </energy>
  </scstep>
  <scstep>
   <time name="dav">    3.18    3.19</time>
   <time name="total">    3.51    7.47</time>
   <energy>
    <i name="e_fr_energy">    -56.09640703 </i>
    <i name="e_wo_entrp">    -56.09640703 </i>
    <i name="e_0_energy">    -56.09640703 </i>
   </energy>
  </scstep>
  <scstep>
   <time name="dav">    3.26    3.26</time>
   <time name="total">    3.55    3.56</time>
   <energy>
    <i name="e_fr_energy">    -61.06211530 </i>
    <i name="e_wo_entrp">    -61.06211530 </i>
    <i name="e_0_energy">    -61.06211530 </i>
   </energy>
  </scstep>
  <scstep>
   <time name="dav">    3.37    3.38</time>
   <time name="total">    3.68    5.07</time>
   <energy>
    <i name="e_fr_energy">    -62.49160752 </i>
    <i name="e_wo_entrp">    -62.49160752 </i>
    <i name="e_0_energy">    -62.49160752 </i>
   </energy>
  </scstep>
  <scstep>
   <time name="dav">    3.16    3.16</time>
   <time name="total">    3.46    3.46</time>
   <energy>
    <i name="e_fr_energy">    -68.86904720 </i>
    <i name="e_wo_entrp">    -68.86904720 </i>
    <i name="e_0_energy">    -68.86904720 </i>
   </energy>
  </scstep>
  <scstep>
   <time name="dav">    3.22    3.23</time>
   <time name="total">    3.52    3.53</time>
   <energy>
    <i name="e_fr_energy">    -73.58671242 </i>
    <i name="e_wo_entrp">    -73.58671242 </i>
    <i name="e_0_energy">    -73.58671242 </i>
   </energy>
  </scstep>
  <scstep>
   <time name="dav">    3.40    3.40</time>
   <time name="total">    3.69    3.70</time>
   <energy>
    <i name="e_fr_energy">    -74.13842787 </i>
    <i name="e_wo_entrp">    -74.13842787 </i>
    <i name="e_0_energy">    -74.13842787 </i>
   </energy>
  </scstep>
  <scstep>
   <time name="dav">    3.20    3.20</time>
   <time name="total">    3.50    4.53</time>
   <energy>
    <i name="e_fr_energy">    -75.28080314 </i>
    <i name="e_wo_entrp">    -75.28080314 </i>
    <i name="e_0_energy">    -75.28080314 </i>
   </energy>
  </scstep>
  <scstep>
   <time name="dav">    3.15    3.15</time>
   <time name="total">    3.45    3.91</time>
   <energy>
    <i name="e_fr_energy">    -77.01748322 </i>
    <i name="e_wo_entrp">    -77.01748322 </i>
    <i name="e_0_energy">    -77.01748322 </i>
   </energy>
  </scstep>
  <scstep>
   <time name="dav">    3.32    3.33</time>
   <time name="total">    3.62    3.63</time>
   <energy>
    <i name="e_fr_energy">    -77.99046458 </i>
    <i name="e_wo_entrp">    -77.99046458 </i>
    <i name="e_0_energy">    -77.99046458 </i>
   </energy>
  </scstep>
  <scstep>
   <time name="dav">    3.27    3.28</time>
   <time name="total">    3.57    3.58</time>
   <energy>
    <i name="e_fr_energy">    -78.36032983 </i>
    <i name="e_wo_entrp">    -78.36032983 </i>
    <i name="e_0_energy">    -78.36032983 </i>
   </energy>
  </scstep>
  <scstep>
   <time name="dav">    3.31    3.32</time>
   <time name="total">    3.62    3.62</time>
   <energy>
    <i name="e_fr_energy">    -78.66130388 </i>
    <i name="e_wo_entrp">    -78.66130388 </i>
    <i name="e_0_energy">    -78.66130388 </i>
   </energy>
  </scstep>
  <scstep>
   <time name="dav">    2.80    2.80</time>
   <time name="total">    3.10    3.39</time>
   <energy>
    <i name="e_fr_energy">    -78.71636807 </i>
    <i name="e_wo_entrp">    -78.71636807 </i>
    <i name="e_0_energy">    -78.71636807 </i>
   </energy>
  </scstep>
  <scstep>
   <time name="dav">    2.54    2.54</time>
   <time name="total">    2.84    2.84</time>
   <energy>
    <i name="e_fr_energy">    -78.74668429 </i>
    <i name="e_wo_entrp">    -78.74668429 </i>
    <i name="e_0_energy">    -78.74668429 </i>
   </energy>
  </scstep>
  <scstep>
   <time name="dav">    2.70    2.71</time>
   <time name="total">    3.01    3.02</time>
   <energy>
    <i name="e_fr_energy">    -78.75888536 </i>
    <i name="e_wo_entrp">    -78.75888536 </i>
    <i name="e_0_energy">    -78.75888536 </i>
   </energy>
  </scstep>
  <scstep>
   <time name="dav">    2.47    2.47</time>
   <time name="total">    2.77    2.79</time>
   <energy>
    <i name="e_fr_energy">    -78.76483410 </i>
    <i name="e_wo_entrp">    -78.76483410 </i>
    <i name="e_0_energy">    -78.76483410 </i>
   </energy>
  </scstep>
  <scstep>
   <time name="dav">    2.46    2.47</time>
   <time name="total">    2.76    2.78</time>
   <energy>
    <i name="e_fr_energy">    -78.77056255 </i>
    <i name="e_wo_entrp">    -78.77056255 </i>
    <i name="e_0_energy">    -78.77056255 </i>
   </energy>
  </scstep>
  <scstep>
   <time name="dav">    2.42    2.43</time>
   <time name="total">    2.79    4.94</time>
   <energy>
    <i name="e_fr_energy">    -78.77407356 </i>
    <i name="e_wo_entrp">    -78.77407356 </i>
    <i name="e_0_energy">    -78.77407356 </i>
   </energy>
  </scstep>
  <scstep>
   <time name="dav">    2.41    2.41</time>
   <time name="total">    2.71    2.72</time>
   <energy>
    <i name="e_fr_energy">    -78.77502941 </i>
    <i name="e_wo_entrp">    -78.77502941 </i>
    <i name="e_0_energy">    -78.77502941 </i>
   </energy>
  </scstep>
  <scstep>
   <time name="dav">    2.41    2.41</time>
   <time name="total">    2.71    2.72</time>
   <energy>
    <i name="e_fr_energy">    -78.77522819 </i>
    <i name="e_wo_entrp">    -78.77522819 </i>
    <i name="e_0_energy">    -78.77522819 </i>
   </energy>
  </scstep>
  <scstep>
   <time name="dav">    2.37    2.37</time>
   <time name="total">    2.56    2.60</time>
   <energy>
    <i name="alphaZ">    123.53156630 </i>
    <i name="ewald">  91003.59337297 </i>
    <i name="hartreedc">-128836.33240585 </i>
    <i name="XCdc">   -428.38446361 </i>
    <i name="pawpsdc">  41552.47094365 </i>
    <i name="pawaedc"> -39877.56128637 </i>
    <i name="eentropy">      0.00000000 </i>
    <i name="bandstr">  -3029.64085837 </i>
    <i name="atom">  39413.54794328 </i>
    <i name="e_fr_energy">    -78.77518800 </i>
    <i name="e_wo_entrp">    -78.77518800 </i>
    <i name="e_0_energy">    -78.77518800 </i>
   </energy>
  </scstep>
  <structure>
   <crystal>
    <varray name="basis" >
     <v>      21.50310334       0.00000000       0.00000000 </v>
     <v>       0.00000000      21.50310334       0.00000000 </v>
     <v>       0.00000000       0.00000000      21.50310334 </v>
    </varray>
    <i name="volume">   9942.67917423 </i>
    <varray name="rec_basis" >
     <v>       0.04650492       0.00000000       0.00000000 </v>
     <v>       0.00000000       0.04650492       0.00000000 </v>
     <v>       0.00000000       0.00000000       0.04650492 </v>
    </varray>
   </crystal>
   <varray name="positions" >
    <v>       0.68585590       0.62421490       0.61407712 </v>
    <v>       0.58058042       0.57049887       0.67482755 </v>
    <v>       0.68469493       0.49874113       0.64478224 </v>
    <v>       0.57500797       0.69705257       0.62032443 </v>
    <v>       0.47201095       0.63990576       0.66929855 </v>
    <v>       0.65745319       0.71437196       0.52116231 </v>
    <v>       0.38341801       0.72003611       0.63211370 </v>
    <v>       0.56863728       0.44106639       0.65303762 </v>
    <v>       0.46541574       0.51533097       0.66198597 </v>
    <v>       0.47398261       0.70441746       0.54234940 </v>
    <v>       0.69908847       0.53829796       0.52439530 </v>
    <v>       0.57528810       0.59377828       0.55350161 </v>
    <v>       0.67355023       0.37387920       0.65382611 </v>
    <v>       0.56064689       0.66255554       0.45228223 </v>
    <v>       0.35747093       0.58850142       0.62842157 </v>
    <v>       0.45484824       0.39031946       0.65109898 </v>
    <v>       0.68064981       0.62364112       0.43748053 </v>
    <v>       0.45629762       0.56726947       0.54680348 </v>
    <v>       0.34915076       0.67417729       0.52131163 </v>
    <v>       0.65008463       0.41268583       0.53959690 </v>
    <v>       0.58055073       0.49776866       0.47706723 </v>
    <v>       0.36512734       0.46540995       0.59136468 </v>
    <v>       0.72119871       0.54874303       0.35094641 </v>
    <v>       0.43907804       0.62862888       0.44027871 </v>
    <v>       0.33349494       0.55209973       0.50070035 </v>
    <v>       0.70251898       0.45559115       0.43188876 </v>
    <v>       0.53112516       0.36585578       0.54740493 </v>
    <v>       0.46371871       0.45646528       0.48941705 </v>
    <v>       0.52834021       0.56090741       0.38153307 </v>
    <v>       0.61751995       0.48022366       0.33984567 </v>
    <v>       0.40078298       0.34690542       0.54998142 </v>
    <v>       0.59022219       0.38112772       0.42838257 </v>
    <v>       0.33226321       0.43115949       0.46907308 </v>
    <v>       0.40490872       0.51463120       0.39580188 </v>
    <v>       0.50125401       0.43766869       0.34709862 </v>
    <v>       0.47047655       0.34191439       0.43333158 </v>
    <v>       0.34821812       0.30684906       0.44413030 </v>
    <v>       0.38134245       0.39358244       0.35535008 </v>
   </varray>
  </structure>
  <varray name="forces" >
   <v>       0.07987064       0.38722278       0.25052832 </v>
   <v>       0.16938421      -0.11450620       0.80877985 </v>
   <v>       0.05782952      -0.04480204       0.02243958 </v>
   <v>       0.24097484       0.55927490       0.37812345 </v>
   <v>       0.01335000       0.21667305       0.08870366 </v>
   <v>      -0.22130749      -0.14952797       0.27320834 </v>
   <v>      -0.14017093       0.31244925       0.24634110 </v>
   <v>       0.19293879       0.14421434      -0.08858897 </v>
   <v>      -0.24072499      -0.25306770       0.44435744 </v>
   <v>       0.05151070       0.01043695      -0.05739557 </v>
   <v>       0.28853169      -0.34438732       0.21353488 </v>
   <v>       0.50506381      -0.09272079      -0.12971976 </v>
   <v>       0.22529609      -0.46057943       0.27169176 </v>
   <v>      -0.13396502       0.67276979      -0.40583791 </v>
   <v>      -0.00605630       0.28521643       0.06695098 </v>
   <v>      -0.07343490      -0.12741250       0.44779869 </v>
   <v>      -0.23350343       0.22747430      -0.27192528 </v>
   <v>      -0.35662464       0.05606572       0.13760888 </v>
   <v>      -0.08772782       0.12345201      -0.02180350 </v>
   <v>       0.44244845       0.04402194       0.28550203 </v>
   <v>       0.24529117       0.00372436      -0.20984480 </v>
   <v>       0.19025975      -0.08949388       0.02317565 </v>
   <v>       0.55083112       0.01894715      -0.41772051 </v>
   <v>      -0.46528009       0.49797944      -0.48156698 </v>
   <v>       0.04616945       0.01201605      -0.18857165 </v>
   <v>       0.04799429      -0.35295889      -0.15616986 </v>
   <v>       0.18921872      -0.20556947       0.22041532 </v>
   <v>      -0.31806536      -0.24008063       0.23647573 </v>
   <v>      -0.23692726       0.24445084      -0.44739697 </v>
   <v>       0.17024910      -0.06809841      -0.13049873 </v>
   <v>      -0.16909295      -0.08588219      -0.34033847 </v>
   <v>       0.14905766      -0.15157660      -0.15326069 </v>
   <v>      -0.10228043      -0.26538805       0.02105334 </v>
   <v>      -0.27528116       0.26782803      -0.55937567 </v>
   <v>      -0.23487665      -0.07749641       0.16678491 </v>
   <v>      -0.07243573      -0.40987600      -0.09907054 </v>
   <v>      -0.39520033      -0.46484128      -0.28290942 </v>
   <v>      -0.09331452      -0.08595156      -0.16147860 </v>
  </varray>
  <varray name="stress" >
   <v>      -0.25833056      -0.10755039       0.60648703 </v>
   <v>      -0.10755038       0.61491205       0.16553395 </v>
   <v>       0.60648704       0.16553396       0.43566143 </v>
  </varray>
  <energy>
   <i name="e_fr_energy">    -78.77518800 </i>
   <i name="e_wo_entrp">    -78.77518800 </i>
   <i name="e_0_energy">      0.00000000 </i>
  </energy>
  <time name="totalsc">  106.20  117.52</time>
 </calculation>
 <calculation>
  <scstep>
   <time name="dav">    3.25    3.26</time>
   <time name="total">    3.55    3.57</time>
   <energy>
    <i name="alphaZ">    123.53156630 </i>
    <i name="ewald">  90845.23813313 </i>
    <i name="hartreedc">-128678.89119103 </i>
    <i name="XCdc">   -428.55213789 </i>
    <i name="pawpsdc">  41552.57527272 </i>
    <i name="pawaedc"> -39877.66575900 </i>
    <i name="eentropy">     -0.00000000 </i>
    <i name="bandstr">  -3028.63549573 </i>
    <i name="atom">  39413.54794328 </i>
    <i name="e_fr_energy">    -78.85166821 </i>
    <i name="e_wo_entrp">    -78.85166821 </i>
    <i name="e_0_energy">    -78.85166821 </i>
   </energy>
  </scstep>
  <scstep>
   <time name="dav">    3.45    3.46</time>
   <time name="total">    3.76    3.77</time>
   <energy>
    <i name="e_fr_energy">    -78.85422021 </i>
    <i name="e_wo_entrp">    -78.85422021 </i>
    <i name="e_0_energy">    -78.85422021 </i>
   </energy>
  </scstep>
  <scstep>
   <time name="dav">    3.27    3.27</time>
   <time name="total">    3.46    3.47</time>
   <energy>
    <i name="alphaZ">    123.53156630 </i>
    <i name="ewald">  90845.23813313 </i>
    <i name="hartreedc">-128679.81769138 </i>
    <i name="XCdc">   -428.52918513 </i>
    <i name="pawpsdc">  41537.89076295 </i>
    <i name="pawaedc"> -39862.75118695 </i>
    <i name="eentropy">      0.00000000 </i>
    <i name="bandstr">  -3027.96450008 </i>
    <i name="atom">  39413.54794328 </i>
    <i name="e_fr_energy">    -78.85415788 </i>
    <i name="e_wo_entrp">    -78.85415788 </i>
    <i name="e_0_energy">    -78.85415788 </i>
   </energy>
  </scstep>
  <structure>
   <crystal>
    <varray name="basis" >
     <v>      21.50310334       0.00000000       0.00000000 </v>
     <v>       0.00000000      21.50310334       0.00000000 </v>
     <v>       0.00000000       0.00000000      21.50310334 </v>
    </varray>
    <i name="volume">   9942.67917423 </i>
    <varray name="rec_basis" >
     <v>       0.04650492       0.00000000       0.00000000 </v>
     <v>       0.00000000       0.04650492       0.00000000 </v>
     <v>       0.00000000       0.00000000       0.04650492 </v>
    </varray>
   </crystal>
   <varray name="positions" >
    <v>       0.68589173       0.62438865       0.61418954 </v>
    <v>       0.58065642       0.57044749       0.67519045 </v>
    <v>       0.68472087       0.49872103       0.64479231 </v>
    <v>       0.57511609       0.69730352       0.62049410 </v>
    <v>       0.47201694       0.64000298       0.66933835 </v>
    <v>       0.65735388       0.71430487       0.52128490 </v>
    <v>       0.38335511       0.72017631       0.63222423 </v>
    <v>       0.56872385       0.44113110       0.65299787 </v>
    <v>       0.46530773       0.51521742       0.66218536 </v>
    <v>       0.47400573       0.70442214       0.54232365 </v>
    <v>       0.69921793       0.53814343       0.52449112 </v>
    <v>       0.57551472       0.59373667       0.55344340 </v>
    <v>       0.67365132       0.37367254       0.65394802 </v>
    <v>       0.56058678       0.66285741       0.45210013 </v>
    <v>       0.35746822       0.58862940       0.62845162 </v>
    <v>       0.45481529       0.39026229       0.65129991 </v>
    <v>       0.68054503       0.62374318       0.43735851 </v>
    <v>       0.45613760       0.56729463       0.54686522 </v>
    <v>       0.34911139       0.67423269       0.52130185 </v>
    <v>       0.65028315       0.41270558       0.53972501 </v>
    <v>       0.58066079       0.49777033       0.47697308 </v>
    <v>       0.36521271       0.46536980       0.59137508 </v>
    <v>       0.72144587       0.54875153       0.35075898 </v>
    <v>       0.43886927       0.62885232       0.44006263 </v>
    <v>       0.33351565       0.55210512       0.50061574 </v>
    <v>       0.70254051       0.45543277       0.43181868 </v>
    <v>       0.53121006       0.36576354       0.54750383 </v>
    <v>       0.46357599       0.45635755       0.48952316 </v>
    <v>       0.52823390       0.56101710       0.38133233 </v>
    <v>       0.61759634       0.48019310       0.33978711 </v>
    <v>       0.40070710       0.34686689       0.54982871 </v>
    <v>       0.59028908       0.38105971       0.42831380 </v>
    <v>       0.33221731       0.43104040       0.46908253 </v>
    <v>       0.40478520       0.51475138       0.39555088 </v>
    <v>       0.50114862       0.43763391       0.34717346 </v>
    <v>       0.47044404       0.34173048       0.43328712 </v>
    <v>       0.34804079       0.30664048       0.44400336 </v>
    <v>       0.38130058       0.39354388       0.35527763 </v>
   </varray>
  </structure>
  <varray name="forces" >
   <v>       0.07550662       0.36077946       0.24566937 </v>
   <v>       0.15143995      -0.09745411       0.75606944 </v>
   <v>       0.05858954      -0.04721761       0.02833336 </v>
   <v>       0.22120524       0.51694861       0.35987235 </v>
   <v>       0.02279392       0.19720803       0.07818233 </v>
   <v>      -0.21606067      -0.14784167       0.26116360 </v>
   <v>      -0.13176416       0.30412144       0.22993564 </v>
   <v>       0.18289595       0.13170527      -0.08818399 </v>
   <v>      -0.22531647      -0.21982666       0.43350195 </v>
   <v>       0.05118169       0.00330802      -0.04637110 </v>
   <v>       0.28054572      -0.30776190       0.18922197 </v>
   <v>       0.46249809      -0.06064213      -0.10317573 </v>
   <v>       0.21259859      -0.43867821       0.26311035 </v>
   <v>      -0.14235492       0.63851936      -0.38468902 </v>
   <v>      -0.00623901       0.27421454       0.06491597 </v>
   <v>      -0.07135534      -0.13641479       0.41293206 </v>
   <v>      -0.22494631       0.18919916      -0.26293494 </v>
   <v>      -0.30996376       0.06980656       0.12138920 </v>
   <v>      -0.08260942       0.12269023      -0.01018395 </v>
   <v>       0.42176192       0.04079817       0.27105068 </v>
   <v>       0.21928539      -0.00567262      -0.21937867 </v>
   <v>       0.18504323      -0.07893823       0.02060176 </v>
   <v>       0.52909741       0.01275329      -0.38947449 </v>
   <v>      -0.43830734       0.47049230      -0.45605211 </v>
   <v>       0.04703379       0.00433814      -0.18466296 </v>
   <v>       0.04946135      -0.32762142      -0.15710811 </v>
   <v>       0.18237690      -0.19486596       0.20753994 </v>
   <v>      -0.30140769      -0.22312527       0.21378789 </v>
   <v>      -0.22769508       0.23548386      -0.42343781 </v>
   <v>       0.15541298      -0.05911482      -0.12208253 </v>
   <v>      -0.15236926      -0.07851481      -0.31597786 </v>
   <v>       0.13810794      -0.14631582      -0.13696989 </v>
   <v>      -0.09684647      -0.25457109       0.01421317 </v>
   <v>      -0.26205229       0.24716851      -0.52437971 </v>
   <v>      -0.21314127      -0.06758330       0.17003492 </v>
   <v>      -0.07044921      -0.39439041      -0.09035655 </v>
   <v>      -0.38024466      -0.44627602      -0.27869776 </v>
   <v>      -0.09371288      -0.08670810      -0.14740880 </v>
  </varray>
  <varray name="stress" >
   <v>      -0.37777186      -0.11096392       0.58741900 </v>
   <v>      -0.11096392       0.47540596       0.16847904 </v>
   <v>       0.58741900       0.16847903       0.29361915 </v>
  </varray>
  <energy>
   <i name="e_fr_energy">    -78.85415788 </i>
   <i name="e_wo_entrp">    -78.85415788 </i>
   <i name="e_0_energy">      0.00000000 </i>
  </energy>
  <time name="totalsc">   16.43   18.49</time>
 </calculation>
 <calculation>
  <scstep>
   <time name="dav">    3.17    3.18</time>
   <time name="total">    3.47    3.49</time>
   <energy>
    <i name="alphaZ">    123.53156630 </i>
    <i name="ewald">  90371.82758586 </i>
    <i name="hartreedc">-128209.49203053 </i>
    <i name="XCdc">   -429.01879452 </i>
    <i name="pawpsdc">  41528.69679521 </i>
    <i name="pawaedc"> -39853.41215388 </i>
    <i name="eentropy">      0.00000000 </i>
    <i name="bandstr">  -3024.72407898 </i>
    <i name="atom">  39413.54794328 </i>
    <i name="e_fr_energy">    -79.04316726 </i>
    <i name="e_wo_entrp">    -79.04316726 </i>
    <i name="e_0_energy">    -79.04316726 </i>
   </energy>
  </scstep>
  <scstep>
   <time name="dav">    3.27    3.27</time>
   <time name="total">    3.60    3.61</time>
   <energy>
    <i name="e_fr_energy">    -79.06558222 </i>
    <i name="e_wo_entrp">    -79.06558222 </i>
    <i name="e_0_energy">    -79.06558222 </i>
   </energy>
  </scstep>
  <scstep>
   <time name="dav">    3.30    3.30</time>
   <time name="total">    3.62    3.64</time>
   <energy>
    <i name="e_fr_energy">    -79.06490908 </i>
    <i name="e_wo_entrp">    -79.06490908 </i>
    <i name="e_0_energy">    -79.06490908 </i>
   </energy>
  </scstep>
  <scstep>
   <time name="dav">    3.28    3.29</time>
   <time name="total">    3.61    3.61</time>
   <energy>
    <i name="e_fr_energy">    -79.06447734 </i>
    <i name="e_wo_entrp">    -79.06447734 </i>
    <i name="e_0_energy">    -79.06447734 </i>
   </energy>
  </scstep>
  <scstep>
   <time name="dav">    2.34    2.34</time>
   <time name="total">    2.56    2.60</time>
   <energy>
    <i name="alphaZ">    123.53156630 </i>
    <i name="ewald">  90371.82758586 </i>
    <i name="hartreedc">-128213.06268766 </i>
    <i name="XCdc">   -428.93080766 </i>
    <i name="pawpsdc">  41456.27772945 </i>
    <i name="pawaedc"> -39779.83435261 </i>
    <i name="eentropy">     -0.00000000 </i>
    <i name="bandstr">  -3022.42143245 </i>
    <i name="atom">  39413.54794328 </i>
    <i name="e_fr_energy">    -79.06445548 </i>
    <i name="e_wo_entrp">    -79.06445548 </i>
    <i name="e_0_energy">    -79.06445548 </i>
   </energy>
  </scstep>
  <structure>
   <crystal>
    <varray name="basis" >
     <v>      21.50310334       0.00000000       0.00000000 </v>
     <v>       0.00000000      21.50310334       0.00000000 </v>
     <v>       0.00000000       0.00000000      21.50310334 </v>
    </varray>
    <i name="volume">   9942.67917423 </i>
    <varray name="rec_basis" >
     <v>       0.04650492       0.00000000       0.00000000 </v>
     <v>       0.00000000       0.04650492       0.00000000 </v>
     <v>       0.00000000       0.00000000       0.04650492 </v>
    </varray>
   </crystal>
   <varray name="positions" >
    <v>       0.68599925       0.62490989       0.61452677 </v>
    <v>       0.58088443       0.57029335       0.67627916 </v>
    <v>       0.68479872       0.49866072       0.64482251 </v>
    <v>       0.57544047       0.69805637       0.62100309 </v>
    <v>       0.47203491       0.64029464       0.66945775 </v>
    <v>       0.65705598       0.71410359       0.52165267 </v>
    <v>       0.38316643       0.72059690       0.63255584 </v>
    <v>       0.56898357       0.44132523       0.65287862 </v>
    <v>       0.46498368       0.51487676       0.66278351 </v>
    <v>       0.47407507       0.70443619       0.54224639 </v>
    <v>       0.69960633       0.53767985       0.52477856 </v>
    <v>       0.57619460       0.59361186       0.55326879 </v>
    <v>       0.67395459       0.37305255       0.65431374 </v>
    <v>       0.56040644       0.66376304       0.45155382 </v>
    <v>       0.35746006       0.58901333       0.62854174 </v>
    <v>       0.45471644       0.39009078       0.65190269 </v>
    <v>       0.68023071       0.62404939       0.43699247 </v>
    <v>       0.45565754       0.56737010       0.54705046 </v>
    <v>       0.34899330       0.67439887       0.52127250 </v>
    <v>       0.65087874       0.41276484       0.54010932 </v>
    <v>       0.58099098       0.49777535       0.47669060 </v>
    <v>       0.36546882       0.46524933       0.59140627 </v>
    <v>       0.72218735       0.54877703       0.35019668 </v>
    <v>       0.43824295       0.62952266       0.43941439 </v>
    <v>       0.33357780       0.55212129       0.50036190 </v>
    <v>       0.70260512       0.45495765       0.43160846 </v>
    <v>       0.53146477       0.36548682       0.54780053 </v>
    <v>       0.46314784       0.45603438       0.48984148 </v>
    <v>       0.52791497       0.56134616       0.38073008 </v>
    <v>       0.61782552       0.48010144       0.33961145 </v>
    <v>       0.40047949       0.34675128       0.54937057 </v>
    <v>       0.59048973       0.38085567       0.42810749 </v>
    <v>       0.33207963       0.43068316       0.46911087 </v>
    <v>       0.40441464       0.51511190       0.39479790 </v>
    <v>       0.50083245       0.43752959       0.34739797 </v>
    <v>       0.47034654       0.34117874       0.43315376 </v>
    <v>       0.34750880       0.30601476       0.44362253 </v>
    <v>       0.38117497       0.39342818       0.35506026 </v>
   </varray>
  </structure>
  <varray name="forces" >
   <v>       0.06490551       0.29699985       0.23916518 </v>
   <v>       0.10502550      -0.05378215       0.61494045 </v>
   <v>       0.06228771      -0.05450450       0.04700870 </v>
   <v>       0.16938749       0.40691921       0.31629948 </v>
   <v>       0.04986963       0.14607376       0.05079561 </v>
   <v>      -0.20745090      -0.14525780       0.23136859 </v>
   <v>      -0.10966943       0.28236353       0.18633213 </v>
   <v>       0.15508434       0.09598427      -0.08457215 </v>
   <v>      -0.18505197      -0.12885360       0.40354364 </v>
   <v>       0.05093279      -0.01539106      -0.01849119 </v>
   <v>       0.26052354      -0.21309913       0.12518391 </v>
   <v>       0.35538621       0.02670441      -0.03511778 </v>
   <v>       0.18185613      -0.38275980       0.24161894 </v>
   <v>      -0.16706502       0.54724003      -0.32999213 </v>
   <v>      -0.00711441       0.25015180       0.06153279 </v>
   <v>      -0.06465549      -0.16135204       0.32092154 </v>
   <v>      -0.20473352       0.08943219      -0.24571318 </v>
   <v>      -0.18601464       0.10627939       0.08098357 </v>
   <v>      -0.06875869       0.12195557       0.02168794 </v>
   <v>       0.36475234       0.03216882       0.23594856 </v>
   <v>       0.15144238      -0.03113662      -0.24851345 </v>
   <v>       0.17300733      -0.05151725       0.01377591 </v>
   <v>       0.47083778      -0.00380627      -0.31795442 </v>
   <v>      -0.36631597       0.39733749      -0.39008590 </v>
   <v>       0.05008229      -0.01625151      -0.17764148 </v>
   <v>       0.05467440      -0.26109913      -0.15997496 </v>
   <v>       0.16697600      -0.16730649       0.17462705 </v>
   <v>      -0.25998699      -0.18123360       0.15695707 </v>
   <v>      -0.20404143       0.21232509      -0.36195866 </v>
   <v>       0.11688028      -0.03552755      -0.09930200 </v>
   <v>      -0.11108628      -0.06069522      -0.25363231 </v>
   <v>       0.10923127      -0.13298618      -0.09496792 </v>
   <v>      -0.08281304      -0.22690630      -0.00374025 </v>
   <v>      -0.22770697       0.19490912      -0.43357274 </v>
   <v>      -0.15566900      -0.04021703       0.18060694 </v>
   <v>      -0.06628301      -0.35339876      -0.06615798 </v>
   <v>      -0.34160490      -0.39985147      -0.27090035 </v>
   <v>      -0.09712124      -0.08991107      -0.11100916 </v>
  </varray>
  <varray name="stress" >
   <v>      -0.67034151      -0.11092134       0.53658534 </v>
   <v>      -0.11092134       0.12531733       0.17588599 </v>
   <v>       0.53658534       0.17588599      -0.06271735 </v>
  </varray>
  <energy>
   <i name="e_fr_energy">    -79.06445548 </i>
   <i name="e_wo_entrp">    -79.06445548 </i>
   <i name="e_0_energy">     -0.00000000 </i>
  </energy>
  <time name="totalsc">   22.51   23.33</time>
 </calculation>
 <calculation>
  <scstep>
   <time name="dav">    3.13    3.13</time>
   <time name="total">    3.44    4.16</time>
   <energy>
    <i name="alphaZ">    123.53156630 </i>
    <i name="ewald">  89432.36574772 </i>
    <i name="hartreedc">-127278.62856590 </i>
    <i name="XCdc">   -429.88081972 </i>
    <i name="pawpsdc">  41457.17810627 </i>
    <i name="pawaedc"> -39780.74562456 </i>
    <i name="eentropy">      0.00000000 </i>
    <i name="bandstr">  -3016.66024160 </i>
    <i name="atom">  39413.54794328 </i>
    <i name="e_fr_energy">    -79.29188821 </i>
    <i name="e_wo_entrp">    -79.29188821 </i>
    <i name="e_0_energy">    -79.29188821 </i>
   </energy>
  </scstep>
  <scstep>
   <time name="dav">    3.24    3.24</time>
   <time name="total">    3.54    3.54</time>
   <energy>
    <i name="e_fr_energy">    -79.38105487 </i>
    <i name="e_wo_entrp">    -79.38105487 </i>
    <i name="e_0_energy">    -79.38105487 </i>
   </energy>
  </scstep>
  <scstep>
   <time name="dav">    3.28    3.28</time>
   <time name="total">    3.59    3.60</time>
   <energy>
    <i name="e_fr_energy">    -79.37908250 </i>
    <i name="e_wo_entrp">    -79.37908250 </i>
    <i name="e_0_energy">    -79.37908250 </i>
   </energy>
  </scstep>
  <scstep>
   <time name="dav">    3.19    3.19</time>
   <time name="total">    3.49    3.93</time>
   <energy>
    <i name="e_fr_energy">    -79.37666561 </i>
    <i name="e_wo_entrp">    -79.37666561 </i>
    <i name="e_0_energy">    -79.37666561 </i>
   </energy>
  </scstep>
  <scstep>
   <time name="dav">    2.54    2.54</time>
   <time name="total">    2.76    3.00</time>
   <energy>
    <i name="alphaZ">    123.53156630 </i>
    <i name="ewald">  89432.36574772 </i>
    <i name="hartreedc">-127285.79445491 </i>
    <i name="XCdc">   -429.71306784 </i>
    <i name="pawpsdc">  41324.17885244 </i>
    <i name="pawaedc"> -39645.57060703 </i>
    <i name="eentropy">      0.00000000 </i>
    <i name="bandstr">  -3011.92267207 </i>
    <i name="atom">  39413.54794328 </i>
    <i name="e_fr_energy">    -79.37669211 </i>
    <i name="e_wo_entrp">    -79.37669211 </i>
    <i name="e_0_energy">    -79.37669211 </i>
   </energy>
  </scstep>
  <structure>
   <crystal>
    <varray name="basis" >
     <v>      21.50310334       0.00000000       0.00000000 </v>
     <v>       0.00000000      21.50310334       0.00000000 </v>
     <v>       0.00000000       0.00000000      21.50310334 </v>
    </varray>
    <i name="volume">   9942.67917423 </i>
    <varray name="rec_basis" >
     <v>       0.04650492       0.00000000       0.00000000 </v>
     <v>       0.00000000       0.04650492       0.00000000 </v>
     <v>       0.00000000       0.00000000       0.04650492 </v>
    </varray>
   </crystal>
   <varray name="positions" >
    <v>       0.68621428       0.62595239       0.61520125 </v>
    <v>       0.58134045       0.56998507       0.67845658 </v>
    <v>       0.68495441       0.49854010       0.64488293 </v>
    <v>       0.57608923       0.69956206       0.62202109 </v>
    <v>       0.47207085       0.64087798       0.66969656 </v>
    <v>       0.65646017       0.71370102       0.52238821 </v>
    <v>       0.38278905       0.72143809       0.63321904 </v>
    <v>       0.56950300       0.44171348       0.65264012 </v>
    <v>       0.46433560       0.51419545       0.66397982 </v>
    <v>       0.47421374       0.70446429       0.54209187 </v>
    <v>       0.70038312       0.53675268       0.52535344 </v>
    <v>       0.57755434       0.59336224       0.55291955 </v>
    <v>       0.67456114       0.37181256       0.65504520 </v>
    <v>       0.56004578       0.66557429       0.45046122 </v>
    <v>       0.35744376       0.58978120       0.62872199 </v>
    <v>       0.45451873       0.38974775       0.65310827 </v>
    <v>       0.67960207       0.62466180       0.43626039 </v>
    <v>       0.45469743       0.56752104       0.54742094 </v>
    <v>       0.34875712       0.67473123       0.52121380 </v>
    <v>       0.65206991       0.41288335       0.54087796 </v>
    <v>       0.58165136       0.49778537       0.47612565 </v>
    <v>       0.36598104       0.46500839       0.59146867 </v>
    <v>       0.72367032       0.54882804       0.34907208 </v>
    <v>       0.43699031       0.63086333       0.43811790 </v>
    <v>       0.33370210       0.55215364       0.49985423 </v>
    <v>       0.70273433       0.45400741       0.43118801 </v>
    <v>       0.53197419       0.36493338       0.54839394 </v>
    <v>       0.46229154       0.45538803       0.49047813 </v>
    <v>       0.52727711       0.56200427       0.37952559 </v>
    <v>       0.61828387       0.47991810       0.33926012 </v>
    <v>       0.40002425       0.34652007       0.54845431 </v>
    <v>       0.59089102       0.38044759       0.42769488 </v>
    <v>       0.33180427       0.42996868       0.46916755 </v>
    <v>       0.40367352       0.51583296       0.39329194 </v>
    <v>       0.50020011       0.43732096       0.34784699 </v>
    <v>       0.47015152       0.34007526       0.43288704 </v>
    <v>       0.34644484       0.30476330       0.44286088 </v>
    <v>       0.38092375       0.39319678       0.35462552 </v>
   </varray>
  </structure>
  <varray name="forces" >
   <v>       0.04582938       0.17814459       0.23517156 </v>
   <v>       0.02355915       0.02366102       0.38022806 </v>
   <v>       0.07045868      -0.06318846       0.08973409 </v>
   <v>       0.07410941       0.19104006       0.24035101 </v>
   <v>       0.10068795       0.05218349      -0.00184916 </v>
   <v>      -0.19001258      -0.13742206       0.16261558 </v>
   <v>      -0.06401258       0.22982558       0.10237170 </v>
   <v>       0.09550494       0.02733535      -0.07561149 </v>
   <v>      -0.10674441       0.04569051       0.33290534 </v>
   <v>       0.05043413      -0.05072794       0.03315866 </v>
   <v>       0.22365219      -0.04255402       0.00264849 </v>
   <v>       0.17498476       0.18003024       0.07517163 </v>
   <v>       0.11664664      -0.26459240       0.19779060 </v>
   <v>      -0.21027423       0.36899404      -0.22680093 </v>
   <v>      -0.01087707       0.21008261       0.05707649 </v>
   <v>      -0.04377644      -0.20248232       0.14801597 </v>
   <v>      -0.16624200      -0.08321051      -0.23069263 </v>
   <v>       0.04353921       0.16186987       0.01032910 </v>
   <v>      -0.03924612       0.11741338       0.08366354 </v>
   <v>       0.24450508       0.01114797       0.17620447 </v>
   <v>       0.03189448      -0.07807034      -0.29795303 </v>
   <v>       0.14623150      -0.00044053       0.00183275 </v>
   <v>       0.34037241      -0.03552758      -0.17134152 </v>
   <v>      -0.23233635       0.27351311      -0.26865709 </v>
   <v>       0.05437980      -0.05590509      -0.16469571 </v>
   <v>       0.06587281      -0.13567016      -0.15961166 </v>
   <v>       0.13307568      -0.10972535       0.11058567 </v>
   <v>      -0.16825281      -0.10135546       0.05098547 </v>
   <v>      -0.15814499       0.16688667      -0.24911692 </v>
   <v>       0.04494290       0.01182234      -0.05954211 </v>
   <v>      -0.04398680      -0.03605355      -0.14109417 </v>
   <v>       0.04981438      -0.10573509      -0.01646484 </v>
   <v>      -0.05825751      -0.17114858      -0.03996410 </v>
   <v>      -0.16688675       0.10561256      -0.27737923 </v>
   <v>      -0.04408822       0.01451119       0.19983908 </v>
   <v>      -0.05808732      -0.28591683      -0.01970202 </v>
   <v>      -0.26484397      -0.31483130      -0.24870659 </v>
   <v>      -0.10442536      -0.09520702      -0.04149604 </v>
  </varray>
  <varray name="stress" >
   <v>      -1.24261058      -0.10914271       0.44237962 </v>
   <v>      -0.10914273      -0.55419167       0.18190937 </v>
   <v>       0.44237962       0.18190937      -0.73922733 </v>
  </varray>
  <energy>
   <i name="e_fr_energy">    -79.37669211 </i>
   <i name="e_wo_entrp">    -79.37669211 </i>
   <i name="e_0_energy">      0.00000000 </i>
  </energy>
  <time name="totalsc">   22.45   23.89</time>
 </calculation>
 <calculation>
  <scstep>
   <time name="dav">    3.14    3.15</time>
   <time name="total">    3.47    3.49</time>
   <energy>
    <i name="alphaZ">    123.53156630 </i>
    <i name="ewald">  87582.15690533 </i>
    <i name="hartreedc">-125444.60609327 </i>
    <i name="XCdc">   -431.46636252 </i>
    <i name="pawpsdc">  41325.50597983 </i>
    <i name="pawaedc"> -39646.90841997 </i>
    <i name="eentropy">      0.00000000 </i>
    <i name="bandstr">  -3001.04684174 </i>
    <i name="atom">  39413.54794328 </i>
    <i name="e_fr_energy">    -79.28532275 </i>
    <i name="e_wo_entrp">    -79.28532275 </i>
    <i name="e_0_energy">    -79.28532275 </i>
   </energy>
  </scstep>
  <scstep>
   <time name="dav">    3.26    3.26</time>
   <time name="total">    3.60    4.42</time>
   <energy>
    <i name="e_fr_energy">    -79.65095023 </i>
    <i name="e_wo_entrp">    -79.65095023 </i>
    <i name="e_0_energy">    -79.65095023 </i>
   </energy>
  </scstep>
  <scstep>
   <time name="dav">    3.22    3.23</time>
   <time name="total">    3.52    6.03</time>
   <energy>
    <i name="e_fr_energy">    -79.64696225 </i>
    <i name="e_wo_entrp">    -79.64696225 </i>
    <i name="e_0_energy">    -79.64696225 </i>
   </energy>
  </scstep>
  <scstep>
   <time name="dav">    3.26    3.27</time>
   <time name="total">    3.56    3.57</time>
   <energy>
    <i name="e_fr_energy">    -79.63527510 </i>
    <i name="e_wo_entrp">    -79.63527510 </i>
    <i name="e_0_energy">    -79.63527510 </i>
   </energy>
  </scstep>
  <scstep>
   <time name="dav">    3.24    3.25</time>
   <time name="total">    3.54    3.55</time>
   <energy>
    <i name="e_fr_energy">    -79.63535726 </i>
    <i name="e_wo_entrp">    -79.63535726 </i>
    <i name="e_0_energy">    -79.63535726 </i>
   </energy>
  </scstep>
  <scstep>
   <time name="dav">    3.21    3.21</time>
   <time name="total">    3.50    5.50</time>
   <energy>
    <i name="e_fr_energy">    -79.63513331 </i>
    <i name="e_wo_entrp">    -79.63513331 </i>
    <i name="e_0_energy">    -79.63513331 </i>
   </energy>
  </scstep>
  <scstep>
   <time name="dav">    2.43    2.43</time>
   <time name="total">    2.63    2.74</time>
   <energy>
    <i name="alphaZ">    123.53156630 </i>
    <i name="ewald">  87582.15690533 </i>
    <i name="hartreedc">-125457.66319936 </i>
    <i name="XCdc">   -431.14958426 </i>
    <i name="pawpsdc">  41098.70161759 </i>
    <i name="pawaedc"> -39416.18250224 </i>
    <i name="eentropy">      0.00000000 </i>
    <i name="bandstr">  -2992.57789044 </i>
    <i name="atom">  39413.54794328 </i>
    <i name="e_fr_energy">    -79.63514381 </i>
    <i name="e_wo_entrp">    -79.63514381 </i>
    <i name="e_0_energy">    -79.63514381 </i>
   </energy>
  </scstep>
  <structure>
   <crystal>
    <varray name="basis" >
     <v>      21.50310334       0.00000000       0.00000000 </v>
     <v>       0.00000000      21.50310334       0.00000000 </v>
     <v>       0.00000000       0.00000000      21.50310334 </v>
    </varray>
    <i name="volume">   9942.67917423 </i>
    <varray name="rec_basis" >
     <v>       0.04650492       0.00000000       0.00000000 </v>
     <v>       0.00000000       0.04650492       0.00000000 </v>
     <v>       0.00000000       0.00000000       0.04650492 </v>
    </varray>
   </crystal>
   <varray name="positions" >
    <v>       0.68664434       0.62803737       0.61655021 </v>
    <v>       0.58225249       0.56936852       0.68281141 </v>
    <v>       0.68526579       0.49829887       0.64500375 </v>
    <v>       0.57738675       0.70257345       0.62405707 </v>
    <v>       0.47214274       0.64204464       0.67017418 </v>
    <v>       0.65526855       0.71289590       0.52385929 </v>
    <v>       0.38203431       0.72312045       0.63454545 </v>
    <v>       0.57054187       0.44249000       0.65216312 </v>
    <v>       0.46303943       0.51283282       0.66637244 </v>
    <v>       0.47449110       0.70452049       0.54178282 </v>
    <v>       0.70193671       0.53489835       0.52650321 </v>
    <v>       0.58027383       0.59286299       0.55222108 </v>
    <v>       0.67577423       0.36933260       0.65650811 </v>
    <v>       0.55932445       0.66919678       0.44827600 </v>
    <v>       0.35741115       0.59131693       0.62908248 </v>
    <v>       0.45412333       0.38906171       0.65551942 </v>
    <v>       0.67834478       0.62588663       0.43479622 </v>
    <v>       0.45277720       0.56782293       0.54816188 </v>
    <v>       0.34828475       0.67539595       0.52109640 </v>
    <v>       0.65445225       0.41312039       0.54241523 </v>
    <v>       0.58297211       0.49780543       0.47499575 </v>
    <v>       0.36700549       0.46452652       0.59159346 </v>
    <v>       0.72663624       0.54893006       0.34682289 </v>
    <v>       0.43448503       0.63354468       0.43552493 </v>
    <v>       0.33395070       0.55221834       0.49883887 </v>
    <v>       0.70299275       0.45210692       0.43034713 </v>
    <v>       0.53299303       0.36382650       0.54958076 </v>
    <v>       0.46057893       0.45409532       0.49175142 </v>
    <v>       0.52600138       0.56332051       0.37711660 </v>
    <v>       0.61920056       0.47955143       0.33855745 </v>
    <v>       0.39911378       0.34605764       0.54662177 </v>
    <v>       0.59169362       0.37963143       0.42686966 </v>
    <v>       0.33125355       0.42853971       0.46928091 </v>
    <v>       0.40219128       0.51727506       0.39028001 </v>
    <v>       0.49893543       0.43690368       0.34874504 </v>
    <v>       0.46976150       0.33786830       0.43235360 </v>
    <v>       0.34431690       0.30226038       0.44133757 </v>
    <v>       0.38042130       0.39273397       0.35375605 </v>
   </varray>
  </structure>
  <varray name="forces" >
   <v>       0.00738984      -0.06937472       0.21739170 </v>
   <v>      -0.11069690       0.13579640       0.03442749 </v>
   <v>       0.08978291      -0.05742270       0.19284564 </v>
   <v>      -0.08634678      -0.13381338       0.16402203 </v>
   <v>       0.18556410      -0.09141938      -0.09277271 </v>
   <v>      -0.15671369      -0.11043377      -0.00096717 </v>
   <v>       0.01490728       0.10760664      -0.04797955 </v>
   <v>      -0.02578578      -0.09793322      -0.05206388 </v>
   <v>       0.04001693       0.34281409       0.20495455 </v>
   <v>       0.04777272      -0.10893307       0.11428949 </v>
   <v>       0.17105794       0.23798032      -0.22085427 </v>
   <v>      -0.11068584       0.40698086       0.20937174 </v>
   <v>      -0.01142172      -0.03969134       0.10171532 </v>
   <v>      -0.26375029       0.09935074      -0.08073232 </v>
   <v>      -0.02640527       0.13345510       0.05643838 </v>
   <v>       0.00836794      -0.25792546      -0.12105694 </v>
   <v>      -0.09964806      -0.32315185      -0.22166505 </v>
   <v>       0.41187310       0.22417467      -0.09523573 </v>
   <v>       0.02154872       0.10409720       0.19415533 </v>
   <v>       0.02700241      -0.05043989       0.09289100 </v>
   <v>      -0.13933911      -0.15918374      -0.37234149 </v>
   <v>       0.08072232       0.08535468      -0.01656217 </v>
   <v>       0.09843861      -0.08922710       0.10213217 </v>
   <v>      -0.02721720       0.07056215      -0.09971516 </v>
   <v>       0.05582481      -0.12483194      -0.14648358 </v>
   <v>       0.09204458       0.06911171      -0.13951388 </v>
   <v>       0.06204449      -0.02271986      -0.00861036 </v>
   <v>       0.02426582       0.03128537      -0.12365124 </v>
   <v>      -0.07214695       0.08402216      -0.03852470 </v>
   <v>      -0.07306074       0.10153034       0.01542351 </v>
   <v>       0.06032190      -0.02233892       0.04719815 </v>
   <v>      -0.06807474      -0.05430050       0.11071052 </v>
   <v>      -0.02759683      -0.06836681      -0.11616722 </v>
   <v>      -0.06568290      -0.02214914      -0.03818546 </v>
   <v>       0.15861136       0.11891324       0.23291399 </v>
   <v>      -0.04229739      -0.16675351       0.04740830 </v>
   <v>      -0.12767742      -0.18193114      -0.19735618 </v>
   <v>      -0.12301017      -0.10069425       0.09214975 </v>
  </varray>
  <varray name="stress" >
   <v>      -2.19577684      -0.09176294       0.28734309 </v>
   <v>      -0.09176294      -1.69037405       0.16150516 </v>
   <v>       0.28734309       0.16150517      -1.80956654 </v>
  </varray>
  <energy>
   <i name="e_fr_energy">    -79.63514381 </i>
   <i name="e_wo_entrp">    -79.63514381 </i>
   <i name="e_0_energy">      0.00000000 </i>
  </energy>
  <time name="totalsc">   29.51   35.00</time>
 </calculation>
 <calculation>
  <scstep>
   <time name="dav">    3.11    3.11</time>
   <time name="total">    3.42    3.43</time>
   <energy>
    <i name="alphaZ">    123.53156630 </i>
    <i name="ewald">  87344.20289992 </i>
    <i name="hartreedc">-125221.29801511 </i>
    <i name="XCdc">   -431.39801565 </i>
    <i name="pawpsdc">  41099.49279085 </i>
    <i name="pawaedc"> -39416.96757180 </i>
    <i name="eentropy">      0.00000000 </i>
    <i name="bandstr">  -2990.82357385 </i>
    <i name="atom">  39413.54794328 </i>
    <i name="e_fr_energy">    -79.71197606 </i>
    <i name="e_wo_entrp">    -79.71197606 </i>
    <i name="e_0_energy">    -79.71197606 </i>
   </energy>
  </scstep>
  <scstep>
   <time name="dav">    3.23    3.23</time>
   <time name="total">    3.53    3.74</time>
   <energy>
    <i name="e_fr_energy">    -79.73348724 </i>
    <i name="e_wo_entrp">    -79.73348724 </i>
    <i name="e_0_energy">    -79.73348724 </i>
   </energy>
  </scstep>
  <scstep>
   <time name="dav">    3.34    3.35</time>
   <time name="total">    3.64    3.72</time>
   <energy>
    <i name="e_fr_energy">    -79.73306107 </i>
    <i name="e_wo_entrp">    -79.73306107 </i>
    <i name="e_0_energy">    -79.73306107 </i>
   </energy>
  </scstep>
  <scstep>
   <time name="dav">    3.23    3.23</time>
   <time name="total">    3.55    4.00</time>
   <energy>
    <i name="e_fr_energy">    -79.73254413 </i>
    <i name="e_wo_entrp">    -79.73254413 </i>
    <i name="e_0_energy">    -79.73254413 </i>
   </energy>
  </scstep>
  <scstep>
   <time name="dav">    2.35    2.35</time>
   <time name="total">    2.61    3.81</time>
   <energy>
    <i name="alphaZ">    123.53156630 </i>
    <i name="ewald">  87344.20289992 </i>
    <i name="hartreedc">-125224.04864564 </i>
    <i name="XCdc">   -431.35155027 </i>
    <i name="pawpsdc">  41062.97519350 </i>
    <i name="pawaedc"> -39379.84244739 </i>
    <i name="eentropy">      0.00000000 </i>
    <i name="bandstr">  -2988.74754580 </i>
    <i name="atom">  39413.54794328 </i>
    <i name="e_fr_energy">    -79.73258609 </i>
    <i name="e_wo_entrp">    -79.73258609 </i>
    <i name="e_0_energy">    -79.73258609 </i>
   </energy>
  </scstep>
  <structure>
   <crystal>
    <varray name="basis" >
     <v>      21.50310334       0.00000000       0.00000000 </v>
     <v>       0.00000000      21.50310334       0.00000000 </v>
     <v>       0.00000000       0.00000000      21.50310334 </v>
    </varray>
    <i name="volume">   9942.67917423 </i>
    <varray name="rec_basis" >
     <v>       0.04650492       0.00000000       0.00000000 </v>
     <v>       0.00000000       0.04650492       0.00000000 </v>
     <v>       0.00000000       0.00000000       0.04650492 </v>
    </varray>
   </crystal>
   <varray name="positions" >
    <v>       0.68670121       0.62806761       0.61718173 </v>
    <v>       0.58207824       0.56962856       0.68329299 </v>
    <v>       0.68550397       0.49814266       0.64546484 </v>
    <v>       0.57730483       0.70253869       0.62462737 </v>
    <v>       0.47258233       0.64193883       0.67000173 </v>
    <v>       0.65479310       0.71256404       0.52399257 </v>
    <v>       0.38199955       0.72352654       0.63455572 </v>
    <v>       0.57057743       0.44233304       0.65199769 </v>
    <v>       0.46301337       0.51350714       0.66707111 </v>
    <v>       0.47462812       0.70427150       0.54202102 </v>
    <v>       0.70247898       0.53528276       0.52609384 </v>
    <v>       0.58026614       0.59376658       0.55264525 </v>
    <v>       0.67585936       0.36901148       0.65688023 </v>
    <v>       0.55864259       0.66976237       0.44788629 </v>
    <v>       0.35734653       0.59176982       0.62924738 </v>
    <v>       0.45410642       0.38839669       0.65545912 </v>
    <v>       0.67799643       0.62524548       0.43414411 </v>
    <v>       0.45356128       0.56837380       0.54800794 </v>
    <v>       0.34829151       0.67570008       0.52153860 </v>
    <v>       0.65473476       0.41302454       0.54277361 </v>
    <v>       0.58276869       0.49743586       0.47402287 </v>
    <v>       0.36728822       0.46468127       0.59156631 </v>
    <v>       0.72713920       0.54873127       0.34685395 </v>
    <v>       0.43419069       0.63395637       0.43505335 </v>
    <v>       0.33410386       0.55193304       0.49840353 </v>
    <v>       0.70323133       0.45209306       0.42994412 </v>
    <v>       0.53323167       0.36367150       0.54967002 </v>
    <v>       0.46047775       0.45404921       0.49158023 </v>
    <v>       0.52571550       0.56363783       0.37680475 </v>
    <v>       0.61911456       0.47975454       0.33852870 </v>
    <v>       0.39917063       0.34596291       0.54656305 </v>
    <v>       0.59160873       0.37942954       0.42705194 </v>
    <v>       0.33113841       0.42824853       0.46902031 </v>
    <v>       0.40190146       0.51735626       0.38991339 </v>
    <v>       0.49918898       0.43714269       0.34937123 </v>
    <v>       0.46962687       0.33727588       0.43241507 </v>
    <v>       0.34382293       0.30160527       0.44073673 </v>
    <v>       0.38008799       0.39245639       0.35389095 </v>
   </varray>
  </structure>
  <varray name="forces" >
   <v>       0.00722648      -0.08959233       0.18959371 </v>
   <v>      -0.05996831       0.08932370       0.03048008 </v>
   <v>       0.07455892      -0.03061443       0.12139411 </v>
   <v>      -0.05573048      -0.09172786       0.18252169 </v>
   <v>       0.11264160      -0.03565158      -0.09011465 </v>
   <v>      -0.15237848      -0.14823504      -0.03428558 </v>
   <v>       0.04486017       0.08756034      -0.02189445 </v>
   <v>      -0.04690318      -0.06045539      -0.03817703 </v>
   <v>       0.02129264       0.18617091       0.15551941 </v>
   <v>       0.04085148      -0.09002635       0.11636724 </v>
   <v>       0.10449529       0.18966865      -0.14074213 </v>
   <v>      -0.05542140       0.25146735       0.06653128 </v>
   <v>      -0.01993433      -0.02412878       0.09153772 </v>
   <v>      -0.19196632       0.07040914      -0.07904624 </v>
   <v>       0.01719960       0.09972329       0.00745025 </v>
   <v>       0.02569957      -0.13272180      -0.11237508 </v>
   <v>      -0.16908053      -0.26539629      -0.18251932 </v>
   <v>       0.30898245       0.16432736      -0.08313627 </v>
   <v>       0.02486141       0.03999204       0.14995687 </v>
   <v>       0.02558190       0.01418845       0.03979350 </v>
   <v>      -0.09003733      -0.00874265      -0.20926639 </v>
   <v>       0.10407691       0.09745944      -0.01804474 </v>
   <v>       0.10576660      -0.09510560       0.07361814 </v>
   <v>      -0.06412454       0.06040424      -0.08468621 </v>
   <v>       0.09895518      -0.06787359      -0.09765775 </v>
   <v>       0.05532560       0.05189057      -0.07134984 </v>
   <v>       0.04170433      -0.01827925      -0.02378028 </v>
   <v>       0.01435050       0.03261465      -0.11437073 </v>
   <v>      -0.06807150       0.09694924      -0.03787355 </v>
   <v>      -0.04994055       0.11261618       0.01706067 </v>
   <v>       0.03403955      -0.02742039      -0.00411384 </v>
   <v>      -0.04621679      -0.07644303       0.10663653 </v>
   <v>      -0.01855740      -0.07890569      -0.09198463 </v>
   <v>      -0.05300301      -0.02773487      -0.03485951 </v>
   <v>       0.09058846       0.08566622       0.23698907 </v>
   <v>      -0.05074823      -0.13772500       0.04450672 </v>
   <v>      -0.09474130      -0.14356089      -0.14262613 </v>
   <v>      -0.06623498      -0.08009095       0.08294737 </v>
  </varray>
  <varray name="stress" >
   <v>      -2.33467437      -0.07429565       0.26763645 </v>
   <v>      -0.07429565      -1.91248856       0.11624259 </v>
   <v>       0.26763646       0.11624258      -1.98366434 </v>
  </varray>
  <energy>
   <i name="e_fr_energy">    -79.73258609 </i>
   <i name="e_wo_entrp">    -79.73258609 </i>
   <i name="e_0_energy">      0.00000000 </i>
  </energy>
  <time name="totalsc">   22.39   24.35</time>
 </calculation>
 <calculation>
  <scstep>
   <time name="dav">    3.16    3.16</time>
   <time name="total">    3.46    3.47</time>
   <energy>
    <i name="alphaZ">    123.53156630 </i>
    <i name="ewald">  86693.91707738 </i>
    <i name="hartreedc">-124576.88002420 </i>
    <i name="XCdc">   -431.97130091 </i>
    <i name="pawpsdc">  41063.10150485 </i>
    <i name="pawaedc"> -39379.96936051 </i>
    <i name="eentropy">     -0.00000000 </i>
    <i name="bandstr">  -2984.96789403 </i>
    <i name="atom">  39413.54794328 </i>
    <i name="e_fr_energy">    -79.69048784 </i>
    <i name="e_wo_entrp">    -79.69048784 </i>
    <i name="e_0_energy">    -79.69048784 </i>
   </energy>
  </scstep>
  <scstep>
   <time name="dav">    3.21    3.22</time>
   <time name="total">    3.51    3.52</time>
   <energy>
    <i name="e_fr_energy">    -79.85824639 </i>
    <i name="e_wo_entrp">    -79.85824639 </i>
    <i name="e_0_energy">    -79.85824639 </i>
   </energy>
  </scstep>
  <scstep>
   <time name="dav">    3.38    3.38</time>
   <time name="total">    3.68    3.68</time>
   <energy>
    <i name="e_fr_energy">    -79.85614176 </i>
    <i name="e_wo_entrp">    -79.85614176 </i>
    <i name="e_0_energy">    -79.85614176 </i>
   </energy>
  </scstep>
  <scstep>
   <time name="dav">    3.14    3.14</time>
   <time name="total">    3.43    3.46</time>
   <energy>
    <i name="e_fr_energy">    -79.85177269 </i>
    <i name="e_wo_entrp">    -79.85177269 </i>
    <i name="e_0_energy">    -79.85177269 </i>
   </energy>
  </scstep>
  <scstep>
   <time name="dav">    3.36    3.36</time>
   <time name="total">    3.65    3.87</time>
   <energy>
    <i name="e_fr_energy">    -79.85188248 </i>
    <i name="e_wo_entrp">    -79.85188248 </i>
    <i name="e_0_energy">    -79.85188248 </i>
   </energy>
  </scstep>
  <scstep>
   <time name="dav">    2.38    2.39</time>
   <time name="total">    2.68    5.33</time>
   <energy>
    <i name="e_fr_energy">    -79.85178098 </i>
    <i name="e_wo_entrp">    -79.85178098 </i>
    <i name="e_0_energy">    -79.85178098 </i>
   </energy>
  </scstep>
  <scstep>
   <time name="dav">    2.35    2.35</time>
   <time name="total">    2.59    2.61</time>
   <energy>
    <i name="alphaZ">    123.53156630 </i>
    <i name="ewald">  86693.91707738 </i>
    <i name="hartreedc">-124582.53364576 </i>
    <i name="XCdc">   -431.86037578 </i>
    <i name="pawpsdc">  40980.65214373 </i>
    <i name="pawaedc"> -39296.05725264 </i>
    <i name="eentropy">      0.00000000 </i>
    <i name="bandstr">  -2981.04925608 </i>
    <i name="atom">  39413.54794328 </i>
    <i name="e_fr_energy">    -79.85179956 </i>
    <i name="e_wo_entrp">    -79.85179956 </i>
    <i name="e_0_energy">    -79.85179956 </i>
   </energy>
  </scstep>
  <structure>
   <crystal>
    <varray name="basis" >
     <v>      21.50310334       0.00000000       0.00000000 </v>
     <v>       0.00000000      21.50310334       0.00000000 </v>
     <v>       0.00000000       0.00000000      21.50310334 </v>
    </varray>
    <i name="volume">   9942.67917423 </i>
    <varray name="rec_basis" >
     <v>       0.04650492       0.00000000       0.00000000 </v>
     <v>       0.00000000       0.04650492       0.00000000 </v>
     <v>       0.00000000       0.00000000       0.04650492 </v>
    </varray>
   </crystal>
   <varray name="positions" >
    <v>       0.68685818       0.62815108       0.61892500 </v>
    <v>       0.58159725       0.57034637       0.68462235 </v>
    <v>       0.68616143       0.49771146       0.64673764 </v>
    <v>       0.57707871       0.70244276       0.62620164 </v>
    <v>       0.47379578       0.64164676       0.66952568 </v>
    <v>       0.65348067       0.71164799       0.52436050 </v>
    <v>       0.38190360       0.72464750       0.63458406 </v>
    <v>       0.57067557       0.44189978       0.65154104 </v>
    <v>       0.46294143       0.51536854       0.66899971 </v>
    <v>       0.47500636       0.70358418       0.54267852 </v>
    <v>       0.70397586       0.53634389       0.52496381 </v>
    <v>       0.58024493       0.59626086       0.55381610 </v>
    <v>       0.67609434       0.36812508       0.65790743 </v>
    <v>       0.55676038       0.67132361       0.44681052 </v>
    <v>       0.35716817       0.59301997       0.62970258 </v>
    <v>       0.45405975       0.38656096       0.65529268 </v>
    <v>       0.67703484       0.62347567       0.43234402 </v>
    <v>       0.45572566       0.56989443       0.54758301 </v>
    <v>       0.34831016       0.67653961       0.52275924 </v>
    <v>       0.65551461       0.41275996       0.54376289 </v>
    <v>       0.58220717       0.49641570       0.47133734 </v>
    <v>       0.36806869       0.46510846       0.59149138 </v>
    <v>       0.72852758       0.54818253       0.34693969 </v>
    <v>       0.43337819       0.63509283       0.43375161 </v>
    <v>       0.33452664       0.55114548       0.49720182 </v>
    <v>       0.70388989       0.45205482       0.42883168 </v>
    <v>       0.53389042       0.36324364       0.54991642 </v>
    <v>       0.46019845       0.45392192       0.49110768 </v>
    <v>       0.52492635       0.56451377       0.37594391 </v>
    <v>       0.61887715       0.48031521       0.33844932 </v>
    <v>       0.39932758       0.34570141       0.54640095 </v>
    <v>       0.59137441       0.37887222       0.42755511 </v>
    <v>       0.33082060       0.42744475       0.46830094 </v>
    <v>       0.40110141       0.51758039       0.38890139 </v>
    <v>       0.49988890       0.43780245       0.35109978 </v>
    <v>       0.46925524       0.33564054       0.43258474 </v>
    <v>       0.34245937       0.29979691       0.43907816 </v>
    <v>       0.37916792       0.39169013       0.35426331 </v>
   </varray>
  </structure>
  <varray name="forces" >
   <v>       0.00320955      -0.14830985       0.10848228 </v>
[...]
       <r>     0.3613     0.0000   243.0000 </r>
       <r>     0.4012     0.0000   243.0000 </r>
       <r>     0.4411     0.0000   243.0000 </r>
       <r>     0.4810     0.0000   244.0000 </r>
       <r>     0.5209     0.0000   245.0000 </r>
       <r>     0.5608     0.0000   245.0000 </r>
       <r>     0.6008     0.0000   246.0000 </r>
       <r>     0.6407     0.0000   247.0000 </r>
       <r>     0.6806     0.0000   247.0000 </r>
       <r>     0.7205     0.0000   248.0000 </r>
       <r>     0.7604     0.0000   248.0000 </r>
       <r>     0.8003     0.0000   249.0000 </r>
       <r>     0.8403     0.0000   250.0000 </r>
       <r>     0.8802     0.0000   250.0000 </r>
       <r>     0.9201     0.0000   252.0000 </r>
       <r>     0.9600     0.0000   252.0000 </r>
       <r>     0.9999     0.0000   254.0000 </r>
       <r>     1.0398     0.0000   255.0000 </r>
       <r>     1.0798     0.0000   256.0000 </r>
       <r>     1.1197     0.0000   257.0000 </r>
       <r>     1.1596     0.0000   259.0000 </r>
       <r>     1.1995     0.0000   260.0000 </r>
       <r>     1.2394     0.0000   262.0000 </r>
       <r>     1.2793     0.0000   264.0000 </r>
       <r>     1.3193     0.0000   266.0000 </r>
       <r>     1.3592     0.0000   267.0000 </r>
       <r>     1.3991     0.0000   269.0000 </r>
       <r>     1.4390     0.0000   271.0000 </r>
       <r>     1.4789     0.0000   271.0000 </r>
       <r>     1.5188     0.0000   272.0000 </r>
       <r>     1.5588     0.0000   272.0000 </r>
       <r>     1.5987     0.0000   272.0000 </r>
       <r>     1.6386     0.0000   272.0000 </r>
       <r>     1.6785     0.0000   272.0000 </r>
       <r>     1.7184     0.0000   272.0000 </r>
       <r>     1.7583     0.0000   272.0000 </r>
       <r>     1.7983     0.0000   272.0000 </r>
       <r>     1.8382     0.0000   272.0000 </r>
       <r>     1.8781     0.0000   272.0000 </r>
       <r>     1.9180     0.0000   272.0000 </r>
       <r>     1.9579     0.0000   272.0000 </r>
       <r>     1.9978     0.0000   272.0000 </r>
       <r>     2.0378     0.0000   272.0000 </r>
      </set>
      <set comment="spin 2">
       <r>    -9.9372     0.0000     0.0000 </r>
       <r>    -9.8973     0.0000     0.0000 </r>
       <r>    -9.8574     0.0000     0.0000 </r>
       <r>    -9.8175     0.0000     0.0000 </r>
       <r>    -9.7776     0.0000     0.0000 </r>
       <r>    -9.7377     0.0000     0.0000 </r>
       <r>    -9.6977     0.0000     0.0000 </r>
       <r>    -9.6578     0.0000     0.0000 </r>
       <r>    -9.6179     0.0000     0.0000 </r>
       <r>    -9.5780     0.0000     0.0000 </r>
       <r>    -9.5381     0.0000     0.0000 </r>
       <r>    -9.4982     0.0000     0.0000 </r>
       <r>    -9.4582     0.0000     0.0000 </r>
       <r>    -9.4183     0.0000     0.0000 </r>
       <r>    -9.3784     0.0000     1.0000 </r>
       <r>    -9.3385     0.0000     1.0000 </r>
       <r>    -9.2986     0.0000     1.0000 </r>
       <r>    -9.2587     0.0000     1.0000 </r>
       <r>    -9.2187     0.0000     1.0000 </r>
       <r>    -9.1788     0.0000     1.0000 </r>
       <r>    -9.1389     0.0000     1.0000 </r>
       <r>    -9.0990     0.0000     1.0000 </r>
       <r>    -9.0591     0.0000     1.0000 </r>
       <r>    -9.0192     0.0000     2.0000 </r>
       <r>    -8.9792     0.0000     2.0000 </r>
       <r>    -8.9393     0.0000     3.0000 </r>
       <r>    -8.8994     0.0000     3.0000 </r>
       <r>    -8.8595     0.0000     4.0000 </r>
       <r>    -8.8196     0.0000     6.0000 </r>
       <r>    -8.7797     0.0000     7.0000 </r>
       <r>    -8.7397     0.0000     8.0000 </r>
       <r>    -8.6998     0.0000    10.0000 </r>
       <r>    -8.6599     0.0000    12.0000 </r>
       <r>    -8.6200     0.0000    14.0000 </r>
       <r>    -8.5801     0.0000    18.0000 </r>
       <r>    -8.5402     0.0000    19.0000 </r>
       <r>    -8.5002    25.0508    21.9999 </r>
       <r>    -8.4603     0.0000    24.0000 </r>
       <r>    -8.4204     0.0000    26.0000 </r>
       <r>    -8.3805     0.0000    28.0000 </r>
       <r>    -8.3406     0.0000    30.0000 </r>
       <r>    -8.3007     0.0000    32.0000 </r>
       <r>    -8.2607     0.0000    35.0000 </r>
       <r>    -8.2208     0.0000    37.0000 </r>
       <r>    -8.1809     0.0000    39.0000 </r>
       <r>    -8.1410     0.0000    42.0000 </r>
       <r>    -8.1011     0.0000    45.0000 </r>
       <r>    -8.0612    25.0522    48.0000 </r>
       <r>    -8.0212     0.0000    50.0000 </r>
       <r>    -7.9813     0.0000    52.0000 </r>
       <r>    -7.9414     0.0000    54.0000 </r>
       <r>    -7.9015     0.0000    56.0000 </r>
       <r>    -7.8616     0.0000    58.0000 </r>
       <r>    -7.8217    25.0516    62.0000 </r>
       <r>    -7.7817     0.0000    64.0000 </r>
       <r>    -7.7418     0.0000    65.0000 </r>
       <r>    -7.7019     0.0000    68.0000 </r>
       <r>    -7.6620     0.0000    69.0000 </r>
       <r>    -7.6221     0.0000    73.0000 </r>
       <r>    -7.5822     0.0000    75.0000 </r>
       <r>    -7.5422     0.0000    77.0000 </r>
       <r>    -7.5023     0.0000    80.0000 </r>
       <r>    -7.4624     0.0000    82.0000 </r>
       <r>    -7.4225     0.0000    84.0000 </r>
       <r>    -7.3826     0.0000    85.0000 </r>
       <r>    -7.3427     0.0000    90.0000 </r>
       <r>    -7.3027     0.0000    92.0000 </r>
       <r>    -7.2628     0.0000    93.0000 </r>
       <r>    -7.2229     0.0000    96.0000 </r>
       <r>    -7.1830     0.0000    98.0000 </r>
       <r>    -7.1431     0.0000   101.0000 </r>
       <r>    -7.1032     0.0000   103.0000 </r>
       <r>    -7.0632    25.0522   106.0000 </r>
       <r>    -7.0233     0.0000   108.0000 </r>
       <r>    -6.9834     0.0000   112.0000 </r>
       <r>    -6.9435     0.0000   115.0000 </r>
       <r>    -6.9036     0.0000   118.0000 </r>
       <r>    -6.8637     0.0000   122.0000 </r>
       <r>    -6.8237     0.0000   124.0000 </r>
       <r>    -6.7838     0.0000   127.0000 </r>
       <r>    -6.7439     0.0000   131.0000 </r>
       <r>    -6.7040     0.0000   135.0000 </r>
       <r>    -6.6641     0.0000   139.0000 </r>
       <r>    -6.6242     0.0000   143.0000 </r>
       <r>    -6.5842     0.0000   147.0000 </r>
       <r>    -6.5443     0.0029   151.0001 </r>
       <r>    -6.5044     0.0000   155.0000 </r>
       <r>    -6.4645     0.0000   159.0000 </r>
       <r>    -6.4246     0.0000   162.0000 </r>
       <r>    -6.3847     0.0000   166.0000 </r>
       <r>    -6.3447     0.0000   170.0000 </r>
       <r>    -6.3048     0.0000   173.0000 </r>
       <r>    -6.2649     0.0000   177.0000 </r>
       <r>    -6.2250     0.0000   179.0000 </r>
       <r>    -6.1851     0.0000   182.0000 </r>
       <r>    -6.1452     0.0000   184.0000 </r>
       <r>    -6.1052     0.0000   186.0000 </r>
       <r>    -6.0653     0.0000   190.0000 </r>
       <r>    -6.0254     0.0000   191.0000 </r>
       <r>    -5.9855     0.0000   193.0000 </r>
       <r>    -5.9456     0.0000   194.0000 </r>
       <r>    -5.9057     0.0000   195.0000 </r>
       <r>    -5.8657     0.0000   195.0000 </r>
       <r>    -5.8258     0.0000   195.0000 </r>
       <r>    -5.7859     0.0000   195.0000 </r>
       <r>    -5.7460     0.0000   195.0000 </r>
       <r>    -5.7061     0.0000   197.0000 </r>
       <r>    -5.6662     0.0000   197.0000 </r>
       <r>    -5.6262     0.0000   197.0000 </r>
       <r>    -5.5863     0.0000   197.0000 </r>
       <r>    -5.5464     0.0000   198.0000 </r>
       <r>    -5.5065     0.0000   198.0000 </r>
       <r>    -5.4666     0.0000   198.0000 </r>
       <r>    -5.4267     0.0000   198.0000 </r>
       <r>    -5.3867     0.0000   198.0000 </r>
       <r>    -5.3468     0.0000   198.0000 </r>
       <r>    -5.3069     0.0000   199.0000 </r>
       <r>    -5.2670     0.0000   199.0000 </r>
       <r>    -5.2271     0.0000   199.0000 </r>
       <r>    -5.1872     0.0000   199.0000 </r>
       <r>    -5.1472     0.0000   199.0000 </r>
       <r>    -5.1073     0.0000   199.0000 </r>
       <r>    -5.0674     0.0000   199.0000 </r>
       <r>    -5.0275     0.0000   199.0000 </r>
       <r>    -4.9876     0.0000   199.0000 </r>
       <r>    -4.9477     0.0000   200.0000 </r>
       <r>    -4.9077     0.0000   200.0000 </r>
       <r>    -4.8678     0.0000   200.0000 </r>
       <r>    -4.8279     0.0000   200.0000 </r>
       <r>    -4.7880     0.0000   200.0000 </r>
       <r>    -4.7481     0.0000   200.0000 </r>
       <r>    -4.7082     0.0000   200.0000 </r>
       <r>    -4.6682     0.0000   200.0000 </r>
       <r>    -4.6283     0.0000   200.0000 </r>
       <r>    -4.5884     0.0000   200.0000 </r>
       <r>    -4.5485     0.0000   201.0000 </r>
       <r>    -4.5086     0.0000   201.0000 </r>
       <r>    -4.4687     0.0000   201.0000 </r>
       <r>    -4.4287     0.0000   201.0000 </r>
       <r>    -4.3888     0.0000   202.0000 </r>
       <r>    -4.3489     0.0000   202.0000 </r>
       <r>    -4.3090     0.0000   203.0000 </r>
       <r>    -4.2691     0.0000   203.0000 </r>
       <r>    -4.2292     0.0000   204.0000 </r>
       <r>    -4.1892     0.0000   204.0000 </r>
       <r>    -4.1493     0.0000   204.0000 </r>
       <r>    -4.1094     0.0000   205.0000 </r>
       <r>    -4.0695     0.0000   205.0000 </r>
       <r>    -4.0296     0.0000   205.0000 </r>
       <r>    -3.9897     0.0000   205.0000 </r>
       <r>    -3.9497     0.0000   205.0000 </r>
       <r>    -3.9098     0.0000   205.0000 </r>
       <r>    -3.8699     0.0000   205.0000 </r>
       <r>    -3.8300     0.0000   206.0000 </r>
       <r>    -3.7901     0.0000   206.0000 </r>
       <r>    -3.7502     0.0000   206.0000 </r>
       <r>    -3.7102     0.0000   207.0000 </r>
       <r>    -3.6703     0.0000   207.0000 </r>
       <r>    -3.6304     0.0000   208.0000 </r>
       <r>    -3.5905     0.0000   208.0000 </r>
       <r>    -3.5506     0.0000   208.0000 </r>
       <r>    -3.5107     0.0000   208.0000 </r>
       <r>    -3.4707     0.0000   208.0000 </r>
       <r>    -3.4308     0.0000   209.0000 </r>
       <r>    -3.3909     0.0000   209.0000 </r>
       <r>    -3.3510     0.0000   209.0000 </r>
       <r>    -3.3111     0.0000   209.0000 </r>
       <r>    -3.2712     0.0000   209.0000 </r>
       <r>    -3.2312     0.0000   209.0000 </r>
       <r>    -3.1913     0.0000   209.0000 </r>
       <r>    -3.1514     0.0000   209.0000 </r>
       <r>    -3.1115     0.0000   209.0000 </r>
       <r>    -3.0716     0.0000   209.0000 </r>
       <r>    -3.0317     0.0000   209.0000 </r>
       <r>    -2.9917     0.0000   209.0000 </r>
       <r>    -2.9518     0.0000   210.0000 </r>
       <r>    -2.9119     0.0000   210.0000 </r>
       <r>    -2.8720     0.0000   210.0000 </r>
       <r>    -2.8321     0.0000   211.0000 </r>
       <r>    -2.7922     0.0000   211.0000 </r>
       <r>    -2.7522     0.0000   211.0000 </r>
       <r>    -2.7123     0.0000   211.0000 </r>
       <r>    -2.6724     0.0000   211.0000 </r>
       <r>    -2.6325     0.0000   211.0000 </r>
       <r>    -2.5926     0.0000   212.0000 </r>
       <r>    -2.5527     0.0000   213.0000 </r>
       <r>    -2.5127     0.0000   214.0000 </r>
       <r>    -2.4728     0.0000   214.0000 </r>
       <r>    -2.4329    23.8389   214.9516 </r>
       <r>    -2.3930     0.0000   216.0000 </r>
       <r>    -2.3531     0.0000   216.0000 </r>
       <r>    -2.3132     0.0000   216.0000 </r>
       <r>    -2.2732     0.0000   216.0000 </r>
       <r>    -2.2333     0.0000   216.0000 </r>
       <r>    -2.1934     0.0000   217.0000 </r>
       <r>    -2.1535     0.0000   217.0000 </r>
       <r>    -2.1136    25.0522   219.0000 </r>
       <r>    -2.0737     0.0000   219.0000 </r>
       <r>    -2.0337     0.0000   219.0000 </r>
       <r>    -1.9938     0.0000   219.0000 </r>
       <r>    -1.9539     0.0000   219.0000 </r>
       <r>    -1.9140     0.0000   220.0000 </r>
       <r>    -1.8741     0.0000   221.0000 </r>
       <r>    -1.8342     0.0000   221.0000 </r>
       <r>    -1.7942     0.0000   221.0000 </r>
       <r>    -1.7543     0.0000   221.0000 </r>
       <r>    -1.7144     0.0000   221.0000 </r>
       <r>    -1.6745     0.0000   221.0000 </r>
       <r>    -1.6346     0.0000   221.0000 </r>
       <r>    -1.5947     0.0000   222.0000 </r>
       <r>    -1.5547     0.0000   222.0000 </r>
       <r>    -1.5148     0.0000   223.0000 </r>
       <r>    -1.4749     0.0000   224.0000 </r>
       <r>    -1.4350     0.0000   224.0000 </r>
       <r>    -1.3951     0.0000   224.0000 </r>
       <r>    -1.3552     0.0000   224.0000 </r>
       <r>    -1.3152     0.0000   224.0000 </r>
       <r>    -1.2753     0.0000   224.0000 </r>
       <r>    -1.2354     0.0000   224.0000 </r>
       <r>    -1.1955     0.0000   224.0000 </r>
       <r>    -1.1556     0.0000   224.0000 </r>
       <r>    -1.1157     0.0000   225.0000 </r>
       <r>    -1.0757     0.0000   225.0000 </r>
       <r>    -1.0358     0.0000   226.0000 </r>
       <r>    -0.9959     0.0000   226.0000 </r>
       <r>    -0.9560     0.0000   227.0000 </r>
       <r>    -0.9161     0.0000   227.0000 </r>
       <r>    -0.8762     0.0000   228.0000 </r>
       <r>    -0.8362     0.0000   229.0000 </r>
       <r>    -0.7963     0.0000   229.0000 </r>
       <r>    -0.7564     0.0000   229.0000 </r>
       <r>    -0.7165     0.0000   230.0000 </r>
       <r>    -0.6766     0.0000   231.0000 </r>
       <r>    -0.6367     0.0000   232.0000 </r>
       <r>    -0.5967     0.0000   233.0000 </r>
       <r>    -0.5568     0.0000   233.0000 </r>
       <r>    -0.5169     0.0000   233.0000 </r>
       <r>    -0.4770     0.0000   233.0000 </r>
       <r>    -0.4371     0.0000   234.0000 </r>
       <r>    -0.3972     0.0000   235.0000 </r>
       <r>    -0.3572    25.0522   237.0000 </r>
       <r>    -0.3173     0.0000   237.0000 </r>
       <r>    -0.2774     0.0000   237.0000 </r>
       <r>    -0.2375     0.0000   237.0000 </r>
       <r>    -0.1976     0.0000   237.0000 </r>
       <r>    -0.1577     0.0000   237.0000 </r>
       <r>    -0.1177     0.0000   237.0000 </r>
       <r>    -0.0778     0.0000   237.0000 </r>
       <r>    -0.0379     0.0000   238.0000 </r>
       <r>     0.0020     0.0000   239.0000 </r>
       <r>     0.0419     0.0000   239.0000 </r>
       <r>     0.0818     0.0000   240.0000 </r>
       <r>     0.1218     0.0000   240.0000 </r>
       <r>     0.1617     0.0000   241.0000 </r>
       <r>     0.2016     0.0000   241.0000 </r>
       <r>     0.2415     0.0000   242.0000 </r>
       <r>     0.2814     0.0000   242.0000 </r>
       <r>     0.3213     0.0000   242.0000 </r>
       <r>     0.3613     0.0000   243.0000 </r>
       <r>     0.4012     0.0000   243.0000 </r>
       <r>     0.4411     0.0000   243.0000 </r>
       <r>     0.4810     0.0000   244.0000 </r>
       <r>     0.5209     0.0000   245.0000 </r>
       <r>     0.5608     0.0000   245.0000 </r>
       <r>     0.6008     0.0000   246.0000 </r>
       <r>     0.6407     0.0000   247.0000 </r>
       <r>     0.6806     0.0000   247.0000 </r>
       <r>     0.7205     0.0000   248.0000 </r>
       <r>     0.7604     0.0000   248.0000 </r>
       <r>     0.8003     0.0000   249.0000 </r>
       <r>     0.8403     0.0000   250.0000 </r>
       <r>     0.8802     0.0000   250.0000 </r>
       <r>     0.9201     0.0000   252.0000 </r>
       <r>     0.9600     0.0000   252.0000 </r>
       <r>     0.9999     0.0000   254.0000 </r>
       <r>     1.0398     0.0000   255.0000 </r>
       <r>     1.0798     0.0000   256.0000 </r>
       <r>     1.1197     0.0000   257.0000 </r>
       <r>     1.1596     0.0000   259.0000 </r>
       <r>     1.1995     0.0000   260.0000 </r>
       <r>     1.2394     0.0000   262.0000 </r>
       <r>     1.2793     0.0000   264.0000 </r>
       <r>     1.3193     0.0000   266.0000 </r>
       <r>     1.3592     0.0000   267.0000 </r>
       <r>     1.3991     0.0000   269.0000 </r>
       <r>     1.4390     0.0000   271.0000 </r>
       <r>     1.4789     0.0000   271.0000 </r>
       <r>     1.5188     0.0000   272.0000 </r>
       <r>     1.5588     0.0000   272.0000 </r>
       <r>     1.5987     0.0000   272.0000 </r>
       <r>     1.6386     0.0000   272.0000 </r>
       <r>     1.6785     0.0000   272.0000 </r>
       <r>     1.7184     0.0000   272.0000 </r>
       <r>     1.7583     0.0000   272.0000 </r>
       <r>     1.7983     0.0000   272.0000 </r>
       <r>     1.8382     0.0000   272.0000 </r>
       <r>     1.8781     0.0000   272.0000 </r>
       <r>     1.9180     0.0000   272.0000 </r>
       <r>     1.9579     0.0000   272.0000 </r>
       <r>     1.9978     0.0000   272.0000 </r>
       <r>     2.0378     0.0000   272.0000 </r>
      </set>
     </set>
    </array>
   </total>
  </dos>
 </calculation>
 <structure name="finalpos" >
  <crystal>
   <varray name="basis" >
    <v>      21.50310334       0.00000000       0.00000000 </v>
    <v>       0.00000000      21.50310334       0.00000000 </v>
    <v>       0.00000000       0.00000000      21.50310334 </v>
   </varray>
   <i name="volume">   9942.67917423 </i>
   <varray name="rec_basis" >
    <v>       0.04650492       0.00000000       0.00000000 </v>
    <v>       0.00000000       0.04650492       0.00000000 </v>
    <v>       0.00000000       0.00000000       0.04650492 </v>
   </varray>
  </crystal>
  <varray name="positions" >
   <v>       0.69127351       0.62134122       0.62018537 </v>
   <v>       0.58693016       0.56856875       0.68039594 </v>
   <v>       0.69063400       0.49536459       0.64000166 </v>
   <v>       0.58667145       0.70250262       0.61759094 </v>
   <v>       0.48263226       0.64228443       0.66869189 </v>
   <v>       0.66713828       0.68841751       0.51078538 </v>
   <v>       0.38369451       0.72200128       0.64303720 </v>
   <v>       0.57161537       0.44163952       0.65264861 </v>
   <v>       0.46526994       0.51364744       0.67590440 </v>
   <v>       0.47197639       0.69861766       0.55023516 </v>
   <v>       0.70242496       0.54279612       0.51356222 </v>
   <v>       0.58475180       0.59692682       0.54708951 </v>
   <v>       0.67603894       0.36761280       0.65722150 </v>
   <v>       0.54876729       0.68766282       0.44917601 </v>
   <v>       0.36935003       0.59218435       0.62707686 </v>
   <v>       0.45546365       0.38609625       0.65352846 </v>
   <v>       0.64117152       0.60720004       0.41363158 </v>
   <v>       0.46639456       0.55725913       0.54759546 </v>
   <v>       0.34486710       0.67532081       0.52860825 </v>
   <v>       0.65068699       0.41747511       0.54445417 </v>
   <v>       0.56752086       0.49501903       0.47288937 </v>
   <v>       0.37376801       0.46584863       0.59141713 </v>
   <v>       0.74987794       0.54843458       0.38746001 </v>
   <v>       0.42894185       0.63936284       0.43887056 </v>
   <v>       0.34515090       0.54932554       0.49299935 </v>
   <v>       0.70312837       0.44042945       0.43205568 </v>
   <v>       0.52706826       0.37432004       0.54464237 </v>
   <v>       0.43947311       0.45288160       0.47438028 </v>
   <v>       0.52105848       0.57896931       0.37226689 </v>
   <v>       0.62309363       0.49663545       0.34865929 </v>
   <v>       0.39888111       0.34430161       0.54360484 </v>
   <v>       0.59191956       0.37592170       0.42975362 </v>
   <v>       0.31279193       0.42239999       0.47842997 </v>
   <v>       0.39947518       0.53061478       0.37329609 </v>
   <v>       0.50349544       0.44595896       0.35926966 </v>
   <v>       0.47012592       0.33162449       0.43117670 </v>
   <v>       0.34329640       0.29776836       0.43680331 </v>
   <v>       0.37945397       0.40153800       0.36687795 </v>
  </varray>
 </structure>
</modeling>
