 vasp.5.3.5 31Mar14 (build Feb 01 2018 12:10:03) gamma-only                     
  
 executed on             LinuxIFC date 2019.03.21  20:25:36
 running on   32 total cores
 distrk:  each k-point on   32 cores,    1 groups
 distr:  one band on NCORES_PER_BAND=   8 cores,    4 groups


--------------------------------------------------------------------------------------------------------


 INCAR:
 POTCAR:    PAW_PBE Ag 02Apr2005                  
 POTCAR:    PAW_PBE Ag 02Apr2005                  
   VRHFIN =Ag : s1 d10                                                          
   LEXCH  = PE                                                                  
   EATOM  =  1037.2675 eV,   76.2370 Ry                                         
                                                                                
   TITEL  = PAW_PBE Ag 02Apr2005                                                
   LULTRA =        F    use ultrasoft PP ?                                      
   IUNSCR =        1    unscreen: 0-lin 1-nonlin 2-no                           
   RPACOR =    2.000    partial core radius                                     
   POMASS =  107.868; ZVAL   =   11.000    mass and valenz                      
   RCORE  =    2.500    outmost cutoff radius                                   
   RWIGS  =    2.840; RWIGS  =    1.503    wigner-seitz radius (au A)           
   ENMAX  =  249.844; ENMIN  =  187.383 eV                                      
   ICORE  =        3    local potential                                         
   LCOR   =        T    correct aug charges                                     
   LPAW   =        T    paw PP                                                  
   EAUG   =  412.496                                                            
   DEXC   =    0.000                                                            
   RMAX   =    2.560    core radius for proj-oper                               
   RAUG   =    1.300    factor for augmentation sphere                          
   RDEP   =    2.576    radius for radial grids                                 
   RDEPT  =    2.072    core radius for aug-charge                              
                                                                                
   Atomic configuration                                                         
   12 entries                                                                   
     n  l   j            E        occ.                                          
     1  0  0.50    -25324.9161   2.0000                                         
     2  0  0.50     -3728.5341   2.0000                                         
     2  1  1.50     -3344.0404   6.0000                                         
     3  0  0.50      -683.5581   2.0000                                         
     3  1  1.50      -557.3225   6.0000                                         
     3  2  2.50      -358.3853  10.0000                                         
     4  0  0.50       -95.0341   2.0000                                         
     4  1  1.50       -58.5511   6.0000                                         
     4  2  2.50        -7.4440  10.0000                                         
     5  0  0.50        -4.4045   1.0000                                         
     5  1  0.50        -1.3606   0.0000                                         
     4  3  2.50        -1.3606   0.0000                                         
   Description                                                                  
     l       E           TYP  RCUT    TYP  RCUT                                 
     2     -7.4439781     23  2.400                                             
     2     -8.8045607     23  2.400                                             
     0     -4.4044681     23  2.400                                             
     0      1.9520038     23  2.400                                             
     1     -1.3605826     23  2.500                                             
     1     27.2116520     23  2.500                                             
     3     -4.0817478     23  2.400                                             
  local pseudopotential read in
  partial core-charges read in
  partial kinetic energy density read in
  atomic valenz-charges read in
  non local Contribution for L=           2  read in
    real space projection operators read in
  non local Contribution for L=           2  read in
    real space projection operators read in
  non local Contribution for L=           0  read in
    real space projection operators read in
  non local Contribution for L=           0  read in
    real space projection operators read in
  non local Contribution for L=           1  read in
    real space projection operators read in
  non local Contribution for L=           1  read in
    real space projection operators read in
    PAW grid and wavefunctions read in
 
   number of l-projection  operators is LMAX  =           6
   number of lm-projection operators is LMMAX =          18
 

 ----------------------------------------------------------------------------- 
|                                                                             |
|  ADVICE TO THIS USER RUNNING 'VASP/VAMP'   (HEAR YOUR MASTER'S VOICE ...):  |
|                                                                             |
|      You have a (more or less) 'large supercell' and for larger cells       |
|      it might be more efficient to use real space projection opertators     |
|      So try LREAL= Auto  in the INCAR   file.                               |
|      Mind: At the moment your POTCAR file does not contain real space       |
|       projectors, and has to be modified,  BUT if you                       |
|      want to do an extremely  accurate calculation you might also keep the  |
|      reciprocal projection scheme          (i.e. LREAL=.FALSE.)             |
|                                                                             |
 ----------------------------------------------------------------------------- 

  PAW_PBE Ag 02Apr2005                  :
 energy of atom  1       EATOM=-1037.2675
 kinetic energy error for atom=    0.0689 (will be added to EATOM!!)
 
 
 POSCAR: Ta17, -166.79785602 <s> Ag </s>         
  positions in direct lattice
  No initial velocities read in
 exchange correlation table for  LEXCH =        8
   RHO(1)=    0.500       N(1)  =     2000
   RHO(2)=  100.500       N(2)  =     4000
 


--------------------------------------------------------------------------------------------------------


 ion  position               nearest neighbor table
   1  0.588  0.463  0.355-   3 2.57   7 2.59   4 2.77   2 2.87   6 2.93   9 2.99
   2  0.467  0.556  0.357-   4 2.54   5 2.57   1 2.87   3 2.87   9 2.94   8 3.13
   3  0.466  0.403  0.369-   1 2.57  10 2.61   5 2.75   2 2.87   6 2.94   9 2.99
   4  0.584  0.601  0.408-   2 2.54   1 2.77   7 2.78  11 2.79   9 2.89   8 3.11
   5  0.371  0.494  0.433-   2 2.57   3 2.75  10 2.75  12 2.78   9 2.88   8 3.16
   6  0.572  0.369  0.479-   9 2.59  15 2.84  13 2.85   1 2.93   3 2.94  10 2.96   7 2.96
   7  0.669  0.493  0.464-   1 2.59  13 2.67   4 2.78  11 2.88   6 2.96   9 2.97
   8  0.455  0.618  0.511-   9 2.60  14 2.81  16 2.82  11 2.92  12 2.93   4 3.11   2 3.13   5 3.16
                            17 3.20
   9  0.513  0.493  0.492-   6 2.59   8 2.60  12 2.83  11 2.84   5 2.88   4 2.89  15 2.93  13 2.94
                             2 2.94   7 2.97  10 2.97   1 2.99   3 2.99  17 3.06
  10  0.416  0.368  0.494-   3 2.61  15 2.67   5 2.75  12 2.89   6 2.96   9 2.97
  11  0.603  0.597  0.555-  17 2.73  14 2.78   4 2.79  13 2.83   9 2.84   7 2.88   8 2.92
  12  0.390  0.493  0.581-  17 2.73  16 2.77   5 2.78   9 2.83  15 2.84  10 2.89   8 2.93
  13  0.626  0.453  0.593-   7 2.67  15 2.71  11 2.83   6 2.85  17 2.85   9 2.94
  14  0.511  0.681  0.635-  16 2.43  17 2.75  11 2.78   8 2.81
  15  0.497  0.390  0.609-  10 2.67  13 2.71  12 2.84   6 2.84  17 2.85   9 2.93
  16  0.395  0.624  0.649-  14 2.43  17 2.74  12 2.77   8 2.82
  17  0.511  0.535  0.650-  12 2.73  11 2.73  16 2.74  14 2.75  13 2.85  15 2.85   9 3.06   8 3.20

 
  LATTYP: Found a simple cubic cell.
 ALAT       =    18.7591815500
  
  Lattice vectors:
  
 A1 = (  18.7591815500,   0.0000000000,   0.0000000000)
 A2 = (   0.0000000000,  18.7591815500,   0.0000000000)
 A3 = (   0.0000000000,   0.0000000000,  18.7591815500)


Analysis of symmetry for initial positions (statically):
=====================================================================
 Subroutine PRICEL returns:
 Original cell was already a primitive cell.
 

 Routine SETGRP: Setting up the symmetry group for a 
 simple cubic supercell.


 Subroutine GETGRP returns: Found  1 space group operations
 (whereof  1 operations were pure point group operations)
 out of a pool of 48 trial point group operations.


The static configuration has the point symmetry C_1 .


Analysis of symmetry for dynamics (positions and initial velocities):
=====================================================================
 Subroutine PRICEL returns:
 Original cell was already a primitive cell.
 

 Routine SETGRP: Setting up the symmetry group for a 
 simple cubic supercell.


 Subroutine GETGRP returns: Found  1 space group operations
 (whereof  1 operations were pure point group operations)
 out of a pool of 48 trial point group operations.


The dynamic configuration has the point symmetry C_1 .


Analysis of magnetic symmetry:
=====================================================================
 Subroutine PRICEL returns:
 Original cell was already a primitive cell.
 

 Subroutine MAGSYM returns: Found  1 space group operations
 (whereof  1 operations were pure point group operations)
 out of a pool of  1 trial space group operations
 (whereof  1 operations were pure point group operations)
 and found also     1 'primitive' translations


The magnetic configuration has the point symmetry C_1 .
 
 
 KPOINTS: Gamma-point only                        
  k-points in reciprocal lattice
Space group operators:
 irot       det(A)        alpha          n_x          n_y          n_z        tau_x        tau_y        tau_z
    1     1.000000     0.000000     1.000000     0.000000     0.000000     0.000000     0.000000     0.000000


--------------------------------------------------------------------------------------------------------




 Dimension of arrays:
   k-points           NKPTS =      1   k-points in BZ     NKDIM =      1   number of bands    NBANDS=    124
   number of dos      NEDOS =    301   number of ions     NIONS =     17
   non local maximal  LDIM  =      6   non local SUM 2l+1 LMDIM =     18
   total plane-waves  NPLWV = 512000
   max r-space proj   IRMAX =      1   max aug-charges    IRDMAX=   4012
   dimension x,y,z NGX =    80 NGY =   80 NGZ =   80
   dimension x,y,z NGXF=   160 NGYF=  160 NGZF=  160
   support grid    NGXF=   160 NGYF=  160 NGZF=  160
   ions per type =              17
 NGX,Y,Z   is equivalent  to a cutoff of   7.09,  7.09,  7.09 a.u.
 NGXF,Y,Z  is equivalent  to a cutoff of  14.18, 14.18, 14.18 a.u.


 I would recommend the setting:
   dimension x,y,z NGX =    73 NGY =   73 NGZ =   73
 SYSTEM =  unknown system                          
 POSCAR =  Ta17, -166.79785602 <s> Ag </s>         

 Startparameter for this run:
   NWRITE =      2    write-flag & timer
   PREC   = normal    normal or accurate (medium, high low for compatibility)
   ISTART =      0    job   : 0-new  1-cont  2-samecut
   ICHARG =      2    charge: 1-file 2-atom 10-const
   ISPIN  =      2    spin polarized calculation?
   LNONCOLLINEAR =      F non collinear calculations
   LSORBIT =      F    spin-orbit coupling
   INIWAV =      1    electr: 0-lowe 1-rand  2-diag
   LASPH  =      F    aspherical Exc in radial PAW
   METAGGA=      F    non-selfconsistent MetaGGA calc.

 Electronic Relaxation 1
   ENCUT  =  249.8 eV  18.36 Ry    4.29 a.u.  24.18 24.18 24.18*2*pi/ulx,y,z
   ENINI  =  249.8     initial cutoff
   ENAUG  =  412.5 eV  augmentation charge cutoff
   NELM   =     60;   NELMIN=  2; NELMDL= -5     # of ELM steps 
   EDIFF  = 0.1E-03   stopping-criterion for ELM
   LREAL  =      F    real-space projection
   NLSPLINE    = F    spline interpolate recip. space projectors
   LCOMPAT=      F    compatible to vasp.4.4
   GGA_COMPAT  = T    GGA compatible to vasp.4.4-vasp.4.6
   LMAXPAW     = -100 max onsite density
   LMAXMIX     =    2 max onsite mixed and CHGCAR
   VOSKOWN=      0    Vosko Wilk Nusair interpolation
   ROPT   =    0.00000
 Ionic relaxation
   EDIFFG = 0.1E-02   stopping-criterion for IOM
   NSW    =   1000    number of steps for IOM
   NBLOCK =      1;   KBLOCK =   1000    inner block; outer block 
   IBRION =      2    ionic relax: 0-MD 1-quasi-New 2-CG
   NFREE  =      1    steps in history (QN), initial steepest desc. (CG)
   ISIF   =      2    stress and relaxation
   IWAVPR =     11    prediction:  0-non 1-charg 2-wave 3-comb
   ISYM   =      2    0-nonsym 1-usesym 2-fastsym
   LCORR  =      T    Harris-Foulkes like correction to forces

   POTIM  = 0.1000    time-step for ionic-motion
   TEIN   =    0.0    initial temperature
   TEBEG  =    0.0;   TEEND  =   0.0 temperature during run
   SMASS  =  -3.00    Nose mass-parameter (am)
   estimated Nose-frequenzy (Omega)   =  0.10E-29 period in steps =****** mass=  -0.804E-26a.u.
   SCALEE = 1.0000    scale energy and forces
   NPACO  =    256;   APACO  = 16.0  distance and # of slots for P.C.
   PSTRESS=    0.0 pullay stress

  Mass of Ions in am
   POMASS = 107.87
  Ionic Valenz
   ZVAL   =  11.00
  Atomic Wigner-Seitz radii
   RWIGS  =  -1.00
  virtual crystal weights 
   VCA    =   1.00
   NELECT =     187.0000    total number of electrons
   NUPDOWN=      -1.0000    fix difference up-down

 DOS related values:
   EMIN   =  10.00;   EMAX   =-10.00  energy-range for DOS
   EFERMI =   0.00
   ISMEAR =     0;   SIGMA  =   0.00  broadening in eV -4-tet -1-fermi 0-gaus

 Electronic relaxation 2 (details)
   IALGO  =     38    algorithm
   LDIAG  =      T    sub-space diagonalisation (order eigenvalues)
   LSUBROT=      F    optimize rotation matrix (better conditioning)
   TURBO    =      0    0=normal 1=particle mesh
   IRESTART =      0    0=no restart 2=restart with 2 vectors
   NREBOOT  =      0    no. of reboots
   NMIN     =      0    reboot dimension
   EREF     =   0.00    reference energy to select bands
   IMIX   =      4    mixing-type and parameters
     AMIX     =   0.40;   BMIX     =  1.00
     AMIX_MAG =   1.60;   BMIX_MAG =  1.00
     AMIN     =   0.10
     WC   =   100.;   INIMIX=   1;  MIXPRE=   1;  MAXMIX= -45

 Intra band minimization:
   WEIMIN = 0.0010     energy-eigenvalue tresh-hold
   EBREAK =  0.20E-06  absolut break condition
   DEPER  =   0.30     relativ break condition  

   TIME   =   0.40     timestep for ELM

  volume/ion in A,a.u.               =     388.32      2620.53
  Fermi-wavevector in a.u.,A,eV,Ry     =   0.499047  0.943062  3.388503  0.249048
  Thomas-Fermi vector in A             =   1.506346
 
 Write flags
   LWAVE  =      F    write WAVECAR
   LCHARG =      F    write CHGCAR
   LVTOT  =      F    write LOCPOT, total local potential
   LVHAR  =      F    write LOCPOT, Hartree potential only
   LELF   =      F    write electronic localiz. function (ELF)
   LORBIT =      0    0 simple, 1 ext, 2 COOP (PROOUT)


 Dipole corrections
   LMONO  =      F    monopole corrections only (constant potential shift)
   LDIPOL =      F    correct potential (dipole corrections)
   IDIPOL =      0    1-x, 2-y, 3-z, 4-all directions 
   EPSILON=  1.0000000 bulk dielectric constant

 Exchange correlation treatment:
   GGA     =    PE    GGA type
   LEXCH   =     8    internal setting for exchange type
   VOSKOWN=      0    Vosko Wilk Nusair interpolation
   LHFCALC =     F    Hartree Fock is set to
   LHFONE  =     F    Hartree Fock one center treatment
   AEXX    =    0.0000 exact exchange contribution

 Linear response parameters
   LEPSILON=     F    determine dielectric tensor
   LRPA    =     F    only Hartree local field effects (RPA)
   LNABLA  =     F    use nabla operator in PAW spheres
   LVEL    =     F    velocity operator in full k-point grid
   LINTERFAST=   F  fast interpolation
   KINTER  =     0    interpolate to denser k-point grid
   CSHIFT  =0.1000    complex shift for real part using Kramers Kronig
   OMEGAMAX=  -1.0    maximum frequency
   DEG_THRESHOLD= 0.2000000E-02 threshold for treating states as degnerate
   RTIME   =    0.100 relaxation time in fs

 Orbital magnetization related:
   ORBITALMAG=     F  switch on orbital magnetization
   LCHIMAG   =     F  perturbation theory with respect to B field
   DQ        =  0.001000  dq finite difference perturbation B field



--------------------------------------------------------------------------------------------------------


 conjugate gradient relaxation of ions
 charge density and potential will be updated during run
 spin polarized calculation
 Variant of blocked Davidson
 Davidson routine will perform the subspace rotation
 perform sub-space diagonalisation
    after iterative eigenvector-optimisation
 modified Broyden-mixing scheme, WC =      100.0
 initial mixing is a Kerker type mixing with AMIX =  0.4000 and BMIX =      1.0000
 Hartree-type preconditioning will be used
 using additional bands           30
 reciprocal scheme for non local part
 use partial core corrections
 calculate Harris-corrections to forces 
   (improved forces if not selfconsistent)
 use gradient corrections 
 use of overlap-Matrix (Vanderbilt PP)
 Gauss-broadening in eV      SIGMA  =   0.00


--------------------------------------------------------------------------------------------------------


  energy-cutoff  :      249.84
  volume of cell :     6601.49
      direct lattice vectors                 reciprocal lattice vectors
    18.759181550  0.000000000  0.000000000     0.053307230  0.000000000  0.000000000
     0.000000000 18.759181550  0.000000000     0.000000000  0.053307230  0.000000000
     0.000000000  0.000000000 18.759181550     0.000000000  0.000000000  0.053307230

  length of vectors
    18.759181550 18.759181550 18.759181550     0.053307230  0.053307230  0.053307230


 
 k-points in units of 2pi/SCALE and weight: Gamma-point only                        
   0.00000000  0.00000000  0.00000000       1.000
 
 k-points in reciprocal lattice and weights: Gamma-point only                        
   0.00000000  0.00000000  0.00000000       1.000
 
 position of ions in fractional coordinates (direct lattice) 
   0.58846816  0.46330587  0.35505043
   0.46660214  0.55576302  0.35658948
   0.46629955  0.40325338  0.36910385
   0.58360277  0.60110438  0.40799960
   0.37115271  0.49427617  0.43343796
   0.57241078  0.36918295  0.47891601
   0.66870589  0.49323431  0.46359613
   0.45495903  0.61773037  0.51132785
   0.51301045  0.49315377  0.49243058
   0.41557705  0.36828752  0.49387148
   0.60318091  0.59735382  0.55518735
   0.39031963  0.49337374  0.58061244
   0.62585357  0.45333555  0.59325003
   0.51051914  0.68128080  0.63500954
   0.49710506  0.38994805  0.60860013
   0.39497229  0.62408243  0.64913956
   0.51134033  0.53541331  0.64995701
 
 position of ions in cartesian coordinates  (Angst):
  11.03918107  8.69123900  6.66045541
   8.75307423 10.42565946  6.68932684
   8.74739787  7.56470343  6.92408621
  10.94791025 11.27622617  7.65373863
   6.96252102  9.27221638  8.13094134
  10.73795777  6.92556990  8.98407247
  12.54437521  9.25267206  8.69668405
   8.53465907 11.58811616  9.59209198
   9.62365611  9.25116107  9.23759458
   7.79588532  6.90877253  9.26462480
  11.31518014 11.20586870 10.41486036
   7.32207679  9.25528761 10.89181409
  11.74050076  8.50420394 11.12888510
   9.57692120 12.78027027 11.91225927
   9.32528400  7.31510622 11.41684034
   7.40935691 11.70727556 12.17732692
   9.59232617 10.04391543 12.19266152
 


--------------------------------------------------------------------------------------------------------


 use parallel FFT for wavefunctions z direction half grid
 k-point  1 :   0.0000 0.0000 0.0000  plane waves:   29543

 maximum and minimum number of plane-waves per node :      3701     3687

 maximum number of plane-waves:     29543
 maximum index in each direction: 
   IXMAX=   24   IYMAX=   24   IZMAX=   24
   IXMIN=  -24   IYMIN=  -24   IZMIN=    0

 WARNING: aliasing errors must be expected set NGX to  98 to avoid them
 WARNING: aliasing errors must be expected set NGY to  98 to avoid them
 WARNING: aliasing errors must be expected set NGZ to  98 to avoid them
 aliasing errors are usually negligible using standard VASP settings
 and one can safely disregard these warnings

 parallel 3D FFT for wavefunctions:
    minimum data exchange during FFTs selected (reduces bandwidth)
 parallel 3D FFT for charge:
    minimum data exchange during FFTs selected (reduces bandwidth)


 total amount of memory used by VASP on root node    55478. kBytes
========================================================================

   base      :      30000. kBytes
   nonl-proj :       1534. kBytes
   fftplans  :       5761. kBytes
   grid      :      14451. kBytes
   one-center:         46. kBytes
   wavefun   :       3686. kBytes
 
     INWAV:  cpu time    0.00: real time    0.00
 Broyden mixing: mesh for mixing (old mesh)
   NGX = 49   NGY = 49   NGZ = 49
  (NGX  =160   NGY  =160   NGZ  =160)
  gives a total of 117649 points

 initial charge density was supplied:
 charge density of overlapping atoms calculated
 number of electron     187.0000000 magnetization      17.0000000
 keeping initial charge density in first step


--------------------------------------------------------------------------------------------------------


 Maximum index for augmentation-charges          289 (set IRDMAX)


--------------------------------------------------------------------------------------------------------


 First call to EWALD:  gamma=   0.094
 Maximum number of real-space cells 3x 3x 3
 Maximum number of reciprocal cells 3x 3x 3

 FEWALD executed in parallel
    FEWALD:  cpu time    0.00: real time    0.00


----------------------------------------- Iteration    1(   1)  ---------------------------------------


    POTLOK:  cpu time    0.23: real time    0.23
    SETDIJ:  cpu time    0.01: real time    0.01
     EDDAV:  cpu time    1.22: real time    1.22
       DOS:  cpu time    0.00: real time    0.00
    --------------------------------------------
      LOOP:  cpu time    1.46: real time    1.49

 eigenvalue-minimisations  :   496
 total energy-change (2. order) : 0.1633242E+04  (-0.3373433E+04)
 number of electron     187.0000000 magnetization      17.0000000
 augmentation part      187.0000000 magnetization      17.0000000

 Free energy of the ion-electron system (eV)
  ---------------------------------------------------
  alpha Z        PSCENC =        37.23662954
  Ewald energy   TEWEN  =     25724.15450037
  -Hartree energ DENC   =    -42611.11095661
  -exchange      EXHF   =         0.00000000
  -V(xc)+E(xc)   XCENC  =      -186.11284976
  PAW double counting   =     17057.32702718   -16273.49835094
  entropy T*S    EENTRO =         0.00000000
  eigenvalues    EBANDS =       252.86958979
  atomic energy  EATOM  =     17632.37671147
  ---------------------------------------------------
  free energy    TOTEN  =      1633.24230104 eV

  energy without entropy =     1633.24230104  energy(sigma->0) =     1633.24230104


--------------------------------------------------------------------------------------------------------




----------------------------------------- Iteration    1(   2)  ---------------------------------------


     EDDAV:  cpu time    1.90: real time    1.90
       DOS:  cpu time    0.00: real time    0.00
    --------------------------------------------
      LOOP:  cpu time    1.90: real time    1.91

 eigenvalue-minimisations  :   864
 total energy-change (2. order) :-0.1254785E+04  (-0.1117528E+04)
 number of electron     187.0000000 magnetization      17.0000000
 augmentation part      187.0000000 magnetization      17.0000000

 Free energy of the ion-electron system (eV)
  ---------------------------------------------------
  alpha Z        PSCENC =        37.23662954
  Ewald energy   TEWEN  =     25724.15450037
  -Hartree energ DENC   =    -42611.11095661
  -exchange      EXHF   =         0.00000000
  -V(xc)+E(xc)   XCENC  =      -186.11284976
  PAW double counting   =     17057.32702718   -16273.49835094
  entropy T*S    EENTRO =         0.00000000
  eigenvalues    EBANDS =     -1001.91503628
  atomic energy  EATOM  =     17632.37671147
  ---------------------------------------------------
  free energy    TOTEN  =       378.45767497 eV

  energy without entropy =      378.45767497  energy(sigma->0) =      378.45767497


--------------------------------------------------------------------------------------------------------




----------------------------------------- Iteration    1(   3)  ---------------------------------------


     EDDAV:  cpu time    1.56: real time    1.56
       DOS:  cpu time    0.00: real time    0.00
    --------------------------------------------
      LOOP:  cpu time    1.56: real time    1.57

 eigenvalue-minimisations  :   672
 total energy-change (2. order) :-0.3909527E+03  (-0.3614272E+03)
 number of electron     187.0000000 magnetization      17.0000000
 augmentation part      187.0000000 magnetization      17.0000000

 Free energy of the ion-electron system (eV)
  ---------------------------------------------------
  alpha Z        PSCENC =        37.23662954
  Ewald energy   TEWEN  =     25724.15450037
  -Hartree energ DENC   =    -42611.11095661
  -exchange      EXHF   =         0.00000000
  -V(xc)+E(xc)   XCENC  =      -186.11284976
  PAW double counting   =     17057.32702718   -16273.49835094
  entropy T*S    EENTRO =         0.00000000
  eigenvalues    EBANDS =     -1392.86776293
  atomic energy  EATOM  =     17632.37671147
  ---------------------------------------------------
  free energy    TOTEN  =       -12.49505168 eV

  energy without entropy =      -12.49505168  energy(sigma->0) =      -12.49505168


--------------------------------------------------------------------------------------------------------




----------------------------------------- Iteration    1(   4)  ---------------------------------------


     EDDAV:  cpu time    1.33: real time    1.34
       DOS:  cpu time    0.00: real time    0.00
    --------------------------------------------
      LOOP:  cpu time    1.34: real time    1.34

 eigenvalue-minimisations  :   552
 total energy-change (2. order) :-0.1972078E+02  (-0.1957069E+02)
 number of electron     187.0000000 magnetization      17.0000000
 augmentation part      187.0000000 magnetization      17.0000000

 Free energy of the ion-electron system (eV)
  ---------------------------------------------------
  alpha Z        PSCENC =        37.23662954
  Ewald energy   TEWEN  =     25724.15450037
  -Hartree energ DENC   =    -42611.11095661
  -exchange      EXHF   =         0.00000000
  -V(xc)+E(xc)   XCENC  =      -186.11284976
  PAW double counting   =     17057.32702718   -16273.49835094
  entropy T*S    EENTRO =        -0.00000000
  eigenvalues    EBANDS =     -1412.58854250
  atomic energy  EATOM  =     17632.37671147
  ---------------------------------------------------
  free energy    TOTEN  =       -32.21583126 eV

  energy without entropy =      -32.21583126  energy(sigma->0) =      -32.21583126


--------------------------------------------------------------------------------------------------------




----------------------------------------- Iteration    1(   5)  ---------------------------------------


     EDDAV:  cpu time    1.39: real time    1.39
       DOS:  cpu time    0.00: real time    0.00
    CHARGE:  cpu time    0.07: real time    0.07
    MIXING:  cpu time    0.00: real time    0.01
    --------------------------------------------
      LOOP:  cpu time    1.47: real time    1.48

 eigenvalue-minimisations  :   584
 total energy-change (2. order) :-0.2688636E+00  (-0.2682304E+00)
 number of electron     186.9999830 magnetization      14.4177684
 augmentation part       87.9684668 magnetization      13.8037288

 Broyden mixing:
  rms(total) = 0.24959E+01    rms(broyden)= 0.24956E+01
  rms(prec ) = 0.25458E+01
  weight for this iteration     100.00

 Free energy of the ion-electron system (eV)
  ---------------------------------------------------
  alpha Z        PSCENC =        37.23662954
  Ewald energy   TEWEN  =     25724.15450037
  -Hartree energ DENC   =    -42611.11095661
  -exchange      EXHF   =         0.00000000
  -V(xc)+E(xc)   XCENC  =      -186.11284976
  PAW double counting   =     17057.32702718   -16273.49835094
  entropy T*S    EENTRO =        -0.00000000
  eigenvalues    EBANDS =     -1412.85740611
  atomic energy  EATOM  =     17632.37671147
  ---------------------------------------------------
  free energy    TOTEN  =       -32.48469486 eV

  energy without entropy =      -32.48469486  energy(sigma->0) =      -32.48469486


--------------------------------------------------------------------------------------------------------




----------------------------------------- Iteration    1(   6)  ---------------------------------------


    POTLOK:  cpu time    0.22: real time    0.22
    SETDIJ:  cpu time    0.01: real time    0.01
     EDDAV:  cpu time    1.24: real time    1.25
       DOS:  cpu time    0.00: real time    0.00
    CHARGE:  cpu time    0.06: real time    0.07
    MIXING:  cpu time    0.01: real time    0.01
    --------------------------------------------
      LOOP:  cpu time    1.55: real time    1.56

 eigenvalue-minimisations  :   504
 total energy-change (2. order) : 0.2272616E+02  (-0.6714589E+01)
 number of electron     186.9999827 magnetization      12.9356690
 augmentation part       89.8863609 magnetization       6.7413757

 Broyden mixing:
  rms(total) = 0.12835E+01    rms(broyden)= 0.12834E+01
  rms(prec ) = 0.13030E+01
  weight for this iteration     100.00

 eigenvalues of (default mixing * dielectric matrix)
  average eigenvalue GAMMA=   0.8651
  0.8651

 Free energy of the ion-electron system (eV)
  ---------------------------------------------------
  alpha Z        PSCENC =        37.23662954
  Ewald energy   TEWEN  =     25724.15450037
  -Hartree energ DENC   =    -42545.13192927
  -exchange      EXHF   =         0.00000000
  -V(xc)+E(xc)   XCENC  =      -175.17248204
  PAW double counting   =     17709.68394690   -16939.10796566
  entropy T*S    EENTRO =         0.00000000
  eigenvalues    EBANDS =     -1453.79794561
  atomic energy  EATOM  =     17632.37671147
  ---------------------------------------------------
  free energy    TOTEN  =        -9.75853430 eV

  energy without entropy =       -9.75853430  energy(sigma->0) =       -9.75853430


--------------------------------------------------------------------------------------------------------




----------------------------------------- Iteration    1(   7)  ---------------------------------------


    POTLOK:  cpu time    0.22: real time    0.22
    SETDIJ:  cpu time    0.01: real time    0.01
     EDDAV:  cpu time    1.32: real time    1.32
       DOS:  cpu time    0.00: real time    0.00
    CHARGE:  cpu time    0.07: real time    0.07
    MIXING:  cpu time    0.00: real time    0.01
    --------------------------------------------
      LOOP:  cpu time    1.62: real time    1.64

 eigenvalue-minimisations  :   544
 total energy-change (2. order) : 0.6445205E+00  (-0.3776347E+00)
 number of electron     186.9999826 magnetization      10.4011527
 augmentation part       89.8266615 magnetization       6.3842945

 Broyden mixing:
  rms(total) = 0.78956E+00    rms(broyden)= 0.78952E+00
  rms(prec ) = 0.80643E+00
  weight for this iteration     100.00

 eigenvalues of (default mixing * dielectric matrix)
  average eigenvalue GAMMA=   1.0534
  0.7515  1.3552

 Free energy of the ion-electron system (eV)
  ---------------------------------------------------
  alpha Z        PSCENC =        37.23662954
  Ewald energy   TEWEN  =     25724.15450037
  -Hartree energ DENC   =    -42576.50095571
  -exchange      EXHF   =         0.00000000
  -V(xc)+E(xc)   XCENC  =      -174.33084577
  PAW double counting   =     18109.53401986   -17347.46609502
  entropy T*S    EENTRO =         0.00000000
  eigenvalues    EBANDS =     -1414.11797851
  atomic energy  EATOM  =     17632.37671147
  ---------------------------------------------------
  free energy    TOTEN  =        -9.11401376 eV

  energy without entropy =       -9.11401376  energy(sigma->0) =       -9.11401376


--------------------------------------------------------------------------------------------------------




----------------------------------------- Iteration    1(   8)  ---------------------------------------


    POTLOK:  cpu time    0.22: real time    0.22
    SETDIJ:  cpu time    0.01: real time    0.01
     EDDAV:  cpu time    1.29: real time    1.30
       DOS:  cpu time    0.00: real time    0.00
    CHARGE:  cpu time    0.07: real time    0.07
    MIXING:  cpu time    0.01: real time    0.01
    --------------------------------------------
      LOOP:  cpu time    1.60: real time    1.61

 eigenvalue-minimisations  :   532
 total energy-change (2. order) : 0.3166694E+01  (-0.2208927E+00)
 number of electron     186.9999826 magnetization       8.8376525
 augmentation part       89.7625260 magnetization       4.9444000

 Broyden mixing:
  rms(total) = 0.35963E+00    rms(broyden)= 0.35960E+00
  rms(prec ) = 0.36537E+00
  weight for this iteration     100.00

 eigenvalues of (default mixing * dielectric matrix)
  average eigenvalue GAMMA=   1.2117
  2.1408  0.8766  0.6176

 Free energy of the ion-electron system (eV)
  ---------------------------------------------------
  alpha Z        PSCENC =        37.23662954
  Ewald energy   TEWEN  =     25724.15450037
  -Hartree energ DENC   =    -42620.20957696
  -exchange      EXHF   =         0.00000000
  -V(xc)+E(xc)   XCENC  =      -171.39768275
  PAW double counting   =     18561.22816804   -17808.02512007
  entropy T*S    EENTRO =         0.00000000
  eigenvalues    EBANDS =     -1361.31094907
  atomic energy  EATOM  =     17632.37671147
  ---------------------------------------------------
  free energy    TOTEN  =        -5.94731943 eV

  energy without entropy =       -5.94731943  energy(sigma->0) =       -5.94731943


--------------------------------------------------------------------------------------------------------




----------------------------------------- Iteration    1(   9)  ---------------------------------------


    POTLOK:  cpu time    0.22: real time    0.22
    SETDIJ:  cpu time    0.01: real time    0.01
     EDDAV:  cpu time    1.27: real time    1.27
       DOS:  cpu time    0.00: real time    0.00
    CHARGE:  cpu time    0.07: real time    0.07
    MIXING:  cpu time    0.01: real time    0.01
    --------------------------------------------
      LOOP:  cpu time    1.58: real time    1.58

 eigenvalue-minimisations  :   520
 total energy-change (2. order) :-0.5234463E+01  (-0.1542406E+00)
 number of electron     186.9999826 magnetization       7.7432066
 augmentation part       89.6693707 magnetization       3.9930696

 Broyden mixing:
  rms(total) = 0.21083E+00    rms(broyden)= 0.21083E+00
  rms(prec ) = 0.21730E+00
  weight for this iteration     100.00

 eigenvalues of (default mixing * dielectric matrix)
  average eigenvalue GAMMA=   1.1866
  2.0392  0.6297  0.7754  1.3020

 Free energy of the ion-electron system (eV)
  ---------------------------------------------------
  alpha Z        PSCENC =        37.23662954
  Ewald energy   TEWEN  =     25724.15450037
  -Hartree energ DENC   =    -42636.77738710
  -exchange      EXHF   =         0.00000000
  -V(xc)+E(xc)   XCENC  =      -175.25371229
  PAW double counting   =     18706.45366732   -17956.01667358
  entropy T*S    EENTRO =         0.00000000
  eigenvalues    EBANDS =     -1343.35551796
  atomic energy  EATOM  =     17632.37671147
  ---------------------------------------------------
  free energy    TOTEN  =       -11.18178224 eV

  energy without entropy =      -11.18178224  energy(sigma->0) =      -11.18178224


--------------------------------------------------------------------------------------------------------




----------------------------------------- Iteration    1(  10)  ---------------------------------------


    POTLOK:  cpu time    0.22: real time    0.22
    SETDIJ:  cpu time    0.01: real time    0.01
     EDDAV:  cpu time    1.26: real time    1.26
       DOS:  cpu time    0.00: real time    0.00
    CHARGE:  cpu time    0.06: real time    0.07
    MIXING:  cpu time    0.01: real time    0.01
    --------------------------------------------
      LOOP:  cpu time    1.56: real time    1.57

 eigenvalue-minimisations  :   512
 total energy-change (2. order) :-0.6028764E+01  (-0.2043327E+00)
 number of electron     186.9999826 magnetization       6.0335377
 augmentation part       89.6589999 magnetization       2.4812505

 Broyden mixing:
  rms(total) = 0.15846E+00    rms(broyden)= 0.15846E+00
  rms(prec ) = 0.16270E+00
  weight for this iteration     100.00

 eigenvalues of (default mixing * dielectric matrix)
  average eigenvalue GAMMA=   1.3019
  2.1707  2.1707  0.7651  0.7651  0.6379

 Free energy of the ion-electron system (eV)
  ---------------------------------------------------
  alpha Z        PSCENC =        37.23662954
  Ewald energy   TEWEN  =     25724.15450037
  -Hartree energ DENC   =    -42632.91212917
  -exchange      EXHF   =         0.00000000
  -V(xc)+E(xc)   XCENC  =      -179.86171605
  PAW double counting   =     18691.98373967   -17941.33246830
  entropy T*S    EENTRO =        -0.00000000
  eigenvalues    EBANDS =     -1348.85581371
  atomic energy  EATOM  =     17632.37671147
  ---------------------------------------------------
  free energy    TOTEN  =       -17.21054617 eV

  energy without entropy =      -17.21054617  energy(sigma->0) =      -17.21054617


--------------------------------------------------------------------------------------------------------




----------------------------------------- Iteration    1(  11)  ---------------------------------------


    POTLOK:  cpu time    0.22: real time    0.22
    SETDIJ:  cpu time    0.01: real time    0.01
     EDDAV:  cpu time    1.23: real time    1.23
       DOS:  cpu time    0.00: real time    0.00
    CHARGE:  cpu time    0.06: real time    0.07
    MIXING:  cpu time    0.00: real time    0.01
    --------------------------------------------
      LOOP:  cpu time    1.54: real time    1.54

 eigenvalue-minimisations  :   496
 total energy-change (2. order) :-0.6441543E+01  (-0.3015298E+00)
 number of electron     186.9999826 magnetization       5.0239895
 augmentation part       89.6866060 magnetization       1.7121536

 Broyden mixing:
  rms(total) = 0.10031E+00    rms(broyden)= 0.10030E+00
  rms(prec ) = 0.10378E+00
  weight for this iteration     100.00

 eigenvalues of (default mixing * dielectric matrix)
  average eigenvalue GAMMA=   1.3639
  2.9910  1.9347  0.9578  0.9578  0.6253  0.7171

 Free energy of the ion-electron system (eV)
  ---------------------------------------------------
  alpha Z        PSCENC =        37.23662954
  Ewald energy   TEWEN  =     25724.15450037
  -Hartree energ DENC   =    -42625.71390311
  -exchange      EXHF   =         0.00000000
  -V(xc)+E(xc)   XCENC  =      -184.97321373
  PAW double counting   =     18675.36256863   -17924.79165133
  entropy T*S    EENTRO =         0.00000000
  eigenvalues    EBANDS =     -1357.30373076
  atomic energy  EATOM  =     17632.37671147
  ---------------------------------------------------
  free energy    TOTEN  =       -23.65208892 eV

  energy without entropy =      -23.65208892  energy(sigma->0) =      -23.65208892


--------------------------------------------------------------------------------------------------------




----------------------------------------- Iteration    1(  12)  ---------------------------------------


    POTLOK:  cpu time    0.22: real time    0.22
    SETDIJ:  cpu time    0.00: real time    0.01
     EDDAV:  cpu time    1.26: real time    1.26
       DOS:  cpu time    0.00: real time    0.00
    CHARGE:  cpu time    0.07: real time    0.07
    MIXING:  cpu time    0.01: real time    0.01
    --------------------------------------------
      LOOP:  cpu time    1.57: real time    1.57

 eigenvalue-minimisations  :   512
 total energy-change (2. order) :-0.3296394E+01  (-0.1003012E+00)
 number of electron     186.9999825 magnetization       5.0249539
 augmentation part       89.6668566 magnetization       3.7595611

 Broyden mixing:
  rms(total) = 0.19236E+00    rms(broyden)= 0.19216E+00
  rms(prec ) = 0.20284E+00
  weight for this iteration     100.00

 eigenvalues of (default mixing * dielectric matrix)
  average eigenvalue GAMMA=   1.1708
  2.9964  1.9325  0.9572  0.9572  0.6248  0.7172  0.0101

 Free energy of the ion-electron system (eV)
  ---------------------------------------------------
  alpha Z        PSCENC =        37.23662954
  Ewald energy   TEWEN  =     25724.15450037
  -Hartree energ DENC   =    -42620.96091531
  -exchange      EXHF   =         0.00000000
  -V(xc)+E(xc)   XCENC  =      -187.58649963
  PAW double counting   =     18661.98987017   -17911.59976957
  entropy T*S    EENTRO =         0.00000000
  eigenvalues    EBANDS =     -1362.55900999
  atomic energy  EATOM  =     17632.37671147
  ---------------------------------------------------
  free energy    TOTEN  =       -26.94848294 eV

  energy without entropy =      -26.94848294  energy(sigma->0) =      -26.94848294


--------------------------------------------------------------------------------------------------------




----------------------------------------- Iteration    1(  13)  ---------------------------------------


    POTLOK:  cpu time    0.22: real time    0.22
    SETDIJ:  cpu time    0.01: real time    0.01
     EDDAV:  cpu time    1.36: real time    1.37
       DOS:  cpu time    0.00: real time    0.00
    CHARGE:  cpu time    0.07: real time    0.07
    MIXING:  cpu time    0.01: real time    0.01
    --------------------------------------------
      LOOP:  cpu time    1.68: real time    1.97

 eigenvalue-minimisations  :   568
 total energy-change (2. order) : 0.2996882E-01  (-0.2149019E-02)
 number of electron     186.9999825 magnetization       5.0197042
 augmentation part       89.6563445 magnetization       3.7624855

 Broyden mixing:
  rms(total) = 0.19085E+00    rms(broyden)= 0.19084E+00
  rms(prec ) = 0.20178E+00
  weight for this iteration     100.00

 eigenvalues of (default mixing * dielectric matrix)
  average eigenvalue GAMMA=   1.0250
  3.0158  1.8920  0.9549  0.9549  0.7154  0.6220  0.0224  0.0224

 Free energy of the ion-electron system (eV)
  ---------------------------------------------------
  alpha Z        PSCENC =        37.23662954
  Ewald energy   TEWEN  =     25724.15450037
  -Hartree energ DENC   =    -42620.96372063
  -exchange      EXHF   =         0.00000000
  -V(xc)+E(xc)   XCENC  =      -187.55724322
  PAW double counting   =     18661.99665502   -17911.60713407
  entropy T*S    EENTRO =         0.00000000
  eigenvalues    EBANDS =     -1362.55491261
  atomic energy  EATOM  =     17632.37671147
  ---------------------------------------------------
  free energy    TOTEN  =       -26.91851413 eV

  energy without entropy =      -26.91851413  energy(sigma->0) =      -26.91851413


--------------------------------------------------------------------------------------------------------




----------------------------------------- Iteration    1(  14)  ---------------------------------------


    POTLOK:  cpu time    0.22: real time    0.22
    SETDIJ:  cpu time    0.00: real time    0.01
     EDDAV:  cpu time    1.12: real time    1.12
       DOS:  cpu time    0.00: real time    0.00
    CHARGE:  cpu time    0.07: real time    0.07
    MIXING:  cpu time    0.01: real time    0.01
    --------------------------------------------
      LOOP:  cpu time    1.43: real time    2.80

 eigenvalue-minimisations  :   432
 total energy-change (2. order) :-0.1689142E-01  (-0.7092119E-04)
 number of electron     186.9999825 magnetization       5.0053005
 augmentation part       89.6582166 magnetization       3.7495981

 Broyden mixing:
  rms(total) = 0.19077E+00    rms(broyden)= 0.19077E+00
  rms(prec ) = 0.20163E+00
  weight for this iteration     100.00

 eigenvalues of (default mixing * dielectric matrix)
  average eigenvalue GAMMA=   0.9442
  2.9844  1.9192  0.9564  0.9564  0.6222  0.7158  0.1384  0.1384  0.0661

 Free energy of the ion-electron system (eV)
  ---------------------------------------------------
  alpha Z        PSCENC =        37.23662954
  Ewald energy   TEWEN  =     25724.15450037
  -Hartree energ DENC   =    -42620.67706470
  -exchange      EXHF   =         0.00000000
  -V(xc)+E(xc)   XCENC  =      -187.57800258
  PAW double counting   =     18660.46488397   -17910.06275035
  entropy T*S    EENTRO =         0.00000000
  eigenvalues    EBANDS =     -1362.85031326
  atomic energy  EATOM  =     17632.37671147
  ---------------------------------------------------
  free energy    TOTEN  =       -26.93540555 eV

  energy without entropy =      -26.93540555  energy(sigma->0) =      -26.93540555


--------------------------------------------------------------------------------------------------------




----------------------------------------- Iteration    1(  15)  ---------------------------------------


    POTLOK:  cpu time    0.22: real time    0.22
    SETDIJ:  cpu time    0.01: real time    0.01
     EDDAV:  cpu time    1.15: real time    1.15
       DOS:  cpu time    0.00: real time    0.00
    CHARGE:  cpu time    0.07: real time    0.07
    MIXING:  cpu time    0.01: real time    0.01
    --------------------------------------------
      LOOP:  cpu time    1.46: real time    1.46

 eigenvalue-minimisations  :   448
 total energy-change (2. order) :-0.3966255E-01  (-0.5760130E-04)
 number of electron     186.9999825 magnetization       4.7233881
 augmentation part       89.6628527 magnetization       3.4707641

 Broyden mixing:
  rms(total) = 0.19128E+00    rms(broyden)= 0.19128E+00
  rms(prec ) = 0.20186E+00
  weight for this iteration     100.00

 eigenvalues of (default mixing * dielectric matrix)
  average eigenvalue GAMMA=   0.9220
  2.9299  1.9623  0.9623  0.9623  0.7164  0.6179  0.4204  0.4204  0.1467  0.0813

 Free energy of the ion-electron system (eV)
  ---------------------------------------------------
  alpha Z        PSCENC =        37.23662954
  Ewald energy   TEWEN  =     25724.15450037
  -Hartree energ DENC   =    -42619.83120506
  -exchange      EXHF   =         0.00000000
  -V(xc)+E(xc)   XCENC  =      -187.62103102
  PAW double counting   =     18654.41428227   -17904.00493803
  entropy T*S    EENTRO =         0.00000000
  eigenvalues    EBANDS =     -1363.70001763
  atomic energy  EATOM  =     17632.37671147
  ---------------------------------------------------
  free energy    TOTEN  =       -26.97506810 eV

  energy without entropy =      -26.97506810  energy(sigma->0) =      -26.97506810


--------------------------------------------------------------------------------------------------------




----------------------------------------- Iteration    1(  16)  ---------------------------------------


    POTLOK:  cpu time    0.22: real time    0.22
    SETDIJ:  cpu time    0.00: real time    0.01
     EDDAV:  cpu time    1.25: real time    1.25
       DOS:  cpu time    0.00: real time    0.00
    CHARGE:  cpu time    0.07: real time    0.07
    MIXING:  cpu time    0.01: real time    0.01
    --------------------------------------------
      LOOP:  cpu time    1.56: real time    1.56

 eigenvalue-minimisations  :   504
 total energy-change (2. order) :-0.7761270E+00  (-0.1203063E-01)
 number of electron     186.9999825 magnetization       3.8833313
 augmentation part       89.7432765 magnetization       2.6724028

 Broyden mixing:
  rms(total) = 0.23412E+00    rms(broyden)= 0.23412E+00
  rms(prec ) = 0.24216E+00
  weight for this iteration     100.00

 eigenvalues of (default mixing * dielectric matrix)
  average eigenvalue GAMMA=   1.0908
  2.4928  1.7215  1.7215  1.6255  1.3241  0.9449  0.7564  0.6180  0.5478  0.1637
  0.0824

 Free energy of the ion-electron system (eV)
  ---------------------------------------------------
  alpha Z        PSCENC =        37.23662954
  Ewald energy   TEWEN  =     25724.15450037
  -Hartree energ DENC   =    -42606.10829515
  -exchange      EXHF   =         0.00000000
  -V(xc)+E(xc)   XCENC  =      -188.47085653
  PAW double counting   =     18561.22419299   -17810.82331145
  entropy T*S    EENTRO =         0.00000000
  eigenvalues    EBANDS =     -1377.34076637
  atomic energy  EATOM  =     17632.37671147
  ---------------------------------------------------
  free energy    TOTEN  =       -27.75119514 eV

  energy without entropy =      -27.75119514  energy(sigma->0) =      -27.75119514


--------------------------------------------------------------------------------------------------------




----------------------------------------- Iteration    1(  17)  ---------------------------------------


    POTLOK:  cpu time    0.22: real time    0.22
    SETDIJ:  cpu time    0.01: real time    0.01
     EDDAV:  cpu time    1.24: real time    1.24
       DOS:  cpu time    0.00: real time    0.00
    CHARGE:  cpu time    0.07: real time    0.07
    MIXING:  cpu time    0.01: real time    0.01
    --------------------------------------------
      LOOP:  cpu time    1.55: real time    1.56

 eigenvalue-minimisations  :   500
 total energy-change (2. order) :-0.1742615E+01  (-0.9049216E-01)
 number of electron     186.9999824 magnetization       3.2138351
 augmentation part       89.9737689 magnetization       2.1033984

 Broyden mixing:
  rms(total) = 0.51254E+00    rms(broyden)= 0.51254E+00
  rms(prec ) = 0.53020E+00
  weight for this iteration     100.00

 eigenvalues of (default mixing * dielectric matrix)
  average eigenvalue GAMMA=   1.2831
  3.0247  3.0247  2.7956  1.4999  1.0409  0.8244  0.8244  0.8448  0.6634  0.6081
  0.1633  0.0824

 Free energy of the ion-electron system (eV)
  ---------------------------------------------------
  alpha Z        PSCENC =        37.23662954
  Ewald energy   TEWEN  =     25724.15450037
  -Hartree energ DENC   =    -42568.11067655
  -exchange      EXHF   =         0.00000000
  -V(xc)+E(xc)   XCENC  =      -190.41353891
  PAW double counting   =     18321.86507988   -17571.90246427
  entropy T*S    EENTRO =         0.00000000
  eigenvalues    EBANDS =     -1414.70005195
  atomic energy  EATOM  =     17632.37671147
  ---------------------------------------------------
  free energy    TOTEN  =       -29.49381041 eV

  energy without entropy =      -29.49381041  energy(sigma->0) =      -29.49381041


--------------------------------------------------------------------------------------------------------




----------------------------------------- Iteration    1(  18)  ---------------------------------------


    POTLOK:  cpu time    0.22: real time    0.22
    SETDIJ:  cpu time    0.01: real time    0.01
     EDDAV:  cpu time    1.26: real time    1.26
       DOS:  cpu time    0.00: real time    0.00
    CHARGE:  cpu time    0.07: real time    0.07
    MIXING:  cpu time    0.01: real time    0.01
    --------------------------------------------
      LOOP:  cpu time    1.58: real time    1.58

 eigenvalue-minimisations  :   512
 total energy-change (2. order) :-0.7436411E+00  (-0.6170040E-01)
 number of electron     186.9999824 magnetization       2.9129538
 augmentation part       90.1602209 magnetization       1.8596598

 Broyden mixing:
  rms(total) = 0.79105E+00    rms(broyden)= 0.79105E+00
  rms(prec ) = 0.82078E+00
  weight for this iteration     100.00

 eigenvalues of (default mixing * dielectric matrix)
  average eigenvalue GAMMA=   1.4897
  4.5303  4.5303  2.8906  1.6302  0.9172  0.9172  0.9216  0.9216  0.6866  0.6121
  0.5623  0.1633  0.0824

 Free energy of the ion-electron system (eV)
  ---------------------------------------------------
  alpha Z        PSCENC =        37.23662954
  Ewald energy   TEWEN  =     25724.15450037
  -Hartree energ DENC   =    -42541.40516931
  -exchange      EXHF   =         0.00000000
  -V(xc)+E(xc)   XCENC  =      -191.26475707
  PAW double counting   =     18171.72073352   -17422.77274274
  entropy T*S    EENTRO =         0.00000000
  eigenvalues    EBANDS =     -1440.28335732
  atomic energy  EATOM  =     17632.37671147
  ---------------------------------------------------
  free energy    TOTEN  =       -30.23745153 eV

  energy without entropy =      -30.23745153  energy(sigma->0) =      -30.23745153


--------------------------------------------------------------------------------------------------------




----------------------------------------- Iteration    1(  19)  ---------------------------------------


    POTLOK:  cpu time    0.22: real time    0.22
    SETDIJ:  cpu time    0.01: real time    0.01
     EDDAV:  cpu time    1.28: real time    1.29
       DOS:  cpu time    0.00: real time    0.00
    CHARGE:  cpu time    0.07: real time    0.07
    MIXING:  cpu time    0.01: real time    0.01
    --------------------------------------------
      LOOP:  cpu time    1.60: real time    1.60

 eigenvalue-minimisations  :   524
 total energy-change (2. order) :-0.2476960E+00  (-0.3432807E-01)
 number of electron     186.9999824 magnetization       2.6062793
 augmentation part       90.2993958 magnetization       1.5787541

 Broyden mixing:
  rms(total) = 0.10231E+01    rms(broyden)= 0.10231E+01
  rms(prec ) = 0.10618E+01
  weight for this iteration     100.00

 eigenvalues of (default mixing * dielectric matrix)
  average eigenvalue GAMMA=   1.6490
  5.8662  5.8662  2.7720  1.8973  0.9860  0.9860  0.9248  0.9248  0.7241  0.6473
  0.6473  0.5987  0.1633  0.0824

 Free energy of the ion-electron system (eV)
  ---------------------------------------------------
  alpha Z        PSCENC =        37.23662954
  Ewald energy   TEWEN  =     25724.15450037
  -Hartree energ DENC   =    -42523.42822147
  -exchange      EXHF   =         0.00000000
  -V(xc)+E(xc)   XCENC  =      -191.59227696
  PAW double counting   =     18067.58342607   -17319.42520683
  entropy T*S    EENTRO =         0.00000000
  eigenvalues    EBANDS =     -1457.39070969
  atomic energy  EATOM  =     17632.37671147
  ---------------------------------------------------
  free energy    TOTEN  =       -30.48514750 eV

  energy without entropy =      -30.48514750  energy(sigma->0) =      -30.48514750


--------------------------------------------------------------------------------------------------------




----------------------------------------- Iteration    1(  20)  ---------------------------------------


    POTLOK:  cpu time    0.22: real time    0.23
    SETDIJ:  cpu time    0.01: real time    0.01
     EDDAV:  cpu time    1.30: real time    1.30
       DOS:  cpu time    0.00: real time    0.00
    CHARGE:  cpu time    0.07: real time    0.07
    MIXING:  cpu time    0.01: real time    0.01
    --------------------------------------------
      LOOP:  cpu time    1.61: real time    3.18

 eigenvalue-minimisations  :   528
 total energy-change (2. order) :-0.1288822E+00  (-0.5206637E-01)
 number of electron     186.9999823 magnetization       2.5174345
 augmentation part       90.4925780 magnetization       1.5263031

 Broyden mixing:
  rms(total) = 0.13432E+01    rms(broyden)= 0.13432E+01
  rms(prec ) = 0.13938E+01
  weight for this iteration     100.00

 eigenvalues of (default mixing * dielectric matrix)
  average eigenvalue GAMMA=   1.7350
  6.9007  6.9007  2.8453  1.7808  1.0563  1.0563  0.9741  0.8487  0.7761  0.7761
  0.6850  0.6105  0.5694  0.1633  0.0824

 Free energy of the ion-electron system (eV)
  ---------------------------------------------------
  alpha Z        PSCENC =        37.23662954
  Ewald energy   TEWEN  =     25724.15450037
  -Hartree energ DENC   =    -42499.74734311
  -exchange      EXHF   =         0.00000000
  -V(xc)+E(xc)   XCENC  =      -191.69107140
  PAW double counting   =     17904.92323796   -17157.45359066
  entropy T*S    EENTRO =         0.00000000
  eigenvalues    EBANDS =     -1480.41310386
  atomic energy  EATOM  =     17632.37671147
  ---------------------------------------------------
  free energy    TOTEN  =       -30.61402968 eV

  energy without entropy =      -30.61402968  energy(sigma->0) =      -30.61402968


--------------------------------------------------------------------------------------------------------




----------------------------------------- Iteration    1(  21)  ---------------------------------------


    POTLOK:  cpu time    0.22: real time    0.23
    SETDIJ:  cpu time    0.01: real time    0.01
     EDDAV:  cpu time    1.34: real time    1.34
       DOS:  cpu time    0.00: real time    0.00
    CHARGE:  cpu time    0.07: real time    0.07
    MIXING:  cpu time    0.01: real time    0.01
    --------------------------------------------
      LOOP:  cpu time    1.65: real time    1.69

 eigenvalue-minimisations  :   552
 total energy-change (2. order) : 0.4146208E-01  (-0.1150119E-01)
 number of electron     186.9999823 magnetization       2.5236799
 augmentation part       90.5789848 magnetization       1.5445040

 Broyden mixing:
  rms(total) = 0.14841E+01    rms(broyden)= 0.14841E+01
  rms(prec ) = 0.15406E+01
  weight for this iteration     100.00

 eigenvalues of (default mixing * dielectric matrix)
  average eigenvalue GAMMA=   1.6147
  5.3418  5.3418  2.6356  3.0289  1.8568  1.0490  1.0490  1.0380  0.8117  0.8117
  0.7570  0.6593  0.6273  0.5816  0.1633  0.0824

 Free energy of the ion-electron system (eV)
  ---------------------------------------------------
  alpha Z        PSCENC =        37.23662954
  Ewald energy   TEWEN  =     25724.15450037
  -Hartree energ DENC   =    -42489.94337664
  -exchange      EXHF   =         0.00000000
  -V(xc)+E(xc)   XCENC  =      -191.58392841
  PAW double counting   =     17838.30769027   -17091.27606091
  entropy T*S    EENTRO =         0.00000000
  eigenvalues    EBANDS =     -1489.84473329
  atomic energy  EATOM  =     17632.37671147
  ---------------------------------------------------
  free energy    TOTEN  =       -30.57256760 eV

  energy without entropy =      -30.57256760  energy(sigma->0) =      -30.57256760


--------------------------------------------------------------------------------------------------------




----------------------------------------- Iteration    1(  22)  ---------------------------------------


    POTLOK:  cpu time    0.22: real time    0.23
    SETDIJ:  cpu time    0.01: real time    0.01
     EDDAV:  cpu time    1.27: real time    1.27
       DOS:  cpu time    0.00: real time    0.00
    CHARGE:  cpu time    0.07: real time    0.07
    MIXING:  cpu time    0.01: real time    0.01
    --------------------------------------------
      LOOP:  cpu time    1.58: real time    1.61

 eigenvalue-minimisations  :   516
 total energy-change (2. order) :-0.4006115E+00  (-0.9645911E-01)
 number of electron     186.9999824 magnetization       2.5002070
 augmentation part       90.3161137 magnetization       1.4965526

 Broyden mixing:
  rms(total) = 0.10338E+01    rms(broyden)= 0.10338E+01
  rms(prec ) = 0.10745E+01
  weight for this iteration     100.00

 eigenvalues of (default mixing * dielectric matrix)
  average eigenvalue GAMMA=   1.5091
  5.3916  5.3916  3.0221  2.3234  1.8452  1.0446  1.0446  1.0351  0.8074  0.8074
  0.7640  0.6581  0.6283  0.5814  0.1633  0.0824  0.0644

 Free energy of the ion-electron system (eV)
  ---------------------------------------------------
  alpha Z        PSCENC =        37.23662954
  Ewald energy   TEWEN  =     25724.15450037
  -Hartree energ DENC   =    -42518.25705354
  -exchange      EXHF   =         0.00000000
  -V(xc)+E(xc)   XCENC  =      -192.01725120
  PAW double counting   =     18054.05495500   -17305.85210583
  entropy T*S    EENTRO =         0.00000000
  eigenvalues    EBANDS =     -1462.66956494
  atomic energy  EATOM  =     17632.37671147
  ---------------------------------------------------
  free energy    TOTEN  =       -30.97317913 eV

  energy without entropy =      -30.97317913  energy(sigma->0) =      -30.97317913


--------------------------------------------------------------------------------------------------------




----------------------------------------- Iteration    1(  23)  ---------------------------------------


    POTLOK:  cpu time    0.22: real time    0.22
    SETDIJ:  cpu time    0.01: real time    0.01
     EDDAV:  cpu time    1.34: real time    1.34
       DOS:  cpu time    0.00: real time    0.00
    CHARGE:  cpu time    0.07: real time    0.07
    MIXING:  cpu time    0.01: real time    0.01
    --------------------------------------------
      LOOP:  cpu time    1.65: real time    1.68

 eigenvalue-minimisations  :   552
 total energy-change (2. order) :-0.1010657E+00  (-0.9582677E-02)
 number of electron     186.9999824 magnetization       2.3416645
 augmentation part       90.2426690 magnetization       1.3334739

 Broyden mixing:
  rms(total) = 0.92699E+00    rms(broyden)= 0.92699E+00
  rms(prec ) = 0.96248E+00
  weight for this iteration     100.00

 eigenvalues of (default mixing * dielectric matrix)
  average eigenvalue GAMMA=   1.6837
  7.3613  4.4541  3.9867  3.9867  1.8778  1.0542  1.0542  1.0476  0.8169  0.7396
  0.7396  0.6677  0.6365  0.5668  0.5356  0.5356  0.1633  0.0824

 Free energy of the ion-electron system (eV)
  ---------------------------------------------------
  alpha Z        PSCENC =        37.23662954
  Ewald energy   TEWEN  =     25724.15450037
  -Hartree energ DENC   =    -42525.56729619
  -exchange      EXHF   =         0.00000000
  -V(xc)+E(xc)   XCENC  =      -192.09164907
  PAW double counting   =     18112.74689998   -17364.24205493
  entropy T*S    EENTRO =         0.00000000
  eigenvalues    EBANDS =     -1455.68798595
  atomic energy  EATOM  =     17632.37671147
  ---------------------------------------------------
  free energy    TOTEN  =       -31.07424479 eV

  energy without entropy =      -31.07424479  energy(sigma->0) =      -31.07424479


--------------------------------------------------------------------------------------------------------




----------------------------------------- Iteration    1(  24)  ---------------------------------------


    POTLOK:  cpu time    0.23: real time    0.22
    SETDIJ:  cpu time    0.00: real time    0.01
     EDDAV:  cpu time    1.27: real time    1.27
       DOS:  cpu time    0.00: real time    0.00
    CHARGE:  cpu time    0.07: real time    0.07
    MIXING:  cpu time    0.01: real time    0.01
    --------------------------------------------
      LOOP:  cpu time    1.59: real time    1.61

 eigenvalue-minimisations  :   516
 total energy-change (2. order) :-0.4159043E+00  (-0.7696901E-01)
 number of electron     186.9999824 magnetization       2.2043568
 augmentation part       90.0308102 magnetization       1.1842666

 Broyden mixing:
  rms(total) = 0.56426E+00    rms(broyden)= 0.56426E+00
  rms(prec ) = 0.58666E+00
  weight for this iteration     100.00

 eigenvalues of (default mixing * dielectric matrix)
  average eigenvalue GAMMA=   1.7531
  9.5437  5.5671  3.4954  3.4954  1.8203  1.0035  1.0035  0.8387  0.8387  1.0366
  0.8116  0.7284  0.7284  0.6759  0.6382  0.5801  0.1633  0.0824  0.2574

 Free energy of the ion-electron system (eV)
  ---------------------------------------------------
  alpha Z        PSCENC =        37.23662954
  Ewald energy   TEWEN  =     25724.15450037
  -Hartree energ DENC   =    -42547.04942200
  -exchange      EXHF   =         0.00000000
  -V(xc)+E(xc)   XCENC  =      -192.28273287
  PAW double counting   =     18287.71050395   -17538.23224467
  entropy T*S    EENTRO =         0.00000000
  eigenvalues    EBANDS =     -1435.40409486
  atomic energy  EATOM  =     17632.37671147
  ---------------------------------------------------
  free energy    TOTEN  =       -31.49014907 eV

  energy without entropy =      -31.49014907  energy(sigma->0) =      -31.49014907


--------------------------------------------------------------------------------------------------------




----------------------------------------- Iteration    1(  25)  ---------------------------------------


    POTLOK:  cpu time    0.23: real time    0.23
    SETDIJ:  cpu time    0.00: real time    0.01
     EDDAV:  cpu time    1.30: real time    1.29
       DOS:  cpu time    0.00: real time    0.00
    CHARGE:  cpu time    0.07: real time    0.07
    MIXING:  cpu time    0.01: real time    0.01
    --------------------------------------------
      LOOP:  cpu time    1.61: real time    1.63

 eigenvalue-minimisations  :   528
 total energy-change (2. order) :-0.1557738E+00  (-0.2751486E-01)
 number of electron     186.9999824 magnetization       2.0939005
 augmentation part       89.9182939 magnetization       1.0684017

 Broyden mixing:
  rms(total) = 0.38083E+00    rms(broyden)= 0.38083E+00
  rms(prec ) = 0.39617E+00
  weight for this iteration     100.00

 eigenvalues of (default mixing * dielectric matrix)
  average eigenvalue GAMMA=   1.8670
 12.0551  5.9372  3.3831  3.3831  1.7560  1.2070  1.2070  1.0243  1.0243  1.0550
  0.7687  0.7687  0.7819  0.6490  0.6490  0.5555  0.5555  0.0824  0.1633  0.3333

 Free energy of the ion-electron system (eV)
  ---------------------------------------------------
  alpha Z        PSCENC =        37.23662954
  Ewald energy   TEWEN  =     25724.15450037
  -Hartree energ DENC   =    -42557.24764963
  -exchange      EXHF   =         0.00000000
  -V(xc)+E(xc)   XCENC  =      -192.31113015
  PAW double counting   =     18377.56366577   -17627.61947056
  entropy T*S    EENTRO =         0.00000000
  eigenvalues    EBANDS =     -1425.79917967
  atomic energy  EATOM  =     17632.37671147
  ---------------------------------------------------
  free energy    TOTEN  =       -31.64592285 eV

  energy without entropy =      -31.64592285  energy(sigma->0) =      -31.64592285


--------------------------------------------------------------------------------------------------------




----------------------------------------- Iteration    1(  26)  ---------------------------------------


    POTLOK:  cpu time    0.22: real time    0.23
    SETDIJ:  cpu time    0.01: real time    0.01
     EDDAV:  cpu time    1.29: real time    1.29
       DOS:  cpu time    0.00: real time    0.00
    CHARGE:  cpu time    0.07: real time    0.07
    MIXING:  cpu time    0.02: real time    0.01
    --------------------------------------------
      LOOP:  cpu time    1.61: real time    1.61

 eigenvalue-minimisations  :   528
 total energy-change (2. order) :-0.3313977E-01  (-0.9441199E-02)
 number of electron     186.9999824 magnetization       1.8412243
 augmentation part       89.8357298 magnetization       0.8031508

 Broyden mixing:
  rms(total) = 0.23628E+00    rms(broyden)= 0.23628E+00
  rms(prec ) = 0.24675E+00
  weight for this iteration     100.00

 eigenvalues of (default mixing * dielectric matrix)
  average eigenvalue GAMMA=   2.0494
 15.8865  6.5732  3.3461  3.3461  1.4708  1.4708  1.6374  1.0610  1.0610  1.0924
  0.7407  0.7407  0.7314  0.7314  0.6843  0.6843  0.6373  0.5843  0.1633  0.0824
  0.3114

 Free energy of the ion-electron system (eV)
  ---------------------------------------------------
  alpha Z        PSCENC =        37.23662954
  Ewald energy   TEWEN  =     25724.15450037
  -Hartree energ DENC   =    -42565.70919102
  -exchange      EXHF   =         0.00000000
  -V(xc)+E(xc)   XCENC  =      -192.28908483
  PAW double counting   =     18453.87492100   -17703.60656854
  entropy T*S    EENTRO =         0.00000000
  eigenvalues    EBANDS =     -1417.71698062
  atomic energy  EATOM  =     17632.37671147
  ---------------------------------------------------
  free energy    TOTEN  =       -31.67906262 eV

  energy without entropy =      -31.67906262  energy(sigma->0) =      -31.67906262


--------------------------------------------------------------------------------------------------------




----------------------------------------- Iteration    1(  27)  ---------------------------------------


    POTLOK:  cpu time    0.22: real time    0.23
    SETDIJ:  cpu time    0.00: real time    0.01
     EDDAV:  cpu time    1.24: real time    1.24
       DOS:  cpu time    0.00: real time    0.00
    CHARGE:  cpu time    0.07: real time    0.07
    MIXING:  cpu time    0.02: real time    0.01
    --------------------------------------------
      LOOP:  cpu time    1.56: real time    1.56

 eigenvalue-minimisations  :   500
 total energy-change (2. order) :-0.3971876E-01  (-0.2605147E-01)
 number of electron     186.9999825 magnetization       1.5196872
 augmentation part       89.6846551 magnetization       0.4551377

 Broyden mixing:
  rms(total) = 0.73922E-01    rms(broyden)= 0.73909E-01
  rms(prec ) = 0.77461E-01
  weight for this iteration     100.00

 eigenvalues of (default mixing * dielectric matrix)
  average eigenvalue GAMMA=   2.2093
 19.4213  7.3777  3.4230  3.4230  1.3687  1.3687  1.2460  1.2460  1.2720  1.2720
  0.9146  0.9146  0.7864  0.7864  0.7513  0.6347  0.6347  0.6016  0.6016  0.1633
  0.0824  0.3153

 Free energy of the ion-electron system (eV)
  ---------------------------------------------------
  alpha Z        PSCENC =        37.23662954
  Ewald energy   TEWEN  =     25724.15450037
  -Hartree energ DENC   =    -42582.04136802
  -exchange      EXHF   =         0.00000000
  -V(xc)+E(xc)   XCENC  =      -192.17638126
  PAW double counting   =     18597.47427905   -17846.65084034
  entropy T*S    EENTRO =         0.00000000
  eigenvalues    EBANDS =     -1402.09231219
  atomic energy  EATOM  =     17632.37671147
  ---------------------------------------------------
  free energy    TOTEN  =       -31.71878138 eV

  energy without entropy =      -31.71878138  energy(sigma->0) =      -31.71878138


--------------------------------------------------------------------------------------------------------




----------------------------------------- Iteration    1(  28)  ---------------------------------------


    POTLOK:  cpu time    0.23: real time    0.23
    SETDIJ:  cpu time    0.00: real time    0.01
     EDDAV:  cpu time    1.25: real time    1.25
       DOS:  cpu time    0.00: real time    0.00
    CHARGE:  cpu time    0.07: real time    0.07
    MIXING:  cpu time    0.02: real time    0.02
    --------------------------------------------
      LOOP:  cpu time    1.57: real time    1.64

 eigenvalue-minimisations  :   504
 total energy-change (2. order) :-0.8431165E-01  (-0.2930235E-01)
 number of electron     186.9999825 magnetization       1.2407532
 augmentation part       89.5177430 magnetization       0.1472257

 Broyden mixing:
  rms(total) = 0.31353E+00    rms(broyden)= 0.31353E+00
  rms(prec ) = 0.32460E+00
  weight for this iteration     100.00

 eigenvalues of (default mixing * dielectric matrix)
  average eigenvalue GAMMA=   2.2180
 19.6010  7.9205  3.6206  3.6206  1.5753  1.5753  1.3212  1.3212  1.2065  1.2065
  0.9941  0.9941  0.8057  0.8057  0.7425  0.6919  0.6645  0.6013  0.6013  0.5835
  0.0824  0.1633  0.3145

 Free energy of the ion-electron system (eV)
  ---------------------------------------------------
  alpha Z        PSCENC =        37.23662954
  Ewald energy   TEWEN  =     25724.15450037
  -Hartree energ DENC   =    -42600.05629258
  -exchange      EXHF   =         0.00000000
  -V(xc)+E(xc)   XCENC  =      -191.99150640
  PAW double counting   =     18751.71271187   -18000.30514943
  entropy T*S    EENTRO =         0.00000000
  eigenvalues    EBANDS =     -1384.93069787
  atomic energy  EATOM  =     17632.37671147
  ---------------------------------------------------
  free energy    TOTEN  =       -31.80309303 eV

  energy without entropy =      -31.80309303  energy(sigma->0) =      -31.80309303


--------------------------------------------------------------------------------------------------------




----------------------------------------- Iteration    1(  29)  ---------------------------------------


    POTLOK:  cpu time    0.22: real time    0.23
    SETDIJ:  cpu time    0.01: real time    0.01
     EDDAV:  cpu time    1.29: real time    1.29
       DOS:  cpu time    0.00: real time    0.00
    CHARGE:  cpu time    0.07: real time    0.07
    MIXING:  cpu time    0.02: real time    0.02
    --------------------------------------------
      LOOP:  cpu time    1.61: real time    1.61

 eigenvalue-minimisations  :   524
 total energy-change (2. order) :-0.5289440E-01  (-0.4388652E-02)
 number of electron     186.9999825 magnetization       1.1254383
 augmentation part       89.4571322 magnetization       0.0270279

 Broyden mixing:
  rms(total) = 0.40323E+00    rms(broyden)= 0.40323E+00
  rms(prec ) = 0.41805E+00
  weight for this iteration     100.00

 eigenvalues of (default mixing * dielectric matrix)
  average eigenvalue GAMMA=   2.1621
 18.4529  8.4124  3.7042  3.7042  1.7874  1.3378  1.3378  1.5328  1.5328  1.0281
  1.0281  1.1339  0.8500  0.7763  0.7763  0.7553  0.7270  0.6164  0.6164  0.6095
  0.6095  0.0824  0.1633  0.3147

 Free energy of the ion-electron system (eV)
  ---------------------------------------------------
  alpha Z        PSCENC =        37.23662954
  Ewald energy   TEWEN  =     25724.15450037
  -Hartree energ DENC   =    -42607.44491088
  -exchange      EXHF   =         0.00000000
  -V(xc)+E(xc)   XCENC  =      -191.91058748
  PAW double counting   =     18809.75298008   -18058.18881342
  entropy T*S    EENTRO =         0.00000000
  eigenvalues    EBANDS =     -1377.83249712
  atomic energy  EATOM  =     17632.37671147
  ---------------------------------------------------
  free energy    TOTEN  =       -31.85598743 eV

  energy without entropy =      -31.85598743  energy(sigma->0) =      -31.85598743


--------------------------------------------------------------------------------------------------------




----------------------------------------- Iteration    1(  30)  ---------------------------------------


    POTLOK:  cpu time    0.22: real time    0.22
    SETDIJ:  cpu time    0.01: real time    0.01
     EDDAV:  cpu time    1.26: real time    1.27
       DOS:  cpu time    0.00: real time    0.00
    CHARGE:  cpu time    0.07: real time    0.07
    MIXING:  cpu time    0.02: real time    0.02
    --------------------------------------------
      LOOP:  cpu time    1.58: real time    1.61

 eigenvalue-minimisations  :   512
 total energy-change (2. order) :-0.3214676E-01  (-0.5777901E-02)
 number of electron     186.9999825 magnetization       1.1532287
 augmentation part       89.5235910 magnetization       0.0767558

 Broyden mixing:
  rms(total) = 0.28963E+00    rms(broyden)= 0.28963E+00
  rms(prec ) = 0.30024E+00
  weight for this iteration     100.00

 eigenvalues of (default mixing * dielectric matrix)
  average eigenvalue GAMMA=   2.1253
 18.3279  8.3684  3.5934  3.5934  2.3176  1.6200  1.6200  1.3087  1.3087  1.0778
  1.0778  0.0824  1.0180  1.0180  0.1633  0.7917  0.7917  0.8016  0.8016  0.6794
  0.6362  0.6126  0.6126  0.5952  0.3146

 Free energy of the ion-electron system (eV)
  ---------------------------------------------------
  alpha Z        PSCENC =        37.23662954
  Ewald energy   TEWEN  =     25724.15450037
  -Hartree energ DENC   =    -42601.09494005
  -exchange      EXHF   =         0.00000000
  -V(xc)+E(xc)   XCENC  =      -192.05227612
  PAW double counting   =     18749.20341260   -17997.83101240
  entropy T*S    EENTRO =         0.00000000
  eigenvalues    EBANDS =     -1383.88115960
  atomic energy  EATOM  =     17632.37671147
  ---------------------------------------------------
  free energy    TOTEN  =       -31.88813419 eV

  energy without entropy =      -31.88813419  energy(sigma->0) =      -31.88813419


--------------------------------------------------------------------------------------------------------




----------------------------------------- Iteration    1(  31)  ---------------------------------------


    POTLOK:  cpu time    0.23: real time    0.22
    SETDIJ:  cpu time    0.00: real time    0.01
     EDDAV:  cpu time    1.31: real time    1.31
       DOS:  cpu time    0.00: real time    0.00
    CHARGE:  cpu time    0.07: real time    0.07
    MIXING:  cpu time    0.02: real time    0.02
    --------------------------------------------
      LOOP:  cpu time    1.63: real time    1.63

 eigenvalue-minimisations  :   536
 total energy-change (2. order) :-0.7062770E-02  (-0.2420721E-02)
 number of electron     186.9999825 magnetization       1.1074063
 augmentation part       89.5682218 magnetization       0.0416172

 Broyden mixing:
  rms(total) = 0.21529E+00    rms(broyden)= 0.21529E+00
  rms(prec ) = 0.22316E+00
  weight for this iteration     100.00

 eigenvalues of (default mixing * dielectric matrix)
  average eigenvalue GAMMA=   2.0988
 17.8599  8.4728  3.5693  3.5693  2.5709  1.9222  1.9222  1.3138  1.3138  0.0824
  1.0952  1.0952  1.0542  1.0542  0.9894  0.1633  0.7926  0.7926  0.7718  0.7718
  0.6410  0.6185  0.6185  0.5999  0.5999  0.3146

 Free energy of the ion-electron system (eV)
  ---------------------------------------------------
  alpha Z        PSCENC =        37.23662954
  Ewald energy   TEWEN  =     25724.15450037
  -Hartree energ DENC   =    -42597.12123954
  -exchange      EXHF   =         0.00000000
  -V(xc)+E(xc)   XCENC  =      -192.12124390
  PAW double counting   =     18708.86228267   -17957.58711518
  entropy T*S    EENTRO =         0.00000000
  eigenvalues    EBANDS =     -1387.69572239
  atomic energy  EATOM  =     17632.37671147
  ---------------------------------------------------
  free energy    TOTEN  =       -31.89519696 eV

  energy without entropy =      -31.89519696  energy(sigma->0) =      -31.89519696


--------------------------------------------------------------------------------------------------------




----------------------------------------- Iteration    1(  32)  ---------------------------------------


    POTLOK:  cpu time    0.22: real time    0.22
    SETDIJ:  cpu time    0.01: real time    0.01
     EDDAV:  cpu time    1.28: real time    1.28
       DOS:  cpu time    0.00: real time    0.00
    CHARGE:  cpu time    0.07: real time    0.07
    MIXING:  cpu time    0.02: real time    0.02
    --------------------------------------------
      LOOP:  cpu time    1.60: real time    1.60

 eigenvalue-minimisations  :   520
 total energy-change (2. order) :-0.8282114E-02  (-0.2185946E-02)
 number of electron     186.9999825 magnetization       1.0709049
 augmentation part       89.6097154 magnetization       0.0182911

 Broyden mixing:
  rms(total) = 0.14060E+00    rms(broyden)= 0.14060E+00
  rms(prec ) = 0.14583E+00
  weight for this iteration     100.00

 eigenvalues of (default mixing * dielectric matrix)
  average eigenvalue GAMMA=   2.0706
 17.4813  8.6467  3.5721  3.5721  2.9812  1.8855  1.8855  1.3387  1.3387  1.2684
  1.2684  0.0824  1.0200  1.0200  1.1028  0.1633  0.7952  0.7952  0.8257  0.7451
  0.7451  0.6058  0.6058  0.6290  0.6290  0.5888  0.3146

 Free energy of the ion-electron system (eV)
  ---------------------------------------------------
  alpha Z        PSCENC =        37.23662954
  Ewald energy   TEWEN  =     25724.15450037
[...]
     25      -8.2082      1.00000
     26      -8.1695      1.00000
     27      -8.1443      1.00000
     28      -8.0697      1.00000
     29      -8.0222      1.00000
     30      -7.9529      1.00000
     31      -7.9131      1.00000
     32      -7.9045      1.00000
     33      -7.8269      1.00000
     34      -7.8135      1.00000
     35      -7.7987      1.00000
     36      -7.7684      1.00000
     37      -7.6758      1.00000
     38      -7.6699      1.00000
     39      -7.6428      1.00000
     40      -7.5945      1.00000
     41      -7.5443      1.00000
     42      -7.4467      1.00000
     43      -7.4250      1.00000
     44      -7.4027      1.00000
     45      -7.3732      1.00000
     46      -7.3355      1.00000
     47      -7.2728      1.00000
     48      -7.2616      1.00000
     49      -7.1477      1.00000
     50      -7.1032      1.00000
     51      -7.0921      1.00000
     52      -7.0572      1.00000
     53      -7.0478      1.00000
     54      -7.0331      1.00000
     55      -7.0018      1.00000
     56      -6.9790      1.00000
     57      -6.9706      1.00000
     58      -6.9613      1.00000
     59      -6.9596      1.00000
     60      -6.9049      1.00000
     61      -6.8943      1.00000
     62      -6.8743      1.00000
     63      -6.8704      1.00000
     64      -6.8382      1.00000
     65      -6.7992      1.00000
     66      -6.7907      1.00000
     67      -6.7635      1.00000
     68      -6.7550      1.00000
     69      -6.7494      1.00000
     70      -6.7143      1.00000
     71      -6.7108      1.00000
     72      -6.6744      1.00000
     73      -6.6481      1.00000
     74      -6.6415      1.00000
     75      -6.6133      1.00000
     76      -6.5904      1.00000
     77      -6.5745      1.00000
     78      -6.5513      1.00000
     79      -6.5348      1.00000
     80      -6.5132      1.00000
     81      -6.4561      1.00000
     82      -6.4430      1.00000
     83      -6.4171      1.00000
     84      -6.3934      1.00000
     85      -6.3503      1.00000
     86      -6.2444      1.00000
     87      -6.1430      1.00000
     88      -5.9318      1.00000
     89      -5.8893      1.00000
     90      -4.5714      1.00000
     91      -4.2986      1.00000
     92      -4.0764      1.00000
     93      -3.9721      1.00000
     94      -3.7814      0.00000
     95      -3.1866      0.00000
     96      -2.5170      0.00000
     97      -2.2517      0.00000
     98      -2.0974      0.00000
     99      -2.0107      0.00000
    100      -1.9199      0.00000
    101      -1.8541      0.00000
    102      -1.6328      0.00000
    103      -1.4617      0.00000
    104      -1.3477      0.00000
    105      -1.2424      0.00000
    106      -0.4223      0.00000
    107      -0.3947      0.00000
    108      -0.3246      0.00000
    109      -0.0618      0.00000
    110       0.0837      0.00000
    111       0.3467      0.00000
    112       0.3516      0.00000
    113       0.4036      0.00000
    114       0.4820      0.00000
    115       0.4856      0.00000
    116       0.5125      0.00000
    117       0.6287      0.00000
    118       0.7942      0.00000
    119       0.8170      0.00000
    120       0.8592      0.00000
    121       0.8754      0.00000
    122       0.9137      0.00000
    123       0.9401      0.00000
    124       1.0003      0.00000


--------------------------------------------------------------------------------------------------------


 soft charge-density along one line, spin component           1
         0         1         2         3         4         5         6         7         8         9
 total charge-density along one line
 
 soft charge-density along one line, spin component           2
         0         1         2         3         4         5         6         7         8         9
 total charge-density along one line
 
 pseudopotential strength for first ion, spin component:           1
-10.353  -0.002   0.004  -0.002  -0.002 -10.326  -0.002   0.003
 -0.002 -10.346  -0.000  -0.002   0.001  -0.002 -10.319  -0.000
  0.004  -0.000 -10.354   0.003   0.005   0.003  -0.000 -10.327
 -0.002  -0.002   0.003 -10.360  -0.002  -0.002  -0.002   0.003
 -0.002   0.001   0.005  -0.002 -10.351  -0.001   0.001   0.005
-10.326  -0.002   0.003  -0.002  -0.001 -10.275  -0.002   0.003
 -0.002 -10.319  -0.000  -0.002   0.001  -0.002 -10.268  -0.000
  0.003  -0.000 -10.327   0.003   0.005   0.003  -0.000 -10.276
 -0.002  -0.002   0.003 -10.332  -0.002  -0.002  -0.002   0.002
 -0.001   0.001   0.005  -0.002 -10.324  -0.001   0.001   0.004
  0.002   0.001  -0.001   0.003   0.002   0.002   0.001  -0.001
  0.003   0.001  -0.002   0.004   0.004   0.003   0.001  -0.002
  0.014  -0.022   0.005   0.000   0.007   0.013  -0.021   0.004
  0.000  -0.007  -0.024   0.015   0.001   0.000  -0.007  -0.023
 -0.008   0.000  -0.008  -0.021   0.014  -0.008   0.000  -0.007
  0.017  -0.026   0.006   0.000   0.009   0.016  -0.025   0.006
  0.000  -0.009  -0.029   0.018   0.001   0.000  -0.009  -0.028
 -0.010   0.000  -0.009  -0.025   0.017  -0.009   0.000  -0.009
 pseudopotential strength for first ion, spin component:           2
-10.352  -0.001   0.002  -0.001  -0.001 -10.325  -0.001   0.002
 -0.001 -10.345  -0.001  -0.001   0.002  -0.001 -10.318  -0.001
  0.002  -0.001 -10.353   0.002   0.004   0.002  -0.001 -10.326
 -0.001  -0.001   0.002 -10.359  -0.002  -0.001  -0.001   0.002
 -0.001   0.002   0.004  -0.002 -10.351  -0.001   0.002   0.004
-10.325  -0.001   0.002  -0.001  -0.001 -10.274  -0.001   0.002
 -0.001 -10.318  -0.001  -0.001   0.002  -0.001 -10.267  -0.001
  0.002  -0.001 -10.326   0.002   0.004   0.002  -0.001 -10.275
 -0.001  -0.001   0.002 -10.331  -0.001  -0.001  -0.001   0.001
 -0.001   0.002   0.004  -0.001 -10.324  -0.001   0.002   0.004
  0.001   0.000  -0.001   0.002   0.002   0.001   0.000  -0.001
  0.001   0.001  -0.002   0.004   0.003   0.001   0.001  -0.001
  0.014  -0.021   0.005   0.000   0.007   0.013  -0.021   0.005
  0.000  -0.007  -0.024   0.015   0.001   0.000  -0.007  -0.023
 -0.008   0.000  -0.008  -0.020   0.014  -0.008   0.000  -0.007
  0.017  -0.026   0.006   0.000   0.009   0.016  -0.025   0.006
  0.000  -0.009  -0.030   0.018   0.001   0.000  -0.008  -0.028
 -0.010   0.000  -0.009  -0.025   0.017  -0.009   0.000  -0.009
 total augmentation occupancy for first ion, spin component:           1
  2.706  -0.156   0.083   0.041   0.033  -0.739   0.118  -0.060  -0.046  -0.046  -0.047   0.000   0.110  -0.024  -0.032   0.002
 -0.156   2.826  -0.004   0.046  -0.130   0.118  -0.766   0.003  -0.049   0.135  -0.094   0.032  -0.168  -0.025  -0.029  -0.003
  0.083  -0.004   2.857   0.188  -0.136  -0.060   0.003  -0.844  -0.168   0.138   0.081   0.024   0.030  -0.135  -0.147   0.001
  0.041   0.046   0.188   2.759  -0.098  -0.046  -0.050  -0.168  -0.793   0.051  -0.162  -0.018  -0.011  -0.028  -0.145   0.001
  0.033  -0.130  -0.136  -0.098   2.716  -0.046   0.135   0.138   0.051  -0.726  -0.166   0.044   0.072   0.016   0.111   0.000
 -0.739   0.118  -0.060  -0.046  -0.046   0.737  -0.088   0.041   0.052   0.058   0.046  -0.000  -0.125   0.022   0.031   0.007
  0.118  -0.766   0.003  -0.050   0.135  -0.088   0.685  -0.001   0.052  -0.141   0.096  -0.031   0.178   0.030   0.026  -0.010
 -0.060   0.003  -0.844  -0.168   0.138   0.041  -0.001   0.805   0.155  -0.141  -0.082  -0.014  -0.032   0.155   0.152   0.002
 -0.046  -0.049  -0.168  -0.793   0.051   0.052   0.052   0.155   0.793  -0.013   0.161   0.006   0.013   0.017   0.165  -0.001
 -0.046   0.135   0.138   0.051  -0.726   0.058  -0.141  -0.141  -0.013   0.704   0.161  -0.039  -0.077  -0.011  -0.116   0.004
 -0.047  -0.094   0.081  -0.162  -0.166   0.046   0.096  -0.082   0.161   0.161   1.842  -0.261   0.052   0.187  -0.116  -0.005
  0.000   0.032   0.024  -0.018   0.044  -0.000  -0.031  -0.014   0.006  -0.039  -0.261   0.056  -0.011  -0.045   0.026   0.001
  0.110  -0.168   0.030  -0.011   0.072  -0.125   0.178  -0.032   0.013  -0.077   0.052  -0.011   0.085   0.003   0.006  -0.005
 -0.024  -0.025  -0.135  -0.028   0.016   0.022   0.030   0.155   0.017  -0.011   0.187  -0.045   0.003   0.074   0.024  -0.000
 -0.032  -0.029  -0.147  -0.145   0.111   0.031   0.026   0.152   0.165  -0.116  -0.116   0.026   0.006   0.024   0.106  -0.000
  0.002  -0.003   0.001   0.001   0.000   0.007  -0.010   0.002  -0.001   0.004  -0.005   0.001  -0.005  -0.000  -0.000   0.000
  0.001  -0.002  -0.005   0.008   0.000  -0.001  -0.002  -0.010  -0.000   0.000  -0.018   0.004  -0.000  -0.005  -0.000   0.000
 -0.002   0.001   0.003  -0.003   0.001  -0.002  -0.001  -0.008  -0.010   0.007   0.011  -0.002  -0.000  -0.000  -0.006  -0.000
 total augmentation occupancy for first ion, spin component:           2
  0.009   0.025  -0.026   0.023   0.016  -0.011  -0.019   0.019  -0.017  -0.011  -0.035  -0.003  -0.005   0.007   0.002   0.000
  0.025  -0.012  -0.015   0.016   0.008  -0.019   0.004   0.011  -0.012  -0.006  -0.026  -0.003  -0.003   0.005   0.000   0.000
 -0.026  -0.015  -0.003  -0.020  -0.015   0.019   0.011  -0.002   0.015   0.011   0.032   0.003   0.003  -0.008  -0.001  -0.000
  0.023   0.016  -0.020  -0.005   0.015  -0.017  -0.012   0.015  -0.000  -0.011  -0.030  -0.002  -0.003   0.006   0.001   0.000
  0.016   0.008  -0.015   0.015  -0.005  -0.011  -0.006   0.011  -0.011  -0.000  -0.021  -0.002  -0.002   0.005   0.001   0.000
 -0.011  -0.019   0.019  -0.017  -0.011   0.013   0.014  -0.014   0.012   0.008   0.026   0.002   0.004  -0.005  -0.001  -0.000
 -0.019   0.004   0.011  -0.012  -0.006   0.014   0.004  -0.008   0.008   0.005   0.020   0.001   0.001  -0.003  -0.000  -0.000
  0.019   0.011  -0.002   0.015   0.011  -0.014  -0.008   0.008  -0.012  -0.008  -0.024  -0.001  -0.003   0.005   0.001   0.000
 -0.017  -0.012   0.015  -0.000  -0.011   0.012   0.008  -0.012   0.007   0.008   0.023   0.001   0.003  -0.005  -0.002  -0.000
 -0.011  -0.006   0.011  -0.011  -0.000   0.008   0.005  -0.008   0.008   0.006   0.016   0.001   0.001  -0.003  -0.001  -0.000
 -0.035  -0.026   0.032  -0.030  -0.021   0.026   0.020  -0.024   0.023   0.016   0.056   0.001   0.007  -0.012  -0.002  -0.000
 -0.003  -0.003   0.003  -0.002  -0.002   0.002   0.001  -0.001   0.001   0.001   0.001   0.001   0.000  -0.001  -0.000   0.000
 -0.005  -0.003   0.003  -0.003  -0.002   0.004   0.001  -0.003   0.003   0.001   0.007   0.000   0.001  -0.001   0.000  -0.000
  0.007   0.005  -0.008   0.006   0.005  -0.005  -0.003   0.005  -0.005  -0.003  -0.012  -0.001  -0.001   0.002   0.001   0.000
  0.002   0.000  -0.001   0.001   0.001  -0.001  -0.000   0.001  -0.002  -0.001  -0.002  -0.000   0.000   0.001   0.000  -0.000
  0.000   0.000  -0.000   0.000   0.000  -0.000  -0.000   0.000  -0.000  -0.000  -0.000   0.000  -0.000   0.000  -0.000   0.000
 -0.000   0.000   0.000  -0.000  -0.000   0.000   0.000  -0.000   0.000   0.000   0.000   0.000   0.000  -0.000  -0.000  -0.000
 -0.000  -0.000   0.000  -0.000  -0.000   0.000   0.000  -0.000   0.000   0.000   0.000  -0.000   0.000  -0.000  -0.000  -0.000


------------------------ aborting loop because EDIFF is reached ----------------------------------------


    CHARGE:  cpu time    0.07: real time    0.07
    FORLOC:  cpu time    0.01: real time    0.01
    FORNL :  cpu time    0.61: real time    0.61
    STRESS:  cpu time    0.71: real time    0.71
    FORCOR:  cpu time    0.22: real time    0.23
    FORHAR:  cpu time    0.03: real time    0.03
    MIXING:  cpu time    0.01: real time    0.01
    OFIELD:  cpu time    0.00: real time    0.00

  FORCE on cell =-STRESS in cart. coord.  units (eV):
  Direction    XX          YY          ZZ          XY          YZ          ZX
  --------------------------------------------------------------------------------------
  Alpha Z    37.23663    37.23663    37.23663
  Ewald    7706.37642  8177.33367  8682.97695    46.29466  1441.44448  -591.74741
  Hartree 13361.79710 13768.58302 14329.73179    52.87633  1272.79786  -511.58121
  E(xc)    -985.35913  -985.18854  -985.58120    -0.03945     0.37971    -0.21608
  Local  -23832.29299-24705.42670-25779.53678  -101.66595 -2711.47549  1101.48097
  n-local  -185.84839  -187.07711  -185.44057     0.80051    -0.03966     0.16514
  augment  1561.59340  1560.60580  1562.36119     0.49450    -0.79095     0.51673
  Kinetic  2330.21414  2327.49868  2331.61315     1.32881    -2.33917     1.40472
  Fock        0.00000     0.00000     0.00000     0.00000     0.00000     0.00000
  -------------------------------------------------------------------------------------
  Total      -6.28281    -6.43456    -6.63885     0.08941    -0.02321     0.02285
  in kB      -1.52484    -1.56166    -1.61125     0.02170    -0.00563     0.00555
  external pressure =       -1.57 kB  Pullay stress =        0.00 kB


 VOLUME and BASIS-vectors are now :
 -----------------------------------------------------------------------------
  energy-cutoff  :      249.84
  volume of cell :     6601.49
      direct lattice vectors                 reciprocal lattice vectors
    18.759181550  0.000000000  0.000000000     0.053307230  0.000000000  0.000000000
     0.000000000 18.759181550  0.000000000     0.000000000  0.053307230  0.000000000
     0.000000000  0.000000000 18.759181550     0.000000000  0.000000000  0.053307230

  length of vectors
    18.759181550 18.759181550 18.759181550     0.053307230  0.053307230  0.053307230


 FORCES acting on ions
    electron-ion (+dipol)            ewald-force                    non-local-force                 convergence-correction
 -----------------------------------------------------------------------------------------------
   -.573E+03 0.211E+03 0.104E+04   0.570E+03 -.209E+03 -.104E+04   0.227E+01 -.105E+01 -.338E+01   0.220E-02 -.707E-04 0.156E-01
   0.377E+03 -.517E+03 0.104E+04   -.376E+03 0.515E+03 -.103E+04   -.156E+01 0.225E+01 -.376E+01   0.207E-02 -.981E-02 -.138E-01
   0.373E+03 0.674E+03 0.933E+03   -.371E+03 -.671E+03 -.930E+03   -.106E+01 -.280E+01 -.293E+01   0.341E-02 -.291E-02 0.110E-01
   -.555E+03 -.882E+03 0.597E+03   0.553E+03 0.879E+03 -.596E+03   0.206E+01 0.319E+01 -.167E+01   0.623E-02 0.548E-02 0.948E-02
   0.113E+04 -.458E+02 0.397E+03   -.113E+04 0.455E+02 -.396E+03   -.400E+01 0.310E+00 -.947E+00   -.904E-02 -.482E-02 0.107E-02
   -.512E+03 0.108E+04 0.199E+03   0.510E+03 -.107E+04 -.199E+03   0.204E+01 -.410E+01 -.325E+00   -.143E-01 0.272E-01 -.139E-01
   -.117E+04 0.124E+03 0.247E+03   0.117E+04 -.124E+03 -.246E+03   0.401E+01 -.367E+00 -.127E+01   0.130E-01 0.556E-02 -.222E-02
   0.492E+03 -.927E+03 0.219E+03   -.491E+03 0.924E+03 -.219E+03   -.115E+01 0.219E+01 0.585E-01   -.142E-01 0.702E-02 -.117E-01
   -.331E+02 0.791E+02 0.590E+02   0.331E+02 -.791E+02 -.593E+02   0.210E-01 0.528E-01 0.338E+00   0.682E-02 -.122E-01 0.204E-01
   0.647E+03 0.102E+04 0.248E+02   -.644E+03 -.102E+04 -.243E+02   -.236E+01 -.349E+01 -.476E+00   -.142E-01 -.435E-02 -.351E-03
   -.870E+03 -.644E+03 -.383E+03   0.868E+03 0.643E+03 0.382E+03   0.241E+01 0.143E+01 0.824E+00   0.269E-01 0.394E-02 0.237E-01
   0.945E+03 0.248E+03 -.600E+03   -.943E+03 -.247E+03 0.598E+03   -.231E+01 -.996E+00 0.145E+01   -.113E-01 -.919E-02 0.217E-01
   -.869E+03 0.428E+03 -.723E+03   0.866E+03 -.425E+03 0.721E+03   0.314E+01 -.259E+01 0.210E+01   -.466E-02 -.122E-01 -.555E-02
   -.138E+03 -.102E+04 -.506E+03   0.138E+03 0.102E+04 0.504E+03   0.767E+00 0.537E+01 0.215E+01   -.264E-02 -.554E-02 -.172E-01
   0.434E+02 0.874E+03 -.833E+03   -.439E+02 -.870E+03 0.830E+03   0.461E+00 -.379E+01 0.253E+01   0.105E-01 -.363E-02 -.104E-01
   0.787E+03 -.572E+03 -.627E+03   -.783E+03 0.569E+03 0.624E+03   -.426E+01 0.292E+01 0.287E+01   0.626E-02 -.145E-04 -.704E-02
   -.716E+02 -.123E+03 -.108E+04   0.719E+02 0.122E+03 0.108E+04   -.368E+00 0.114E+01 0.184E+01   0.100E-02 -.112E-02 0.233E-02
 -----------------------------------------------------------------------------------------------
   -.111E+00 0.354E+00 0.559E+00   -.298E-12 -.256E-12 -.114E-11   0.102E+00 -.326E+00 -.595E+00   0.798E-02 -.166E-01 0.230E-01
 
 
 POSITION                                       TOTAL-FORCE (eV/Angst)
 -----------------------------------------------------------------------------------
     11.00175      8.92193      6.59780         0.001565     -0.005666      0.015630
      8.69053     10.52816      6.68400         0.002697     -0.006868      0.004399
      8.55614      7.72196      6.87206         0.004909     -0.004393      0.008842
     10.99341     11.45625      7.92063        -0.006229      0.002959      0.014363
      6.82688      9.39153      8.39776        -0.000391      0.000779      0.004966
     10.78250      6.82253      8.89329        -0.001757     -0.004184     -0.025091
     12.60067      9.16478      8.79142         0.014641      0.016359      0.008121
      8.41676     11.68324      9.28267        -0.004879     -0.004357     -0.017722
      9.64484      9.20878      9.22137        -0.012663      0.025484      0.013678
      7.86108      6.82889      9.35342        -0.019827     -0.000459      0.009376
     11.67620     11.13721     10.56108         0.021331     -0.000966      0.008572
      7.20698      8.94816     11.07972        -0.006904     -0.010357      0.005582
     11.79348      8.46607     11.31056         0.005207     -0.001704     -0.008033
      9.72185     12.79893     11.46762         0.002341     -0.000251     -0.014607
      9.36754      7.27203     11.59345        -0.001920     -0.005256     -0.011489
      7.23190     11.57350     11.79420        -0.000122      0.000752     -0.006469
      9.59574     10.04432     12.14721         0.002002     -0.001872     -0.010117
 -----------------------------------------------------------------------------------
    total drift:                               -0.001540      0.011145     -0.012484


--------------------------------------------------------------------------------------------------------



  FREE ENERGIE OF THE ION-ELECTRON SYSTEM (eV)
  ---------------------------------------------------
  free  energy   TOTEN  =       -32.90965544 eV

  energy  without entropy=      -32.90965544  energy(sigma->0) =      -32.90965544
 
 d Force = 0.5180288E-04[ 0.499E-04, 0.537E-04]  d Energy = 0.1096595E-03-0.579E-04
 d Force = 0.1522574E+01[ 0.152E+01, 0.152E+01]  d Ewald  = 0.1522574E+01-0.449E-08


--------------------------------------------------------------------------------------------------------


    POTLOK:  cpu time    0.24: real time    0.24


--------------------------------------------------------------------------------------------------------




--------------------------------------------------------------------------------------------------------


  
 reached required accuracy - stopping structural energy minimisation
     LOOP+:  cpu time    4.81: real time    4.87
    4ORBIT:  cpu time    0.00: real time    0.00

 total amount of memory used by VASP on root node    55478. kBytes
========================================================================

   base      :      30000. kBytes
   nonl-proj :       1534. kBytes
   fftplans  :       5761. kBytes
   grid      :      14451. kBytes
   one-center:         46. kBytes
   wavefun   :       3686. kBytes
 
  
  
 General timing and accounting informations for this job:
 ========================================================
  
                  Total CPU time used (sec):      364.851
                            User time (sec):      360.243
                          System time (sec):        4.608
                         Elapsed time (sec):      389.320
  
                   Maximum memory used (kb):       64544.
                   Average memory used (kb):           0.
  
                          Minor page faults:       712146
                          Major page faults:            0
                 Voluntary context switches:         7492
