 running on   64 total cores
 distrk:  each k-point on   64 cores,    1 groups
 distr:  one band on   16 cores,    4 groups
 using from now: INCAR     
 vasp.5.3.5 31Mar14 (build Feb 01 2018 12:10:03) gamma-only                     
  
 POSCAR found type information on POSCAR  Ag
 POSCAR found :  1 types and      55 ions
 scaLAPACK will be used

 ----------------------------------------------------------------------------- 
|                                                                             |
|  ADVICE TO THIS USER RUNNING 'VASP/VAMP'   (HEAR YOUR MASTER'S VOICE ...):  |
|                                                                             |
|      You have a (more or less) 'large supercell' and for larger cells       |
|      it might be more efficient to use real space projection opertators     |
|      So try LREAL= Auto  in the INCAR   file.                               |
|      Mind: At the moment your POTCAR file does not contain real space       |
|       projectors, and has to be modified,  BUT if you                       |
|      want to do an extremely  accurate calculation you might also keep the  |
|      reciprocal projection scheme          (i.e. LREAL=.FALSE.)             |
|                                                                             |
 ----------------------------------------------------------------------------- 

 LDA part: xc-table for Pade appr. of Perdew
 POSCAR, INCAR and KPOINTS ok, starting setup
 WARNING: small aliasing (wrap around) errors must be expected
 FFT: planning ...
 WAVECAR not read
 entering main loop
       N       E                     dE             d eps       ncg     rms          rms(c)
DAV:   1     0.537578730542E+04    0.53758E+04   -0.11758E+05  1584   0.607E+02
DAV:   2     0.108260995572E+04   -0.42932E+04   -0.38209E+04  2680   0.153E+02
DAV:   3    -0.562303263977E+02   -0.11388E+04   -0.10371E+04  2016   0.884E+01
DAV:   4    -0.117624622979E+03   -0.61394E+02   -0.60436E+02  1744   0.220E+01
DAV:   5    -0.118526993517E+03   -0.90237E+00   -0.90052E+00  1776   0.317E+00    0.470E+01
DAV:   6    -0.568028948865E+02    0.61724E+02   -0.19336E+02  1584   0.164E+01    0.265E+01
DAV:   7    -0.432324766030E+02    0.13570E+02   -0.12896E+01  1664   0.485E+00    0.158E+01
DAV:   8    -0.371121695013E+02    0.61203E+01   -0.33169E+00  1712   0.268E+00    0.829E+00
DAV:   9    -0.409323534755E+02   -0.38202E+01   -0.70672E-01  1744   0.109E+00    0.588E+00
DAV:  10    -0.476640704872E+02   -0.67317E+01   -0.14142E+00  1696   0.167E+00    0.485E+00
DAV:  11    -0.662809193667E+02   -0.18617E+02   -0.65703E+00  1640   0.269E+00    0.394E+00
DAV:  12    -0.807697993520E+02   -0.14489E+02   -0.64256E+00  1648   0.315E+00    0.352E+00
DAV:  13    -0.858988096303E+02   -0.51290E+01   -0.16060E+00  1704   0.155E+00    0.264E+00
DAV:  14    -0.959066199554E+02   -0.10008E+02   -0.41129E+00  1616   0.178E+00    0.183E+00
DAV:  15    -0.103662444832E+03   -0.77558E+01   -0.21547E+00  1648   0.123E+00    0.258E+00
DAV:  16    -0.104316633595E+03   -0.65419E+00   -0.80167E-02  1880   0.503E-01    0.221E+00
DAV:  17    -0.107176667870E+03   -0.28600E+01   -0.49618E-01  1640   0.106E+00    0.150E+00
DAV:  18    -0.110176065304E+03   -0.29994E+01   -0.54498E-01  1600   0.118E+00    0.789E-01
DAV:  19    -0.112496823746E+03   -0.23208E+01   -0.27149E-01  1624   0.614E-01    0.691E-01
DAV:  20    -0.113760028807E+03   -0.12632E+01   -0.46225E-02  1704   0.305E-01    0.443E-01
DAV:  21    -0.115232874419E+03   -0.14728E+01   -0.54180E-02  1640   0.303E-01    0.236E-01
DAV:  22    -0.115575710260E+03   -0.34284E+00   -0.47696E-03  1704   0.948E-02    0.194E-01
DAV:  23    -0.115803329388E+03   -0.22762E+00   -0.24643E-03  1640   0.100E-01    0.109E-01
DAV:  24    -0.116042010548E+03   -0.23868E+00   -0.32560E-03  1648   0.651E-02    0.671E-02
DAV:  25    -0.116108051742E+03   -0.66041E-01   -0.24506E-04  1144   0.260E-02    0.537E-02
DAV:  26    -0.116173935336E+03   -0.65884E-01   -0.37328E-04  1096   0.318E-02    0.297E-02
DAV:  27    -0.116200706617E+03   -0.26771E-01   -0.16081E-04  1112   0.176E-02    0.214E-02
DAV:  28    -0.116212239061E+03   -0.11532E-01   -0.47022E-05  1056   0.881E-03    0.150E-02
DAV:  29    -0.116222386234E+03   -0.10147E-01   -0.10041E-04  1056   0.753E-03    0.104E-02
DAV:  30    -0.116225792292E+03   -0.34061E-02   -0.12813E-05  1096   0.418E-03    0.702E-03
DAV:  31    -0.116228489817E+03   -0.26975E-02   -0.81763E-06  1016   0.488E-03    0.326E-03
DAV:  32    -0.116230190909E+03   -0.17011E-02   -0.53092E-06  1016   0.344E-03    0.222E-03
DAV:  33    -0.116230676524E+03   -0.48562E-03   -0.20198E-06  1016   0.268E-03    0.130E-03
DAV:  34    -0.116230874941E+03   -0.19842E-03   -0.95197E-07  1008   0.152E-03    0.846E-04
DAV:  35    -0.116231012762E+03   -0.13782E-03   -0.50041E-07  1024   0.104E-03    0.520E-04
DAV:  36    -0.116231106636E+03   -0.93874E-04   -0.30823E-07  1000   0.674E-04
   1 F= -.11623111E+03 E0= -.11623111E+03  d E =-.116231E+03  mag=     1.0005
 curvature:   0.00 expect dE= 0.000E+00 dE for cont linesearch  0.000E+00
 trial: gam= 0.00000 g(F)=  0.615E+00 g(S)=  0.000E+00 ort = 0.000E+00 (trialstep = 0.100E+01)
 search vector abs. value=  0.615E+00
 bond charge predicted
       N       E                     dE             d eps       ncg     rms          rms(c)
DAV:   1    -0.116787367235E+03   -0.55635E+00   -0.41766E+01  1600   0.887E+00    0.793E-01
DAV:   2    -0.116807293948E+03   -0.19927E-01   -0.19990E-01  1648   0.845E-01    0.578E-01
DAV:   3    -0.116806514925E+03    0.77902E-03   -0.60390E-03  1648   0.140E-01    0.233E-01
DAV:   4    -0.116806401874E+03    0.11305E-03   -0.75754E-04  1704   0.908E-02    0.366E-02
DAV:   5    -0.116806354193E+03    0.47681E-04   -0.12437E-04  1024   0.500E-02
   2 F= -.11680635E+03 E0= -.11680635E+03  d E =-.575248E+00  mag=     1.0003
 ZBRENT: can't locate minimum, use default step
 trial-energy change:   -0.575248  1 .order   -0.576239   -0.614774   -0.537704
 step:   4.0000(harm=  7.9768)  dis= 0.05230  next Energy=  -118.683083 (dE=-0.245E+01)
 bond charge predicted
       N       E                     dE             d eps       ncg     rms          rms(c)
DAV:   1    -0.117921728901E+03   -0.11153E+01   -0.37753E+02  1568   0.267E+01    0.203E+00
DAV:   2    -0.118099933552E+03   -0.17820E+00   -0.17783E+00  1640   0.254E+00    0.158E+00
DAV:   3    -0.118094162193E+03    0.57714E-02   -0.40923E-02  1624   0.364E-01    0.809E-01
DAV:   4    -0.118092776280E+03    0.13859E-02   -0.10413E-02  1664   0.254E-01    0.117E-01
DAV:   5    -0.118092414699E+03    0.36158E-03   -0.10101E-03  1648   0.159E-01    0.663E-02
DAV:   6    -0.118092357340E+03    0.57358E-04   -0.69707E-04  1656   0.685E-02
   3 F= -.11809236E+03 E0= -.11809236E+03  d E =-.186125E+01  mag=     1.0001
 curvature:  -2.69 expect dE=-0.522E+00 dE for cont linesearch -0.464E+00
 ZBRENT: increasing intervall
 opt :  10.0000  next Energy=  -118.770132 (dE=-0.254E+01)
 bond charge predicted
       N       E                     dE             d eps       ncg     rms          rms(c)
DAV:   1    -0.118258468241E+03   -0.16605E+00   -0.15331E+03  1568   0.545E+01    0.304E+00
DAV:   2    -0.118976523241E+03   -0.71806E+00   -0.72952E+00  1648   0.525E+00    0.265E+00
DAV:   3    -0.118966746162E+03    0.97771E-02   -0.12015E-01  1680   0.634E-01    0.182E+00
DAV:   4    -0.118951781960E+03    0.14964E-01   -0.58335E-02  1648   0.462E-01    0.489E-01
DAV:   5    -0.118951837413E+03   -0.55453E-04   -0.32353E-03  1672   0.318E-01    0.139E-01
DAV:   6    -0.118951676892E+03    0.16052E-03   -0.10283E-03  1616   0.142E-01    0.920E-02
DAV:   7    -0.118951883351E+03   -0.20646E-03   -0.80243E-04  1688   0.682E-02    0.285E-02
DAV:   8    -0.118952213133E+03   -0.32978E-03   -0.61424E-05  1072   0.154E-02    0.138E-02
DAV:   9    -0.118952457554E+03   -0.24442E-03   -0.11395E-05  1072   0.837E-03    0.808E-03
DAV:  10    -0.118952659901E+03   -0.20235E-03   -0.45266E-06  1032   0.437E-03    0.394E-03
DAV:  11    -0.118952867430E+03   -0.20753E-03   -0.38685E-06  1056   0.234E-03    0.245E-03
DAV:  12    -0.118953163621E+03   -0.29619E-03   -0.87064E-06  1040   0.253E-03    0.165E-03
DAV:  13    -0.118953304067E+03   -0.14045E-03   -0.38691E-06  1088   0.135E-03    0.134E-03
DAV:  14    -0.118953357192E+03   -0.53125E-04   -0.88281E-07  1024   0.769E-04
   4 F= -.11895336E+03 E0= -.11895336E+03  d E =-.272225E+01  mag=     1.0000
 curvature:  -3.94 expect dE=-0.437E+00 dE for cont linesearch -0.340E-02
 ZBRENT: bracketing found
 ZBRENT: interpolating
 opt :   9.6031  next Energy=  -118.957930 (dE=-0.273E+01)
 bond charge predicted
       N       E                     dE             d eps       ncg     rms          rms(c)
DAV:   1    -0.118955559889E+03   -0.22558E-02   -0.65721E+00  1616   0.351E+00    0.193E-01
DAV:   2    -0.118958648728E+03   -0.30888E-02   -0.31900E-02  1696   0.338E-01    0.141E-01
DAV:   3    -0.118958600621E+03    0.48107E-04   -0.61851E-04  1672   0.457E-02
   5 F= -.11895860E+03 E0= -.11895860E+03  d E =-.272749E+01  mag=     1.0000
 curvature:  -5.29 expect dE=-0.540E+00 dE for cont linesearch -0.271E-04
 trial: gam= 0.16885 g(F)=  0.102E+00 g(S)=  0.000E+00 ort =-0.177E-02 (trialstep = 0.272E+01)
 search vector abs. value=  0.119E+00
 bond charge predicted
       N       E                     dE             d eps       ncg     rms          rms(c)
DAV:   1    -0.119171751687E+03   -0.21310E+00   -0.59214E+01  1568   0.105E+01    0.563E-01
DAV:   2    -0.119199284058E+03   -0.27532E-01   -0.27216E-01  1624   0.100E+00    0.438E-01
DAV:   3    -0.119198621913E+03    0.66214E-03   -0.51120E-03  1664   0.143E-01    0.273E-01
DAV:   4    -0.119198136197E+03    0.48572E-03   -0.25699E-03  1656   0.887E-02    0.533E-02
DAV:   5    -0.119198113128E+03    0.23069E-04   -0.88042E-05  1024   0.420E-02
   6 F= -.11919811E+03 E0= -.11919811E+03  d E =-.239513E+00  mag=     1.0000
 trial-energy change:   -0.239513  1 .order   -0.241177   -0.276780   -0.205575
 step:  10.5754(harm= 10.5754)  dis= 0.11096  next Energy=  -119.496539 (dE=-0.538E+00)
 bond charge predicted
       N       E                     dE             d eps       ncg     rms          rms(c)
DAV:   1    -0.119302021629E+03   -0.10389E+00   -0.49839E+02  1568   0.307E+01    0.136E+00
DAV:   2    -0.119530827117E+03   -0.22881E+00   -0.22758E+00  1616   0.290E+00    0.114E+00
DAV:   3    -0.119527294876E+03    0.35322E-02   -0.37912E-02  1664   0.365E-01    0.811E-01
DAV:   4    -0.119521726288E+03    0.55686E-02   -0.20493E-02  1656   0.222E-01    0.215E-01
DAV:   5    -0.119521842222E+03   -0.11593E-03   -0.91048E-04  1696   0.749E-02    0.801E-02
DAV:   6    -0.119521750802E+03    0.91420E-04   -0.30350E-04  1256   0.254E-02
   7 F= -.11952175E+03 E0= -.11952175E+03  d E =-.563150E+00  mag=     1.0000
 curvature:  -6.18 expect dE=-0.189E+00 dE for cont linesearch -0.501E-02
 ZBRENT: extrapolating
 opt :  11.7488  next Energy=  -119.527513 (dE=-0.569E+00)
 bond charge predicted
       N       E                     dE             d eps       ncg     rms          rms(c)
DAV:   1    -0.119523889444E+03   -0.20472E-02   -0.10994E+01  1608   0.453E+00    0.199E-01
DAV:   2    -0.119528955662E+03   -0.50662E-02   -0.50686E-02  1664   0.430E-01    0.148E-01
DAV:   3    -0.119528880475E+03    0.75187E-04   -0.87124E-04  1688   0.569E-02
   8 F= -.11952888E+03 E0= -.11952888E+03  d E =-.570280E+00  mag=     1.0000
 curvature:  -7.11 expect dE=-0.253E+00 dE for cont linesearch -0.124E-03
 trial: gam= 0.34886 g(F)=  0.356E-01 g(S)=  0.000E+00 ort = 0.144E-02 (trialstep = 0.453E+01)
 search vector abs. value=  0.511E-01
 bond charge predicted
       N       E                     dE             d eps       ncg     rms          rms(c)
DAV:   1    -0.119632129149E+03   -0.10317E+00   -0.70384E+01  1568   0.115E+01    0.478E-01
DAV:   2    -0.119664103050E+03   -0.31974E-01   -0.31821E-01  1648   0.108E+00    0.389E-01
DAV:   3    -0.119663493438E+03    0.60961E-03   -0.52111E-03  1664   0.143E-01    0.266E-01
DAV:   4    -0.119662748437E+03    0.74500E-03   -0.28772E-03  1672   0.809E-02    0.709E-02
DAV:   5    -0.119662810529E+03   -0.62092E-04   -0.12562E-04  1048   0.252E-02
   9 F= -.11966281E+03 E0= -.11966281E+03  d E =-.133930E+00  mag=     1.0000
 trial-energy change:   -0.133930  1 .order   -0.134821   -0.163632   -0.106010
 step:  17.5196(harm= 12.8536)  dis= 0.16646  next Energy=  -119.793893 (dE=-0.265E+00)
 bond charge predicted
       N       E                     dE             d eps       ncg     rms          rms(c)
DAV:   1    -0.119492264892E+03    0.17048E+00   -0.58948E+02  1568   0.335E+01    0.118E+00
DAV:   2    -0.119766138781E+03   -0.27387E+00   -0.26953E+00  1656   0.316E+00    0.993E-01
DAV:   3    -0.119763108876E+03    0.30299E-02   -0.41801E-02  1656   0.386E-01    0.735E-01
DAV:   4    -0.119756041392E+03    0.70675E-02   -0.16049E-02  1672   0.195E-01    0.305E-01
DAV:   5    -0.119756031995E+03    0.93971E-05   -0.37602E-03  1680   0.101E-01    0.936E-02
DAV:   6    -0.119756048388E+03   -0.16393E-04   -0.24459E-04  1136   0.259E-02
  10 F= -.11975605E+03 E0= -.11975605E+03  d E =-.227168E+00  mag=     1.0000
 curvature:  -6.24 expect dE=-0.987E-01 dE for cont linesearch -0.596E-02
 ZBRENT: interpolating
 opt :  14.5332  next Energy=  -119.766485 (dE=-0.238E+00)
 bond charge predicted
       N       E                     dE             d eps       ncg     rms          rms(c)
DAV:   1    -0.119754561969E+03    0.14700E-02   -0.30621E+01  1568   0.757E+00    0.270E-01
DAV:   2    -0.119769279465E+03   -0.14717E-01   -0.14199E-01  1688   0.724E-01    0.201E-01
DAV:   3    -0.119769140130E+03    0.13934E-03   -0.23400E-03  1664   0.973E-02    0.142E-01
DAV:   4    -0.119768946476E+03    0.19365E-03   -0.10224E-03  1696   0.482E-02    0.449E-02
DAV:   5    -0.119769031777E+03   -0.85301E-04   -0.10189E-04  1056   0.204E-02
  11 F= -.11976903E+03 E0= -.11976903E+03  d E =-.240151E+00  mag=     1.0000
 curvature: -10.92 expect dE=-0.116E+00 dE for cont linesearch -0.357E-03
 trial: gam= 0.35712 g(F)=  0.106E-01 g(S)=  0.000E+00 ort =-0.129E-02 (trialstep = 0.653E+01)
 search vector abs. value=  0.162E-01
 bond charge predicted
       N       E                     dE             d eps       ncg     rms          rms(c)
DAV:   1    -0.119806741905E+03   -0.37795E-01   -0.46178E+01  1568   0.931E+00    0.278E-01
DAV:   2    -0.119828242641E+03   -0.21501E-01   -0.21055E-01  1624   0.891E-01    0.271E-01
DAV:   3    -0.119828010806E+03    0.23183E-03   -0.34483E-03  1712   0.114E-01    0.200E-01
DAV:   4    -0.119827244426E+03    0.76638E-03   -0.13857E-03  1672   0.549E-02    0.103E-01
DAV:   5    -0.119827211168E+03    0.33258E-04   -0.75771E-04  1664   0.414E-02
  12 F= -.11982721E+03 E0= -.11982721E+03  d E =-.581794E-01  mag=     1.0000
 ZBRENT: can't locate minimum, use default step
 trial-energy change:   -0.058179  1 .order   -0.058464   -0.066096   -0.050831
 step:  26.1106(harm= 28.2645)  dis= 0.09346  next Energy=  -119.912129 (dE=-0.143E+00)
 bond charge predicted
       N       E                     dE             d eps       ncg     rms          rms(c)
DAV:   1    -0.119715677282E+03    0.11157E+00   -0.41867E+02  1568   0.281E+01    0.851E-01
DAV:   2    -0.119913301503E+03   -0.19762E+00   -0.19208E+00  1632   0.269E+00    0.804E-01
DAV:   3    -0.119911443181E+03    0.18583E-02   -0.31208E-02  1696   0.337E-01    0.587E-01
DAV:   4    -0.119905244708E+03    0.61985E-02   -0.10406E-02  1664   0.155E-01    0.320E-01
DAV:   5    -0.119904743947E+03    0.50076E-03   -0.63561E-03  1680   0.120E-01    0.109E-01
DAV:   6    -0.119904713812E+03    0.30136E-04   -0.20977E-04  1096   0.263E-02
  13 F= -.11990471E+03 E0= -.11990471E+03  d E =-.135682E+00  mag=     1.0000
 curvature: -22.37 expect dE=-0.191E+00 dE for cont linesearch -0.533E-03
 trial: gam= 0.69900 g(F)=  0.852E-02 g(S)=  0.000E+00 ort = 0.621E-03 (trialstep = 0.977E+01)
 search vector abs. value=  0.173E-01
 bond charge predicted
       N       E                     dE             d eps       ncg     rms          rms(c)
DAV:   1    -0.119928694341E+03   -0.23950E-01   -0.11046E+02  1568   0.144E+01    0.382E-01
DAV:   2    -0.119981455578E+03   -0.52761E-01   -0.50297E-01  1640   0.138E+00    0.376E-01
DAV:   3    -0.119980964133E+03    0.49144E-03   -0.81224E-03  1696   0.178E-01    0.279E-01
DAV:   4    -0.119979286195E+03    0.16779E-02   -0.22277E-03  1672   0.731E-02    0.164E-01
DAV:   5    -0.119979022682E+03    0.26351E-03   -0.25950E-03  1648   0.776E-02    0.575E-02
DAV:   6    -0.119979056170E+03   -0.33487E-04   -0.43871E-05  1056   0.221E-02
  14 F= -.11997906E+03 E0= -.11997906E+03  d E =-.743424E-01  mag=     1.0000
 trial-energy change:   -0.074342  1 .order   -0.075352   -0.087504   -0.063200
 step:  35.1913(harm= 35.1913)  dis= 0.11604  next Energy=  -120.062239 (dE=-0.158E+00)
 bond charge predicted
       N       E                     dE             d eps       ncg     rms          rms(c)
DAV:   1    -0.119702218164E+03    0.27680E+00   -0.75492E+02  1568   0.380E+01    0.119E+00
DAV:   2    -0.120058487072E+03   -0.35627E+00   -0.34762E+00  1664   0.364E+00    0.985E-01
DAV:   3    -0.120052900504E+03    0.55866E-02   -0.56649E-02  1688   0.476E-01    0.690E-01
DAV:   4    -0.120042293939E+03    0.10607E-01   -0.16749E-02  1656   0.205E-01    0.369E-01
DAV:   5    -0.120041020405E+03    0.12735E-02   -0.10353E-02  1672   0.168E-01    0.119E-01
DAV:   6    -0.120041124641E+03   -0.10424E-03   -0.25362E-04  1112   0.653E-02    0.788E-02
DAV:   7    -0.120041267726E+03   -0.14309E-03   -0.23613E-04  1128   0.438E-02    0.250E-02
DAV:   8    -0.120041406161E+03   -0.13844E-03   -0.60635E-05  1080   0.167E-02    0.105E-02
DAV:   9    -0.120041496153E+03   -0.89992E-04   -0.73850E-06  1056   0.514E-03
  15 F= -.12004150E+03 E0= -.12004150E+03  d E =-.136782E+00  mag=     1.0000
 curvature: -33.99 expect dE=-0.474E+00 dE for cont linesearch -0.442E-02
 trial: gam= 1.85894 g(F)=  0.140E-01 g(S)=  0.000E+00 ort =-0.150E-02 (trialstep = 0.377E+01)
 search vector abs. value=  0.681E-01
 bond charge predicted
       N       E                     dE             d eps       ncg     rms          rms(c)
DAV:   1    -0.120051576654E+03   -0.10170E-01   -0.64699E+01  1584   0.110E+01    0.267E-01
DAV:   2    -0.120081526409E+03   -0.29950E-01   -0.29105E-01  1640   0.105E+00    0.274E-01
DAV:   3    -0.120081193368E+03    0.33304E-03   -0.46977E-03  1704   0.138E-01    0.208E-01
DAV:   4    -0.120080267687E+03    0.92568E-03   -0.92394E-04  1664   0.480E-02    0.134E-01
DAV:   5    -0.120079975583E+03    0.29210E-03   -0.21398E-03  1656   0.696E-02    0.431E-02
DAV:   6    -0.120080007064E+03   -0.31481E-04   -0.26055E-05  1008   0.175E-02
  16 F= -.12008001E+03 E0= -.12008001E+03  d E =-.385109E-01  mag=     1.0000
 ZBRENT: can't locate minimum, use default step
 trial-energy change:   -0.038511  1 .order   -0.038945   -0.042094   -0.035796
 step:  15.0845(harm= 25.2045)  dis= 0.07695  next Energy=  -120.182167 (dE=-0.141E+00)
 bond charge predicted
       N       E                     dE             d eps       ncg     rms          rms(c)
DAV:   1    -0.119887259896E+03    0.19272E+00   -0.58680E+02  1568   0.334E+01    0.966E-01
DAV:   2    -0.120163453952E+03   -0.27619E+00   -0.26897E+00  1648   0.321E+00    0.828E-01
DAV:   3    -0.120159233308E+03    0.42206E-02   -0.43709E-02  1696   0.429E-01    0.590E-01
DAV:   4    -0.120151035518E+03    0.81978E-02   -0.10580E-02  1680   0.165E-01    0.338E-01
DAV:   5    -0.120149245133E+03    0.17904E-02   -0.11025E-02  1656   0.170E-01    0.102E-01
DAV:   6    -0.120149331242E+03   -0.86109E-04   -0.19922E-04  1128   0.572E-02
  17 F= -.12014933E+03 E0= -.12014933E+03  d E =-.107835E+00  mag=     1.0000
 curvature: -59.78 expect dE=-0.697E+00 dE for cont linesearch -0.140E-01
 ZBRENT: increasing intervall
 opt :  37.7113  next Energy=  -120.115441 (dE=-0.739E-01)
 bond charge predicted
       N       E                     dE             d eps       ncg     rms          rms(c)
DAV:   1    -0.118926235199E+03    0.12230E+01   -0.24100E+03  1568   0.689E+01    0.278E+00
DAV:   2    -0.120118727582E+03   -0.11925E+01   -0.11603E+01  1672   0.677E+00    0.177E+00
DAV:   3    -0.120099740980E+03    0.18987E-01   -0.19155E-01  1680   0.914E-01    0.115E+00
DAV:   4    -0.120072264765E+03    0.27476E-01   -0.41806E-02  1688   0.343E-01    0.644E-01
DAV:   5    -0.120067363729E+03    0.49010E-02   -0.26164E-02  1648   0.287E-01    0.184E-01
DAV:   6    -0.120067715489E+03   -0.35176E-03   -0.72224E-04  1712   0.128E-01    0.119E-01
DAV:   7    -0.120068092354E+03   -0.37686E-03   -0.23510E-04  1144   0.705E-02    0.412E-02
DAV:   8    -0.120068384019E+03   -0.29166E-03   -0.86522E-05  1128   0.240E-02    0.162E-02
DAV:   9    -0.120068623694E+03   -0.23967E-03   -0.14491E-05  1048   0.626E-03    0.779E-03
DAV:  10    -0.120068803517E+03   -0.17982E-03   -0.52317E-06  1064   0.683E-03    0.364E-03
DAV:  11    -0.120068983525E+03   -0.18001E-03   -0.41474E-06  1056   0.306E-03    0.272E-03
DAV:  12    -0.120069177751E+03   -0.19423E-03   -0.44705E-06  1072   0.172E-03    0.190E-03
DAV:  13    -0.120069377391E+03   -0.19964E-03   -0.58590E-06  1048   0.225E-03    0.174E-03
DAV:  14    -0.120069479786E+03   -0.10240E-03   -0.27044E-06  1080   0.119E-03    0.868E-04
DAV:  15    -0.120069527992E+03   -0.48206E-04   -0.66013E-07  1024   0.621E-04
  18 F= -.12006953E+03 E0= -.12006953E+03  d E =-.280318E-01  mag=     1.0000
 curvature: 144.53 expect dE= 0.392E+01 dE for cont linesearch  0.253E+00
 ZBRENT: bracketing found
 ZBRENT: interpolating
 opt :  21.1484  next Energy=  -120.161450 (dE=-0.120E+00)
 bond charge predicted
       N       E                     dE             d eps       ncg     rms          rms(c)
DAV:   1    -0.119583017346E+03    0.48646E+00   -0.12709E+03  1568   0.495E+01    0.143E+00
DAV:   2    -0.120187058426E+03   -0.60404E+00   -0.58506E+00  1648   0.478E+00    0.136E+00
DAV:   3    -0.120180780769E+03    0.62777E-02   -0.95112E-02  1688   0.620E-01    0.993E-01
DAV:   4    -0.120163633223E+03    0.17148E-01   -0.18160E-02  1680   0.216E-01    0.649E-01
DAV:   5    -0.120157610323E+03    0.60229E-02   -0.28057E-02  1680   0.258E-01    0.197E-01
DAV:   6    -0.120157869547E+03   -0.25922E-03   -0.43101E-04  1536   0.793E-02    0.134E-01
DAV:   7    -0.120158014465E+03   -0.14492E-03   -0.17610E-04  1072   0.602E-02    0.529E-02
DAV:   8    -0.120158142765E+03   -0.12830E-03   -0.16516E-04  1112   0.278E-02    0.166E-02
DAV:   9    -0.120158237498E+03   -0.94732E-04   -0.23298E-05  1048   0.965E-03
  19 F= -.12015824E+03 E0= -.12015824E+03  d E =-.116741E+00  mag=     1.0000
 curvature:  -6.93 expect dE=-0.940E-01 dE for cont linesearch -0.497E-05
 trial: gam= 0.33276 g(F)=  0.136E-01 g(S)=  0.000E+00 ort =-0.221E-03 (trialstep = 0.725E+01)
 search vector abs. value=  0.210E-01
 bond charge predicted
       N       E                     dE             d eps       ncg     rms          rms(c)
DAV:   1    -0.120206817094E+03   -0.48674E-01   -0.73740E+01  1568   0.118E+01    0.390E-01
DAV:   2    -0.120241118692E+03   -0.34302E-01   -0.33232E-01  1664   0.111E+00    0.320E-01
DAV:   3    -0.120240610051E+03    0.50864E-03   -0.52917E-03  1728   0.147E-01    0.227E-01
DAV:   4    -0.120239761556E+03    0.84849E-03   -0.22887E-03  1656   0.860E-02    0.927E-02
DAV:   5    -0.120239825037E+03   -0.63481E-04   -0.61731E-04  1704   0.661E-02
  20 F= -.12023983E+03 E0= -.12023983E+03  d E =-.815875E-01  mag=     1.0000
 trial-energy change:   -0.081588  1 .order   -0.081234   -0.097822   -0.064646
 step:  21.3667(harm= 21.3667)  dis= 0.06976  next Energy=  -120.302453 (dE=-0.144E+00)
 bond charge predicted
       N       E                     dE             d eps       ncg     rms          rms(c)
DAV:   1    -0.120174370546E+03    0.65391E-01   -0.28081E+02  1568   0.231E+01    0.801E-01
DAV:   2    -0.120304904351E+03   -0.13053E+00   -0.12804E+00  1656   0.219E+00    0.613E-01
DAV:   3    -0.120302719443E+03    0.21849E-02   -0.20560E-02  1688   0.292E-01    0.424E-01
DAV:   4    -0.120299415864E+03    0.33036E-02   -0.80094E-03  1672   0.167E-01    0.173E-01
DAV:   5    -0.120299389802E+03    0.26062E-04   -0.20379E-03  1688   0.126E-01    0.602E-02
DAV:   6    -0.120299374749E+03    0.15053E-04   -0.14983E-04  1056   0.512E-02
  21 F= -.12029937E+03 E0= -.12029937E+03  d E =-.141137E+00  mag=     1.0000
 curvature: -16.60 expect dE=-0.170E+00 dE for cont linesearch -0.368E-04
 trial: gam= 0.75337 g(F)=  0.103E-01 g(S)=  0.000E+00 ort =-0.216E-03 (trialstep = 0.967E+01)
 search vector abs. value=  0.218E-01
 bond charge predicted
       N       E                     dE             d eps       ncg     rms          rms(c)
DAV:   1    -0.120317756587E+03   -0.18367E-01   -0.13657E+02  1568   0.161E+01    0.458E-01
DAV:   2    -0.120381254958E+03   -0.63498E-01   -0.61914E-01  1616   0.154E+00    0.443E-01
DAV:   3    -0.120380414777E+03    0.84018E-03   -0.10290E-02  1688   0.217E-01    0.320E-01
DAV:   4    -0.120378350835E+03    0.20639E-02   -0.28860E-03  1680   0.973E-02    0.191E-01
DAV:   5    -0.120378005568E+03    0.34527E-03   -0.33015E-03  1656   0.108E-01    0.629E-02
DAV:   6    -0.120378012379E+03   -0.68111E-05   -0.92957E-05  1040   0.353E-02
  22 F= -.12037801E+03 E0= -.12037801E+03  d E =-.786376E-01  mag=     1.0000
 trial-energy change:   -0.078638  1 .order   -0.080092   -0.097694   -0.062490
 step:  26.8282(harm= 26.8282)  dis= 0.07270  next Energy=  -120.434931 (dE=-0.136E+00)
 bond charge predicted
       N       E                     dE             d eps       ncg     rms          rms(c)
DAV:   1    -0.120233641162E+03    0.14436E+00   -0.43241E+02  1568   0.287E+01    0.878E-01
DAV:   2    -0.120438018479E+03   -0.20438E+00   -0.19859E+00  1632   0.277E+00    0.789E-01
DAV:   3    -0.120435218545E+03    0.27999E-02   -0.33153E-02  1696   0.393E-01    0.552E-01
DAV:   4    -0.120429040242E+03    0.61783E-02   -0.94650E-03  1672   0.180E-01    0.317E-01
DAV:   5    -0.120428131049E+03    0.90919E-03   -0.81642E-03  1656   0.178E-01    0.990E-02
DAV:   6    -0.120428116407E+03    0.14642E-04   -0.27418E-04  1128   0.636E-02
  23 F= -.12042812E+03 E0= -.12042812E+03  d E =-.128742E+00  mag=     1.0000
 curvature: -29.00 expect dE=-0.210E+00 dE for cont linesearch -0.160E-04
 trial: gam= 0.63404 g(F)=  0.724E-02 g(S)=  0.000E+00 ort =-0.110E-03 (trialstep = 0.131E+02)
 search vector abs. value=  0.159E-01
 bond charge predicted
       N       E                     dE             d eps       ncg     rms          rms(c)
DAV:   1    -0.120409509076E+03    0.18622E-01   -0.18253E+02  1568   0.186E+01    0.521E-01
DAV:   2    -0.120494294462E+03   -0.84785E-01   -0.83427E-01  1648   0.178E+00    0.488E-01
DAV:   3    -0.120493236641E+03    0.10578E-02   -0.13526E-02  1680   0.239E-01    0.359E-01
DAV:   4    -0.120490715182E+03    0.25215E-02   -0.36193E-03  1688   0.102E-01    0.202E-01
DAV:   5    -0.120490394243E+03    0.32094E-03   -0.38270E-03  1664   0.110E-01    0.664E-02
DAV:   6    -0.120490411566E+03   -0.17324E-04   -0.97074E-05  1048   0.383E-02
  24 F= -.12049041E+03 E0= -.12049041E+03  d E =-.622952E-01  mag=     1.0000
 trial-energy change:   -0.062295  1 .order   -0.064595   -0.093931   -0.035259
 step:  30.5109(harm= 20.9718)  dis= 0.08438  next Energy=  -120.508443 (dE=-0.803E-01)
 bond charge predicted
       N       E                     dE             d eps       ncg     rms          rms(c)
DAV:   1    -0.120337176832E+03    0.15322E+00   -0.32322E+02  1568   0.248E+01    0.720E-01
DAV:   2    -0.120487331324E+03   -0.15015E+00   -0.14851E+00  1640   0.238E+00    0.644E-01
DAV:   3    -0.120485284369E+03    0.20470E-02   -0.24193E-02  1656   0.322E-01    0.467E-01
DAV:   4    -0.120480899727E+03    0.43846E-02   -0.63729E-03  1688   0.137E-01    0.258E-01
DAV:   5    -0.120480258239E+03    0.64149E-03   -0.59810E-03  1632   0.142E-01    0.817E-02
DAV:   6    -0.120480258608E+03   -0.36893E-06   -0.16818E-04  1072   0.518E-02
  25 F= -.12048026E+03 E0= -.12048026E+03  d E =-.521422E-01  mag=     1.0000
 curvature:  10.88 expect dE= 0.876E-01 dE for cont linesearch  0.789E-02
 ZBRENT: interpolating
 opt :  20.7994  next Energy=  -120.500774 (dE=-0.727E-01)
 bond charge predicted
       N       E                     dE             d eps       ncg     rms          rms(c)
DAV:   1    -0.120455473137E+03    0.24785E-01   -0.10035E+02  1568   0.138E+01    0.381E-01
DAV:   2    -0.120501656820E+03   -0.46184E-01   -0.45482E-01  1648   0.131E+00    0.349E-01
DAV:   3    -0.120501020957E+03    0.63586E-03   -0.73276E-03  1728   0.173E-01    0.263E-01
DAV:   4    -0.120499644954E+03    0.13760E-02   -0.21457E-03  1696   0.767E-02    0.138E-01
DAV:   5    -0.120499562689E+03    0.82265E-04   -0.19930E-03  1688   0.783E-02    0.471E-02
DAV:   6    -0.120499562057E+03    0.63138E-06   -0.53904E-05  1032   0.277E-02
  26 F= -.12049956E+03 E0= -.12049956E+03  d E =-.714457E-01  mag=     1.0000
 curvature: -14.28 expect dE=-0.496E-01 dE for cont linesearch -0.120E-03
 trial: gam= 0.41295 g(F)=  0.348E-02 g(S)=  0.000E+00 ort =-0.366E-03 (trialstep = 0.146E+02)
 search vector abs. value=  0.588E-02
 bond charge predicted
       N       E                     dE             d eps       ncg     rms          rms(c)
DAV:   1    -0.120496314286E+03    0.32484E-02   -0.84409E+01  1568   0.126E+01    0.372E-01
DAV:   2    -0.120534770809E+03   -0.38457E-01   -0.37638E-01  1640   0.119E+00    0.339E-01
DAV:   3    -0.120534207954E+03    0.56285E-03   -0.59582E-03  1712   0.146E-01    0.250E-01
DAV:   4    -0.120532874485E+03    0.13335E-02   -0.25981E-03  1696   0.756E-02    0.115E-01
DAV:   5    -0.120532840358E+03    0.34127E-04   -0.10350E-03  1704   0.498E-02    0.447E-02
DAV:   6    -0.120532822361E+03    0.17997E-04   -0.64117E-05  1032   0.123E-02
  27 F= -.12053282E+03 E0= -.12053282E+03  d E =-.332603E-01  mag=     1.0000
 trial-energy change:   -0.033260  1 .order   -0.032980   -0.048674   -0.017287
 step:  22.7028(harm= 22.7028)  dis= 0.03461  next Energy=  -120.537303 (dE=-0.377E-01)
 bond charge predicted
       N       E                     dE             d eps       ncg     rms          rms(c)
DAV:   1    -0.120526238349E+03    0.66020E-02   -0.25559E+01  1568   0.695E+00    0.205E-01
DAV:   2    -0.120537821993E+03   -0.11584E-01   -0.11396E-01  1624   0.653E-01    0.187E-01
DAV:   3    -0.120537646796E+03    0.17520E-03   -0.17961E-03  1672   0.800E-02    0.137E-01
DAV:   4    -0.120537259483E+03    0.38731E-03   -0.77838E-04  1664   0.415E-02    0.633E-02
DAV:   5    -0.120537260847E+03   -0.13640E-05   -0.28205E-04  1096   0.273E-02
  28 F= -.12053726E+03 E0= -.12053726E+03  d E =-.376988E-01  mag=     1.0000
 curvature: -20.08 expect dE=-0.379E-01 dE for cont linesearch -0.104E-04
 trial: gam= 0.48594 g(F)=  0.189E-02 g(S)=  0.000E+00 ort = 0.551E-04 (trialstep = 0.163E+02)
 search vector abs. value=  0.333E-02
 bond charge predicted
       N       E                     dE             d eps       ncg     rms          rms(c)
DAV:   1    -0.120533490991E+03    0.37685E-02   -0.58697E+01  1568   0.105E+01    0.273E-01
DAV:   2    -0.120560765624E+03   -0.27275E-01   -0.26252E-01  1608   0.993E-01    0.258E-01
DAV:   3    -0.120560462425E+03    0.30320E-03   -0.40581E-03  1672   0.123E-01    0.193E-01
DAV:   4    -0.120559633075E+03    0.82935E-03   -0.11534E-03  1656   0.517E-02    0.106E-01
DAV:   5    -0.120559514865E+03    0.11821E-03   -0.11973E-03  1664   0.533E-02    0.371E-02
DAV:   6    -0.120559527200E+03   -0.12335E-04   -0.24529E-05   984   0.160E-02
  29 F= -.12055953E+03 E0= -.12055953E+03  d E =-.222664E-01  mag=     1.0000
 trial-energy change:   -0.022266  1 .order   -0.023092   -0.031078   -0.015106
 step:  31.6232(harm= 31.6232)  dis= 0.04406  next Energy=  -120.567496 (dE=-0.302E-01)
 bond charge predicted
       N       E                     dE             d eps       ncg     rms          rms(c)
DAV:   1    -0.120542710095E+03    0.16805E-01   -0.52493E+01  1568   0.995E+00    0.259E-01
DAV:   2    -0.120566960954E+03   -0.24251E-01   -0.23478E-01  1632   0.939E-01    0.244E-01
DAV:   3    -0.120566689581E+03    0.27137E-03   -0.35711E-03  1648   0.116E-01    0.183E-01
DAV:   4    -0.120565948076E+03    0.74150E-03   -0.10509E-03  1648   0.493E-02    0.100E-01
DAV:   5    -0.120565852982E+03    0.95094E-04   -0.10548E-03  1648   0.500E-02    0.348E-02
DAV:   6    -0.120565868415E+03   -0.15432E-04   -0.22087E-05   968   0.151E-02
  30 F= -.12056587E+03 E0= -.12056587E+03  d E =-.286076E-01  mag=     1.0000
 curvature: -27.52 expect dE=-0.520E-01 dE for cont linesearch -0.159E-05
 trial: gam= 0.99557 g(F)=  0.189E-02 g(S)=  0.000E+00 ort =-0.139E-04 (trialstep = 0.125E+02)
 search vector abs. value=  0.516E-02
 bond charge predicted
       N       E                     dE             d eps       ncg     rms          rms(c)
DAV:   1    -0.120560771325E+03    0.50817E-02   -0.53519E+01  1568   0.100E+01    0.252E-01
DAV:   2    -0.120585770122E+03   -0.24999E-01   -0.24000E-01  1640   0.954E-01    0.253E-01
DAV:   3    -0.120585553420E+03    0.21670E-03   -0.38469E-03  1672   0.122E-01    0.190E-01
DAV:   4    -0.120584797162E+03    0.75626E-03   -0.89973E-04  1656   0.462E-02    0.116E-01
DAV:   5    -0.120584643618E+03    0.15354E-03   -0.14525E-03  1648   0.578E-02    0.393E-02
DAV:   6    -0.120584657681E+03   -0.14063E-04   -0.24370E-05   976   0.161E-02
  31 F= -.12058466E+03 E0= -.12058466E+03  d E =-.187893E-01  mag=     1.0000
 trial-energy change:   -0.018789  1 .order   -0.019379   -0.023384   -0.015374
 step:  36.3811(harm= 36.3811)  dis= 0.08218  next Energy=  -120.600002 (dE=-0.341E-01)
 bond charge predicted
       N       E                     dE             d eps       ncg     rms          rms(c)
DAV:   1    -0.120507917145E+03    0.76726E-01   -0.19791E+02  1568   0.193E+01    0.500E-01
DAV:   2    -0.120599616323E+03   -0.91699E-01   -0.88853E-01  1656   0.183E+00    0.485E-01
DAV:   3    -0.120598690017E+03    0.92631E-03   -0.14208E-02  1680   0.234E-01    0.361E-01
DAV:   4    -0.120595874821E+03    0.28152E-02   -0.34039E-03  1672   0.888E-02    0.216E-01
DAV:   5    -0.120595243708E+03    0.63111E-03   -0.45941E-03  1672   0.101E-01    0.703E-02
DAV:   6    -0.120595263357E+03   -0.19649E-04   -0.74128E-05  1024   0.261E-02
  32 F= -.12059526E+03 E0= -.12059526E+03  d E =-.293949E-01  mag=     1.0000
 curvature: -50.03 expect dE=-0.130E+00 dE for cont linesearch -0.339E-03
 trial: gam= 1.28041 g(F)=  0.260E-02 g(S)=  0.000E+00 ort =-0.187E-03 (trialstep = 0.841E+01)
 search vector abs. value=  0.106E-01
 bond charge predicted
       N       E                     dE             d eps       ncg     rms          rms(c)
DAV:   1    -0.120588700034E+03    0.65437E-02   -0.49924E+01  1568   0.964E+00    0.224E-01
DAV:   2    -0.120611591339E+03   -0.22891E-01   -0.22337E-01  1648   0.917E-01    0.234E-01
DAV:   3    -0.120611372327E+03    0.21901E-03   -0.35079E-03  1704   0.117E-01    0.178E-01
DAV:   4    -0.120610713140E+03    0.65919E-03   -0.64795E-04  1648   0.389E-02    0.117E-01
DAV:   5    -0.120610498306E+03    0.21483E-03   -0.16043E-03  1672   0.588E-02    0.383E-02
DAV:   6    -0.120610518843E+03   -0.20537E-04   -0.19513E-05  1024   0.136E-02
  33 F= -.12061052E+03 E0= -.12061052E+03  d E =-.152555E-01  mag=     1.0000
 trial-energy change:   -0.015255  1 .order   -0.016224   -0.019870   -0.012579
 step:  22.9161(harm= 22.9161)  dis= 0.08795  next Energy=  -120.622338 (dE=-0.271E-01)
 bond charge predicted
       N       E                     dE             d eps       ncg     rms          rms(c)
DAV:   1    -0.120554421582E+03    0.56077E-01   -0.14911E+02  1568   0.167E+01    0.401E-01
DAV:   2    -0.120622847786E+03   -0.68426E-01   -0.66920E-01  1648   0.159E+00    0.404E-01
DAV:   3    -0.120622069530E+03    0.77826E-03   -0.10508E-02  1696   0.202E-01    0.306E-01
DAV:   4    -0.120620025761E+03    0.20438E-02   -0.20092E-03  1680   0.677E-02    0.197E-01
DAV:   5    -0.120619297247E+03    0.72851E-03   -0.42475E-03  1648   0.947E-02    0.613E-02
DAV:   6    -0.120619326632E+03   -0.29385E-04   -0.49509E-05  1032   0.207E-02
  34 F= -.12061933E+03 E0= -.12061933E+03  d E =-.240633E-01  mag=     1.0000
 curvature: -51.33 expect dE=-0.118E+00 dE for cont linesearch -0.117E-04
 trial: gam= 0.37733 g(F)=  0.230E-02 g(S)=  0.000E+00 ort = 0.491E-04 (trialstep = 0.113E+02)
 search vector abs. value=  0.384E-02
 bond charge predicted
       N       E                     dE             d eps       ncg     rms          rms(c)
DAV:   1    -0.120624991330E+03   -0.56941E-02   -0.32887E+01  1568   0.785E+00    0.222E-01
DAV:   2    -0.120640335691E+03   -0.15344E-01   -0.14955E-01  1656   0.747E-01    0.208E-01
DAV:   3    -0.120640201325E+03    0.13437E-03   -0.23703E-03  1728   0.933E-02    0.154E-01
DAV:   4    -0.120639758240E+03    0.44308E-03   -0.83925E-04  1632   0.439E-02    0.798E-02
DAV:   5    -0.120639769491E+03   -0.11251E-04   -0.53796E-04  1680   0.369E-02
  35 F= -.12063977E+03 E0= -.12063977E+03  d E =-.204429E-01  mag=     1.0000
 trial-energy change:   -0.020443  1 .order   -0.021089   -0.026228   -0.015949
 step:  28.8611(harm= 28.8611)  dis= 0.05377  next Energy=  -120.652790 (dE=-0.335E-01)
 bond charge predicted
       N       E                     dE             d eps       ncg     rms          rms(c)
DAV:   1    -0.120615977113E+03    0.23781E-01   -0.79274E+01  1568   0.122E+01    0.350E-01
DAV:   2    -0.120653409385E+03   -0.37432E-01   -0.36314E-01  1656   0.116E+00    0.324E-01
DAV:   3    -0.120653158547E+03    0.25084E-03   -0.58530E-03  1712   0.147E-01    0.237E-01
DAV:   4    -0.120652072950E+03    0.10856E-02   -0.20020E-03  1648   0.675E-02    0.122E-01
DAV:   5    -0.120652044937E+03    0.28013E-04   -0.12382E-03  1672   0.541E-02    0.452E-02
DAV:   6    -0.120652034883E+03    0.10054E-04   -0.52243E-05  1008   0.136E-02
  36 F= -.12065203E+03 E0= -.12065203E+03  d E =-.327083E-01  mag=     1.0000
 curvature: -23.92 expect dE=-0.421E-01 dE for cont linesearch -0.449E-04
 trial: gam= 0.75612 g(F)=  0.176E-02 g(S)=  0.000E+00 ort = 0.849E-04 (trialstep = 0.139E+02)
 search vector abs. value=  0.409E-02
 bond charge predicted
       N       E                     dE             d eps       ncg     rms          rms(c)
DAV:   1    -0.120649326323E+03    0.27186E-02   -0.53009E+01  1568   0.100E+01    0.251E-01
DAV:   2    -0.120673686517E+03   -0.24360E-01   -0.23552E-01  1640   0.941E-01    0.256E-01
DAV:   3    -0.120673407928E+03    0.27859E-03   -0.36422E-03  1728   0.115E-01    0.196E-01
DAV:   4    -0.120672541687E+03    0.86624E-03   -0.11679E-03  1656   0.508E-02    0.113E-01
DAV:   5    -0.120672420260E+03    0.12143E-03   -0.13303E-03  1672   0.532E-02    0.417E-02
DAV:   6    -0.120672427449E+03   -0.71890E-05   -0.27099E-05  1000   0.822E-03
  37 F= -.12067243E+03 E0= -.12067243E+03  d E =-.203926E-01  mag=     1.0000
 trial-energy change:   -0.020393  1 .order   -0.020679   -0.025435   -0.015923
 step:  37.2855(harm= 37.2855)  dis= 0.05873  next Energy=  -120.686041 (dE=-0.340E-01)
 bond charge predicted
       N       E                     dE             d eps       ncg     rms          rms(c)
DAV:   1    -0.120619214767E+03    0.53205E-01   -0.14882E+02  1568   0.168E+01    0.435E-01
DAV:   2    -0.120687341619E+03   -0.68127E-01   -0.66337E-01  1648   0.158E+00    0.431E-01
DAV:   3    -0.120686406254E+03    0.93536E-03   -0.10320E-02  1720   0.194E-01    0.325E-01
DAV:   4    -0.120683923029E+03    0.24832E-02   -0.33501E-03  1664   0.861E-02    0.184E-01
DAV:   5    -0.120683533451E+03    0.38958E-03   -0.33554E-03  1672   0.848E-02    0.660E-02
DAV:   6    -0.120683535361E+03   -0.19093E-05   -0.71335E-05  1032   0.141E-02
  38 F= -.12068354E+03 E0= -.12068354E+03  d E =-.315005E-01  mag=     1.0000
 curvature: -41.76 expect dE=-0.107E+00 dE for cont linesearch -0.731E-04
 trial: gam= 1.48590 g(F)=  0.256E-02 g(S)=  0.000E+00 ort =-0.846E-04 (trialstep = 0.671E+01)
 search vector abs. value=  0.113E-01
 bond charge predicted
       N       E                     dE             d eps       ncg     rms          rms(c)
DAV:   1    -0.120683333535E+03    0.19992E-03   -0.34012E+01  1568   0.801E+00    0.183E-01
DAV:   2    -0.120698568846E+03   -0.15235E-01   -0.14781E-01  1648   0.747E-01    0.195E-01
DAV:   3    -0.120698366328E+03    0.20252E-03   -0.22514E-03  1736   0.907E-02    0.152E-01
DAV:   4    -0.120697818785E+03    0.54754E-03   -0.56456E-04  1648   0.353E-02    0.957E-02
DAV:   5    -0.120697662992E+03    0.15579E-03   -0.11080E-03  1672   0.480E-02    0.335E-02
DAV:   6    -0.120697680432E+03   -0.17440E-04   -0.13135E-05  1016   0.659E-03
  39 F= -.12069768E+03 E0= -.12069768E+03  d E =-.141451E-01  mag=     1.0000
 ZBRENT: can't locate minimum, use default step
 trial-energy change:   -0.014145  1 .order   -0.014646   -0.016316   -0.012976
 step:  26.8593(harm= 32.7957)  dis= 0.07698  next Energy=  -120.723380 (dE=-0.398E-01)
 bond charge predicted
       N       E                     dE             d eps       ncg     rms          rms(c)
DAV:   1    -0.120587014188E+03    0.11065E+00   -0.30825E+02  1568   0.242E+01    0.614E-01
DAV:   2    -0.120725278120E+03   -0.13826E+00   -0.13547E+00  1632   0.227E+00    0.594E-01
DAV:   3    -0.120722783836E+03    0.24943E-02   -0.20941E-02  1720   0.281E-01    0.445E-01
DAV:   4    -0.120717774832E+03    0.50090E-02   -0.56336E-03  1656   0.111E-01    0.265E-01
DAV:   5    -0.120716411185E+03    0.13636E-02   -0.71958E-03  1680   0.123E-01    0.838E-02
DAV:   6    -0.120716468245E+03   -0.57060E-04   -0.90053E-05  1080   0.162E-02
  40 F= -.12071647E+03 E0= -.12071647E+03  d E =-.329329E-01  mag=     1.0000
 curvature: -72.47 expect dE=-0.205E+00 dE for cont linesearch -0.150E-03
 trial: gam= 0.66734 g(F)=  0.282E-02 g(S)=  0.000E+00 ort = 0.153E-03 (trialstep = 0.107E+02)
 search vector abs. value=  0.807E-02
 bond charge predicted
       N       E                     dE             d eps       ncg     rms          rms(c)
DAV:   1    -0.120716950826E+03   -0.53964E-03   -0.62089E+01  1568   0.108E+01    0.246E-01
DAV:   2    -0.120744504564E+03   -0.27554E-01   -0.26944E-01  1656   0.101E+00    0.264E-01
DAV:   3    -0.120744120693E+03    0.38387E-03   -0.40752E-03  1736   0.122E-01    0.207E-01
DAV:   4    -0.120743100250E+03    0.10204E-02   -0.10549E-03  1640   0.475E-02    0.130E-01
DAV:   5    -0.120742820966E+03    0.27928E-03   -0.20138E-03  1648   0.653E-02    0.455E-02
DAV:   6    -0.120742858395E+03   -0.37429E-04   -0.23372E-05  1008   0.105E-02
  41 F= -.12074286E+03 E0= -.12074286E+03  d E =-.263902E-01  mag=     1.0000
 ZBRENT: can't locate minimum, use default step
 trial-energy change:   -0.026390  1 .order   -0.027578   -0.031433   -0.023724
 step:  42.9749(harm= 43.8043)  dis= 0.09385  next Energy=  -120.780548 (dE=-0.641E-01)
 bond charge predicted
       N       E                     dE             d eps       ncg     rms          rms(c)
DAV:   1    -0.120539065309E+03    0.20376E+00   -0.56515E+02  1568   0.328E+01    0.873E-01
DAV:   2    -0.120795128075E+03   -0.25606E+00   -0.25129E+00  1680   0.309E+00    0.817E-01
DAV:   3    -0.120790391994E+03    0.47361E-02   -0.38944E-02  1728   0.386E-01    0.601E-01
DAV:   4    -0.120781430794E+03    0.89612E-02   -0.10321E-02  1656   0.148E-01    0.357E-01
DAV:   5    -0.120779030542E+03    0.24003E-02   -0.11671E-02  1672   0.157E-01    0.110E-01
DAV:   6    -0.120779177567E+03   -0.14703E-03   -0.14388E-04  1072   0.211E-02    0.643E-02
DAV:   7    -0.120779294812E+03   -0.11724E-03   -0.83674E-05  1072   0.142E-02    0.209E-02
DAV:   8    -0.120779370881E+03   -0.76069E-04   -0.22482E-05  1064   0.773E-03
  42 F= -.12077937E+03 E0= -.12077937E+03  d E =-.629026E-01  mag=     1.0000
 curvature: -60.39 expect dE=-0.282E+00 dE for cont linesearch -0.203E-03
 trial: gam= 1.45753 g(F)=  0.466E-02 g(S)=  0.000E+00 ort = 0.165E-03 (trialstep = 0.622E+01)
 search vector abs. value=  0.223E-01
 bond charge predicted
       N       E                     dE             d eps       ncg     rms          rms(c)
DAV:   1    -0.120783250934E+03   -0.39561E-02   -0.57572E+01  1568   0.104E+01    0.235E-01
DAV:   2    -0.120808938241E+03   -0.25687E-01   -0.24958E-01  1664   0.973E-01    0.265E-01
DAV:   3    -0.120808612786E+03    0.32545E-03   -0.38518E-03  1736   0.118E-01    0.210E-01
DAV:   4    -0.120807596629E+03    0.10162E-02   -0.91771E-04  1656   0.450E-02    0.139E-01
DAV:   5    -0.120807210807E+03    0.38582E-03   -0.22430E-03  1672   0.679E-02    0.491E-02
DAV:   6    -0.120807259032E+03   -0.48225E-04   -0.24386E-05  1024   0.843E-03
  43 F= -.12080726E+03 E0= -.12080726E+03  d E =-.278882E-01  mag=     1.0000
 ZBRENT: can't locate minimum, use default step
 trial-energy change:   -0.027888  1 .order   -0.028380   -0.030531   -0.026229
 step:  24.8962(harm= 44.1711)  dis= 0.09362  next Energy=  -120.887708 (dE=-0.108E+00)
 bond charge predicted
       N       E                     dE             d eps       ncg     rms          rms(c)
DAV:   1    -0.120634520560E+03    0.17269E+00   -0.52344E+02  1568   0.316E+01    0.827E-01
DAV:   2    -0.120872625424E+03   -0.23810E+00   -0.23223E+00  1656   0.298E+00    0.816E-01
DAV:   3    -0.120868666623E+03    0.39588E-02   -0.36580E-02  1736   0.374E-01    0.604E-01
DAV:   4    -0.120859950251E+03    0.87164E-02   -0.94710E-03  1640   0.145E-01    0.373E-01
DAV:   5    -0.120857328586E+03    0.26217E-02   -0.12288E-02  1664   0.161E-01    0.119E-01
DAV:   6    -0.120857533684E+03   -0.20510E-03   -0.15165E-04  1128   0.276E-02    0.734E-02
DAV:   7    -0.120857710548E+03   -0.17686E-03   -0.87172E-05  1088   0.248E-02    0.280E-02
DAV:   8    -0.120857849437E+03   -0.13889E-03   -0.39947E-05  1064   0.135E-02    0.908E-03
DAV:   9    -0.120857997368E+03   -0.14793E-03   -0.80639E-06  1048   0.508E-03    0.419E-03
DAV:  10    -0.120858132562E+03   -0.13519E-03   -0.24852E-06  1040   0.215E-03    0.217E-03
DAV:  11    -0.120858241404E+03   -0.10884E-03   -0.13434E-06  1024   0.113E-03    0.137E-03
DAV:  12    -0.120858395778E+03   -0.15437E-03   -0.20601E-06  1048   0.115E-03    0.954E-04
DAV:  13    -0.120858511590E+03   -0.11581E-03   -0.19410E-06  1072   0.113E-03    0.887E-04
DAV:  14    -0.120858570294E+03   -0.58704E-04   -0.58832E-07  1040   0.624E-04
  44 F= -.12085857E+03 E0= -.12085857E+03  d E =-.791994E-01  mag=     1.0000
 curvature: -74.48 expect dE=-0.260E+00 dE for cont linesearch -0.534E-02
 ZBRENT: extrapolating
 opt :  32.8960  next Energy=  -120.863626 (dE=-0.843E-01)
 bond charge predicted
       N       E                     dE             d eps       ncg     rms          rms(c)
DAV:   1    -0.120822826955E+03    0.35685E-01   -0.95211E+01  1568   0.134E+01    0.316E-01
DAV:   2    -0.120865562337E+03   -0.42735E-01   -0.41387E-01  1648   0.126E+00    0.343E-01
DAV:   3    -0.120865010786E+03    0.55155E-03   -0.64630E-03  1728   0.154E-01    0.267E-01
DAV:   4    -0.120863309336E+03    0.17015E-02   -0.16605E-03  1656   0.605E-02    0.170E-01
DAV:   5    -0.120862684335E+03    0.62500E-03   -0.32042E-03  1648   0.812E-02    0.594E-02
DAV:   6    -0.120862714677E+03   -0.30343E-04   -0.37753E-05  1032   0.104E-02
  45 F= -.12086271E+03 E0= -.12086271E+03  d E =-.833438E-01  mag=     1.0000
 curvature: -70.55 expect dE=-0.371E+00 dE for cont linesearch -0.290E-05
 trial: gam= 0.97242 g(F)=  0.526E-02 g(S)=  0.000E+00 ort =-0.303E-04 (trialstep = 0.980E+01)
 search vector abs. value=  0.263E-01
 bond charge predicted
       N       E                     dE             d eps       ncg     rms          rms(c)
DAV:   1    -0.120832266898E+03    0.30417E-01   -0.16890E+02  1568   0.179E+01    0.433E-01
DAV:   2    -0.120909688997E+03   -0.77422E-01   -0.74766E-01  1624   0.169E+00    0.446E-01
DAV:   3    -0.120908505244E+03    0.11838E-02   -0.11926E-02  1744   0.214E-01    0.339E-01
DAV:   4    -0.120905616851E+03    0.28884E-02   -0.26171E-03  1648   0.763E-02    0.215E-01
DAV:   5    -0.120904400029E+03    0.12168E-02   -0.52053E-03  1648   0.103E-01    0.671E-02
DAV:   6    -0.120904516942E+03   -0.11691E-03   -0.57958E-05  1072   0.131E-02    0.446E-02
DAV:   7    -0.120904652062E+03   -0.13512E-03   -0.49378E-05  1080   0.101E-02    0.182E-02
DAV:   8    -0.120904799875E+03   -0.14781E-03   -0.23963E-05  1072   0.754E-03    0.463E-03
DAV:   9    -0.120904947399E+03   -0.14752E-03   -0.43180E-06  1056   0.323E-03    0.231E-03
DAV:  10    -0.120905077031E+03   -0.12963E-03   -0.17014E-06  1040   0.153E-03    0.156E-03
DAV:  11    -0.120905209831E+03   -0.13280E-03   -0.12343E-06  1040   0.927E-04    0.113E-03
DAV:  12    -0.120905400946E+03   -0.19111E-03   -0.25232E-06  1056   0.102E-03    0.752E-04
DAV:  13    -0.120905494485E+03   -0.93539E-04   -0.98319E-07  1064   0.673E-04
  46 F= -.12090549E+03 E0= -.12090549E+03  d E =-.427798E-01  mag=     1.0000
 trial-energy change:   -0.042780  1 .order   -0.042965   -0.051274   -0.034655
 step:  30.2519(harm= 30.2519)  dis= 0.12066  next Energy=  -120.941814 (dE=-0.791E-01)
 bond charge predicted
       N       E                     dE             d eps       ncg     rms          rms(c)
DAV:   1    -0.120613323493E+03    0.29208E+00   -0.74378E+02  1568   0.377E+01    0.108E+00
DAV:   2    -0.120959009645E+03   -0.34569E+00   -0.33643E+00  1624   0.360E+00    0.944E-01
DAV:   3    -0.120952712399E+03    0.62972E-02   -0.54626E-02  1752   0.471E-01    0.675E-01
DAV:   4    -0.120941438732E+03    0.11274E-01   -0.12553E-02  1624   0.168E-01    0.406E-01
DAV:   5    -0.120937942896E+03    0.34958E-02   -0.14399E-02  1664   0.175E-01    0.115E-01
DAV:   6    -0.120938169226E+03   -0.22633E-03   -0.18833E-04  1160   0.341E-02    0.717E-02
DAV:   7    -0.120938403136E+03   -0.23391E-03   -0.75140E-05  1088   0.258E-02    0.296E-02
DAV:   8    -0.120938620359E+03   -0.21722E-03   -0.38828E-05  1088   0.129E-02    0.936E-03
DAV:   9    -0.120938828129E+03   -0.20777E-03   -0.76409E-06  1048   0.503E-03    0.474E-03
DAV:  10    -0.120939028581E+03   -0.20045E-03   -0.29696E-06  1056   0.201E-03    0.243E-03
DAV:  11    -0.120939196236E+03   -0.16766E-03   -0.19428E-06  1032   0.130E-03    0.169E-03
DAV:  12    -0.120939436815E+03   -0.24058E-03   -0.31753E-06  1040   0.145E-03    0.121E-03
DAV:  13    -0.120939629618E+03   -0.19280E-03   -0.30390E-06  1064   0.138E-03    0.943E-04
DAV:  14    -0.120939729470E+03   -0.99852E-04   -0.10452E-06  1048   0.788E-04
  47 F= -.12093973E+03 E0= -.12093973E+03  d E =-.770148E-01  mag=     1.0000
 curvature: -76.02 expect dE=-0.482E+00 dE for cont linesearch -0.136E-03
 trial: gam= 0.78901 g(F)=  0.635E-02 g(S)=  0.000E+00 ort =-0.217E-03 (trialstep = 0.139E+02)
 search vector abs. value=  0.224E-01
 bond charge predicted
       N       E                     dE             d eps       ncg     rms          rms(c)
DAV:   1    -0.120880814566E+03    0.58815E-01   -0.28989E+02  1568   0.234E+01    0.609E-01
DAV:   2    -0.121016007272E+03   -0.13519E+00   -0.13185E+00  1632   0.225E+00    0.610E-01
DAV:   3    -0.121014095065E+03    0.19122E-02   -0.21390E-02  1744   0.290E-01    0.453E-01
DAV:   4    -0.121009326473E+03    0.47686E-02   -0.49835E-03  1632   0.106E-01    0.281E-01
DAV:   5    -0.121007704648E+03    0.16218E-02   -0.76023E-03  1664   0.129E-01    0.905E-02
DAV:   6    -0.121007806058E+03   -0.10141E-03   -0.10477E-04  1096   0.287E-02    0.608E-02
DAV:   7    -0.121007968195E+03   -0.16214E-03   -0.91418E-05  1056   0.226E-02    0.240E-02
DAV:   8    -0.121008162464E+03   -0.19427E-03   -0.45024E-05  1104   0.124E-02    0.749E-03
DAV:   9    -0.121008293455E+03   -0.13099E-03   -0.60616E-06  1040   0.442E-03    0.384E-03
DAV:  10    -0.121008451329E+03   -0.15787E-03   -0.24709E-06  1040   0.224E-03    0.180E-03
DAV:  11    -0.121008593583E+03   -0.14225E-03   -0.19440E-06  1064   0.115E-03    0.115E-03
DAV:  12    -0.121008734209E+03   -0.14063E-03   -0.19895E-06  1056   0.116E-03    0.835E-04
DAV:  13    -0.121008841310E+03   -0.10710E-03   -0.18126E-06  1056   0.110E-03    0.671E-04
DAV:  14    -0.121008893596E+03   -0.52286E-04   -0.63332E-07  1048   0.611E-04
  48 F= -.12100889E+03 E0= -.12100889E+03  d E =-.691641E-01  mag=     1.0000
 trial-energy change:   -0.069164  1 .order   -0.067897   -0.085789   -0.050005
 step:  27.5541(harm= 33.3107)  dis= 0.11781  next Energy=  -121.034678 (dE=-0.949E-01)
 bond charge predicted
       N       E                     dE             d eps       ncg     rms          rms(c)
DAV:   1    -0.120912619694E+03    0.96222E-01   -0.28013E+02  1568   0.230E+01    0.600E-01
DAV:   2    -0.121041995959E+03   -0.12938E+00   -0.12699E+00  1640   0.220E+00    0.599E-01
DAV:   3    -0.121040129572E+03    0.18664E-02   -0.20616E-02  1752   0.286E-01    0.443E-01
DAV:   4    -0.121035532143E+03    0.45974E-02   -0.48539E-03  1640   0.105E-01    0.275E-01
DAV:   5    -0.121033959618E+03    0.15725E-02   -0.72847E-03  1664   0.127E-01    0.896E-02
DAV:   6    -0.121034019636E+03   -0.60018E-04   -0.10566E-04  1096   0.316E-02
  49 F= -.12103402E+03 E0= -.12103402E+03  d E =-.942902E-01  mag=     1.0000
 curvature: -55.02 expect dE=-0.322E+00 dE for cont linesearch -0.465E-03
 trial: gam= 0.52438 g(F)=  0.584E-02 g(S)=  0.000E+00 ort = 0.435E-03 (trialstep = 0.166E+02)
 search vector abs. value=  0.124E-01
 bond charge predicted
       N       E                     dE             d eps       ncg     rms          rms(c)
DAV:   1    -0.121006843424E+03    0.27116E-01   -0.23122E+02  1568   0.209E+01    0.583E-01
DAV:   2    -0.121111651971E+03   -0.10481E+00   -0.10460E+00  1624   0.201E+00    0.542E-01
DAV:   3    -0.121109885709E+03    0.17663E-02   -0.18035E-02  1744   0.284E-01    0.383E-01
DAV:   4    -0.121106464635E+03    0.34211E-02   -0.33933E-03  1640   0.920E-02    0.242E-01
DAV:   5    -0.121105201498E+03    0.12631E-02   -0.56697E-03  1648   0.117E-01    0.687E-02
DAV:   6    -0.121105480190E+03   -0.27869E-03   -0.89567E-05  1096   0.322E-02    0.506E-02
DAV:   7    -0.121106094424E+03   -0.61423E-03   -0.10460E-04  1064   0.186E-02    0.175E-02
DAV:   8    -0.121106702854E+03   -0.60843E-03   -0.41685E-05  1112   0.105E-02    0.716E-03
DAV:   9    -0.121107068455E+03   -0.36560E-03   -0.67149E-06  1096   0.410E-03    0.420E-03
DAV:  10    -0.121107531137E+03   -0.46268E-03   -0.71258E-06  1096   0.244E-03    0.261E-03
DAV:  11    -0.121108009600E+03   -0.47846E-03   -0.84438E-06  1112   0.199E-03    0.192E-03
DAV:  12    -0.121108342702E+03   -0.33310E-03   -0.57578E-06  1064   0.167E-03    0.129E-03
DAV:  13    -0.121108581022E+03   -0.23832E-03   -0.44582E-06  1080   0.148E-03    0.751E-04
DAV:  14    -0.121108666018E+03   -0.84996E-04   -0.10071E-06  1048   0.775E-04
  50 F= -.12110867E+03 E0= -.12110867E+03  d E =-.746464E-01  mag=     1.0000
 trial-energy change:   -0.074646  1 .order   -0.075059   -0.100955   -0.049163
 step:  34.1251(harm= 32.4086)  dis= 0.14674  next Energy=  -121.134057 (dE=-0.100E+00)
 bond charge predicted
       N       E                     dE             d eps       ncg     rms          rms(c)
DAV:   1    -0.121024230055E+03    0.84351E-01   -0.25645E+02  1568   0.220E+01    0.685E-01
DAV:   2    -0.121136603633E+03   -0.11237E+00   -0.11740E+00  1616   0.216E+00    0.610E-01
DAV:   3    -0.121134306248E+03    0.22974E-02   -0.22672E-02  1744   0.339E-01    0.403E-01
DAV:   4    -0.121130294048E+03    0.40122E-02   -0.40311E-03  1640   0.970E-02    0.248E-01
DAV:   5    -0.121128730729E+03    0.15633E-02   -0.57533E-03  1648   0.114E-01    0.673E-02
DAV:   6    -0.121129251282E+03   -0.52055E-03   -0.96568E-05  1128   0.287E-02    0.464E-02
DAV:   7    -0.121130378150E+03   -0.11269E-02   -0.14170E-04  1088   0.179E-02    0.154E-02
DAV:   8    -0.121131309186E+03   -0.93104E-03   -0.41502E-05  1128   0.109E-02    0.766E-03
DAV:   9    -0.121131904630E+03   -0.59544E-03   -0.11019E-05  1080   0.426E-03    0.501E-03
DAV:  10    -0.121132694389E+03   -0.78976E-03   -0.14740E-05  1072   0.303E-03    0.339E-03
DAV:  11    -0.121133513119E+03   -0.81873E-03   -0.19861E-05  1096   0.327E-03    0.232E-03
DAV:  12    -0.121134024050E+03   -0.51093E-03   -0.10383E-05  1088   0.246E-03    0.149E-03
DAV:  13    -0.121134317970E+03   -0.29392E-03   -0.46923E-06  1080   0.172E-03    0.941E-04
DAV:  14    -0.121134471090E+03   -0.15312E-03   -0.13241E-06  1056   0.113E-03    0.605E-04
DAV:  15    -0.121134591261E+03   -0.12017E-03   -0.83302E-07  1008   0.895E-04    0.441E-04
DAV:  16    -0.121134678945E+03   -0.87684E-04   -0.60248E-07  1048   0.776E-04
  51 F= -.12113468E+03 E0= -.12113468E+03  d E =-.100659E+00  mag=     1.0000
 curvature: -32.83 expect dE=-0.197E+00 dE for cont linesearch -0.925E-06
 trial: gam= 0.92628 g(F)=  0.600E-02 g(S)=  0.000E+00 ort =-0.187E-04 (trialstep = 0.150E+02)
 search vector abs. value=  0.167E-01
 bond charge predicted
       N       E                     dE             d eps       ncg     rms          rms(c)
DAV:   1    -0.121093138907E+03    0.41452E-01   -0.25357E+02  1568   0.219E+01    0.666E-01
DAV:   2    -0.121207715222E+03   -0.11458E+00   -0.11670E+00  1616   0.214E+00    0.596E-01
DAV:   3    -0.121205271614E+03    0.24436E-02   -0.21148E-02  1752   0.309E-01    0.405E-01
DAV:   4    -0.121200755879E+03    0.45157E-02   -0.43964E-03  1624   0.103E-01    0.240E-01
DAV:   5    -0.121199160567E+03    0.15953E-02   -0.51397E-03  1640   0.109E-01    0.672E-02
DAV:   6    -0.121199685425E+03   -0.52486E-03   -0.94352E-05  1120   0.277E-02    0.474E-02
DAV:   7    -0.121200572506E+03   -0.88708E-03   -0.12245E-04  1088   0.185E-02    0.154E-02
DAV:   8    -0.121201305596E+03   -0.73309E-03   -0.40077E-05  1120   0.952E-03    0.682E-03
DAV:   9    -0.121201776694E+03   -0.47110E-03   -0.89038E-06  1080   0.387E-03    0.449E-03
DAV:  10    -0.121202357415E+03   -0.58072E-03   -0.10617E-05  1088   0.248E-03    0.293E-03
DAV:  11    -0.121202986192E+03   -0.62878E-03   -0.14150E-05  1080   0.250E-03    0.210E-03
DAV:  12    -0.121203383685E+03   -0.39749E-03   -0.75018E-06  1080   0.194E-03    0.132E-03
DAV:  13    -0.121203669443E+03   -0.28576E-03   -0.48392E-06  1056   0.156E-03    0.781E-04
DAV:  14    -0.121203799684E+03   -0.13024E-03   -0.10630E-06  1072   0.909E-04    0.533E-04
DAV:  15    -0.121203906443E+03   -0.10676E-03   -0.74649E-07  1024   0.756E-04    0.357E-04
DAV:  16    -0.121203975810E+03   -0.69366E-04   -0.47088E-07  1048   0.616E-04
  52 F= -.12120398E+03 E0= -.12120398E+03  d E =-.692969E-01  mag=     1.0000
 trial-energy change:   -0.069297  1 .order   -0.068026   -0.090092   -0.045959
 step:  27.0074(harm= 30.7170)  dis= 0.12956  next Energy=  -121.222880 (dE=-0.882E-01)
 bond charge predicted
       N       E                     dE             d eps       ncg     rms          rms(c)
DAV:   1    -0.121154311432E+03    0.49595E-01   -0.15972E+02  1568   0.173E+01    0.472E-01
DAV:   2    -0.121227871733E+03   -0.73560E-01   -0.72019E-01  1632   0.166E+00    0.448E-01
DAV:   3    -0.121226813142E+03    0.10586E-02   -0.11834E-02  1736   0.220E-01    0.323E-01
DAV:   4    -0.121224348864E+03    0.24643E-02   -0.28269E-03  1640   0.811E-02    0.194E-01
DAV:   5    -0.121223654289E+03    0.69458E-03   -0.36963E-03  1648   0.922E-02    0.612E-02
DAV:   6    -0.121223697155E+03   -0.42865E-04   -0.68358E-05  1024   0.246E-02
  53 F= -.12122370E+03 E0= -.12122370E+03  d E =-.890182E-01  mag=     1.0000
 curvature: -40.32 expect dE=-0.204E+00 dE for cont linesearch -0.331E-03
 trial: gam= 0.50773 g(F)=  0.507E-02 g(S)=  0.000E+00 ort = 0.370E-03 (trialstep = 0.174E+02)
 search vector abs. value=  0.974E-02
 bond charge predicted
       N       E                     dE             d eps       ncg     rms          rms(c)
DAV:   1    -0.121201551245E+03    0.22103E-01   -0.19894E+02  1568   0.194E+01    0.532E-01
DAV:   2    -0.121293965898E+03   -0.92415E-01   -0.90686E-01  1608   0.186E+00    0.513E-01
DAV:   3    -0.121292877999E+03    0.10879E-02   -0.14858E-02  1696   0.241E-01    0.372E-01
DAV:   4    -0.121289955091E+03    0.29229E-02   -0.36480E-03  1640   0.910E-02    0.223E-01
DAV:   5    -0.121289370266E+03    0.58483E-03   -0.43237E-03  1648   0.968E-02    0.736E-02
DAV:   6    -0.121289423568E+03   -0.53303E-04   -0.93582E-05  1064   0.166E-02
  54 F= -.12128942E+03 E0= -.12128942E+03  d E =-.657264E-01  mag=     1.0000
 trial-energy change:   -0.065726  1 .order   -0.067155   -0.091646   -0.042664
 step:  45.2661(harm= 32.6289)  dis= 0.14577  next Energy=  -121.317659 (dE=-0.940E-01)
 bond charge predicted
       N       E                     dE             d eps       ncg     rms          rms(c)
DAV:   1    -0.121052809146E+03    0.23656E+00   -0.51101E+02  1568   0.311E+01    0.947E-01
DAV:   2    -0.121291988389E+03   -0.23918E+00   -0.23713E+00  1624   0.301E+00    0.829E-01
DAV:   3    -0.121288526855E+03    0.34615E-02   -0.39403E-02  1696   0.399E-01    0.578E-01
DAV:   4    -0.121281613813E+03    0.69130E-02   -0.94118E-03  1648   0.147E-01    0.339E-01
DAV:   5    -0.121280355135E+03    0.12587E-02   -0.83995E-03  1648   0.138E-01    0.103E-01
DAV:   6    -0.121280419895E+03   -0.64759E-04   -0.19536E-04  1120   0.347E-02
  55 F= -.12128042E+03 E0= -.12128042E+03  d E =-.567227E-01  mag=     1.0000
 curvature:  -9.30 expect dE=-0.681E-01 dE for cont linesearch -0.733E-02
 ZBRENT: interpolating
 opt :  30.4886  next Energy=  -121.305386 (dE=-0.817E-01)
 bond charge predicted
       N       E                     dE             d eps       ncg     rms          rms(c)
DAV:   1    -0.121242299559E+03    0.38056E-01   -0.14272E+02  1568   0.164E+01    0.416E-01
DAV:   2    -0.121307437121E+03   -0.65138E-01   -0.63666E-01  1624   0.155E+00    0.423E-01
DAV:   3    -0.121306713756E+03    0.72336E-03   -0.10169E-02  1744   0.193E-01    0.324E-01
DAV:   4    -0.121304599856E+03    0.21139E-02   -0.25841E-03  1640   0.772E-02    0.196E-01
DAV:   5    -0.121304223489E+03    0.37637E-03   -0.37032E-03  1632   0.913E-02    0.679E-02
DAV:   6    -0.121304244816E+03   -0.21327E-04   -0.70041E-05  1048   0.238E-02
  56 F= -.12130424E+03 E0= -.12130424E+03  d E =-.805477E-01  mag=     1.0000
 curvature: -20.25 expect dE=-0.652E-01 dE for cont linesearch -0.154E-03
 trial: gam= 0.54361 g(F)=  0.322E-02 g(S)=  0.000E+00 ort =-0.272E-03 (trialstep = 0.200E+02)
 search vector abs. value=  0.580E-02
 bond charge predicted
       N       E                     dE             d eps       ncg     rms          rms(c)
DAV:   1    -0.121274455059E+03    0.29768E-01   -0.15717E+02  1568   0.171E+01    0.476E-01
DAV:   2    -0.121347210771E+03   -0.72756E-01   -0.71794E-01  1616   0.165E+00    0.460E-01
DAV:   3    -0.121346253488E+03    0.95728E-03   -0.11802E-02  1704   0.216E-01    0.337E-01
DAV:   4    -0.121343927064E+03    0.23264E-02   -0.29054E-03  1640   0.825E-02    0.202E-01
DAV:   5    -0.121343396785E+03    0.53028E-03   -0.34524E-03  1664   0.908E-02    0.652E-02
DAV:   6    -0.121343398513E+03   -0.17283E-05   -0.67098E-05  1000   0.299E-02
  57 F= -.12134340E+03 E0= -.12134340E+03  d E =-.391537E-01  mag=     1.0000
 trial-energy change:   -0.039154  1 .order   -0.039515   -0.061589   -0.017441
 step:  27.9694(harm= 27.9694)  dis= 0.11075  next Energy=  -121.347205 (dE=-0.430E-01)
 bond charge predicted
       N       E                     dE             d eps       ncg     rms          rms(c)
DAV:   1    -0.121334495428E+03    0.89014E-02   -0.24318E+01  1584   0.673E+00    0.182E-01
DAV:   2    -0.121345577775E+03   -0.11082E-01   -0.10919E-01  1624   0.640E-01    0.178E-01
DAV:   3    -0.121345460856E+03    0.11692E-03   -0.17602E-03  1688   0.823E-02    0.131E-01
DAV:   4    -0.121345113423E+03    0.34743E-03   -0.49222E-04  1632   0.338E-02    0.759E-02
DAV:   5    -0.121345076877E+03    0.36547E-04   -0.53609E-04  1656   0.354E-02
  58 F= -.12134508E+03 E0= -.12134508E+03  d E =-.408321E-01  mag=     1.0000
 curvature: -26.41 expect dE=-0.457E-01 dE for cont linesearch -0.274E-03
 trial: gam= 0.47850 g(F)=  0.173E-02 g(S)=  0.000E+00 ort =-0.245E-03 (trialstep = 0.216E+02)
 search vector abs. value=  0.282E-02
 bond charge predicted
       N       E                     dE             d eps       ncg     rms          rms(c)
DAV:   1    -0.121323914272E+03    0.21199E-01   -0.88718E+01  1568   0.129E+01    0.374E-01
DAV:   2    -0.121364956317E+03   -0.41042E-01   -0.40546E-01  1624   0.124E+00    0.366E-01
DAV:   3    -0.121364486012E+03    0.47030E-03   -0.67419E-03  1688   0.163E-01    0.265E-01
DAV:   4    -0.121363063346E+03    0.14227E-02   -0.19528E-03  1680   0.664E-02    0.151E-01
DAV:   5    -0.121362780384E+03    0.28296E-03   -0.17799E-03  1664   0.633E-02    0.527E-02
DAV:   6    -0.121362812541E+03   -0.32157E-04   -0.60941E-05   992   0.147E-02
  59 F= -.12136281E+03 E0= -.12136281E+03  d E =-.177357E-01  mag=     1.0000
 trial-energy change:   -0.017736  1 .order   -0.019011   -0.034911   -0.003111
 step:  24.5441(harm= 23.7494)  dis= 0.06275  next Energy=  -121.363019 (dE=-0.179E-01)
 bond charge predicted
       N       E                     dE             d eps       ncg     rms          rms(c)
DAV:   1    -0.121362226214E+03    0.55417E-03   -0.15972E+00  1632   0.173E+00    0.529E-02
DAV:   2    -0.121363021013E+03   -0.79480E-03   -0.73086E-03  1672   0.166E-01    0.488E-02
DAV:   3    -0.121363036740E+03   -0.15728E-04   -0.10722E-04  1000   0.216E-02
  60 F= -.12136304E+03 E0= -.12136304E+03  d E =-.179599E-01  mag=     1.0000
 curvature: -17.85 expect dE=-0.154E-01 dE for cont linesearch -0.316E-03
 trial: gam= 0.45247 g(F)=  0.861E-03 g(S)=  0.000E+00 ort =-0.224E-03 (trialstep = 0.222E+02)
 search vector abs. value=  0.124E-02
 bond charge predicted
       N       E                     dE             d eps       ncg     rms          rms(c)
DAV:   1    -0.121355901995E+03    0.71190E-02   -0.40870E+01  1568   0.878E+00    0.247E-01
DAV:   2    -0.121374434140E+03   -0.18532E-01   -0.18241E-01  1624   0.831E-01    0.242E-01
DAV:   3    -0.121374170737E+03    0.26340E-03   -0.29725E-03  1712   0.106E-01    0.181E-01
DAV:   4    -0.121373436395E+03    0.73434E-03   -0.10347E-03  1640   0.488E-02    0.989E-02
DAV:   5    -0.121373333669E+03    0.10273E-03   -0.83468E-04  1640   0.436E-02    0.362E-02
DAV:   6    -0.121373390789E+03   -0.57120E-04   -0.26582E-05  1024   0.108E-02
  61 F= -.12137339E+03 E0= -.12137339E+03  d E =-.103540E-01  mag=     1.0000
 trial-energy change:   -0.010354  1 .order   -0.010040   -0.016889   -0.003192
 step:  27.3923(harm= 27.3923)  dis= 0.01914  next Energy=  -121.373449 (dE=-0.104E-01)
 bond charge predicted
       N       E                     dE             d eps       ncg     rms          rms(c)
DAV:   1    -0.121372747717E+03    0.58595E-03   -0.22129E+00  1624   0.204E+00    0.597E-02
DAV:   2    -0.121373800149E+03   -0.10524E-02   -0.10009E-02  1656   0.194E-01    0.555E-02
DAV:   3    -0.121373802330E+03   -0.21810E-05   -0.14569E-04  1008   0.251E-02
  62 F= -.12137380E+03 E0= -.12137380E+03  d E =-.107656E-01  mag=     1.0000
 curvature: -22.29 expect dE=-0.796E-02 dE for cont linesearch -0.400E-03
 trial: gam= 0.00000 g(F)=  0.357E-03 g(S)=  0.000E+00 ort =-0.149E-03 (trialstep = 0.233E+02)
 search vector abs. value=  0.357E-03
 bond charge predicted
       N       E                     dE             d eps       ncg     rms          rms(c)
DAV:   1    -0.121370517871E+03    0.32823E-02   -0.12982E+01  1568   0.495E+00    0.186E-01
DAV:   2    -0.121376380926E+03   -0.58631E-02   -0.58885E-02  1640   0.466E-01    0.145E-01
DAV:   3    -0.121376313243E+03    0.67683E-04   -0.10344E-03  1704   0.605E-02    0.971E-02
DAV:   4    -0.121376250152E+03    0.63091E-04   -0.42560E-04  1656   0.322E-02
  63 F= -.12137625E+03 E0= -.12137625E+03  d E =-.244782E-02  mag=     1.0000
 trial-energy change:   -0.002448  1 .order   -0.002763   -0.008299    0.002773
 step:  17.4275(harm= 17.4275)  dis= 0.00733  next Energy=  -121.376913 (dE=-0.311E-02)
 bond charge predicted
       N       E                     dE             d eps       ncg     rms          rms(c)
DAV:   1    -0.121376436767E+03   -0.12352E-03   -0.81549E-01  1648   0.124E+00    0.467E-02
DAV:   2    -0.121376804563E+03   -0.36780E-03   -0.35333E-03  1696   0.115E-01    0.400E-02
DAV:   3    -0.121376797592E+03    0.69707E-05   -0.53049E-05   968   0.143E-02
  64 F= -.12137680E+03 E0= -.12137680E+03  d E =-.299526E-02  mag=     1.0000
 curvature:  -8.71 expect dE=-0.140E-02 dE for cont linesearch -0.712E-05
 trial: gam= 0.40075 g(F)=  0.160E-03 g(S)=  0.000E+00 ort = 0.171E-04 (trialstep = 0.221E+02)
 search vector abs. value=  0.231E-03
 bond charge predicted
       N       E                     dE             d eps       ncg     rms          rms(c)
DAV:   1    -0.121375836076E+03    0.96849E-03   -0.75150E+00  1576   0.376E+00    0.923E-02
DAV:   2    -0.121379278517E+03   -0.34424E-02   -0.33718E-02  1632   0.359E-01    0.100E-01
DAV:   3    -0.121379248167E+03    0.30351E-04   -0.55982E-04  1624   0.464E-02
  65 F= -.12137925E+03 E0= -.12137925E+03  d E =-.245057E-02  mag=     1.0000
 trial-energy change:   -0.002451  1 .order   -0.002499   -0.003688   -0.001311
 step:  34.2708(harm= 34.2708)  dis= 0.01040  next Energy=  -121.379659 (dE=-0.286E-02)
 bond charge predicted
       N       E                     dE             d eps       ncg     rms          rms(c)
DAV:   1    -0.121378601692E+03    0.67683E-03   -0.22974E+00  1600   0.208E+00    0.786E-02
DAV:   2    -0.121379531007E+03   -0.92932E-03   -0.96376E-03  1672   0.193E-01    0.782E-02
DAV:   3    -0.121379489826E+03    0.41180E-04   -0.13601E-04   976   0.230E-02
  66 F= -.12137949E+03 E0= -.12137949E+03  d E =-.269223E-02  mag=     1.0000
 curvature: -23.72 expect dE=-0.297E-02 dE for cont linesearch -0.181E-03
 trial: gam= 0.00000 g(F)=  0.125E-03 g(S)=  0.000E+00 ort =-0.421E-04 (trialstep = 0.245E+02)
 search vector abs. value=  0.125E-03
 bond charge predicted
       N       E                     dE             d eps       ncg     rms          rms(c)
DAV:   1    -0.121377910636E+03    0.16204E-02   -0.50675E+00  1584   0.309E+00    0.123E-01
DAV:   2    -0.121380158337E+03   -0.22477E-02   -0.22867E-02  1624   0.291E-01    0.958E-02
DAV:   3    -0.121380114100E+03    0.44236E-04   -0.39007E-04  1384   0.383E-02
  67 F= -.12138011E+03 E0= -.12138011E+03  d E =-.624274E-03  mag=     1.0000
 trial-energy change:   -0.000624  1 .order   -0.000383   -0.003074    0.002308
 step:  14.0072(harm= 14.0072)  dis= 0.00249  next Energy=  -121.380368 (dE=-0.878E-03)
 bond charge predicted
       N       E                     dE             d eps       ncg     rms          rms(c)
DAV:   1    -0.121379907198E+03    0.25114E-03   -0.92479E-01  1640   0.132E+00    0.432E-02
DAV:   2    -0.121380336189E+03   -0.42899E-03   -0.42054E-03  1632   0.126E-01    0.358E-02
DAV:   3    -0.121380337726E+03   -0.15371E-05   -0.66941E-05   992   0.172E-02
  68 F= -.12138034E+03 E0= -.12138034E+03  d E =-.847899E-03  mag=     1.0000
 curvature:  -7.00 expect dE=-0.269E-03 dE for cont linesearch -0.969E-04
 trial: gam=-0.02617 g(F)=  0.384E-04 g(S)=  0.000E+00 ort = 0.416E-04 (trialstep = 0.224E+02)
 search vector abs. value=  0.363E-04
 reached required accuracy - stopping structural energy minimisation
Application 91171841 resources: utime ~404644s, stime ~1764s, Rss ~97252, inblocks ~3766435, outblocks ~2531547
