23
Energy = -27.6405603 eV
Ca 13.949924614302493 8.94327529595043 11.28692140641701
Ca 10.305460699203438 8.107403692243391 12.19108636617865
Ca 12.862328263538531 7.886668391007996 14.737503759992412
Ca 11.179315590216934 10.806124030812652 9.634745160206798
Ca 14.70106622441679 11.129435642111703 8.210302475461406
Ca 17.202957377113016 10.836172852601845 10.80861888304608
Ca 11.743411941813434 11.465987361666649 13.657073524859522
Ca 15.654984537207428 10.371018188739974 14.238581150523915
Ca 8.196390350368763 11.053374043370518 12.033386449187116
Ca 9.446373608117796 10.0059318747282 15.692496035453312
Ca 12.575501535148309 14.034688070458673 8.040791021332845
Ca 14.042511084789618 13.059547745595651 11.551424312894534
Ca 16.245088365375132 14.643778918577858 9.508807619448444
Ca 10.138131795835644 14.085419651133565 10.937494755177353
Ca 13.195169039698301 10.53216165455319 17.199086674664528
Ca 17.57712524420771 13.527588274019772 13.178054038335096
Ca 8.539307279233096 13.931188303517633 14.310055841256702
Ca 12.71023780349944 16.74640723149536 10.539918586191648
Ca 14.619802667069653 13.68425263542003 15.58464487560685
Ca 11.058022838672441 13.43578690158414 16.97235874475426
Ca 15.434714111294513 16.437260400127787 12.994284117282138
Ca 9.149856943510045 17.339205475360643 12.317977218805515
Ca 11.890318340420055 15.5449012371334 13.964780281492427
