unknown system                          
           1
    20.172322    0.000000    0.000000
     0.000000   20.172322    0.000000
     0.000000    0.000000   20.172322
   Ag
  22
Direct configuration=     1
   0.39519524  0.32523162  0.47557655
   0.37534972  0.41735480  0.57491006
   0.33116533  0.44582004  0.45015922
   0.50485951  0.38432450  0.54690416
   0.46414567  0.42275266  0.41209610
   0.63931478  0.35203352  0.55465864
   0.46308114  0.48338979  0.64814691
   0.37146208  0.54722425  0.54695829
   0.40362825  0.54881955  0.40575255
   0.59454406  0.43351124  0.45313465
   0.59305593  0.45176935  0.63429043
   0.50452921  0.52694224  0.50640174
   0.69610937  0.47292424  0.54404133
   0.55921299  0.55373790  0.72010549
   0.53712986  0.51866409  0.35908378
   0.48810073  0.61137746  0.61452133
   0.42239385  0.65923363  0.50536191
   0.64198225  0.56149323  0.45893008
   0.60601558  0.63729664  0.35694156
   0.61875056  0.58142564  0.59621334
   0.55787292  0.66083032  0.49939228
   0.48024442  0.65277324  0.38269300
Direct configuration=     2
   0.39522860  0.32511612  0.47566647
   0.37530363  0.41708362  0.57491882
   0.33108192  0.44584400  0.45009172
   0.50480873  0.38426067  0.54698219
   0.46396626  0.42262698  0.41221379
   0.63928425  0.35179284  0.55463862
   0.46301546  0.48343865  0.64813431
   0.37135919  0.54710050  0.54710474
   0.40348024  0.54884739  0.40581763
   0.59474454  0.43338709  0.45312569
   0.59310046  0.45167044  0.63422518
   0.50456055  0.52692646  0.50635733
   0.69619426  0.47303091  0.54402262
   0.55918775  0.55378205  0.72008765
   0.53730083  0.51888633  0.35915752
   0.48796001  0.61157901  0.61465347
   0.42231808  0.65949550  0.50518158
   0.64203202  0.56147618  0.45896412
   0.60629668  0.63743138  0.35681462
   0.61886241  0.58135848  0.59610448
   0.55796924  0.66087919  0.49932358
   0.48008833  0.65291617  0.38268730
Direct configuration=     3
   0.39532868  0.32476961  0.47593623
   0.37516535  0.41627007  0.57494511
   0.33083170  0.44591587  0.44988921
   0.50465638  0.38406918  0.54721628
   0.46342803  0.42224995  0.41256686
   0.63919264  0.35107078  0.55457854
   0.46281843  0.48358523  0.64809650
   0.37105052  0.54672924  0.54754410
   0.40303621  0.54893091  0.40601284
   0.59534597  0.43301465  0.45309880
   0.59323407  0.45137372  0.63402943
   0.50465458  0.52687913  0.50622412
   0.69644896  0.47335091  0.54396650
   0.55911205  0.55391450  0.72003412
   0.53781371  0.51955307  0.35937875
   0.48753788  0.61218363  0.61504988
   0.42209077  0.66028113  0.50464060
   0.64218133  0.56142503  0.45906623
   0.60713997  0.63783560  0.35643378
   0.61919796  0.58115700  0.59577791
   0.55825818  0.66102580  0.49911748
   0.47962006  0.65334497  0.38267017
Direct configuration=     4
   0.39552885  0.32407659  0.47647573
   0.37488878  0.41464297  0.57499768
   0.33033126  0.44605961  0.44948419
   0.50435169  0.38368620  0.54768445
   0.46235156  0.42149588  0.41327301
   0.63900944  0.34962667  0.55445839
   0.46242437  0.48387838  0.64802088
   0.37043319  0.54598671  0.54842282
   0.40214815  0.54909796  0.40640328
   0.59654884  0.43226976  0.45304502
   0.59350130  0.45078028  0.63363792
   0.50484264  0.52678447  0.50595769
   0.69695834  0.47399091  0.54385424
   0.55896063  0.55417939  0.71992706
   0.53883949  0.52088654  0.35982120
   0.48669360  0.61339288  0.61584270
   0.42163614  0.66185239  0.50355864
   0.64247995  0.56132272  0.45927045
   0.60882656  0.63864404  0.35567210
   0.61986905  0.58075404  0.59512477
   0.55883608  0.66131901  0.49870529
   0.47868353  0.65420256  0.38263593
Direct configuration=     5
   0.39592919  0.32269054  0.47755475
   0.37433565  0.41138877  0.57510281
   0.32933038  0.44634709  0.44867416
   0.50374231  0.38292023  0.54862079
   0.46019864  0.41998775  0.41468530
   0.63864302  0.34673844  0.55421809
   0.46163626  0.48446468  0.64786964
   0.36919853  0.54450166  0.55018025
   0.40037203  0.54943207  0.40718415
   0.59895458  0.43077999  0.45293746
   0.59403574  0.44959341  0.63285492
   0.50521875  0.52659516  0.50542483
   0.69797711  0.47527092  0.54362973
   0.55865779  0.55470918  0.71971293
   0.54089103  0.52355349  0.36070610
   0.48500506  0.61581137  0.61742834
   0.42072688  0.66499491  0.50139472
   0.64307718  0.56111811  0.45967890
   0.61219974  0.64026091  0.35414875
   0.62121125  0.57994811  0.59381848
   0.55999187  0.66190545  0.49788089
   0.47681045  0.65591775  0.38256745
Direct configuration=     6
   0.39583652  0.32301139  0.47730497
   0.37446369  0.41214206  0.57507847
   0.32956207  0.44628054  0.44886167
   0.50388338  0.38309754  0.54840404
   0.46069700  0.42033685  0.41435838
   0.63872784  0.34740702  0.55427372
   0.46181869  0.48432896  0.64790465
   0.36948433  0.54484542  0.54977343
   0.40078317  0.54935473  0.40700339
   0.59839769  0.43112485  0.45296236
   0.59391202  0.44986815  0.63303617
   0.50513168  0.52663898  0.50554818
   0.69774128  0.47497462  0.54368170
   0.55872789  0.55458654  0.71976250
   0.54041613  0.52293613  0.36050126
   0.48539593  0.61525153  0.61706129
   0.42093736  0.66426747  0.50189563
   0.64293893  0.56116548  0.45958435
   0.61141890  0.63988663  0.35450138
   0.62090055  0.58013467  0.59412087
   0.55972432  0.66176970  0.49807172
   0.47724404  0.65552071  0.38258330
Direct configuration=     7
   0.39576540  0.32201557  0.47762599
   0.37415169  0.41134779  0.57533734
   0.32899215  0.44606003  0.44894507
   0.50405450  0.38289202  0.54864685
   0.46096733  0.42093600  0.41469003
   0.63861953  0.34677972  0.55415763
   0.46162774  0.48462759  0.64747657
   0.36965941  0.54481608  0.55015403
   0.40061715  0.54975112  0.40746185
   0.59864082  0.43062063  0.45291391
   0.59392831  0.44955873  0.63270278
   0.50518215  0.52673792  0.50550821
   0.69818022  0.47456385  0.54377675
   0.55860673  0.55468238  0.71921758
   0.54069029  0.52351636  0.36163839
   0.48499435  0.61596011  0.61692860
   0.42039950  0.66445419  0.50195500
   0.64299278  0.56141255  0.45901435
   0.61192211  0.64052169  0.35439249
   0.62065423  0.57994721  0.59397398
   0.55981821  0.66180117  0.49776149
   0.47767881  0.65592727  0.38199455
Direct configuration=     8
   0.39555207  0.31902811  0.47858903
   0.37321568  0.40896496  0.57611395
   0.32728239  0.44539850  0.44919528
   0.50456789  0.38227545  0.54937527
   0.46177830  0.42273343  0.41568497
   0.63829459  0.34489783  0.55380937
   0.46105490  0.48552348  0.64619232
   0.37018464  0.54472803  0.55129584
   0.40011910  0.55094029  0.40883723
   0.59937021  0.42910796  0.45276856
   0.59397717  0.44863046  0.63170260
   0.50533356  0.52703475  0.50538828
   0.69949705  0.47333155  0.54406193
   0.55824326  0.55496989  0.71758282
   0.54151276  0.52525706  0.36504977
   0.48378962  0.61808584  0.61653053
   0.41878594  0.66501434  0.50213311
   0.64315431  0.56215375  0.45730435
   0.61343173  0.64242686  0.35406584
   0.61991527  0.57938485  0.59353331
   0.56009986  0.66189559  0.49683078
   0.47898313  0.65714698  0.38022828
Direct configuration=     9
   0.39546851  0.31785802  0.47896622
   0.37284908  0.40803169  0.57641812
   0.32661273  0.44513941  0.44929328
   0.50476897  0.38203397  0.54966057
   0.46209593  0.42343742  0.41607465
   0.63816732  0.34416076  0.55367296
   0.46083053  0.48587436  0.64568933
   0.37039036  0.54469355  0.55174304
   0.39992403  0.55140605  0.40937592
   0.59965588  0.42851550  0.45271164
   0.59399631  0.44826689  0.63131087
   0.50539286  0.52715100  0.50534131
   0.70001280  0.47284890  0.54417362
   0.55810090  0.55508249  0.71694254
   0.54183489  0.52593883  0.36638589
   0.48331777  0.61891841  0.61637462
   0.41815397  0.66523374  0.50220287
   0.64321758  0.56244406  0.45663461
   0.61402300  0.64317305  0.35393790
   0.61962585  0.57916459  0.59336072
   0.56021017  0.66193258  0.49646625
   0.47949399  0.65762469  0.37953650
Direct configuration=    10
   0.39584393  0.31742043  0.47910038
   0.37277010  0.40749259  0.57650984
   0.32701113  0.44476715  0.44989234
   0.50434798  0.38157865  0.54956261
   0.46180075  0.42402639  0.41732904
   0.63813850  0.34348457  0.55344585
   0.46078354  0.48629354  0.64460772
   0.37094332  0.54429270  0.55204334
   0.39991925  0.55216176  0.41051888
   0.59975018  0.42837800  0.45301501
   0.59393541  0.44820617  0.63080591
   0.50566204  0.52749121  0.50601571
   0.69978468  0.47235799  0.54377887
   0.55779018  0.55518514  0.71558194
   0.54188792  0.52681029  0.36796227
   0.48312697  0.61967799  0.61566613
   0.41790005  0.66478484  0.50171470
   0.64403861  0.56162738  0.45687151
   0.61428549  0.64448179  0.35384375
   0.61869551  0.57868720  0.59266657
   0.55963207  0.66187672  0.49607497
   0.48009582  0.65784747  0.37926610
Direct configuration=    11
   0.39682478  0.31627716  0.47945089
   0.37256376  0.40608412  0.57674948
   0.32805201  0.44379457  0.45145749
   0.50324808  0.38038904  0.54930666
   0.46102954  0.42556519  0.42060635
   0.63806322  0.34171791  0.55285249
   0.46066078  0.48738871  0.64178184
   0.37238804  0.54324541  0.55282791
   0.39990674  0.55413617  0.41350508
   0.59999654  0.42801875  0.45380761
   0.59377629  0.44804753  0.62948661
   0.50636531  0.52838006  0.50777768
   0.69918867  0.47107540  0.54274752
   0.55697835  0.55545331  0.71202712
   0.54202646  0.52908711  0.37208083
   0.48262848  0.62166250  0.61381508
   0.41723666  0.66361202  0.50043928
   0.64618368  0.55949368  0.45749045
   0.61497129  0.64790108  0.35359778
   0.61626485  0.57743993  0.59085299
   0.55812168  0.66173079  0.49505266
   0.48166822  0.65842952  0.37855963
Direct configuration=    12
   0.39756933  0.31630190  0.47912253
   0.37255463  0.40575653  0.57722152
   0.32910917  0.44376357  0.45218953
   0.50332805  0.37940154  0.54919132
   0.46056285  0.42620054  0.42244843
   0.63779594  0.34116316  0.55268119
   0.46116224  0.48731526  0.64092146
   0.37190844  0.54262692  0.55281959
   0.39985940  0.55453466  0.41452883
   0.59921327  0.42805403  0.45423009
   0.59343272  0.44717401  0.62860716
   0.50725794  0.52834336  0.50923363
   0.69905626  0.46973880  0.54237029
   0.55630123  0.55581000  0.71111441
   0.54194369  0.53012623  0.37324842
   0.48253089  0.62273337  0.61340423
   0.41693995  0.66350333  0.49913395
   0.64723186  0.56037640  0.45685859
   0.61520788  0.64870826  0.35493537
   0.61525204  0.57751789  0.58937886
   0.55833402  0.66113699  0.49419340
   0.48159163  0.65864320  0.37844062
Direct configuration=    13
   0.39792350  0.31631367  0.47896634
   0.37255028  0.40560070  0.57744605
   0.32961204  0.44374883  0.45253774
   0.50336608  0.37893181  0.54913646
   0.46034086  0.42650276  0.42332468
   0.63766880  0.34089928  0.55259971
   0.46140078  0.48728031  0.64051220
   0.37168031  0.54233272  0.55281563
   0.39983688  0.55472422  0.41501581
   0.59884069  0.42807082  0.45443106
   0.59326929  0.44675849  0.62818883
   0.50768255  0.52832590  0.50992619
   0.69899328  0.46910301  0.54219085
   0.55597914  0.55597966  0.71068024
   0.54190433  0.53062052  0.37380382
   0.48248447  0.62324277  0.61320879
   0.41679881  0.66345164  0.49851303
   0.64773045  0.56079630  0.45655803
   0.61532042  0.64909222  0.35557163
   0.61477027  0.57755498  0.58867765
   0.55843502  0.66085453  0.49378466
   0.48155520  0.65874485  0.37838401
Direct configuration=    14
   0.39815299  0.31645900  0.47857191
   0.37280027  0.40530523  0.57805605
   0.32935953  0.44403429  0.45267915
   0.50359781  0.37793939  0.54946040
   0.46093465  0.42699750  0.42353108
   0.63761779  0.34044584  0.55247656
   0.46170747  0.48695444  0.64089923
   0.37084080  0.54249430  0.55267985
   0.39997392  0.55422394  0.41449921
   0.59818880  0.42870677  0.45444555
   0.59310749  0.44660383  0.62801780
   0.50802442  0.52768798  0.51048874
   0.69880877  0.46867013  0.54159533
   0.55557614  0.55634106  0.71085167
   0.54155462  0.53066121  0.37369892
   0.48205646  0.62366107  0.61334361
   0.41671243  0.66399621  0.49845350
   0.64875634  0.56118499  0.45614725
   0.61543201  0.64913759  0.35688360
   0.61533168  0.57746642  0.58872505
   0.55893224  0.66092242  0.49288043
   0.48067679  0.65903633  0.37788856
Direct configuration=    15
   0.39837481  0.31659948  0.47819065
   0.37304191  0.40501963  0.57864567
   0.32911547  0.44431023  0.45281583
   0.50382179  0.37698013  0.54977351
   0.46150861  0.42747571  0.42373059
   0.63756848  0.34000756  0.55235752
   0.46200391  0.48663946  0.64127334
   0.37002934  0.54265049  0.55254860
   0.40010638  0.55374038  0.41399988
   0.59755869  0.42932148  0.45445955
   0.59295110  0.44645435  0.62785249
   0.50835487  0.52707138  0.51103248
   0.69863043  0.46825172  0.54101970
   0.55518659  0.55669038  0.71101736
   0.54121660  0.53070053  0.37359752
   0.48164275  0.62406539  0.61347392
   0.41662893  0.66452260  0.49839596
   0.64974796  0.56156071  0.45575019
   0.61553988  0.64918145  0.35815174
   0.61587432  0.57738082  0.58877087
   0.55941285  0.66098805  0.49200640
   0.47982774  0.65931806  0.37740966
Direct configuration=    16
   0.39846551  0.31735804  0.47775768
   0.37360311  0.40472557  0.57875658
   0.32907880  0.44443941  0.45322701
   0.50373378  0.37590558  0.55019810
   0.46123550  0.42706479  0.42366284
   0.63760407  0.33982316  0.55191770
   0.46147767  0.48669851  0.64153573
   0.36995961  0.54281651  0.55247063
   0.40054633  0.55361341  0.41355353
   0.59779147  0.42971602  0.45475315
   0.59314224  0.44665207  0.62768906
   0.50841471  0.52709642  0.51202606
   0.69838128  0.46777406  0.54019467
   0.55478001  0.55749617  0.71116405
   0.54110747  0.53136133  0.37332288
   0.48129176  0.62365991  0.61323504
   0.41696152  0.66456912  0.49856184
   0.65072639  0.56107879  0.45589189
   0.61529329  0.64964635  0.35953843
   0.61647022  0.57735227  0.58891213
   0.55949867  0.66053460  0.49120291
   0.47858002  0.65954789  0.37670151
Direct configuration=    17
   0.39850514  0.31768950  0.47756849
   0.37384834  0.40459707  0.57880505
   0.32906278  0.44449586  0.45340668
   0.50369532  0.37543603  0.55038363
   0.46111616  0.42688523  0.42363324
   0.63761963  0.33974258  0.55172551
   0.46124772  0.48672431  0.64165039
   0.36992914  0.54288906  0.55243655
   0.40073857  0.55355792  0.41335849
   0.59789318  0.42988842  0.45488145
   0.59322576  0.44673847  0.62761764
   0.50844085  0.52710737  0.51246022
   0.69827241  0.46756534  0.53983416
   0.55460235  0.55784828  0.71122815
   0.54105978  0.53165007  0.37320287
   0.48113840  0.62348273  0.61313066
   0.41710685  0.66458945  0.49863433
   0.65115393  0.56086821  0.45595381
   0.61518554  0.64984949  0.36014437
   0.61673061  0.57733979  0.58897385
   0.55953617  0.66033646  0.49085181
   0.47803480  0.65964832  0.37639208
Direct configuration=    18
   0.39812437  0.31794822  0.47706420
   0.37414796  0.40453625  0.57866976
   0.32911698  0.44479884  0.45394525
   0.50410124  0.37492689  0.55076447
   0.46137778  0.42693037  0.42353650
   0.63768462  0.33970457  0.55129652
   0.46076734  0.48696099  0.64223116
   0.37039854  0.54282945  0.55223427
   0.40122182  0.55337406  0.41346091
   0.59753595  0.42996305  0.45479456
   0.59307017  0.44708954  0.62732334
   0.50839985  0.52693844  0.51274491
   0.69892474  0.46665014  0.53972867
   0.55405783  0.55878082  0.71099705
   0.54105822  0.53247726  0.37385556
   0.48097355  0.62274135  0.61292409
   0.41767169  0.66414620  0.49861115
   0.65148917  0.56045426  0.45595283
   0.61476911  0.65082045  0.36118347
   0.61710698  0.57755393  0.58904505
   0.55916214  0.65921514  0.49039994
   0.47698336  0.66008972  0.37550977
Direct configuration=    19
   0.39783447  0.31814521  0.47668025
   0.37437608  0.40448995  0.57856675
   0.32915824  0.44502953  0.45435529
   0.50441029  0.37453925  0.55105443
   0.46157697  0.42696473  0.42346285
   0.63773411  0.33967564  0.55096990
   0.46040160  0.48714119  0.64267334
   0.37075592  0.54278407  0.55208026
   0.40158975  0.55323407  0.41353888
   0.59726397  0.43001986  0.45472841
   0.59295171  0.44735684  0.62709926
   0.50836864  0.52680982  0.51296166
   0.69942141  0.46595335  0.53964835
   0.55364326  0.55949082  0.71082111
   0.54105704  0.53310705  0.37435249
   0.48084805  0.62217689  0.61276682
   0.41810174  0.66380873  0.49859350
   0.65174440  0.56013909  0.45595209
   0.61445205  0.65155971  0.36197460
   0.61739354  0.57771697  0.58909927
   0.55887738  0.65836141  0.49005591
   0.47618282  0.66042578  0.37483802
Direct configuration=    20
   0.39754114  0.31796446  0.47656655
   0.37457193  0.40451292  0.57861984
   0.32930952  0.44534189  0.45428149
   0.50412491  0.37482626  0.55081984
   0.46185447  0.42711318  0.42356074
   0.63788090  0.33963589  0.55093496
   0.46039581  0.48661047  0.64345766
   0.37099877  0.54240267  0.55212640
   0.40148336  0.55311347  0.41369579
   0.59728288  0.42973259  0.45459723
   0.59254314  0.44780407  0.62663477
   0.50854244  0.52576331  0.51280541
   0.69985897  0.46557607  0.53984649
   0.55353275  0.55981509  0.71082020
   0.54101308  0.53391754  0.37528317
   0.48073410  0.62254082  0.61286574
   0.41824704  0.66363279  0.49817344
   0.65181800  0.55981952  0.45612384
   0.61441014  0.65248911  0.36189118
   0.61766438  0.57764916  0.58880098
   0.55821168  0.65773469  0.49012491
   0.47612401  0.66093398  0.37424282
Direct configuration=    21
   0.39739404  0.31787382  0.47650953
   0.37467015  0.40452443  0.57864646
   0.32938538  0.44549854  0.45424447
   0.50398180  0.37497019  0.55070219
   0.46199364  0.42718763  0.42360983
   0.63795451  0.33961596  0.55091743
   0.46039290  0.48634431  0.64385100
   0.37112056  0.54221140  0.55214954
   0.40143000  0.55305299  0.41377448
   0.59729237  0.42958852  0.45453145
   0.59233823  0.44802836  0.62640183
   0.50862960  0.52523848  0.51272704
   0.70007841  0.46538686  0.53994585
   0.55347733  0.55997772  0.71081974
   0.54099103  0.53432399  0.37574991
   0.48067695  0.62272334  0.61291534
   0.41831991  0.66354456  0.49796277
   0.65185492  0.55965926  0.45620998
   0.61438913  0.65295520  0.36184934
   0.61780021  0.57761516  0.58865139
   0.55787784  0.65742040  0.49015951
   0.47609452  0.66118884  0.37394433
Direct configuration=    22
   0.39743235  0.31804999  0.47664380
   0.37416673  0.40435908  0.57863632
   0.32933361  0.44506998  0.45407251
   0.50414039  0.37495530  0.55034143
   0.46151491  0.42657856  0.42321741
   0.63765245  0.33978419  0.55115621
   0.46037620  0.48668570  0.64414365
   0.37142907  0.54224098  0.55258243
   0.40152136  0.55390287  0.41337249
   0.59819368  0.42921227  0.45447084
   0.59242705  0.44787557  0.62604831
   0.50861680  0.52518961  0.51421333
   0.69979424  0.46560720  0.53988004
   0.55365396  0.55986142  0.71064619
   0.54104620  0.53484449  0.37564329
   0.48067254  0.62231591  0.61264951
   0.41789752  0.66357767  0.49786604
   0.65194580  0.56010411  0.45586079
   0.61463992  0.65266334  0.36210068
   0.61760191  0.57770746  0.58880109
   0.55787907  0.65731139  0.48992172
   0.47620768  0.66103287  0.37400537
Direct configuration=    23
   0.39741846  0.31798613  0.47659513
   0.37434922  0.40441902  0.57863999
   0.32935237  0.44522533  0.45413484
   0.50408290  0.37496070  0.55047220
   0.46168845  0.42679935  0.42335966
   0.63776195  0.33972321  0.55106965
   0.46038226  0.48656195  0.64403757
   0.37131724  0.54223026  0.55242551
   0.40148824  0.55359479  0.41351821
   0.59786695  0.42934866  0.45449281
   0.59239486  0.44793096  0.62617646
   0.50862144  0.52520732  0.51367455
   0.69989725  0.46552733  0.53990389
   0.55358993  0.55990358  0.71070910
   0.54102620  0.53465581  0.37568194
   0.48067414  0.62246360  0.61274588
   0.41805063  0.66356567  0.49790111
   0.65191286  0.55994285  0.45598737
   0.61454900  0.65276914  0.36200957
   0.61767380  0.57767400  0.58874682
   0.55787862  0.65735090  0.49000792
   0.47616666  0.66108941  0.37398324
Direct configuration=    24
   0.39740003  0.31792004  0.47675242
   0.37413897  0.40442403  0.57878045
   0.32945731  0.44520597  0.45386225
   0.50391370  0.37508175  0.55005331
   0.46180511  0.42699239  0.42306057
   0.63765597  0.33962800  0.55138695
   0.46016482  0.48647233  0.64445906
   0.37148031  0.54217027  0.55262086
   0.40143363  0.55364597  0.41343217
   0.59812520  0.42938576  0.45410424
   0.59234108  0.44787839  0.62594702
   0.50873290  0.52453925  0.51431090
   0.69977457  0.46590731  0.53981233
   0.55384610  0.55981254  0.71069415
   0.54088125  0.53467504  0.37610641
   0.48059569  0.62243274  0.61258245
   0.41766978  0.66367944  0.49785890
   0.65207408  0.56004698  0.45588029
   0.61489866  0.65275176  0.36200919
   0.61766209  0.57782337  0.58874902
   0.55772628  0.65721932  0.48986737
   0.47636590  0.66123734  0.37394312
Direct configuration=    25
   0.39738423  0.31786344  0.47688715
   0.37395889  0.40442831  0.57890076
   0.32954719  0.44518939  0.45362878
   0.50376877  0.37518542  0.54969453
   0.46190503  0.42715774  0.42280438
   0.63756520  0.33954646  0.55165871
   0.45997859  0.48639557  0.64482007
   0.37161999  0.54211888  0.55278817
   0.40138686  0.55368980  0.41335848
   0.59834639  0.42941753  0.45377143
   0.59229502  0.44783336  0.62575050
   0.50882838  0.52396703  0.51485593
   0.69966949  0.46623277  0.53973390
   0.55406552  0.55973456  0.71068134
   0.54075710  0.53469150  0.37646997
   0.48052849  0.62240630  0.61244248
   0.41734357  0.66377689  0.49782275
   0.65221218  0.56013617  0.45578858
   0.61519815  0.65273688  0.36200887
   0.61765206  0.57795130  0.58875090
   0.55759580  0.65710661  0.48974699
   0.47653655  0.66136404  0.37390876
Direct configuration=    26
   0.39737367  0.31799888  0.47688440
   0.37391611  0.40450368  0.57891880
   0.32983748  0.44525351  0.45354463
   0.50363602  0.37538307  0.54933512
   0.46201913  0.42716594  0.42257693
   0.63745620  0.33972881  0.55168414
   0.45984994  0.48617587  0.64554478
   0.37166703  0.54206588  0.55263515
   0.40145452  0.55375782  0.41358551
   0.59847965  0.42922397  0.45350188
   0.59192567  0.44802710  0.62562903
   0.50909073  0.52313865  0.51512754
   0.69963735  0.46624898  0.53980590
   0.55415724  0.55965788  0.71052991
   0.54072125  0.53503557  0.37703083
   0.48051918  0.62238756  0.61241783
   0.41717460  0.66382505  0.49763145
   0.65232186  0.56030118  0.45573433
   0.61540524  0.65277780  0.36190639
   0.61773239  0.57817522  0.58857929
   0.55715049  0.65660084  0.48967992
   0.47661768  0.66149671  0.37398966
Direct configuration=    27
   0.39736310  0.31813449  0.47688166
   0.37387328  0.40457913  0.57893687
   0.33012812  0.44531770  0.45346038
   0.50350311  0.37558097  0.54897527
   0.46213336  0.42717414  0.42234919
   0.63734708  0.33991139  0.55170959
   0.45972112  0.48595589  0.64627037
   0.37171412  0.54201281  0.55248194
   0.40152227  0.55382593  0.41381282
   0.59861308  0.42903016  0.45323201
   0.59155587  0.44822108  0.62550741
   0.50935341  0.52230926  0.51539949
   0.69960517  0.46626521  0.53987800
   0.55424907  0.55958111  0.71037830
   0.54068537  0.53538005  0.37759237
   0.48050987  0.62236880  0.61239316
   0.41700543  0.66387326  0.49743991
   0.65243169  0.56046640  0.45568001
   0.61561258  0.65281878  0.36180379
   0.61781281  0.57839941  0.58840747
   0.55670463  0.65609445  0.48961276
   0.47669891  0.66162954  0.37407065
Direct configuration=    28
   0.39732250  0.31823311  0.47678415
   0.37389941  0.40468248  0.57900230
   0.33025755  0.44533112  0.45345913
   0.50348519  0.37563723  0.54885886
   0.46223965  0.42709475  0.42208492
   0.63726487  0.34006496  0.55167595
   0.45941122  0.48590617  0.64659502
   0.37187183  0.54197604  0.55247632
   0.40165475  0.55391869  0.41393054
   0.59878068  0.42890563  0.45303046
   0.59133771  0.44839958  0.62542092
   0.50948668  0.52186366  0.51574309
   0.69951481  0.46624432  0.53991358
   0.55430954  0.55961821  0.71031347
   0.54070815  0.53567183  0.37789456
   0.48046309  0.62220579  0.61228184
   0.41690356  0.66395714  0.49746683
   0.65262279  0.56042321  0.45570832
   0.61566102  0.65290655  0.36175051
   0.61791065  0.57851611  0.58833031
   0.55635186  0.65561347  0.48952925
   0.47668589  0.66175994  0.37402312
Direct configuration=    29
   0.39729134  0.31830884  0.47670928
   0.37391947  0.40476183  0.57905254
   0.33035693  0.44534142  0.45345816
   0.50347144  0.37568042  0.54876948
   0.46232125  0.42703378  0.42188201
   0.63720176  0.34018287  0.55165011
   0.45917327  0.48586799  0.64684430
   0.37199293  0.54194780  0.55247200
   0.40175648  0.55398992  0.41402092
   0.59890937  0.42881000  0.45287570
   0.59117020  0.44853662  0.62535451
   0.50958900  0.52152151  0.51600692
   0.69944543  0.46622828  0.53994090
   0.55435597  0.55964669  0.71026368
   0.54072564  0.53589586  0.37812659
   0.48042718  0.62208063  0.61219636
   0.41682535  0.66402154  0.49748749
   0.65276952  0.56039006  0.45573006
   0.61569822  0.65297394  0.36170960
   0.61798578  0.57860572  0.58827106
   0.55608100  0.65524416  0.48946513
   0.47667588  0.66186007  0.37398662
Direct configuration=    30
   0.39726310  0.31833959  0.47664677
   0.37393819  0.40471018  0.57905560
   0.33030577  0.44534466  0.45350343
   0.50350623  0.37554687  0.54889213
   0.46240324  0.42703682  0.42179555
   0.63722133  0.34013276  0.55164280
   0.45904968  0.48603916  0.64673139
   0.37205888  0.54198410  0.55255777
   0.40183844  0.55397864  0.41397158
   0.59891736  0.42888429  0.45280140
   0.59121381  0.44856431  0.62539267
   0.50953912  0.52160185  0.51609481
   0.69942574  0.46619285  0.53995495
   0.55430895  0.55972642  0.71029279
   0.54077249  0.53588024  0.37806098
   0.48039522  0.62195035  0.61215147
   0.41680714  0.66412686  0.49762802
   0.65287720  0.56029139  0.45570441
   0.61561081  0.65301523  0.36180632
   0.61805532  0.57856696  0.58836972
   0.55607831  0.65506991  0.48935398
   0.47655709  0.66194652  0.37386488
Direct configuration=    31
   0.39724135  0.31836329  0.47659860
   0.37395262  0.40467038  0.57905796
   0.33026635  0.44534715  0.45353831
   0.50353304  0.37544397  0.54898664
   0.46246641  0.42703916  0.42172893
   0.63723641  0.34009415  0.55163717
   0.45895445  0.48617105  0.64664439
   0.37210970  0.54201206  0.55262386
   0.40190160  0.55396994  0.41393357
   0.59892352  0.42894154  0.45274414
   0.59124741  0.44858565  0.62542207
   0.50950068  0.52166375  0.51616254
   0.69941057  0.46616554  0.53996577
   0.55427271  0.55978786  0.71031522
   0.54080859  0.53586821  0.37801042
   0.48037058  0.62184997  0.61211689
   0.41679311  0.66420802  0.49773631
   0.65296018  0.56021537  0.45568464
   0.61554346  0.65304704  0.36188085
   0.61810890  0.57853710  0.58844574
   0.55607624  0.65493564  0.48926833
   0.47646555  0.66201314  0.37377108
