 running on   64 total cores
 distrk:  each k-point on   64 cores,    1 groups
 distr:  one band on   16 cores,    4 groups
 using from now: INCAR     
 vasp.5.3.5 31Mar14 (build Feb 01 2018 12:10:03) gamma-only                     
  
 POSCAR found type information on POSCAR  Ag
 POSCAR found :  1 types and      46 ions
 scaLAPACK will be used

 ----------------------------------------------------------------------------- 
|                                                                             |
|  ADVICE TO THIS USER RUNNING 'VASP/VAMP'   (HEAR YOUR MASTER'S VOICE ...):  |
|                                                                             |
|      You have a (more or less) 'large supercell' and for larger cells       |
|      it might be more efficient to use real space projection opertators     |
|      So try LREAL= Auto  in the INCAR   file.                               |
|      Mind: At the moment your POTCAR file does not contain real space       |
|       projectors, and has to be modified,  BUT if you                       |
|      want to do an extremely  accurate calculation you might also keep the  |
|      reciprocal projection scheme          (i.e. LREAL=.FALSE.)             |
|                                                                             |
 ----------------------------------------------------------------------------- 

 LDA part: xc-table for Pade appr. of Perdew
 POSCAR, INCAR and KPOINTS ok, starting setup
 WARNING: small aliasing (wrap around) errors must be expected
 FFT: planning ...
 WAVECAR not read
 entering main loop
       N       E                     dE             d eps       ncg     rms          rms(c)
DAV:   1     0.426134104611E+04    0.42613E+04   -0.10362E+05  1312   0.618E+02
DAV:   2     0.707669029998E+03   -0.35537E+04   -0.31851E+04  2112   0.166E+02
DAV:   3    -0.687317162195E+02   -0.77640E+03   -0.71258E+03  1664   0.835E+01
DAV:   4    -0.994852908011E+02   -0.30754E+02   -0.30486E+02  1448   0.179E+01
DAV:   5    -0.999486608373E+02   -0.46337E+00   -0.46293E+00  1472   0.256E+00    0.391E+01
DAV:   6    -0.497693608366E+02    0.50179E+02   -0.16005E+02  1320   0.160E+01    0.213E+01
DAV:   7    -0.383288039553E+02    0.11441E+02   -0.98412E+00  1392   0.529E+00    0.130E+01
DAV:   8    -0.343401025148E+02    0.39887E+01   -0.27081E+00  1392   0.263E+00    0.750E+00
DAV:   9    -0.374088363742E+02   -0.30687E+01   -0.85218E-01  1424   0.131E+00    0.472E+00
DAV:  10    -0.500538988377E+02   -0.12645E+02   -0.34234E+00  1352   0.229E+00    0.344E+00
DAV:  11    -0.712056132317E+02   -0.21152E+02   -0.10744E+01  1360   0.350E+00    0.258E+00
DAV:  12    -0.750185753932E+02   -0.38130E+01   -0.91875E-01  1448   0.142E+00    0.210E+00
DAV:  13    -0.851137549192E+02   -0.10095E+02   -0.39629E+00  1352   0.239E+00    0.254E+00
DAV:  14    -0.875187841705E+02   -0.24050E+01   -0.46076E-01  1400   0.967E-01    0.182E+00
DAV:  15    -0.909389593250E+02   -0.34202E+01   -0.75467E-01  1336   0.828E-01    0.122E+00
DAV:  16    -0.938774732920E+02   -0.29385E+01   -0.52544E-01  1352   0.765E-01    0.725E-01
DAV:  17    -0.958084282264E+02   -0.19310E+01   -0.16940E-01  1368   0.541E-01    0.124E+00
DAV:  18    -0.959792178806E+02   -0.17079E+00   -0.70502E-03  1456   0.180E-01    0.110E+00
DAV:  19    -0.962588771385E+02   -0.27966E+00   -0.86113E-03  1400   0.191E-01    0.885E-01
DAV:  20    -0.973416040178E+02   -0.10827E+01   -0.94585E-02  1360   0.614E-01    0.240E-01
DAV:  21    -0.976882789530E+02   -0.34667E+00   -0.13741E-02  1408   0.222E-01    0.176E-01
DAV:  22    -0.978693458511E+02   -0.18107E+00   -0.40602E-03  1360   0.936E-02    0.146E-01
DAV:  23    -0.980111121737E+02   -0.14177E+00   -0.34470E-03  1368   0.107E-01    0.610E-02
DAV:  24    -0.980661663612E+02   -0.55054E-01   -0.15152E-03  1192   0.578E-02    0.483E-02
DAV:  25    -0.980898494844E+02   -0.23683E-01   -0.25408E-04   960   0.240E-02    0.340E-02
DAV:  26    -0.981178913622E+02   -0.28042E-01   -0.69227E-04   920   0.233E-02    0.188E-02
DAV:  27    -0.981296365581E+02   -0.11745E-01   -0.38573E-04   936   0.216E-02    0.135E-02
DAV:  28    -0.981340159777E+02   -0.43794E-02   -0.53423E-05   920   0.956E-03    0.124E-02
DAV:  29    -0.981381035610E+02   -0.40876E-02   -0.57260E-05   872   0.843E-03    0.592E-03
DAV:  30    -0.981400687115E+02   -0.19652E-02   -0.14363E-05   896   0.562E-03    0.426E-03
DAV:  31    -0.981405474180E+02   -0.47871E-03   -0.57832E-06   864   0.334E-03    0.230E-03
DAV:  32    -0.981408205334E+02   -0.27312E-03   -0.26001E-06   864   0.205E-03    0.135E-03
DAV:  33    -0.981409608059E+02   -0.14027E-03   -0.13165E-06   848   0.153E-03    0.109E-03
DAV:  34    -0.981410779666E+02   -0.11716E-03   -0.75294E-07   864   0.985E-04    0.863E-04
DAV:  35    -0.981411466404E+02   -0.68674E-04   -0.42379E-07   832   0.734E-04
   1 F= -.98141147E+02 E0= -.98141147E+02  d E =-.981411E+02  mag=     2.0002
 curvature:   0.00 expect dE= 0.000E+00 dE for cont linesearch  0.000E+00
 trial: gam= 0.00000 g(F)=  0.437E-01 g(S)=  0.000E+00 ort = 0.000E+00 (trialstep = 0.100E+01)
 search vector abs. value=  0.437E-01
 bond charge predicted
       N       E                     dE             d eps       ncg     rms          rms(c)
DAV:   1    -0.981823329993E+02   -0.41255E-01   -0.29360E+00  1368   0.258E+00    0.101E-01
DAV:   2    -0.981836543256E+02   -0.13213E-02   -0.13460E-02  1376   0.244E-01    0.781E-02
DAV:   3    -0.981836214031E+02    0.32922E-04   -0.23036E-04   864   0.363E-02
   2 F= -.98183621E+02 E0= -.98183621E+02  d E =-.424748E-01  mag=     2.0001
 ZBRENT: can't locate minimum, use default step
 trial-energy change:   -0.042475  1 .order   -0.041997   -0.043681   -0.040313
 step:   4.0000(harm= 12.9689)  dis= 0.01704  next Energy=   -98.424394 (dE=-0.283E+00)
 bond charge predicted
       N       E                     dE             d eps       ncg     rms          rms(c)
DAV:   1    -0.982845531859E+02   -0.10090E+00   -0.26482E+01  1312   0.774E+00    0.306E-01
DAV:   2    -0.982964397490E+02   -0.11887E-01   -0.12101E-01  1368   0.731E-01    0.235E-01
DAV:   3    -0.982961513271E+02    0.28842E-03   -0.21282E-03  1424   0.105E-01    0.154E-01
DAV:   4    -0.982958280542E+02    0.32327E-03   -0.10149E-03  1400   0.580E-02    0.458E-02
DAV:   5    -0.982958158312E+02    0.12223E-04   -0.60454E-05   864   0.242E-02
   3 F= -.98295816E+02 E0= -.98295816E+02  d E =-.154669E+00  mag=     2.0001
 curvature:  -2.84 expect dE=-0.773E-01 dE for cont linesearch -0.749E-01
 ZBRENT: increasing intervall
 opt :  10.0000  next Energy=   -98.461135 (dE=-0.320E+00)
 bond charge predicted
       N       E                     dE             d eps       ncg     rms          rms(c)
DAV:   1    -0.984089464755E+02   -0.11312E+00   -0.10585E+02  1312   0.155E+01    0.571E-01
DAV:   2    -0.984569668573E+02   -0.48020E-01   -0.48503E-01  1360   0.146E+00    0.445E-01
DAV:   3    -0.984559962910E+02    0.97057E-03   -0.81865E-03  1400   0.200E-01    0.300E-01
DAV:   4    -0.984547437444E+02    0.12525E-02   -0.37430E-03  1416   0.107E-01    0.999E-02
DAV:   5    -0.984547400193E+02    0.37251E-05   -0.30720E-04   984   0.445E-02
   4 F= -.98454740E+02 E0= -.98454740E+02  d E =-.313593E+00  mag=     2.0000
 curvature:  -6.27 expect dE=-0.863E-01 dE for cont linesearch -0.556E-01
 ZBRENT: increasing intervall
 opt :  22.0000  next Energy=   -98.519964 (dE=-0.379E+00)
 bond charge predicted
       N       E                     dE             d eps       ncg     rms          rms(c)
DAV:   1    -0.983315701203E+02    0.12317E+00   -0.42569E+02  1312   0.312E+01    0.114E+00
DAV:   2    -0.985285584798E+02   -0.19699E+00   -0.19733E+00  1392   0.296E+00    0.861E-01
DAV:   3    -0.985252338812E+02    0.33246E-02   -0.32097E-02  1400   0.386E-01    0.586E-01
DAV:   4    -0.985205093870E+02    0.47245E-02   -0.13583E-02  1400   0.199E-01    0.207E-01
DAV:   5    -0.985205895979E+02   -0.80211E-04   -0.14272E-03  1416   0.788E-02    0.720E-02
DAV:   6    -0.985206531204E+02   -0.63522E-04   -0.25302E-04   944   0.255E-02
   5 F= -.98520653E+02 E0= -.98520653E+02  d E =-.379506E+00  mag=     2.0000
 curvature:  -7.35 expect dE=-0.175E+00 dE for cont linesearch -0.108E-01
 ZBRENT: bracketing found
 ZBRENT: interpolating
 opt :  18.5269  next Energy=   -98.534576 (dE=-0.393E+00)
 bond charge predicted
       N       E                     dE             d eps       ncg     rms          rms(c)
DAV:   1    -0.985194463388E+02    0.11433E-02   -0.35465E+01  1328   0.896E+00    0.311E-01
DAV:   2    -0.985359908816E+02   -0.16545E-01   -0.16274E-01  1400   0.847E-01    0.248E-01
DAV:   3    -0.985358877997E+02    0.10308E-03   -0.27231E-03  1456   0.112E-01    0.167E-01
DAV:   4    -0.985358827418E+02    0.50579E-05   -0.12551E-03  1392   0.603E-02    0.592E-02
DAV:   5    -0.985361218821E+02   -0.23914E-03   -0.12096E-04   912   0.256E-02    0.208E-02
DAV:   6    -0.985361976888E+02   -0.75807E-04   -0.25785E-05   848   0.903E-03
   6 F= -.98536198E+02 E0= -.98536198E+02  d E =-.395051E+00  mag=     2.0000
 curvature:  -9.46 expect dE=-0.151E+00 dE for cont linesearch -0.278E-04
 trial: gam= 0.37402 g(F)=  0.160E-01 g(S)=  0.000E+00 ort =-0.358E-03 (trialstep = 0.451E+01)
 search vector abs. value=  0.218E-01
 bond charge predicted
       N       E                     dE             d eps       ncg     rms          rms(c)
DAV:   1    -0.985870162034E+02   -0.50894E-01   -0.29714E+01  1328   0.818E+00    0.246E-01
DAV:   2    -0.986008372709E+02   -0.13821E-01   -0.13637E-01  1384   0.784E-01    0.226E-01
DAV:   3    -0.986006606996E+02    0.17657E-03   -0.22472E-03  1432   0.103E-01    0.163E-01
DAV:   4    -0.986001989169E+02    0.46178E-03   -0.95821E-04  1392   0.509E-02    0.737E-02
DAV:   5    -0.986001878631E+02    0.11054E-04   -0.30442E-04  1016   0.310E-02
   7 F= -.98600188E+02 E0= -.98600188E+02  d E =-.639902E-01  mag=     2.0000
 ZBRENT: can't locate minimum, use default step
 trial-energy change:   -0.063990  1 .order   -0.064288   -0.071390   -0.057186
 step:  18.0215(harm= 22.6454)  dis= 0.05094  next Energy=   -98.715611 (dE=-0.179E+00)
 bond charge predicted
       N       E                     dE             d eps       ncg     rms          rms(c)
DAV:   1    -0.985820116725E+02    0.18187E-01   -0.26859E+02  1312   0.247E+01    0.682E-01
DAV:   2    -0.987066995419E+02   -0.12469E+00   -0.12347E+00  1376   0.236E+00    0.664E-01
DAV:   3    -0.987054813449E+02    0.12182E-02   -0.19948E-02  1432   0.301E-01    0.492E-01
DAV:   4    -0.987014422776E+02    0.40391E-02   -0.63159E-03  1400   0.133E-01    0.269E-01
DAV:   5    -0.987009347406E+02    0.50754E-03   -0.44796E-03  1408   0.109E-01    0.897E-02
DAV:   6    -0.987009762383E+02   -0.41498E-04   -0.18318E-04   944   0.218E-02
   8 F= -.98700976E+02 E0= -.98700976E+02  d E =-.164779E+00  mag=     2.0000
 curvature: -14.58 expect dE=-0.627E-01 dE for cont linesearch -0.480E-02
 ZBRENT: extrapolating
 opt :  21.6374  next Energy=   -98.705820 (dE=-0.170E+00)
 bond charge predicted
       N       E                     dE             d eps       ncg     rms          rms(c)
DAV:   1    -0.986973291882E+02    0.36056E-02   -0.19111E+01  1312   0.655E+00    0.182E-01
DAV:   2    -0.987062423848E+02   -0.89132E-02   -0.88428E-02  1400   0.630E-01    0.168E-01
DAV:   3    -0.987061747400E+02    0.67645E-04   -0.14270E-03  1416   0.814E-02    0.120E-01
DAV:   4    -0.987059933500E+02    0.18139E-03   -0.45838E-04  1384   0.357E-02    0.624E-02
DAV:   5    -0.987061017422E+02   -0.10839E-03   -0.25668E-04   888   0.275E-02    0.197E-02
DAV:   6    -0.987061836114E+02   -0.81869E-04   -0.27770E-05   864   0.987E-03
   9 F= -.98706184E+02 E0= -.98706184E+02  d E =-.169986E+00  mag=     2.0000
 curvature: -14.73 expect dE=-0.781E-01 dE for cont linesearch -0.201E-04
 trial: gam= 0.32246 g(F)=  0.531E-02 g(S)=  0.000E+00 ort = 0.173E-03 (trialstep = 0.793E+01)
 search vector abs. value=  0.769E-02
 bond charge predicted
       N       E                     dE             d eps       ncg     rms          rms(c)
DAV:   1    -0.987262411662E+02   -0.20139E-01   -0.32428E+01  1312   0.854E+00    0.241E-01
DAV:   2    -0.987412187960E+02   -0.14978E-01   -0.14974E-01  1360   0.825E-01    0.225E-01
DAV:   3    -0.987410704428E+02    0.14835E-03   -0.25966E-03  1432   0.111E-01    0.158E-01
DAV:   4    -0.987406473789E+02    0.42306E-03   -0.78676E-04  1368   0.460E-02    0.840E-02
DAV:   5    -0.987406737443E+02   -0.26365E-04   -0.50137E-04  1400   0.367E-02
  10 F= -.98740674E+02 E0= -.98740674E+02  d E =-.344901E-01  mag=     2.0000
 trial-energy change:   -0.034490  1 .order   -0.034802   -0.042522   -0.027082
 step:  21.8452(harm= 21.8452)  dis= 0.04743  next Energy=   -98.764739 (dE=-0.586E-01)
 bond charge predicted
       N       E                     dE             d eps       ncg     rms          rms(c)
DAV:   1    -0.987184898525E+02    0.22158E-01   -0.99911E+01  1312   0.150E+01    0.435E-01
DAV:   2    -0.987648730041E+02   -0.46383E-01   -0.46434E-01  1368   0.145E+00    0.394E-01
DAV:   3    -0.987643852764E+02    0.48773E-03   -0.80125E-03  1440   0.195E-01    0.274E-01
DAV:   4    -0.987630349000E+02    0.13504E-02   -0.24078E-03  1400   0.811E-02    0.143E-01
DAV:   5    -0.987629706900E+02    0.64210E-04   -0.13535E-03  1424   0.611E-02    0.483E-02
DAV:   6    -0.987630108619E+02   -0.40172E-04   -0.60356E-05   848   0.126E-02
  11 F= -.98763011E+02 E0= -.98763011E+02  d E =-.568273E-01  mag=     2.0000
 curvature: -15.66 expect dE=-0.310E-01 dE for cont linesearch -0.111E-04
 trial: gam= 0.37106 g(F)=  0.198E-02 g(S)=  0.000E+00 ort =-0.739E-04 (trialstep = 0.107E+02)
 search vector abs. value=  0.299E-02
 bond charge predicted
       N       E                     dE             d eps       ncg     rms          rms(c)
DAV:   1    -0.987691108717E+02   -0.61402E-02   -0.22924E+01  1312   0.719E+00    0.197E-01
DAV:   2    -0.987799213134E+02   -0.10810E-01   -0.10493E-01  1384   0.686E-01    0.173E-01
DAV:   3    -0.987798360412E+02    0.85272E-04   -0.17261E-03  1432   0.883E-02    0.124E-01
DAV:   4    -0.987796201578E+02    0.21588E-03   -0.59639E-04  1368   0.397E-02    0.602E-02
DAV:   5    -0.987797231184E+02   -0.10296E-03   -0.28490E-04   888   0.288E-02    0.197E-02
DAV:   6    -0.987797709430E+02   -0.47825E-04   -0.33371E-05   872   0.108E-02
  12 F= -.98779771E+02 E0= -.98779771E+02  d E =-.167601E-01  mag=     2.0000
 trial-energy change:   -0.016760  1 .order   -0.016605   -0.020944   -0.012267
 step:  25.8619(harm= 25.8619)  dis= 0.02717  next Energy=   -98.788287 (dE=-0.253E-01)
 bond charge predicted
       N       E                     dE             d eps       ncg     rms          rms(c)
DAV:   1    -0.987663081852E+02    0.13415E-01   -0.45835E+01  1312   0.102E+01    0.289E-01
DAV:   2    -0.987877225068E+02   -0.21414E-01   -0.20999E-01  1368   0.970E-01    0.247E-01
DAV:   3    -0.987874657816E+02    0.25673E-03   -0.34805E-03  1432   0.126E-01    0.175E-01
DAV:   4    -0.987868927788E+02    0.57300E-03   -0.12910E-03  1392   0.583E-02    0.798E-02
DAV:   5    -0.987869410150E+02   -0.48236E-04   -0.52072E-04  1384   0.376E-02
  13 F= -.98786941E+02 E0= -.98786941E+02  d E =-.239302E-01  mag=     2.0000
 curvature: -19.75 expect dE=-0.233E-01 dE for cont linesearch -0.112E-03
 trial: gam= 0.61678 g(F)=  0.118E-02 g(S)=  0.000E+00 ort =-0.130E-03 (trialstep = 0.137E+02)
 search vector abs. value=  0.215E-02
 bond charge predicted
       N       E                     dE             d eps       ncg     rms          rms(c)
DAV:   1    -0.987854787712E+02    0.14140E-02   -0.27145E+01  1312   0.782E+00    0.200E-01
DAV:   2    -0.987981271298E+02   -0.12648E-01   -0.12286E-01  1384   0.741E-01    0.181E-01
DAV:   3    -0.987980033456E+02    0.12378E-03   -0.19084E-03  1408   0.919E-02    0.133E-01
DAV:   4    -0.987976417868E+02    0.36156E-03   -0.63082E-04  1368   0.410E-02    0.680E-02
DAV:   5    -0.987976371227E+02    0.46641E-05   -0.44382E-04  1392   0.340E-02
  14 F= -.98797637E+02 E0= -.98797637E+02  d E =-.106961E-01  mag=     2.0000
 trial-energy change:   -0.010696  1 .order   -0.011069   -0.015095   -0.007044
 step:  25.7705(harm= 25.7705)  dis= 0.02795  next Energy=   -98.801093 (dE=-0.142E-01)
 bond charge predicted
       N       E                     dE             d eps       ncg     rms          rms(c)
DAV:   1    -0.987908062081E+02    0.68356E-02   -0.20778E+01  1312   0.684E+00    0.178E-01
DAV:   2    -0.988004130934E+02   -0.96069E-02   -0.94071E-02  1384   0.647E-01    0.159E-01
DAV:   3    -0.988003009863E+02    0.11211E-03   -0.14278E-03  1392   0.799E-02    0.115E-01
DAV:   4    -0.988000316699E+02    0.26932E-03   -0.49691E-04  1360   0.364E-02    0.574E-02
DAV:   5    -0.988000343299E+02   -0.26601E-05   -0.27943E-04   880   0.284E-02
  15 F= -.98800034E+02 E0= -.98800034E+02  d E =-.130933E-01  mag=     2.0000
 curvature: -25.27 expect dE=-0.187E-01 dE for cont linesearch -0.123E-05
 trial: gam= 0.50180 g(F)=  0.742E-03 g(S)=  0.000E+00 ort =-0.103E-04 (trialstep = 0.161E+02)
 search vector abs. value=  0.127E-02
 bond charge predicted
       N       E                     dE             d eps       ncg     rms          rms(c)
DAV:   1    -0.987989548594E+02    0.10768E-02   -0.22116E+01  1312   0.707E+00    0.162E-01
DAV:   2    -0.988089843936E+02   -0.10030E-01   -0.97240E-02  1360   0.655E-01    0.146E-01
DAV:   3    -0.988088590017E+02    0.12539E-03   -0.14475E-03  1424   0.768E-02    0.113E-01
DAV:   4    -0.988085346709E+02    0.32433E-03   -0.50041E-04  1344   0.358E-02    0.542E-02
DAV:   5    -0.988085020371E+02    0.32634E-04   -0.33545E-04  1080   0.302E-02
  16 F= -.98808502E+02 E0= -.98808502E+02  d E =-.846771E-02  mag=     2.0000
 trial-energy change:   -0.008468  1 .order   -0.009156   -0.011894   -0.006417
 step:  35.0695(harm= 35.0695)  dis= 0.03086  next Energy=   -98.812949 (dE=-0.129E-01)
 bond charge predicted
       N       E                     dE             d eps       ncg     rms          rms(c)
DAV:   1    -0.987979311192E+02    0.10604E-01   -0.30359E+01  1312   0.828E+00    0.191E-01
DAV:   2    -0.988116203307E+02   -0.13689E-01   -0.13366E-01  1360   0.767E-01    0.170E-01
DAV:   3    -0.988114371775E+02    0.18315E-03   -0.19911E-03  1432   0.902E-02    0.131E-01
DAV:   4    -0.988109947769E+02    0.44240E-03   -0.67862E-04  1360   0.417E-02    0.621E-02
DAV:   5    -0.988109606436E+02    0.34133E-04   -0.46484E-04  1416   0.346E-02
  17 F= -.98810961E+02 E0= -.98810961E+02  d E =-.109263E-01  mag=     2.0000
 curvature: -30.32 expect dE=-0.193E-01 dE for cont linesearch -0.593E-04
 trial: gam= 0.84458 g(F)=  0.636E-03 g(S)=  0.000E+00 ort =-0.499E-04 (trialstep = 0.174E+02)
 search vector abs. value=  0.146E-02
 bond charge predicted
       N       E                     dE             d eps       ncg     rms          rms(c)
DAV:   1    -0.988042061644E+02    0.67886E-02   -0.29435E+01  1312   0.814E+00    0.204E-01
DAV:   2    -0.988177691150E+02   -0.13563E-01   -0.13206E-01  1352   0.767E-01    0.192E-01
DAV:   3    -0.988176333420E+02    0.13577E-03   -0.20029E-03  1440   0.925E-02    0.143E-01
DAV:   4    -0.988172137532E+02    0.41959E-03   -0.69601E-04  1360   0.438E-02    0.761E-02
DAV:   5    -0.988171998209E+02    0.13932E-04   -0.50566E-04  1416   0.365E-02
  18 F= -.98817200E+02 E0= -.98817200E+02  d E =-.623918E-02  mag=     2.0000
 trial-energy change:   -0.006239  1 .order   -0.006785   -0.010323   -0.003246
 step:  25.3666(harm= 25.3666)  dis= 0.02688  next Energy=   -98.818490 (dE=-0.753E-02)
 bond charge predicted
       N       E                     dE             d eps       ncg     rms          rms(c)
DAV:   1    -0.988148794213E+02    0.23343E-02   -0.61856E+00  1312   0.373E+00    0.975E-02
DAV:   2    -0.988177544955E+02   -0.28751E-02   -0.28058E-02  1392   0.352E-01    0.864E-02
DAV:   3    -0.988177312430E+02    0.23252E-04   -0.41618E-04  1336   0.426E-02
  19 F= -.98817731E+02 E0= -.98817731E+02  d E =-.677060E-02  mag=     2.0000
 curvature: -31.19 expect dE=-0.130E-01 dE for cont linesearch -0.408E-04
 trial: gam= 0.54954 g(F)=  0.416E-03 g(S)=  0.000E+00 ort =-0.437E-04 (trialstep = 0.190E+02)
 search vector abs. value=  0.809E-03
 bond charge predicted
       N       E                     dE             d eps       ncg     rms          rms(c)
DAV:   1    -0.988144981353E+02    0.32564E-02   -0.19452E+01  1312   0.661E+00    0.152E-01
DAV:   2    -0.988233110769E+02   -0.88129E-02   -0.86081E-02  1360   0.617E-01    0.152E-01
DAV:   3    -0.988231976751E+02    0.11340E-03   -0.12829E-03  1432   0.724E-02    0.118E-01
DAV:   4    -0.988228509718E+02    0.34670E-03   -0.50408E-04  1352   0.364E-02    0.629E-02
DAV:   5    -0.988227998865E+02    0.51085E-04   -0.42979E-04  1328   0.332E-02
  20 F= -.98822800E+02 E0= -.98822800E+02  d E =-.506864E-02  mag=     2.0000
 trial-energy change:   -0.005069  1 .order   -0.005490   -0.007451   -0.003529
 step:  36.0692(harm= 36.0692)  dis= 0.02220  next Energy=   -98.824810 (dE=-0.708E-02)
 bond charge predicted
       N       E                     dE             d eps       ncg     rms          rms(c)
DAV:   1    -0.988166753560E+02    0.61756E-02   -0.15728E+01  1312   0.594E+00    0.139E-01
DAV:   2    -0.988240114764E+02   -0.73361E-02   -0.70947E-02  1400   0.559E-01    0.128E-01
DAV:   3    -0.988239354072E+02    0.76069E-04   -0.10303E-03  1416   0.660E-02    0.954E-02
DAV:   4    -0.988237120642E+02    0.22334E-03   -0.29013E-04   944   0.291E-02    0.535E-02
DAV:   5    -0.988236799938E+02    0.32070E-04   -0.35821E-04  1208   0.325E-02
  21 F= -.98823680E+02 E0= -.98823680E+02  d E =-.594875E-02  mag=     2.0000
 curvature: -37.19 expect dE=-0.200E-01 dE for cont linesearch -0.153E-04
 trial: gam= 1.32219 g(F)=  0.537E-03 g(S)=  0.000E+00 ort =-0.182E-04 (trialstep = 0.952E+01)
 search vector abs. value=  0.190E-02
 bond charge predicted
       N       E                     dE             d eps       ncg     rms          rms(c)
DAV:   1    -0.988223500916E+02    0.13620E-02   -0.11474E+01  1328   0.508E+00    0.104E-01
DAV:   2    -0.988276604112E+02   -0.53103E-02   -0.50918E-02  1384   0.475E-01    0.105E-01
DAV:   3    -0.988276169904E+02    0.43421E-04   -0.73372E-04  1416   0.557E-02
  22 F= -.98827617E+02 E0= -.98827617E+02  d E =-.393700E-02  mag=     2.0000
 trial-energy change:   -0.003937  1 .order   -0.004094   -0.004886   -0.003303
 step:  29.3981(harm= 29.3981)  dis= 0.03277  next Energy=   -98.831221 (dE=-0.754E-02)
 bond charge predicted
       N       E                     dE             d eps       ncg     rms          rms(c)
DAV:   1    -0.988091910977E+02    0.18469E-01   -0.50071E+01  1312   0.106E+01    0.226E-01
DAV:   2    -0.988316282832E+02   -0.22437E-01   -0.21711E-01  1376   0.985E-01    0.244E-01
DAV:   3    -0.988313199352E+02    0.30835E-03   -0.31472E-03  1432   0.113E-01    0.199E-01
DAV:   4    -0.988303000840E+02    0.10199E-02   -0.11498E-03  1368   0.545E-02    0.116E-01
DAV:   5    -0.988300521955E+02    0.24789E-03   -0.16682E-03  1384   0.639E-02    0.436E-02
DAV:   6    -0.988300801735E+02   -0.27978E-04   -0.19346E-05   840   0.807E-03
  23 F= -.98830080E+02 E0= -.98830080E+02  d E =-.640018E-02  mag=     2.0000
 curvature: -54.55 expect dE=-0.253E-01 dE for cont linesearch -0.824E-07
 trial: gam= 0.60977 g(F)=  0.463E-03 g(S)=  0.000E+00 ort =-0.170E-05 (trialstep = 0.135E+02)
 search vector abs. value=  0.117E-02
 bond charge predicted
       N       E                     dE             d eps       ncg     rms          rms(c)
DAV:   1    -0.988285567433E+02    0.14955E-02   -0.14181E+01  1328   0.563E+00    0.132E-01
DAV:   2    -0.988351133386E+02   -0.65566E-02   -0.63410E-02  1368   0.529E-01    0.121E-01
DAV:   3    -0.988350476129E+02    0.65726E-04   -0.96028E-04  1440   0.639E-02
  24 F= -.98835048E+02 E0= -.98835048E+02  d E =-.496744E-02  mag=     2.0000
 trial-energy change:   -0.004967  1 .order   -0.004947   -0.006239   -0.003655
 step:  32.5971(harm= 32.5971)  dis= 0.02489  next Energy=   -98.837613 (dE=-0.753E-02)
 bond charge predicted
       N       E                     dE             d eps       ncg     rms          rms(c)
DAV:   1    -0.988251411795E+02    0.99722E-02   -0.28452E+01  1312   0.799E+00    0.204E-01
DAV:   2    -0.988377967958E+02   -0.12656E-01   -0.12423E-01  1384   0.743E-01    0.195E-01
DAV:   3    -0.988375477463E+02    0.24905E-03   -0.18615E-03  1448   0.872E-02    0.151E-01
DAV:   4    -0.988369616089E+02    0.58614E-03   -0.10750E-03  1368   0.523E-02    0.649E-02
DAV:   5    -0.988369462900E+02    0.15319E-04   -0.43567E-04  1360   0.340E-02
  25 F= -.98836946E+02 E0= -.98836946E+02  d E =-.686612E-02  mag=     2.0000
 curvature: -41.23 expect dE=-0.205E-01 dE for cont linesearch -0.128E-05
 trial: gam= 0.97818 g(F)=  0.497E-03 g(S)=  0.000E+00 ort = 0.603E-05 (trialstep = 0.124E+02)
 search vector abs. value=  0.163E-02
 bond charge predicted
       N       E                     dE             d eps       ncg     rms          rms(c)
DAV:   1    -0.988344123864E+02    0.25492E-02   -0.16763E+01  1312   0.612E+00    0.128E-01
DAV:   2    -0.988421726640E+02   -0.77603E-02   -0.74870E-02  1392   0.573E-01    0.124E-01
DAV:   3    -0.988421081114E+02    0.64553E-04   -0.10705E-03  1416   0.665E-02    0.952E-02
DAV:   4    -0.988419008470E+02    0.20726E-03   -0.23566E-04   888   0.266E-02    0.578E-02
DAV:   5    -0.988418879588E+02    0.12888E-04   -0.47355E-04  1360   0.359E-02
  26 F= -.98841888E+02 E0= -.98841888E+02  d E =-.494167E-02  mag=     2.0000
 trial-energy change:   -0.004942  1 .order   -0.005316   -0.006257   -0.004375
 step:  41.3525(harm= 41.3525)  dis= 0.04050  next Energy=   -98.847346 (dE=-0.104E-01)
 bond charge predicted
       N       E                     dE             d eps       ncg     rms          rms(c)
DAV:   1    -0.988048967159E+02    0.37004E-01   -0.90762E+01  1312   0.143E+01    0.303E-01
DAV:   2    -0.988466821391E+02   -0.41785E-01   -0.40420E-01  1384   0.133E+00    0.292E-01
DAV:   3    -0.988462276923E+02    0.45445E-03   -0.57692E-03  1416   0.154E-01    0.225E-01
DAV:   4    -0.988449432358E+02    0.12845E-02   -0.14417E-03  1392   0.627E-02    0.132E-01
DAV:   5    -0.988446107216E+02    0.33251E-03   -0.20513E-03  1376   0.705E-02    0.431E-02
DAV:   6    -0.988446567756E+02   -0.46054E-04   -0.21308E-05   840   0.874E-03
  27 F= -.98844657E+02 E0= -.98844657E+02  d E =-.771049E-02  mag=     2.0000
 curvature: -66.90 expect dE=-0.500E-01 dE for cont linesearch -0.201E-03
 trial: gam= 1.56015 g(F)=  0.747E-03 g(S)=  0.000E+00 ort =-0.700E-04 (trialstep = 0.660E+01)
 search vector abs. value=  0.449E-02
 bond charge predicted
       N       E                     dE             d eps       ncg     rms          rms(c)
DAV:   1    -0.988422793987E+02    0.23313E-02   -0.13013E+01  1328   0.539E+00    0.107E-01
DAV:   2    -0.988482898438E+02   -0.60104E-02   -0.57590E-02  1384   0.502E-01    0.105E-01
DAV:   3    -0.988482508485E+02    0.38995E-04   -0.83170E-04  1448   0.584E-02
  28 F= -.98848251E+02 E0= -.98848251E+02  d E =-.359407E-02  mag=     2.0000
 ZBRENT: can't locate minimum, use default step
 trial-energy change:   -0.003594  1 .order   -0.003696   -0.004215   -0.003176
 step:  26.4178(harm= 26.7983)  dis= 0.04503  next Energy=   -98.853208 (dE=-0.855E-02)
 bond charge predicted
       N       E                     dE             d eps       ncg     rms          rms(c)
DAV:   1    -0.988014854691E+02    0.46804E-01   -0.11762E+02  1312   0.162E+01    0.338E-01
DAV:   2    -0.988546318568E+02   -0.53146E-01   -0.51430E-01  1376   0.151E+00    0.347E-01
DAV:   3    -0.988538779310E+02    0.75393E-03   -0.74073E-03  1464   0.173E-01    0.278E-01
DAV:   4    -0.988518292510E+02    0.20487E-02   -0.23179E-03  1376   0.777E-02    0.158E-01
DAV:   5    -0.988513431759E+02    0.48608E-03   -0.31664E-03  1400   0.875E-02    0.533E-02
DAV:   6    -0.988514153475E+02   -0.72172E-04   -0.31158E-05   864   0.107E-02
  29 F= -.98851415E+02 E0= -.98851415E+02  d E =-.675857E-02  mag=     2.0000
 curvature: -94.24 expect dE=-0.658E-01 dE for cont linesearch -0.808E-06
 trial: gam= 0.47033 g(F)=  0.698E-03 g(S)=  0.000E+00 ort =-0.621E-05 (trialstep = 0.106E+02)
 search vector abs. value=  0.169E-02
 bond charge predicted
       N       E                     dE             d eps       ncg     rms          rms(c)
DAV:   1    -0.988519990446E+02   -0.65587E-03   -0.12504E+01  1344   0.530E+00    0.113E-01
DAV:   2    -0.988577485549E+02   -0.57495E-02   -0.55468E-02  1376   0.498E-01    0.114E-01
DAV:   3    -0.988577119293E+02    0.36626E-04   -0.85369E-04  1456   0.613E-02
  30 F= -.98857712E+02 E0= -.98857712E+02  d E =-.629658E-02  mag=     2.0000
 trial-energy change:   -0.006297  1 .order   -0.006333   -0.007344   -0.005323
 step:  38.4008(harm= 38.4008)  dis= 0.04204  next Energy=   -98.864759 (dE=-0.133E-01)
 bond charge predicted
       N       E                     dE             d eps       ncg     rms          rms(c)
DAV:   1    -0.988275007417E+02    0.30248E-01   -0.87025E+01  1312   0.140E+01    0.312E-01
DAV:   2    -0.988669008068E+02   -0.39400E-01   -0.38138E-01  1376   0.131E+00    0.331E-01
DAV:   3    -0.988664263792E+02    0.47443E-03   -0.58385E-03  1464   0.158E-01    0.261E-01
DAV:   4    -0.988648257293E+02    0.16006E-02   -0.18483E-03  1384   0.699E-02    0.156E-01
DAV:   5    -0.988644784716E+02    0.34726E-03   -0.27647E-03  1384   0.822E-02    0.571E-02
DAV:   6    -0.988645269771E+02   -0.48505E-04   -0.36048E-05   880   0.108E-02
  31 F= -.98864527E+02 E0= -.98864527E+02  d E =-.131116E-01  mag=     2.0000
 curvature: -46.56 expect dE=-0.408E-01 dE for cont linesearch -0.879E-04
 trial: gam= 1.13199 g(F)=  0.876E-03 g(S)=  0.000E+00 ort = 0.564E-04 (trialstep = 0.859E+01)
 search vector abs. value=  0.316E-02
 bond charge predicted
       N       E                     dE             d eps       ncg     rms          rms(c)
DAV:   1    -0.988642948253E+02    0.18365E-03   -0.15546E+01  1312   0.591E+00    0.129E-01
DAV:   2    -0.988715627820E+02   -0.72680E-02   -0.69740E-02  1384   0.560E-01    0.133E-01
DAV:   3    -0.988715202598E+02    0.42522E-04   -0.10923E-03  1456   0.695E-02    0.101E-01
DAV:   4    -0.988713163486E+02    0.20391E-03   -0.22348E-04   840   0.259E-02    0.653E-02
DAV:   5    -0.988712995706E+02    0.16778E-04   -0.54927E-04  1392   0.385E-02
  32 F= -.98871300E+02 E0= -.98871300E+02  d E =-.677259E-02  mag=     2.0000
 ZBRENT: can't locate minimum, use default step
 trial-energy change:   -0.006773  1 .order   -0.007150   -0.008081   -0.006219
 step:  34.3795(harm= 37.3105)  dis= 0.05362  next Energy=   -98.882067 (dE=-0.175E-01)
 bond charge predicted
       N       E                     dE             d eps       ncg     rms          rms(c)
DAV:   1    -0.988157960970E+02    0.55520E-01   -0.14039E+02  1312   0.178E+01    0.402E-01
DAV:   2    -0.988806575175E+02   -0.64861E-01   -0.63048E-01  1368   0.169E+00    0.403E-01
DAV:   3    -0.988800106534E+02    0.64686E-03   -0.99214E-03  1432   0.211E-01    0.303E-01
DAV:   4    -0.988779596217E+02    0.20510E-02   -0.22249E-03  1384   0.779E-02    0.188E-01
DAV:   5    -0.988773867633E+02    0.57286E-03   -0.37281E-03  1392   0.954E-02    0.625E-02
DAV:   6    -0.988774194845E+02   -0.32721E-04   -0.46426E-05   888   0.124E-02
  33 F= -.98877419E+02 E0= -.98877419E+02  d E =-.128925E-01  mag=     2.0000
 curvature: -62.12 expect dE=-0.700E-01 dE for cont linesearch -0.247E-03
 trial: gam= 1.36149 g(F)=  0.113E-02 g(S)=  0.000E+00 ort =-0.112E-03 (trialstep = 0.651E+01)
 search vector abs. value=  0.669E-02
 bond charge predicted
       N       E                     dE             d eps       ncg     rms          rms(c)
DAV:   1    -0.988741640274E+02    0.32227E-02   -0.18828E+01  1312   0.650E+00    0.130E-01
DAV:   2    -0.988828965204E+02   -0.87325E-02   -0.84592E-02  1368   0.618E-01    0.141E-01
DAV:   3    -0.988828432223E+02    0.53298E-04   -0.13296E-03  1456   0.774E-02    0.108E-01
DAV:   4    -0.988826111336E+02    0.23209E-03   -0.18700E-04   824   0.241E-02    0.763E-02
DAV:   5    -0.988825312397E+02    0.79894E-04   -0.78889E-04  1368   0.450E-02
  34 F= -.98882531E+02 E0= -.98882531E+02  d E =-.511176E-02  mag=     2.0000
 ZBRENT: can't locate minimum, use default step
 trial-energy change:   -0.005112  1 .order   -0.005745   -0.006338   -0.005153
 step:  26.0291(harm= 34.7932)  dis= 0.05709  next Energy=   -98.894364 (dE=-0.169E-01)
 bond charge predicted
       N       E                     dE             d eps       ncg     rms          rms(c)
DAV:   1    -0.988139651020E+02    0.68646E-01   -0.17016E+02  1312   0.196E+01    0.418E-01
DAV:   2    -0.988930577409E+02   -0.79093E-01   -0.76839E-01  1368   0.187E+00    0.428E-01
DAV:   3    -0.988922953551E+02    0.76239E-03   -0.12165E-02  1432   0.236E-01    0.320E-01
DAV:   4    -0.988900228203E+02    0.22725E-02   -0.20020E-03  1392   0.748E-02    0.215E-01
DAV:   5    -0.988890059382E+02    0.10169E-02   -0.52021E-03  1376   0.112E-01    0.667E-02
DAV:   6    -0.988890671811E+02   -0.61243E-04   -0.50083E-05   888   0.135E-02
  35 F= -.98889067E+02 E0= -.98889067E+02  d E =-.116477E-01  mag=     2.0000
 curvature: ****** expect dE=-0.143E+00 dE for cont linesearch -0.353E-03
 trial: gam= 0.47802 g(F)=  0.133E-02 g(S)=  0.000E+00 ort = 0.148E-03 (trialstep = 0.104E+02)
 search vector abs. value=  0.300E-02
 bond charge predicted
       N       E                     dE             d eps       ncg     rms          rms(c)
DAV:   1    -0.988910881897E+02   -0.20823E-02   -0.21663E+01  1312   0.697E+00    0.178E-01
DAV:   2    -0.989012616913E+02   -0.10174E-01   -0.97681E-02  1376   0.657E-01    0.155E-01
DAV:   3    -0.989011663619E+02    0.95329E-04   -0.15157E-03  1456   0.808E-02    0.115E-01
DAV:   4    -0.989008917940E+02    0.27457E-03   -0.50739E-04  1360   0.369E-02    0.551E-02
DAV:   5    -0.989009092273E+02   -0.17433E-04   -0.29017E-04  1056   0.282E-02
  36 F= -.98900909E+02 E0= -.98900909E+02  d E =-.118420E-01  mag=     2.0000
 trial-energy change:   -0.011842  1 .order   -0.012470   -0.014559   -0.010382
 step:  36.2874(harm= 36.2874)  dis= 0.06078  next Energy=   -98.914438 (dE=-0.254E-01)
 bond charge predicted
       N       E                     dE             d eps       ncg     rms          rms(c)
DAV:   1    -0.988512332017E+02    0.49659E-01   -0.13431E+02  1312   0.174E+01    0.467E-01
DAV:   2    -0.989142556614E+02   -0.63022E-01   -0.60886E-01  1368   0.164E+00    0.388E-01
DAV:   3    -0.989134430713E+02    0.81259E-03   -0.95485E-03  1432   0.204E-01    0.284E-01
DAV:   4    -0.989115540000E+02    0.18891E-02   -0.32626E-03  1408   0.933E-02    0.130E-01
DAV:   5    -0.989114248243E+02    0.12918E-03   -0.15845E-03  1408   0.646E-02    0.456E-02
DAV:   6    -0.989114690539E+02   -0.44230E-04   -0.58526E-05   888   0.126E-02
  37 F= -.98911469E+02 E0= -.98911469E+02  d E =-.224019E-01  mag=     2.0000
 curvature: -38.88 expect dE=-0.769E-01 dE for cont linesearch -0.719E-04
 trial: gam= 1.57238 g(F)=  0.198E-02 g(S)=  0.000E+00 ort =-0.744E-04 (trialstep = 0.510E+01)
 search vector abs. value=  0.915E-02
 bond charge predicted
       N       E                     dE             d eps       ncg     rms          rms(c)
DAV:   1    -0.989131103639E+02   -0.16855E-02   -0.15865E+01  1312   0.595E+00    0.130E-01
DAV:   2    -0.989205376965E+02   -0.74273E-02   -0.70874E-02  1368   0.560E-01    0.124E-01
DAV:   3    -0.989204732063E+02    0.64490E-04   -0.10791E-03  1440   0.680E-02    0.953E-02
DAV:   4    -0.989202845205E+02    0.18869E-03   -0.22033E-04   864   0.255E-02    0.574E-02
DAV:   5    -0.989203024709E+02   -0.17950E-04   -0.49598E-04  1392   0.363E-02
  38 F= -.98920302E+02 E0= -.98920302E+02  d E =-.883342E-02  mag=     2.0000
 ZBRENT: can't locate minimum, use default step
 trial-energy change:   -0.008833  1 .order   -0.008995   -0.009501   -0.008489
 step:  20.4106(harm= 47.9064)  dis= 0.06583  next Energy=   -98.956069 (dE=-0.446E-01)
 bond charge predicted
       N       E                     dE             d eps       ncg     rms          rms(c)
DAV:   1    -0.988726861428E+02    0.47598E-01   -0.14344E+02  1312   0.179E+01    0.420E-01
DAV:   2    -0.989391316569E+02   -0.66446E-01   -0.64442E-01  1368   0.169E+00    0.373E-01
DAV:   3    -0.989382205692E+02    0.91109E-03   -0.99147E-03  1432   0.208E-01    0.280E-01
DAV:   4    -0.989362391779E+02    0.19814E-02   -0.22899E-03  1400   0.787E-02    0.158E-01
DAV:   5    -0.989357354042E+02    0.50377E-03   -0.28921E-03  1352   0.839E-02    0.471E-02
DAV:   6    -0.989358214248E+02   -0.86021E-04   -0.35912E-05   896   0.111E-02
  39 F= -.98935821E+02 E0= -.98935821E+02  d E =-.243524E-01  mag=     2.0000
 curvature: -69.17 expect dE=-0.121E+00 dE for cont linesearch -0.243E-02
 ZBRENT: increasing intervall
 opt :  51.0265  next Energy=   -98.919612 (dE=-0.814E-02)
 bond charge predicted
       N       E                     dE             d eps       ncg     rms          rms(c)
DAV:   1    -0.986432366936E+02    0.29250E+00   -0.58167E+02  1312   0.363E+01    0.102E+00
DAV:   2    -0.989165395176E+02   -0.27330E+00   -0.26863E+00  1360   0.347E+00    0.771E-01
DAV:   3    -0.989120923893E+02    0.44471E-02   -0.42378E-02  1440   0.438E-01    0.547E-01
DAV:   4    -0.989047790585E+02    0.73133E-02   -0.96006E-03  1360   0.162E-01    0.298E-01
DAV:   5    -0.989032392511E+02    0.15398E-02   -0.78133E-03  1368   0.141E-01    0.795E-02
DAV:   6    -0.989035409219E+02   -0.30167E-03   -0.11887E-04   944   0.207E-02    0.532E-02
DAV:   7    -0.989039591938E+02   -0.41827E-03   -0.73961E-05   888   0.133E-02    0.196E-02
DAV:   8    -0.989043293202E+02   -0.37013E-03   -0.27290E-05   920   0.828E-03    0.588E-03
DAV:   9    -0.989045843499E+02   -0.25503E-03   -0.53679E-06   864   0.386E-03    0.367E-03
DAV:  10    -0.989048305686E+02   -0.24622E-03   -0.36308E-06   896   0.217E-03    0.218E-03
DAV:  11    -0.989050150338E+02   -0.18447E-03   -0.20863E-06   880   0.148E-03    0.155E-03
DAV:  12    -0.989052130814E+02   -0.19805E-03   -0.23832E-06   872   0.129E-03    0.105E-03
DAV:  13    -0.989053796392E+02   -0.16656E-03   -0.27367E-06   896   0.129E-03    0.725E-04
DAV:  14    -0.989054524944E+02   -0.72855E-04   -0.81989E-07   880   0.752E-04
  40 F= -.98905452E+02 E0= -.98905452E+02  d E =0.601656E-02  mag=     2.0000
 curvature: 461.40 expect dE= 0.335E+01 dE for cont linesearch  0.334E+00
 ZBRENT: bracketing found
 ZBRENT: interpolating
 opt :  25.9360  next Energy=   -98.937388 (dE=-0.259E-01)
 bond charge predicted
       N       E                     dE             d eps       ncg     rms          rms(c)
DAV:   1    -0.987653041038E+02    0.14008E+00   -0.38846E+02  1312   0.296E+01    0.710E-01
DAV:   2    -0.989459346130E+02   -0.18063E+00   -0.17617E+00  1360   0.280E+00    0.642E-01
DAV:   3    -0.989435777907E+02    0.23568E-02   -0.27436E-02  1456   0.347E-01    0.487E-01
DAV:   4    -0.989384010428E+02    0.51767E-02   -0.54587E-03  1384   0.122E-01    0.294E-01
DAV:   5    -0.989365838903E+02    0.18172E-02   -0.81492E-03  1392   0.140E-01    0.802E-02
DAV:   6    -0.989367604014E+02   -0.17651E-03   -0.87974E-05   928   0.183E-02    0.545E-02
DAV:   7    -0.989369897610E+02   -0.22936E-03   -0.68282E-05   896   0.128E-02    0.211E-02
DAV:   8    -0.989371963810E+02   -0.20662E-03   -0.38718E-05   912   0.103E-02    0.551E-03
DAV:   9    -0.989373490456E+02   -0.15266E-03   -0.59278E-06   872   0.417E-03    0.316E-03
DAV:  10    -0.989374680752E+02   -0.11903E-03   -0.20946E-06   888   0.190E-03    0.159E-03
DAV:  11    -0.989375411139E+02   -0.73039E-04   -0.87367E-07   880   0.987E-04
  41 F= -.98937541E+02 E0= -.98937541E+02  d E =-.260721E-01  mag=     2.0000
 curvature:  -2.16 expect dE=-0.461E-02 dE for cont linesearch -0.565E-06
 trial: gam= 0.60519 g(F)=  0.213E-02 g(S)=  0.000E+00 ort =-0.489E-04 (trialstep = 0.927E+01)
 search vector abs. value=  0.543E-02
 bond charge predicted
       N       E                     dE             d eps       ncg     rms          rms(c)
DAV:   1    -0.989408390666E+02   -0.33710E-02   -0.31101E+01  1312   0.834E+00    0.198E-01
DAV:   2    -0.989550238668E+02   -0.14185E-01   -0.13989E-01  1368   0.791E-01    0.194E-01
DAV:   3    -0.989548617490E+02    0.16212E-03   -0.22235E-03  1448   0.992E-02    0.144E-01
DAV:   4    -0.989543853828E+02    0.47637E-03   -0.58664E-04  1376   0.401E-02    0.828E-02
DAV:   5    -0.989542487796E+02    0.13660E-03   -0.68382E-04  1384   0.410E-02    0.276E-02
DAV:   6    -0.989542782733E+02   -0.29494E-04   -0.92267E-06   896   0.551E-03
  42 F= -.98954278E+02 E0= -.98954278E+02  d E =-.167372E-01  mag=     2.0000
 trial-energy change:   -0.016737  1 .order   -0.016896   -0.019494   -0.014297
 step:  34.7704(harm= 34.7704)  dis= 0.09116  next Energy=   -98.974103 (dE=-0.366E-01)
 bond charge predicted
       N       E                     dE             d eps       ncg     rms          rms(c)
DAV:   1    -0.988681895106E+02    0.86059E-01   -0.23668E+02  1312   0.231E+01    0.573E-01
DAV:   2    -0.989764362002E+02   -0.10825E+00   -0.10735E+00  1352   0.220E+00    0.539E-01
DAV:   3    -0.989750720121E+02    0.13642E-02   -0.17211E-02  1440   0.276E-01    0.393E-01
DAV:   4    -0.989714101500E+02    0.36619E-02   -0.42116E-03  1392   0.108E-01    0.229E-01
DAV:   5    -0.989703935056E+02    0.10166E-02   -0.45516E-03  1368   0.106E-01    0.723E-02
DAV:   6    -0.989705750959E+02   -0.18159E-03   -0.60293E-05   912   0.143E-02    0.502E-02
DAV:   7    -0.989708879182E+02   -0.31282E-03   -0.89639E-05   888   0.142E-02    0.167E-02
DAV:   8    -0.989711693644E+02   -0.28145E-03   -0.28730E-05   912   0.915E-03    0.461E-03
DAV:   9    -0.989713413242E+02   -0.17196E-03   -0.53947E-06   904   0.362E-03    0.302E-03
DAV:  10    -0.989715087950E+02   -0.16747E-03   -0.25490E-06   872   0.182E-03    0.184E-03
DAV:  11    -0.989716841709E+02   -0.17538E-03   -0.29053E-06   880   0.145E-03    0.124E-03
DAV:  12    -0.989718147136E+02   -0.13054E-03   -0.20978E-06   896   0.107E-03    0.873E-04
DAV:  13    -0.989719286951E+02   -0.11398E-03   -0.16918E-06   880   0.996E-04    0.613E-04
DAV:  14    -0.989719840768E+02   -0.55382E-04   -0.59750E-07   872   0.641E-04
  43 F= -.98971984E+02 E0= -.98971984E+02  d E =-.344430E-01  mag=     2.0000
 curvature: -44.86 expect dE=-0.108E+00 dE for cont linesearch -0.155E-03
 trial: gam= 1.05928 g(F)=  0.241E-02 g(S)=  0.000E+00 ort =-0.137E-03 (trialstep = 0.949E+01)
 search vector abs. value=  0.821E-02
 bond charge predicted
       N       E                     dE             d eps       ncg     rms          rms(c)
DAV:   1    -0.989688166572E+02    0.31120E-02   -0.49306E+01  1312   0.105E+01    0.232E-01
DAV:   2    -0.989914428859E+02   -0.22626E-01   -0.21817E-01  1360   0.992E-01    0.228E-01
DAV:   3    -0.989911943449E+02    0.24854E-03   -0.34046E-03  1440   0.124E-01    0.175E-01
DAV:   4    -0.989904420776E+02    0.75227E-03   -0.72020E-04  1368   0.440E-02    0.106E-01
DAV:   5    -0.989901057277E+02    0.33635E-03   -0.13540E-03  1376   0.572E-02    0.329E-02
DAV:   6    -0.989901345769E+02   -0.28849E-04   -0.15285E-05   856   0.730E-03
  44 F= -.98990135E+02 E0= -.98990135E+02  d E =-.181505E-01  mag=     2.0000
 trial-energy change:   -0.018151  1 .order   -0.018628   -0.021542   -0.015714
 step:  35.0916(harm= 35.0916)  dis= 0.09407  next Energy=   -99.011795 (dE=-0.398E-01)
 bond charge predicted
       N       E                     dE             d eps       ncg     rms          rms(c)
DAV:   1    -0.988461026134E+02    0.14400E+00   -0.36081E+02  1312   0.286E+01    0.676E-01
DAV:   2    -0.990132108728E+02   -0.16711E+00   -0.16105E+00  1360   0.270E+00    0.623E-01
DAV:   3    -0.990113427144E+02    0.18682E-02   -0.25130E-02  1416   0.336E-01    0.466E-01
DAV:   4    -0.990063418860E+02    0.50008E-02   -0.52155E-03  1400   0.119E-01    0.282E-01
DAV:   5    -0.990046545006E+02    0.16874E-02   -0.78359E-03  1376   0.139E-01    0.815E-02
DAV:   6    -0.990048332488E+02   -0.17875E-03   -0.86532E-05   904   0.179E-02    0.545E-02
DAV:   7    -0.990050756329E+02   -0.24238E-03   -0.70890E-05   880   0.130E-02    0.207E-02
DAV:   8    -0.990052954648E+02   -0.21983E-03   -0.34848E-05   912   0.986E-03    0.507E-03
DAV:   9    -0.990054561170E+02   -0.16065E-03   -0.56211E-06   880   0.403E-03    0.313E-03
DAV:  10    -0.990056062438E+02   -0.15013E-03   -0.26241E-06   888   0.193E-03    0.189E-03
DAV:  11    -0.990057190211E+02   -0.11278E-03   -0.14631E-06   864   0.108E-03    0.127E-03
DAV:  12    -0.990059010589E+02   -0.18204E-03   -0.34735E-06   896   0.128E-03    0.885E-04
DAV:  13    -0.990059882756E+02   -0.87217E-04   -0.13893E-06   888   0.827E-04
  45 F= -.99005988E+02 E0= -.99005988E+02  d E =-.340042E-01  mag=     2.0000
 curvature: -63.51 expect dE=-0.200E+00 dE for cont linesearch -0.104E-02
 trial: gam= 1.21217 g(F)=  0.315E-02 g(S)=  0.000E+00 ort =-0.367E-03 (trialstep = 0.838E+01)
 search vector abs. value=  0.143E-01
 bond charge predicted
       N       E                     dE             d eps       ncg     rms          rms(c)
DAV:   1    -0.989962856982E+02    0.96154E-02   -0.66987E+01  1312   0.123E+01    0.252E-01
DAV:   2    -0.990272656815E+02   -0.30980E-01   -0.29623E-01  1344   0.116E+00    0.256E-01
DAV:   3    -0.990269831000E+02    0.28258E-03   -0.45443E-03  1440   0.142E-01    0.199E-01
DAV:   4    -0.990260631228E+02    0.91998E-03   -0.79302E-04  1376   0.464E-02    0.129E-01
DAV:   5    -0.990256095655E+02    0.45356E-03   -0.21088E-03  1360   0.711E-02    0.387E-02
DAV:   6    -0.990256379895E+02   -0.28424E-04   -0.19168E-05   864   0.854E-03
  46 F= -.99025638E+02 E0= -.99025638E+02  d E =-.196497E-01  mag=     2.0000
 ZBRENT: can't locate minimum, use default step
 trial-energy change:   -0.019650  1 .order   -0.020072   -0.022650   -0.017493
 step:  33.5092(harm= 36.7966)  dis= 0.09690  next Energy=   -99.055732 (dE=-0.497E-01)
 bond charge predicted
       N       E                     dE             d eps       ncg     rms          rms(c)
DAV:   1    -0.987682300188E+02    0.25738E+00   -0.60992E+02  1312   0.373E+01    0.938E-01
DAV:   2    -0.990510595180E+02   -0.28283E+00   -0.27519E+00  1344   0.354E+00    0.787E-01
DAV:   3    -0.990470563523E+02    0.40032E-02   -0.42461E-02  1424   0.441E-01    0.571E-01
DAV:   4    -0.990392557619E+02    0.78006E-02   -0.82984E-03  1352   0.149E-01    0.345E-01
DAV:   5    -0.990366610437E+02    0.25947E-02   -0.11173E-02  1384   0.166E-01    0.923E-02
DAV:   6    -0.990368559089E+02   -0.19487E-03   -0.12434E-04   928   0.225E-02    0.590E-02
DAV:   7    -0.990370619182E+02   -0.20601E-03   -0.50261E-05   880   0.119E-02    0.239E-02
DAV:   8    -0.990372236113E+02   -0.16169E-03   -0.24085E-05   928   0.816E-03    0.623E-03
DAV:   9    -0.990373539812E+02   -0.13037E-03   -0.53223E-06   888   0.391E-03    0.318E-03
DAV:  10    -0.990374644555E+02   -0.11047E-03   -0.22560E-06   872   0.178E-03    0.172E-03
DAV:  11    -0.990375345899E+02   -0.70134E-04   -0.10348E-06   880   0.983E-04
  47 F= -.99037535E+02 E0= -.99037535E+02  d E =-.315463E-01  mag=     2.0000
 curvature: -96.18 expect dE=-0.381E+00 dE for cont linesearch -0.842E-02
 ZBRENT: interpolating
 opt :  24.7371  next Energy=   -99.042446 (dE=-0.365E-01)
 bond charge predicted
       N       E                     dE             d eps       ncg     rms          rms(c)
DAV:   1    -0.990111102336E+02    0.26354E-01   -0.73452E+01  1312   0.129E+01    0.258E-01
DAV:   2    -0.990441679122E+02   -0.33058E-01   -0.32255E-01  1368   0.120E+00    0.268E-01
DAV:   3    -0.990438295248E+02    0.33839E-03   -0.48754E-03  1440   0.146E-01    0.209E-01
DAV:   4    -0.990428645683E+02    0.96496E-03   -0.86512E-04  1368   0.482E-02    0.137E-01
DAV:   5    -0.990424677776E+02    0.39679E-03   -0.23594E-03  1368   0.750E-02    0.423E-02
DAV:   6    -0.990424981869E+02   -0.30409E-04   -0.20808E-05   856   0.891E-03
  48 F= -.99042498E+02 E0= -.99042498E+02  d E =-.365099E-01  mag=     2.0000
 curvature: -56.12 expect dE=-0.160E+00 dE for cont linesearch -0.391E-04
 trial: gam= 0.37028 g(F)=  0.285E-02 g(S)=  0.000E+00 ort =-0.999E-04 (trialstep = 0.116E+02)
 search vector abs. value=  0.474E-02
 bond charge predicted
       N       E                     dE             d eps       ncg     rms          rms(c)
DAV:   1    -0.990507838348E+02   -0.83161E-02   -0.43023E+01  1312   0.982E+00    0.239E-01
DAV:   2    -0.990704559200E+02   -0.19672E-01   -0.19421E-01  1368   0.932E-01    0.223E-01
DAV:   3    -0.990702110760E+02    0.24484E-03   -0.30957E-03  1456   0.117E-01    0.165E-01
DAV:   4    -0.990695184663E+02    0.69261E-03   -0.83230E-04  1360   0.472E-02    0.909E-02
DAV:   5    -0.990692867082E+02    0.23176E-03   -0.84655E-04  1400   0.459E-02    0.307E-02
DAV:   6    -0.990693228272E+02   -0.36119E-04   -0.16166E-05   880   0.696E-03
  49 F= -.99069323E+02 E0= -.99069323E+02  d E =-.268246E-01  mag=     2.0000
 trial-energy change:   -0.026825  1 .order   -0.027017   -0.032800   -0.021233
 step:  33.0347(harm= 33.0347)  dis= 0.05641  next Energy=   -99.089005 (dE=-0.465E-01)
 bond charge predicted
       N       E                     dE             d eps       ncg     rms          rms(c)
DAV:   1    -0.990227127522E+02    0.46574E-01   -0.14522E+02  1312   0.181E+01    0.462E-01
DAV:   2    -0.990892227382E+02   -0.66510E-01   -0.65921E-01  1336   0.172E+00    0.405E-01
DAV:   3    -0.990882770600E+02    0.94568E-03   -0.10454E-02  1440   0.216E-01    0.293E-01
DAV:   4    -0.990861194177E+02    0.21576E-02   -0.28197E-03  1384   0.871E-02    0.156E-01
DAV:   5    -0.990857138442E+02    0.40557E-03   -0.23217E-03  1416   0.764E-02    0.512E-02
DAV:   6    -0.990858628064E+02   -0.14896E-03   -0.46984E-05   896   0.119E-02    0.343E-02
DAV:   7    -0.990861084434E+02   -0.24564E-03   -0.60098E-05   912   0.118E-02    0.114E-02
DAV:   8    -0.990863482665E+02   -0.23982E-03   -0.16525E-05   928   0.702E-03    0.320E-03
DAV:   9    -0.990865186817E+02   -0.17042E-03   -0.44279E-06   888   0.326E-03    0.250E-03
DAV:  10    -0.990866791204E+02   -0.16044E-03   -0.19701E-06   896   0.163E-03    0.164E-03
DAV:  11    -0.990868964879E+02   -0.21737E-03   -0.38515E-06   896   0.160E-03    0.117E-03
DAV:  12    -0.990870029407E+02   -0.10645E-03   -0.13949E-06   896   0.922E-04    0.676E-04
DAV:  13    -0.990870938738E+02   -0.90933E-04   -0.10911E-06   888   0.813E-04
  50 F= -.99087094E+02 E0= -.99087094E+02  d E =-.445957E-01  mag=     2.0000
 curvature: -27.82 expect dE=-0.675E-01 dE for cont linesearch -0.160E-03
 trial: gam= 0.88260 g(F)=  0.243E-02 g(S)=  0.000E+00 ort =-0.165E-03 (trialstep = 0.130E+02)
 search vector abs. value=  0.583E-02
 bond charge predicted
       N       E                     dE             d eps       ncg     rms          rms(c)
DAV:   1    -0.990813984239E+02    0.56045E-02   -0.65319E+01  1312   0.121E+01    0.297E-01
DAV:   2    -0.991113095281E+02   -0.29911E-01   -0.29350E-01  1384   0.114E+00    0.252E-01
DAV:   3    -0.991107914522E+02    0.51808E-03   -0.44688E-03  1424   0.142E-01    0.188E-01
DAV:   4    -0.991097650000E+02    0.10265E-02   -0.11926E-03  1392   0.556E-02    0.970E-02
DAV:   5    -0.991094522980E+02    0.31270E-03   -0.11535E-03  1392   0.529E-02    0.306E-02
DAV:   6    -0.991095316354E+02   -0.79337E-04   -0.18729E-05   864   0.776E-03
  51 F= -.99109532E+02 E0= -.99109532E+02  d E =-.224378E-01  mag=     2.0000
 trial-energy change:   -0.022438  1 .order   -0.023168   -0.029562   -0.016773
 step:  29.9440(harm= 29.9440)  dis= 0.05409  next Energy=   -99.121261 (dE=-0.342E-01)
 bond charge predicted
       N       E                     dE             d eps       ncg     rms          rms(c)
DAV:   1    -0.990689580767E+02    0.40494E-01   -0.11244E+02  1312   0.159E+01    0.400E-01
DAV:   2    -0.991206885037E+02   -0.51730E-01   -0.50656E-01  1352   0.150E+00    0.331E-01
DAV:   3    -0.991197749949E+02    0.91351E-03   -0.76686E-03  1432   0.186E-01    0.244E-01
DAV:   4    -0.991181125429E+02    0.16625E-02   -0.21504E-03  1360   0.747E-02    0.122E-01
DAV:   5    -0.991178401192E+02    0.27242E-03   -0.17654E-03  1392   0.658E-02    0.389E-02
DAV:   6    -0.991180001801E+02   -0.16006E-03   -0.31358E-05   896   0.995E-03    0.266E-02
DAV:   7    -0.991182689346E+02   -0.26875E-03   -0.41989E-05   896   0.956E-03    0.864E-03
DAV:   8    -0.991185114859E+02   -0.24255E-03   -0.12488E-05   928   0.581E-03    0.276E-03
DAV:   9    -0.991186657949E+02   -0.15431E-03   -0.32673E-06   880   0.260E-03    0.225E-03
DAV:  10    -0.991188461904E+02   -0.18040E-03   -0.25119E-06   880   0.154E-03    0.140E-03
DAV:  11    -0.991190226870E+02   -0.17650E-03   -0.36937E-06   896   0.139E-03    0.933E-04
DAV:  12    -0.991191240090E+02   -0.10132E-03   -0.16761E-06   904   0.911E-04    0.531E-04
DAV:  13    -0.991191823248E+02   -0.58316E-04   -0.71633E-07   856   0.642E-04
  52 F= -.99119182E+02 E0= -.99119182E+02  d E =-.320885E-01  mag=     2.0000
 curvature: -38.26 expect dE=-0.733E-01 dE for cont linesearch -0.295E-03
 trial: gam= 0.71550 g(F)=  0.192E-02 g(S)=  0.000E+00 ort =-0.212E-03 (trialstep = 0.164E+02)
 search vector abs. value=  0.460E-02
 bond charge predicted
       N       E                     dE             d eps       ncg     rms          rms(c)
DAV:   1    -0.991034228810E+02    0.15701E-01   -0.82165E+01  1312   0.136E+01    0.321E-01
DAV:   2    -0.991415545691E+02   -0.38132E-01   -0.37043E-01  1376   0.129E+00    0.294E-01
DAV:   3    -0.991411115404E+02    0.44303E-03   -0.56483E-03  1432   0.160E-01    0.220E-01
DAV:   4    -0.991399178814E+02    0.11937E-02   -0.13762E-03  1384   0.605E-02    0.124E-01
DAV:   5    -0.991395587821E+02    0.35910E-03   -0.17630E-03  1400   0.650E-02    0.394E-02
DAV:   6    -0.991396117940E+02   -0.53012E-04   -0.25521E-05   864   0.913E-03
  53 F= -.99139612E+02 E0= -.99139612E+02  d E =-.204295E-01  mag=     2.0000
 trial-energy change:   -0.020429  1 .order   -0.021260   -0.028865   -0.013655
 step:  31.0326(harm= 31.0326)  dis= 0.05346  next Energy=   -99.146572 (dE=-0.274E-01)
 bond charge predicted
       N       E                     dE             d eps       ncg     rms          rms(c)
DAV:   1    -0.991152375319E+02    0.24321E-01   -0.66168E+01  1312   0.122E+01    0.288E-01
DAV:   2    -0.991458951736E+02   -0.30658E-01   -0.29811E-01  1352   0.115E+00    0.261E-01
DAV:   3    -0.991455261652E+02    0.36901E-03   -0.44975E-03  1392   0.142E-01    0.195E-01
DAV:   4    -0.991446002938E+02    0.92587E-03   -0.11199E-03  1368   0.547E-02    0.108E-01
DAV:   5    -0.991444155630E+02    0.18473E-03   -0.13572E-03  1368   0.572E-02    0.353E-02
DAV:   6    -0.991444840467E+02   -0.68484E-04   -0.20543E-05   872   0.808E-03
  54 F= -.99144484E+02 E0= -.99144484E+02  d E =-.253017E-01  mag=     2.0000
 curvature: -40.42 expect dE=-0.779E-01 dE for cont linesearch -0.407E-04
 trial: gam= 0.91821 g(F)=  0.193E-02 g(S)=  0.000E+00 ort =-0.680E-04 (trialstep = 0.156E+02)
 search vector abs. value=  0.568E-02
 bond charge predicted
       N       E                     dE             d eps       ncg     rms          rms(c)
DAV:   1    -0.991232682860E+02    0.21147E-01   -0.92526E+01  1312   0.144E+01    0.320E-01
DAV:   2    -0.991664498407E+02   -0.43182E-01   -0.41497E-01  1368   0.136E+00    0.308E-01
DAV:   3    -0.991660399704E+02    0.40987E-03   -0.61517E-03  1392   0.163E-01    0.233E-01
DAV:   4    -0.991647682964E+02    0.12717E-02   -0.14521E-03  1352   0.625E-02    0.138E-01
DAV:   5    -0.991644751747E+02    0.29312E-03   -0.21868E-03  1352   0.727E-02    0.448E-02
DAV:   6    -0.991645474007E+02   -0.72226E-04   -0.26580E-05   864   0.942E-03
  55 F= -.99164547E+02 E0= -.99164547E+02  d E =-.200634E-01  mag=     2.0000
 trial-energy change:   -0.020063  1 .order   -0.020656   -0.029116   -0.012197
 step:  40.0410(harm= 26.8794)  dis= 0.06884  next Energy=   -99.171816 (dE=-0.273E-01)
 bond charge predicted
       N       E                     dE             d eps       ncg     rms          rms(c)
DAV:   1    -0.990570670766E+02    0.10741E+00   -0.22688E+02  1312   0.226E+01    0.532E-01
DAV:   2    -0.991628336359E+02   -0.10577E+00   -0.10215E+00  1352   0.214E+00    0.483E-01
DAV:   3    -0.991617322119E+02    0.11014E-02   -0.15685E-02  1408   0.260E-01    0.358E-01
DAV:   4    -0.991586695469E+02    0.30627E-02   -0.37938E-03  1376   0.101E-01    0.204E-01
DAV:   5    -0.991580402946E+02    0.62925E-03   -0.44012E-03  1344   0.104E-01    0.640E-02
DAV:   6    -0.991581256445E+02   -0.85350E-04   -0.60536E-05   872   0.142E-02
  56 F= -.99158126E+02 E0= -.99158126E+02  d E =-.136416E-01  mag=     2.0000
 curvature:  15.00 expect dE= 0.758E-01 dE for cont linesearch  0.321E-02
 ZBRENT: interpolating
 opt :  25.7426  next Energy=   -99.168500 (dE=-0.240E-01)
 bond charge predicted
       N       E                     dE             d eps       ncg     rms          rms(c)
DAV:   1    -0.991336845778E+02    0.24356E-01   -0.77565E+01  1312   0.132E+01    0.281E-01
DAV:   2    -0.991695334726E+02   -0.35849E-01   -0.34515E-01  1392   0.124E+00    0.284E-01
DAV:   3    -0.991692516462E+02    0.28183E-03   -0.50777E-03  1448   0.147E-01    0.221E-01
DAV:   4    -0.991682623099E+02    0.98934E-03   -0.11827E-03  1360   0.561E-02    0.134E-01
DAV:   5    -0.991680763245E+02    0.18599E-03   -0.21319E-03  1384   0.713E-02    0.441E-02
DAV:   6    -0.991681185135E+02   -0.42189E-04   -0.25605E-05   880   0.917E-03
  57 F= -.99168119E+02 E0= -.99168119E+02  d E =-.236345E-01  mag=     2.0000
 curvature: -18.45 expect dE=-0.366E-01 dE for cont linesearch -0.913E-04
 trial: gam= 0.96637 g(F)=  0.198E-02 g(S)=  0.000E+00 ort =-0.168E-03 (trialstep = 0.144E+02)
 search vector abs. value=  0.696E-02
 bond charge predicted
       N       E                     dE             d eps       ncg     rms          rms(c)
DAV:   1    -0.991458151850E+02    0.22261E-01   -0.96222E+01  1312   0.147E+01    0.312E-01
DAV:   2    -0.991903240981E+02   -0.44509E-01   -0.42757E-01  1368   0.138E+00    0.312E-01
DAV:   3    -0.991899312513E+02    0.39285E-03   -0.64708E-03  1464   0.166E-01    0.243E-01
DAV:   4    -0.991885702120E+02    0.13610E-02   -0.14206E-03  1392   0.618E-02    0.148E-01
DAV:   5    -0.991881230166E+02    0.44720E-03   -0.26082E-03  1392   0.796E-02    0.471E-02
DAV:   6    -0.991881405462E+02   -0.17530E-04   -0.28128E-05   856   0.100E-02
  58 F= -.99188141E+02 E0= -.99188141E+02  d E =-.200220E-01  mag=     2.0000
 trial-energy change:   -0.020022  1 .order   -0.020296   -0.026193   -0.014400
 step:  31.9705(harm= 31.9705)  dis= 0.06084  next Energy=   -99.197206 (dE=-0.291E-01)
 bond charge predicted
       N       E                     dE             d eps       ncg     rms          rms(c)
DAV:   1    -0.991294810682E+02    0.58642E-01   -0.14351E+02  1312   0.180E+01    0.396E-01
DAV:   2    -0.991958542054E+02   -0.66373E-01   -0.64069E-01  1352   0.169E+00    0.378E-01
DAV:   3    -0.991952188965E+02    0.63531E-03   -0.96735E-03  1400   0.204E-01    0.288E-01
DAV:   4    -0.991932775534E+02    0.19413E-02   -0.21821E-03  1408   0.766E-02    0.171E-01
DAV:   5    -0.991927571970E+02    0.52036E-03   -0.33345E-03  1384   0.904E-02    0.543E-02
DAV:   6    -0.991927908121E+02   -0.33615E-04   -0.37627E-05   872   0.116E-02
  59 F= -.99192791E+02 E0= -.99192791E+02  d E =-.246723E-01  mag=     2.0000
 curvature: -61.15 expect dE=-0.102E+00 dE for cont linesearch -0.640E-03
 trial: gam= 0.86049 g(F)=  0.167E-02 g(S)=  0.000E+00 ort =-0.270E-03 (trialstep = 0.179E+02)
 search vector abs. value=  0.636E-02
 bond charge predicted
       N       E                     dE             d eps       ncg     rms          rms(c)
DAV:   1    -0.991462712263E+02    0.46486E-01   -0.13615E+02  1312   0.175E+01    0.379E-01
DAV:   2    -0.992094517009E+02   -0.63180E-01   -0.60602E-01  1368   0.165E+00    0.367E-01
DAV:   3    -0.992088851545E+02    0.56655E-03   -0.92091E-03  1416   0.201E-01    0.279E-01
DAV:   4    -0.992070947118E+02    0.17904E-02   -0.18968E-03  1408   0.717E-02    0.172E-01
DAV:   5    -0.992065414467E+02    0.55327E-03   -0.34038E-03  1368   0.912E-02    0.536E-02
DAV:   6    -0.992065805838E+02   -0.39137E-04   -0.35585E-05   880   0.115E-02
  60 F= -.99206581E+02 E0= -.99206581E+02  d E =-.137898E-01  mag=     2.0000
 trial-energy change:   -0.013790  1 .order   -0.015448   -0.025807   -0.005089
 step:  22.3082(harm= 22.3082)  dis= 0.03481  next Energy=   -99.208863 (dE=-0.161E-01)
 bond charge predicted
       N       E                     dE             d eps       ncg     rms          rms(c)
DAV:   1    -0.992030849512E+02    0.34565E-02   -0.81823E+00  1328   0.429E+00    0.919E-02
DAV:   2    -0.992068777579E+02   -0.37928E-02   -0.36451E-02  1392   0.403E-01    0.883E-02
DAV:   3    -0.992068608949E+02    0.16863E-04   -0.55028E-04  1408   0.490E-02
  61 F= -.99206861E+02 E0= -.99206861E+02  d E =-.140701E-01  mag=     2.0000
 curvature: -49.25 expect dE=-0.458E-01 dE for cont linesearch -0.844E-04
 trial: gam= 0.25771 g(F)=  0.929E-03 g(S)=  0.000E+00 ort =-0.104E-03 (trialstep = 0.188E+02)
 search vector abs. value=  0.130E-02
 bond charge predicted
       N       E                     dE             d eps       ncg     rms          rms(c)
DAV:   1    -0.992048418388E+02    0.20359E-02   -0.30684E+01  1312   0.827E+00    0.208E-01
DAV:   2    -0.992190736387E+02   -0.14232E-01   -0.13856E-01  1368   0.783E-01    0.201E-01
DAV:   3    -0.992189310820E+02    0.14256E-03   -0.20987E-03  1432   0.939E-02    0.152E-01
DAV:   4    -0.992184593251E+02    0.47176E-03   -0.83024E-04  1376   0.473E-02    0.787E-02
DAV:   5    -0.992184457108E+02    0.13614E-04   -0.55636E-04  1408   0.381E-02
  62 F= -.99218446E+02 E0= -.99218446E+02  d E =-.115848E-01  mag=     2.0000
 trial-energy change:   -0.011585  1 .order   -0.012050   -0.016956   -0.007143
 step:  32.4667(harm= 32.4667)  dis= 0.02813  next Energy=   -99.221511 (dE=-0.146E-01)
 bond charge predicted
       N       E                     dE             d eps       ncg     rms          rms(c)
DAV:   1    -0.992129299256E+02    0.55294E-02   -0.16233E+01  1312   0.601E+00    0.153E-01
DAV:   2    -0.992206202719E+02   -0.76903E-02   -0.74710E-02  1400   0.574E-01    0.138E-01
DAV:   3    -0.992205834277E+02    0.36844E-04   -0.11457E-03  1400   0.703E-02    0.997E-02
DAV:   4    -0.992204057514E+02    0.17768E-03   -0.31152E-04  1112   0.303E-02    0.546E-02
DAV:   5    -0.992204150647E+02   -0.93133E-05   -0.28298E-04   944   0.291E-02
  63 F= -.99220415E+02 E0= -.99220415E+02  d E =-.135542E-01  mag=     2.0000
 curvature: -23.35 expect dE=-0.182E-01 dE for cont linesearch -0.166E-05
 trial: gam= 0.81030 g(F)=  0.778E-03 g(S)=  0.000E+00 ort =-0.962E-05 (trialstep = 0.173E+02)
 search vector abs. value=  0.161E-02
 bond charge predicted
       N       E                     dE             d eps       ncg     rms          rms(c)
DAV:   1    -0.992145735173E+02    0.58322E-02   -0.32262E+01  1312   0.850E+00    0.200E-01
DAV:   2    -0.992298247360E+02   -0.15251E-01   -0.14582E-01  1376   0.804E-01    0.185E-01
DAV:   3    -0.992296779753E+02    0.14676E-03   -0.21744E-03  1416   0.964E-02    0.140E-01
DAV:   4    -0.992292361293E+02    0.44185E-03   -0.65027E-04  1360   0.414E-02    0.750E-02
DAV:   5    -0.992291811603E+02    0.54969E-04   -0.62313E-04  1408   0.394E-02
  64 F= -.99229181E+02 E0= -.99229181E+02  d E =-.876610E-02  mag=     2.0000
 trial-energy change:   -0.008766  1 .order   -0.009514   -0.013326   -0.005702
 step:  30.2534(harm= 30.2534)  dis= 0.02597  next Energy=   -99.232062 (dE=-0.116E-01)
 bond charge predicted
       N       E                     dE             d eps       ncg     rms          rms(c)
DAV:   1    -0.992225096656E+02    0.67265E-02   -0.18042E+01  1312   0.635E+00    0.153E-01
DAV:   2    -0.992309530988E+02   -0.84434E-02   -0.81875E-02  1392   0.601E-01    0.137E-01
DAV:   3    -0.992308739765E+02    0.79122E-04   -0.12261E-03  1408   0.728E-02    0.102E-01
DAV:   4    -0.992306441843E+02    0.22979E-03   -0.34254E-04  1144   0.309E-02    0.543E-02
DAV:   5    -0.992306315048E+02    0.12680E-04   -0.35539E-04  1256   0.313E-02
  65 F= -.99230632E+02 E0= -.99230632E+02  d E =-.102164E-01  mag=     2.0000
 curvature: -31.72 expect dE=-0.176E-01 dE for cont linesearch -0.249E-05
 trial: gam= 0.64217 g(F)=  0.553E-03 g(S)=  0.000E+00 ort =-0.112E-04 (trialstep = 0.199E+02)
 search vector abs. value=  0.120E-02
 bond charge predicted
       N       E                     dE             d eps       ncg     rms          rms(c)
DAV:   1    -0.992225449243E+02    0.80993E-02   -0.31820E+01  1312   0.845E+00    0.208E-01
DAV:   2    -0.992376260104E+02   -0.15081E-01   -0.14401E-01  1384   0.798E-01    0.185E-01
DAV:   3    -0.992374715519E+02    0.15446E-03   -0.21401E-03  1400   0.952E-02    0.138E-01
DAV:   4    -0.992370416979E+02    0.42985E-03   -0.73872E-04  1384   0.439E-02    0.674E-02
DAV:   5    -0.992370298818E+02    0.11816E-04   -0.48127E-04  1392   0.351E-02
  66 F= -.99237030E+02 E0= -.99237030E+02  d E =-.639838E-02  mag=     2.0000
 trial-energy change:   -0.006398  1 .order   -0.006884   -0.010867   -0.002902
 step:  27.1448(harm= 27.1448)  dis= 0.02321  next Energy=   -99.238045 (dE=-0.741E-02)
 bond charge predicted
       N       E                     dE             d eps       ncg     rms          rms(c)
DAV:   1    -0.992353683908E+02    0.16733E-02   -0.42160E+00  1312   0.308E+00    0.791E-02
DAV:   2    -0.992373733589E+02   -0.20050E-02   -0.19297E-02  1392   0.291E-01    0.665E-02
DAV:   3    -0.992373650596E+02    0.82993E-05   -0.25766E-04   840   0.351E-02
  67 F= -.99237365E+02 E0= -.99237365E+02  d E =-.673355E-02  mag=     2.0000
 curvature: -29.94 expect dE=-0.167E-01 dE for cont linesearch -0.103E-02
 ZBRENT: interpolating
 opt :  22.9241  next Energy=   -99.237251 (dE=-0.662E-02)
 bond charge predicted
       N       E                     dE             d eps       ncg     rms          rms(c)
DAV:   1    -0.992366632809E+02    0.71008E-03   -0.14198E+00  1344   0.178E+00    0.388E-02
DAV:   2    -0.992373825770E+02   -0.71930E-03   -0.66314E-03  1400   0.171E-01    0.322E-02
DAV:   3    -0.992373920096E+02   -0.94325E-05   -0.91245E-05   848   0.213E-02
  68 F= -.99237392E+02 E0= -.99237392E+02  d E =-.676050E-02  mag=     2.0000
 curvature:  -6.44 expect dE=-0.256E-02 dE for cont linesearch -0.122E-03
 trial: gam= 0.45532 g(F)=  0.398E-03 g(S)=  0.000E+00 ort = 0.151E-03 (trialstep = 0.205E+02)
 search vector abs. value=  0.786E-03
 bond charge predicted
       N       E                     dE             d eps       ncg     rms          rms(c)
DAV:   1    -0.992332596813E+02    0.41229E-02   -0.22003E+01  1312   0.704E+00    0.159E-01
DAV:   2    -0.992434555026E+02   -0.10196E-01   -0.98350E-02  1368   0.661E-01    0.151E-01
DAV:   3    -0.992433735296E+02    0.81973E-04   -0.14664E-03  1424   0.795E-02    0.113E-01
DAV:   4    -0.992430949153E+02    0.27861E-03   -0.38187E-04  1240   0.325E-02    0.652E-02
DAV:   5    -0.992430688650E+02    0.26050E-04   -0.50086E-04  1392   0.358E-02
  69 F= -.99243069E+02 E0= -.99243069E+02  d E =-.567686E-02  mag=     2.0000
 trial-energy change:   -0.005677  1 .order   -0.006502   -0.009581   -0.003423
 step:  31.9009(harm= 31.9009)  dis= 0.02087  next Energy=   -99.244846 (dE=-0.745E-02)
 bond charge predicted
       N       E                     dE             d eps       ncg     rms          rms(c)
DAV:   1    -0.992407071203E+02    0.23878E-02   -0.67982E+00  1312   0.391E+00    0.931E-02
DAV:   2    -0.992438579730E+02   -0.31509E-02   -0.30514E-02  1384   0.368E-01    0.847E-02
DAV:   3    -0.992438353882E+02    0.22585E-04   -0.45163E-04  1384   0.441E-02
  70 F= -.99243835E+02 E0= -.99243835E+02  d E =-.644338E-02  mag=     2.0000
 curvature: -26.82 expect dE=-0.113E-01 dE for cont linesearch -0.590E-05
 trial: gam= 1.14739 g(F)=  0.421E-03 g(S)=  0.000E+00 ort =-0.131E-04 (trialstep = 0.126E+02)
 search vector abs. value=  0.143E-02
 bond charge predicted
       N       E                     dE             d eps       ncg     rms          rms(c)
DAV:   1    -0.992409750729E+02    0.28829E-02   -0.14983E+01  1312   0.581E+00    0.121E-01
DAV:   2    -0.992476244210E+02   -0.66493E-02   -0.64604E-02  1368   0.536E-01    0.128E-01
DAV:   3    -0.992475402322E+02    0.84189E-04   -0.95834E-04  1440   0.622E-02
  71 F= -.99247540E+02 E0= -.99247540E+02  d E =-.370484E-02  mag=     2.0000
 trial-energy change:   -0.003705  1 .order   -0.003912   -0.005096   -0.002728
 step:  27.0353(harm= 27.0353)  dis= 0.02384  next Energy=   -99.249319 (dE=-0.548E-02)
 bond charge predicted
       N       E                     dE             d eps       ncg     rms          rms(c)
DAV:   1    -0.992396323128E+02    0.79921E-02   -0.19900E+01  1312   0.670E+00    0.156E-01
DAV:   2    -0.992481892763E+02   -0.85570E-02   -0.84301E-02  1376   0.614E-01    0.162E-01
DAV:   3    -0.992480296242E+02    0.15965E-03   -0.12391E-03  1432   0.701E-02    0.133E-01
DAV:   4    -0.992475660000E+02    0.46362E-03   -0.77343E-04  1376   0.435E-02    0.630E-02
DAV:   5    -0.992475479158E+02    0.18084E-04   -0.52628E-04  1392   0.364E-02
  72 F= -.99247548E+02 E0= -.99247548E+02  d E =-.371253E-02  mag=     2.0000
 curvature: -47.49 expect dE=-0.176E-01 dE for cont linesearch -0.179E-03
 trial: gam= 0.87086 g(F)=  0.370E-03 g(S)=  0.000E+00 ort =-0.733E-04 (trialstep = 0.155E+02)
 search vector abs. value=  0.132E-02
 bond charge predicted
       N       E                     dE             d eps       ncg     rms          rms(c)
DAV:   1    -0.992408672959E+02    0.66987E-02   -0.21043E+01  1312   0.688E+00    0.143E-01
DAV:   2    -0.992504311222E+02   -0.95638E-02   -0.92936E-02  1360   0.642E-01    0.139E-01
DAV:   3    -0.992503429792E+02    0.88143E-04   -0.13878E-03  1424   0.768E-02    0.107E-01
DAV:   4    -0.992500745368E+02    0.26844E-03   -0.29733E-04  1016   0.288E-02    0.649E-02
DAV:   5    -0.992500246110E+02    0.49926E-04   -0.60901E-04  1368   0.401E-02
  73 F= -.99250025E+02 E0= -.99250025E+02  d E =-.247670E-02  mag=     2.0000
 trial-energy change:   -0.002477  1 .order   -0.003060   -0.004738   -0.001382
 step:  21.8240(harm= 21.8240)  dis= 0.01657  next Energy=   -99.250893 (dE=-0.334E-02)
 bond charge predicted
       N       E                     dE             d eps       ncg     rms          rms(c)
DAV:   1    -0.992484225074E+02    0.16520E-02   -0.35659E+00  1328   0.283E+00    0.625E-02
DAV:   2    -0.992500496102E+02   -0.16271E-02   -0.15862E-02  1376   0.265E-01    0.566E-02
DAV:   3    -0.992500379484E+02    0.11662E-04   -0.20602E-04   832   0.316E-02
  74 F= -.99250038E+02 E0= -.99250038E+02  d E =-.249003E-02  mag=     2.0000
 curvature: -47.11 expect dE=-0.130E-01 dE for cont linesearch -0.142E-02
 ZBRENT: interpolating
 opt :  17.4285  next Energy=   -99.250113 (dE=-0.256E-02)
 bond charge predicted
       N       E                     dE             d eps       ncg     rms          rms(c)
DAV:   1    -0.992493249246E+02    0.72469E-03   -0.16907E+00  1328   0.195E+00    0.395E-02
DAV:   2    -0.992501410422E+02   -0.81612E-03   -0.77466E-03  1416   0.185E-01    0.320E-02
DAV:   3    -0.992501420922E+02   -0.10500E-05   -0.10361E-04   808   0.230E-02
  75 F= -.99250142E+02 E0= -.99250142E+02  d E =-.259418E-02  mag=     2.0000
 curvature:  -2.93 expect dE=-0.638E-03 dE for cont linesearch -0.344E-04
 trial: gam= 0.07929 g(F)=  0.217E-03 g(S)=  0.000E+00 ort = 0.125E-03 (trialstep = 0.159E+02)
 search vector abs. value=  0.245E-03
 bond charge predicted
       N       E                     dE             d eps       ncg     rms          rms(c)
DAV:   1    -0.992507995164E+02   -0.65847E-03   -0.41086E+00  1312   0.305E+00    0.773E-02
DAV:   2    -0.992526575466E+02   -0.18580E-02   -0.18163E-02  1360   0.283E-01    0.664E-02
DAV:   3    -0.992526364716E+02    0.21075E-04   -0.25157E-04   920   0.342E-02
  76 F= -.99252636E+02 E0= -.99252636E+02  d E =-.249438E-02  mag=     2.0000
 trial-energy change:   -0.002494  1 .order   -0.002048   -0.003601   -0.000495
 step:  17.1570(harm= 18.3755)  dis= 0.00508  next Energy=   -99.252657 (dE=-0.252E-02)
 bond charge predicted
       N       E                     dE             d eps       ncg     rms          rms(c)
DAV:   1    -0.992527127970E+02   -0.55250E-04   -0.29771E-02  1368   0.262E-01    0.209E-02
DAV:   2    -0.992527261395E+02   -0.13343E-04   -0.96555E-05   832   0.224E-02
  77 F= -.99252726E+02 E0= -.99252726E+02  d E =-.258405E-02  mag=     2.0000
 curvature:  -7.61 expect dE=-0.620E-03 dE for cont linesearch -0.181E-03
 trial: gam= 0.02158 g(F)=  0.815E-04 g(S)=  0.000E+00 ort = 0.764E-04 (trialstep = 0.161E+02)
 search vector abs. value=  0.849E-04
 bond charge predicted
       N       E                     dE             d eps       ncg     rms          rms(c)
DAV:   1    -0.992531591292E+02   -0.44633E-03   -0.14736E+00  1336   0.183E+00    0.478E-02
DAV:   2    -0.992538304811E+02   -0.67135E-03   -0.65656E-03  1408   0.171E-01    0.438E-02
DAV:   3    -0.992538232018E+02    0.72793E-05   -0.90178E-05   840   0.209E-02
  78 F= -.99253823E+02 E0= -.99253823E+02  d E =-.109706E-02  mag=     2.0000
 trial-energy change:   -0.001097  1 .order   -0.000825   -0.001339   -0.000311
 step:  20.9912(harm= 20.9912)  dis= 0.00537  next Energy=   -99.253598 (dE=-0.872E-03)
 bond charge predicted
       N       E                     dE             d eps       ncg     rms          rms(c)
DAV:   1    -0.992539357760E+02   -0.10529E-03   -0.13734E-01  1336   0.559E-01    0.229E-02
DAV:   2    -0.992539931719E+02   -0.57396E-04   -0.57217E-04  1328   0.506E-02
  79 F= -.99253993E+02 E0= -.99253993E+02  d E =-.126703E-02  mag=     2.0000
 curvature: -10.72 expect dE=-0.783E-03 dE for cont linesearch -0.137E-04
 trial: gam= 0.79054 g(F)=  0.730E-04 g(S)=  0.000E+00 ort = 0.104E-04 (trialstep = 0.102E+02)
 search vector abs. value=  0.142E-03
 bond charge predicted
       N       E                     dE             d eps       ncg     rms          rms(c)
DAV:   1    -0.992544244668E+02   -0.48869E-03   -0.98574E-01  1312   0.149E+00    0.333E-02
DAV:   2    -0.992548606081E+02   -0.43614E-03   -0.42866E-03  1384   0.139E-01    0.350E-02
DAV:   3    -0.992548544620E+02    0.61461E-05   -0.58379E-05   832   0.166E-02
  80 F= -.99254854E+02 E0= -.99254854E+02  d E =-.861290E-03  mag=     2.0000
 trial-energy change:   -0.000861  1 .order   -0.000632   -0.000827   -0.000438
 step:  21.6328(harm= 21.6328)  dis= 0.00561  next Energy=   -99.254872 (dE=-0.879E-03)
 bond charge predicted
       N       E                     dE             d eps       ncg     rms          rms(c)
DAV:   1    -0.992548984755E+02   -0.37867E-04   -0.12519E+00  1320   0.168E+00    0.420E-02
DAV:   2    -0.992554416844E+02   -0.54321E-03   -0.53524E-03  1408   0.155E-01    0.416E-02
DAV:   3    -0.992554307512E+02    0.10933E-04   -0.67390E-05   832   0.177E-02
  81 F= -.99255431E+02 E0= -.99255431E+02  d E =-.143758E-02  mag=     2.0000
 curvature: -18.97 expect dE=-0.815E-03 dE for cont linesearch -0.706E-05
 trial: gam= 0.82750 g(F)=  0.429E-04 g(S)=  0.000E+00 ort = 0.728E-05 (trialstep = 0.116E+02)
 search vector abs. value=  0.153E-03
 bond charge predicted
       N       E                     dE             d eps       ncg     rms          rms(c)
DAV:   1    -0.992555383673E+02   -0.96683E-04   -0.13822E+00  1328   0.177E+00    0.373E-02
DAV:   2    -0.992561552912E+02   -0.61692E-03   -0.59854E-03  1392   0.164E-01    0.403E-02
DAV:   3    -0.992561483137E+02    0.69775E-05   -0.77680E-05   816   0.192E-02
  82 F= -.99256148E+02 E0= -.99256148E+02  d E =-.717563E-03  mag=     2.0000
 trial-energy change:   -0.000718  1 .order   -0.000435   -0.000570   -0.000299
 step:  24.5034(harm= 24.5034)  dis= 0.00815  next Energy=   -99.256031 (dE=-0.600E-03)
 bond charge predicted
       N       E                     dE             d eps       ncg     rms          rms(c)
DAV:   1    -0.992560059427E+02    0.14935E-03   -0.16857E+00  1320   0.195E+00    0.443E-02
DAV:   2    -0.992567470806E+02   -0.74114E-03   -0.72259E-03  1400   0.181E-01    0.482E-02
DAV:   3    -0.992567376749E+02    0.94057E-05   -0.92373E-05   808   0.208E-02
  83 F= -.99256738E+02 E0= -.99256738E+02  d E =-.130692E-02  mag=     2.0000
 curvature: -38.17 expect dE=-0.104E-02 dE for cont linesearch -0.169E-04
 trial: gam= 0.59070 g(F)=  0.272E-04 g(S)=  0.000E+00 ort = 0.822E-05 (trialstep = 0.142E+02)
 search vector abs. value=  0.902E-04
 bond charge predicted
       N       E                     dE             d eps       ncg     rms          rms(c)
DAV:   1    -0.992568632496E+02   -0.11617E-03   -0.12183E+00  1320   0.166E+00    0.373E-02
DAV:   2    -0.992574082244E+02   -0.54497E-03   -0.52346E-03  1368   0.153E-01    0.411E-02
DAV:   3    -0.992574017475E+02    0.64769E-05   -0.67345E-05   816   0.175E-02
  84 F= -.99257402E+02 E0= -.99257402E+02  d E =-.664073E-03  mag=     2.0000
 ZBRENT: can't locate minimum, use default step
 trial-energy change:   -0.000664  1 .order   -0.000407   -0.000456   -0.000357
 step:  56.8666(harm= 65.6240)  dis= 0.01509  next Energy=   -99.257790 (dE=-0.105E-02)
 bond charge predicted
       N       E                     dE             d eps       ncg     rms          rms(c)
DAV:   1    -0.992540639510E+02    0.33443E-02   -0.10932E+01  1312   0.496E+00    0.101E-01
DAV:   2    -0.992590570632E+02   -0.49931E-02   -0.47900E-02  1352   0.462E-01    0.111E-01
DAV:   3    -0.992590160416E+02    0.41022E-04   -0.71749E-04  1440   0.541E-02
  85 F= -.99259016E+02 E0= -.99259016E+02  d E =-.227837E-02  mag=     2.0000
 curvature: -89.56 expect dE=-0.930E-02 dE for cont linesearch -0.109E-02
 ZBRENT: increasing intervall
 opt : 142.1664  next Energy=   -99.262513 (dE=-0.578E-02)
 bond charge predicted
       N       E                     dE             d eps       ncg     rms          rms(c)
DAV:   1    -0.992398667596E+02    0.19190E-01   -0.43725E+01  1312   0.992E+00    0.213E-01
DAV:   2    -0.992595081841E+02   -0.19641E-01   -0.19016E-01  1376   0.922E-01    0.234E-01
DAV:   3    -0.992592817732E+02    0.22641E-03   -0.28314E-03  1456   0.107E-01    0.192E-01
DAV:   4    -0.992583682701E+02    0.91350E-03   -0.10293E-03  1376   0.518E-02    0.114E-01
DAV:   5    -0.992581348163E+02    0.23345E-03   -0.15585E-03  1400   0.618E-02    0.452E-02
DAV:   6    -0.992581532463E+02   -0.18430E-04   -0.18004E-05   840   0.780E-03
  86 F= -.99258153E+02 E0= -.99258153E+02  d E =-.141557E-02  mag=     2.0000
 curvature: ****** expect dE=-0.173E+00 dE for cont linesearch -0.250E-02
 ZBRENT: bracketing found
 ZBRENT: interpolating
 opt : 103.1062  next Energy=   -99.258699 (dE=-0.196E-02)
 bond charge predicted
       N       E                     dE             d eps       ncg     rms          rms(c)
DAV:   1    -0.992550499881E+02    0.30848E-02   -0.91635E+00  1312   0.454E+00    0.875E-02
DAV:   2    -0.992592575861E+02   -0.42076E-02   -0.40284E-02  1392   0.424E-01    0.974E-02
DAV:   3    -0.992592454890E+02    0.12097E-04   -0.61234E-04  1440   0.504E-02
  87 F= -.99259245E+02 E0= -.99259245E+02  d E =-.250781E-02  mag=     2.0000
 curvature: -63.06 expect dE=-0.187E-01 dE for cont linesearch -0.160E-03
 trial: gam= 0.00000 g(F)=  0.297E-03 g(S)=  0.000E+00 ort =-0.151E-04 (trialstep = 0.971E+01)
 search vector abs. value=  0.297E-03
 bond charge predicted
       N       E                     dE             d eps       ncg     rms          rms(c)
DAV:   1    -0.992598924641E+02   -0.63488E-03   -0.18911E+00  1328   0.204E+00    0.102E-01
DAV:   2    -0.992606656889E+02   -0.77322E-03   -0.82270E-03  1392   0.186E-01    0.698E-02
DAV:   3    -0.992606586151E+02    0.70738E-05   -0.16504E-04   912   0.251E-02
  88 F= -.99260659E+02 E0= -.99260659E+02  d E =-.141313E-02  mag=     2.0000
 trial-energy change:   -0.001413  1 .order   -0.001272   -0.002885    0.000340
 step:   8.6868(harm=  8.6868)  dis= 0.00518  next Energy=   -99.260536 (dE=-0.129E-02)
 bond charge predicted
       N       E                     dE             d eps       ncg     rms          rms(c)
DAV:   1    -0.992606488911E+02    0.16798E-04   -0.20349E-02  1376   0.211E-01    0.748E-03
DAV:   2    -0.992606664749E+02   -0.17584E-04   -0.77595E-05   872   0.205E-02
  89 F= -.99260666E+02 E0= -.99260666E+02  d E =-.142099E-02  mag=     2.0000
 curvature:  -4.34 expect dE=-0.198E-03 dE for cont linesearch -0.484E-04
 trial: gam=-0.04023 g(F)=  0.456E-04 g(S)=  0.000E+00 ort = 0.575E-04 (trialstep = 0.951E+01)
 search vector abs. value=  0.414E-04
 reached required accuracy - stopping structural energy minimisation
Application 91076675 resources: utime ~241508s, stime ~1255s, Rss ~72084, inblocks ~4325099, outblocks ~1786237
