46
Energy = -99.26066647 eV
Ag 14.472001733151403 10.347786270781565 7.547262176177545
Ag 12.60945160404103 8.85278567341654 9.084160632555982
Ag 14.97721439735592 9.777277298807338 10.25014208226452
Ag 12.651427326701857 6.898544302603194 11.120490285865287
Ag 15.493349413311575 12.45813059001164 9.200778347836291
Ag 14.056475530858018 13.095407753169651 6.866910167417967
Ag 10.133528243736968 9.768285627714175 8.224690466794373
Ag 10.239270770811576 8.230007776602099 10.59792188030177
Ag 13.077251085986253 7.440938562830803 13.85720175476034
Ag 9.550108659726217 12.445768655413056 8.047707529228397
Ag 15.021800962259324 9.356522138018391 13.102021359312628
Ag 12.304931499105493 11.69611460365595 8.662773506660832
Ag 7.9186547343209295 9.694850107071945 10.083250741195547
Ag 10.517871808346706 6.722322724881383 12.964902690724
Ag 16.334802254485016 11.648037007781458 11.838325312089497
Ag 10.304834353395622 11.235507898871385 10.669473659928666
Ag 13.998040920735555 14.873564334612395 8.994257131556104
Ag 11.59162812998356 14.246941800435621 7.626963589090283
Ag 12.546246410483514 9.588456283224032 11.84445341189902
Ag 13.658985832728519 12.169197476810933 11.234112804957146
Ag 7.657982044756327 12.520041596294668 10.062607834315378
Ag 10.805140439449804 7.9705944173068515 15.508247518969482
Ag 8.024724787869259 8.10909552216344 12.409672873283828
Ag 10.252647847553591 9.72321337650786 13.329205934210504
Ag 14.473483972552001 12.005112040898336 13.920705277572878
Ag 11.693676769518506 13.912001409142661 10.544444179205318
Ag 11.634866336476087 16.54595898344309 9.17542715219703
Ag 9.281818308923805 14.823329898025241 9.508936078555175
Ag 8.433785445398538 6.716697697524413 14.778966835751726
Ag 12.78408996575488 10.013500084308815 14.83307190039825
Ag 9.12919519084821 13.655155463756989 12.126333903714762
Ag 15.447010731584692 14.388356755518547 11.434718717981385
Ag 11.556479009635183 12.196526973515544 12.990250016425623
Ag 7.901960021302667 11.04221539447019 12.546141158205875
Ag 8.226116843616905 9.528266321612772 15.122380035997935
Ag 10.573516933162074 16.14596698110299 11.75717651624448
Ag 10.593083930328087 10.598361456391808 16.44048294039561
Ag 13.556482834523916 16.575629335332636 11.142658991173835
Ag 13.220018709444984 14.481981348178667 13.14384904511325
Ag 15.25117993591642 14.33442575106817 15.138331868410033
Ag 12.28713925380738 12.78765268889756 15.639050914967534
Ag 9.312892811798651 12.262611091492573 14.648821622749283
Ag 15.169344926198653 16.504082622282482 13.393101143257978
Ag 10.633747842401824 14.745422126954589 14.22846290852099
Ag 12.336492203942244 17.188113306154982 13.605905647663203
Ag 12.878815070921906 15.547690774905796 15.786806867062735
