   41   41 1000    2
  0.3114057E+03  0.2337241E-08  0.2337241E-08  0.2337241E-08  0.1000000E-15
  1.000000000000000E-004
  CAR 
 unknown system                          
    451      1    292
 
  0.0000000E+00  0.0000000E+00  0.0000000E+00  0.1000000E+01
    1       -9.790803     -9.776472
    2       -9.223587     -9.215479
    3       -9.171616     -9.162310
    4       -9.150163     -9.141932
    5       -9.129360     -9.120896
    6       -9.096107     -9.086256
    7       -9.068388     -9.061463
    8       -9.043033     -9.030675
    9       -9.022867     -9.011139
   10       -9.016511     -9.006751
   11       -8.974327     -8.966065
   12       -8.964778     -8.952442
   13       -8.921110     -8.911410
   14       -8.886193     -8.875822
   15       -8.857294     -8.847704
   16       -8.848049     -8.838089
   17       -8.838287     -8.825353
   18       -8.822557     -8.813565
   19       -8.778752     -8.769216
   20       -8.772649     -8.763447
   21       -8.753184     -8.745080
   22       -8.732272     -8.720198
   23       -8.715330     -8.704357
   24       -8.698491     -8.691113
   25       -8.684850     -8.675320
   26       -8.683874     -8.673756
   27       -8.665859     -8.656585
   28       -8.657697     -8.648671
   29       -8.643329     -8.631401
   30       -8.594458     -8.587715
   31       -8.590531     -8.581204
   32       -8.574343     -8.564190
   33       -8.557360     -8.547655
   34       -8.537391     -8.529251
   35       -8.524638     -8.516532
   36       -8.507661     -8.501172
   37       -8.491693     -8.483118
   38       -8.463230     -8.454080
   39       -8.454236     -8.442870
   40       -8.446325     -8.437422
   41       -8.421426     -8.413722
   42       -8.404521     -8.396932
   43       -8.382930     -8.372190
   44       -8.369646     -8.363216
   45       -8.361417     -8.353685
   46       -8.335783     -8.327150
   47       -8.313184     -8.304916
   48       -8.299490     -8.291494
   49       -8.281359     -8.274463
   50       -8.277090     -8.268539
   51       -8.269813     -8.262273
   52       -8.240245     -8.233714
   53       -8.228726     -8.221027
   54       -8.206905     -8.198559
   55       -8.196049     -8.186943
   56       -8.193873     -8.185430
   57       -8.166172     -8.158625
   58       -8.161956     -8.152857
   59       -8.136597     -8.128876
   60       -8.133370     -8.126289
   61       -8.114505     -8.106027
   62       -8.110457     -8.101624
   63       -8.094064     -8.086175
   64       -8.074215     -8.066459
   65       -8.069334     -8.061010
   66       -8.058819     -8.051364
   67       -8.041766     -8.033852
   68       -8.026436     -8.020226
   69       -8.004985     -7.997358
   70       -7.999832     -7.991682
   71       -7.958501     -7.947731
   72       -7.945363     -7.938301
   73       -7.931762     -7.924379
   74       -7.903154     -7.894300
   75       -7.890553     -7.883032
   76       -7.871807     -7.865264
   77       -7.863140     -7.854580
   78       -7.838669     -7.832059
   79       -7.819284     -7.814019
   80       -7.811314     -7.804088
   81       -7.805520     -7.797805
   82       -7.787669     -7.781891
   83       -7.765476     -7.759428
   84       -7.744048     -7.736293
   85       -7.740376     -7.733684
   86       -7.725983     -7.718539
   87       -7.714205     -7.707131
   88       -7.696234     -7.688411
   89       -7.686593     -7.679274
   90       -7.666753     -7.660151
   91       -7.660091     -7.653185
   92       -7.637247     -7.630347
   93       -7.632167     -7.625454
   94       -7.617381     -7.609869
   95       -7.594209     -7.585507
   96       -7.572237     -7.564439
   97       -7.556671     -7.549308
   98       -7.544659     -7.538325
   99       -7.513539     -7.507163
  100       -7.509624     -7.504389
  101       -7.491627     -7.483612
  102       -7.476417     -7.470192
  103       -7.448820     -7.441899
  104       -7.439005     -7.431006
  105       -7.420698     -7.413267
  106       -7.410158     -7.401128
  107       -7.396134     -7.387508
  108       -7.373190     -7.366541
  109       -7.365558     -7.358319
  110       -7.349189     -7.343111
  111       -7.324827     -7.318007
  112       -7.312104     -7.305011
  113       -7.298973     -7.291067
  114       -7.292622     -7.284599
  115       -7.265734     -7.259496
  116       -7.256981     -7.248863
  117       -7.251038     -7.243611
  118       -7.249239     -7.240809
  119       -7.228970     -7.219140
  120       -7.222803     -7.213538
  121       -7.206106     -7.198651
  122       -7.180768     -7.173122
  123       -7.159181     -7.153287
  124       -7.152065     -7.146050
  125       -7.134262     -7.124414
  126       -7.120217     -7.113647
  127       -7.115256     -7.105146
  128       -7.108143     -7.100248
  129       -7.093904     -7.088198
  130       -7.088024     -7.081628
  131       -7.070263     -7.063542
  132       -7.062262     -7.056488
  133       -7.052340     -7.045482
  134       -7.042199     -7.034042
  135       -7.033009     -7.025541
  136       -7.026975     -7.018442
  137       -7.015902     -7.008347
  138       -7.009930     -7.001447
  139       -6.993955     -6.986008
  140       -6.982590     -6.975953
  141       -6.956443     -6.949933
  142       -6.947795     -6.942483
  143       -6.934123     -6.927089
  144       -6.922502     -6.915774
  145       -6.912721     -6.906144
  146       -6.908780     -6.901804
  147       -6.903862     -6.897370
  148       -6.887994     -6.879080
  149       -6.872911     -6.866933
  150       -6.865110     -6.857319
  151       -6.860915     -6.855123
  152       -6.847053     -6.840309
  153       -6.840251     -6.832916
  154       -6.826793     -6.821315
  155       -6.824001     -6.818212
  156       -6.816454     -6.810629
  157       -6.802033     -6.794880
  158       -6.792128     -6.785503
  159       -6.783798     -6.777670
  160       -6.764409     -6.757825
  161       -6.759277     -6.754563
  162       -6.750395     -6.744519
  163       -6.740237     -6.733804
  164       -6.723836     -6.716595
  165       -6.715534     -6.710674
  166       -6.707712     -6.702163
  167       -6.699697     -6.692102
  168       -6.680856     -6.673508
  169       -6.673808     -6.668903
  170       -6.662255     -6.656273
  171       -6.640561     -6.632397
  172       -6.633564     -6.627401
  173       -6.628632     -6.619906
  174       -6.621760     -6.616738
  175       -6.618894     -6.613089
  176       -6.601001     -6.595439
  177       -6.590886     -6.585079
  178       -6.587793     -6.578533
  179       -6.576444     -6.570655
  180       -6.569219     -6.563229
  181       -6.561562     -6.555962
  182       -6.547259     -6.542914
  183       -6.534628     -6.529695
  184       -6.523758     -6.517276
  185       -6.512557     -6.506206
  186       -6.496884     -6.488991
  187       -6.482037     -6.476027
  188       -6.477213     -6.471164
  189       -6.460657     -6.455047
  190       -6.453550     -6.447676
  191       -6.444430     -6.437071
  192       -6.440465     -6.433233
  193       -6.422041     -6.414696
  194       -6.407767     -6.402535
  195       -6.405695     -6.398216
  196       -6.398631     -6.392449
  197       -6.389817     -6.383003
  198       -6.364075     -6.357591
  199       -6.350583     -6.344536
  200       -6.344377     -6.338406
  201       -6.321355     -6.312995
  202       -6.306603     -6.302621
  203       -6.292911     -6.284392
  204       -6.280884     -6.273799
  205       -6.267339     -6.252440
  206       -6.243986     -6.238624
  207       -6.240268     -6.232738
  208       -6.215533     -6.209343
  209       -6.205405     -6.197318
  210       -6.139909     -6.132543
  211       -6.021846     -6.008265
  212       -5.918354     -5.909677
  213       -5.780140     -5.767791
  214       -5.720434     -5.705933
  215       -5.425766     -5.414097
  216       -5.048684     -5.009707
  217       -4.857029     -4.834525
  218       -4.678827     -4.653652
  219       -4.410226     -4.392828
  220       -4.345120     -4.326500
  221       -4.252542     -4.236940
  222       -4.190886     -4.173231
  223       -4.065178     -4.047980
  224       -3.711417     -3.691033
  225       -3.528197     -3.503846
  226       -3.372571     -3.292829
  227       -3.206240     -3.184497
  228       -3.092684     -3.072504
  229       -2.883040     -2.859545
  230       -2.803019     -2.782772
  231       -2.655765     -2.638061
  232       -2.590316     -2.561616
  233       -2.539504     -2.519281
  234       -2.360548     -2.342721
  235       -2.257012     -2.236964
  236       -2.214079     -2.200619
  237       -2.119952     -2.096478
  238       -2.044197     -2.028045
  239       -1.971571     -1.952757
  240       -1.801973     -1.733499
  241       -1.627970     -1.605864
  242       -1.515113     -1.479374
  243       -1.430995     -1.387714
  244       -1.333540     -1.305639
  245       -1.246811     -1.216581
  246       -1.085009     -1.048492
  247       -0.959086     -0.932734
  248       -0.886993     -0.865919
  249       -0.824132     -0.793160
  250       -0.780801     -0.760088
  251       -0.708121     -0.691887
  252       -0.671341     -0.656741
  253       -0.628500     -0.608616
  254       -0.530519     -0.514040
  255       -0.331639     -0.311379
  256       -0.288083     -0.265817
  257       -0.227987     -0.182514
  258       -0.163056     -0.147789
  259       -0.145179     -0.120707
  260       -0.012390      0.045826
  261        0.046549      0.076052
  262        0.110269      0.126677
  263        0.298592      0.323820
  264        0.428546      0.467834
  265        0.496923      0.510842
  266        0.568289      0.593589
  267        0.612973      0.631423
  268        0.659575      0.670768
  269        0.679701      0.699498
  270        0.726216      0.751370
  271        0.762199      0.766850
  272        0.793205      0.810875
  273        0.809601      0.826732
  274        0.859244      0.864699
  275        0.874176      0.888484
  276        0.897571      0.922341
  277        0.940951      0.943857
  278        0.971618      0.979119
  279        0.986462      1.003401
  280        0.999454      1.016529
  281        1.009390      1.019709
  282        1.020394      1.026852
  283        1.030109      1.051194
  284        1.071998      1.079180
  285        1.088741      1.102025
  286        1.095507      1.105114
  287        1.145925      1.160886
  288        1.177300      1.192317
  289        1.195058      1.210743
  290        1.231112      1.244345
  291        1.275496      1.288673
  292        1.280775      1.297481
