<?xml version="1.0" encoding="ISO-8859-1"?>
<modeling>
 <generator>
  <i name="program" type="string">vasp </i>
  <i name="version" type="string">5.3.5  </i>
  <i name="subversion" type="string">31Mar14 (build Feb 01 2018 12:10:03) gamma-only                       parallel </i>
  <i name="platform" type="string">LinuxIFC </i>
  <i name="date" type="string">2019 03 22 </i>
  <i name="time" type="string">09:30:08 </i>
 </generator>
 <incar>
  <i type="string" name="PREC">normal</i>
  <i type="int" name="ISPIN">     2</i>
  <i type="int" name="IBRION">     2</i>
  <i type="int" name="NSW">  1000</i>
  <i type="int" name="ISIF">     2</i>
  <i name="POTIM">      0.10000000</i>
  <i type="logical" name="LPLANE"> T  </i>
  <i type="int" name="ISMEAR">     0</i>
  <i name="SIGMA">      0.00010000</i>
  <i type="logical" name="LWAVE"> F  </i>
  <i type="logical" name="LCHARG"> F  </i>
  <i type="logical" name="LVTOT"> F  </i>
  <i type="string" name="GGA"> PE</i>
 </incar>
 <kpoints>
  <varray name="kpointlist" >
   <v>       0.00000000       0.00000000       0.00000000 </v>
  </varray>
  <varray name="weights" >
   <v>       1.00000000 </v>
  </varray>
 </kpoints>
 <parameters>
  <separator name="general" >
   <i type="string" name="SYSTEM">unknown system</i>
   <i type="logical" name="LCOMPAT"> F  </i>
  </separator>
  <separator name="electronic" >
   <i type="string" name="PREC">normal</i>
   <i name="ENMAX">    249.84400000</i>
   <i name="ENAUG">    412.49600000</i>
   <i name="EDIFF">      0.00010000</i>
   <i type="int" name="IALGO">    38</i>
   <i type="int" name="IWAVPR">    11</i>
   <i type="int" name="NBANDS">   208</i>
   <i name="NELECT">    319.00000000</i>
   <i type="int" name="TURBO">     0</i>
   <i type="int" name="IRESTART">     0</i>
   <i type="int" name="NREBOOT">     0</i>
   <i type="int" name="NMIN">     0</i>
   <i name="EREF">      0.00000000</i>
   <separator name="electronic smearing" >
    <i type="int" name="ISMEAR">     0</i>
    <i name="SIGMA">      0.00010000</i>
    <i name="KSPACING">      0.50000000</i>
    <i type="logical" name="KGAMMA"> T  </i>
   </separator>
   <separator name="electronic projectors" >
    <i type="logical" name="LREAL"> F  </i>
    <v name="ROPT">      0.00000000</v>
    <i type="int" name="LMAXPAW">  -100</i>
    <i type="int" name="LMAXMIX">     2</i>
    <i type="logical" name="NLSPLINE"> F  </i>
   </separator>
   <separator name="electronic startup" >
    <i type="int" name="ISTART">     0</i>
    <i type="int" name="ICHARG">     2</i>
    <i type="int" name="INIWAV">     1</i>
   </separator>
   <separator name="electronic spin" >
    <i type="int" name="ISPIN">     2</i>
    <i type="logical" name="LNONCOLLINEAR"> F  </i>
    <v name="MAGMOM">      1.00000000      1.00000000      1.00000000      1.00000000      1.00000000      1.00000000      1.00000000      1.00000000      1.00000000      1.00000000      1.00000000      1.00000000      1.00000000      1.00000000      1.00000000      1.00000000      1.00000000      1.00000000      1.00000000      1.00000000
      1.00000000      1.00000000      1.00000000      1.00000000      1.00000000      1.00000000      1.00000000      1.00000000      1.00000000</v>
    <i name="NUPDOWN">     -1.00000000</i>
    <i type="logical" name="LSORBIT"> F  </i>
    <v name="SAXIS">      0.00000000      0.00000000      1.00000000</v>
    <i type="logical" name="LSPIRAL"> F  </i>
    <v name="QSPIRAL">      0.00000000      0.00000000      0.00000000</v>
    <i type="logical" name="LZEROZ"> F  </i>
   </separator>
   <separator name="electronic exchange-correlation" >
    <i type="logical" name="LASPH"> F  </i>
    <i type="logical" name="LMETAGGA"> F  </i>
   </separator>
   <separator name="electronic convergence" >
    <i type="int" name="NELM">    60</i>
    <i type="int" name="NELMDL">    -5</i>
    <i type="int" name="NELMIN">     2</i>
    <i name="ENINI">    249.84400000</i>
    <separator name="electronic convergence detail" >
     <i type="logical" name="LDIAG"> T  </i>
     <i type="logical" name="LSUBROT"> F  </i>
     <i name="WEIMIN">      0.00100000</i>
     <i name="EBREAK">      0.00000012</i>
     <i name="DEPER">      0.30000000</i>
     <i type="int" name="NRMM">     4</i>
     <i name="TIME">      0.40000000</i>
    </separator>
   </separator>
   <separator name="electronic mixer" >
    <i name="AMIX">      0.40000000</i>
    <i name="BMIX">      1.00000000</i>
    <i name="AMIN">      0.10000000</i>
    <i name="AMIX_MAG">      1.60000000</i>
    <i name="BMIX_MAG">      1.00000000</i>
    <separator name="electronic mixer details" >
     <i type="int" name="IMIX">     4</i>
     <i type="int" name="MAXMIX">   -45</i>
     <i name="WC">    100.00000000</i>
     <i type="int" name="INIMIX">     1</i>
     <i type="int" name="MIXPRE">     1</i>
     <i type="int" name="MREMOVE">     5</i>
    </separator>
   </separator>
   <separator name="electronic dipolcorrection" >
    <i type="logical" name="LDIPOL"> F  </i>
    <i type="logical" name="LMONO"> F  </i>
    <i type="int" name="IDIPOL">     0</i>
    <i name="EPSILON">      1.00000000</i>
    <v name="DIPOL">   -100.00000000   -100.00000000   -100.00000000</v>
    <i name="EFIELD">      0.00000000</i>
   </separator>
  </separator>
  <separator name="grids" >
   <i type="int" name="NGX">    84</i>
   <i type="int" name="NGY">    84</i>
   <i type="int" name="NGZ">    84</i>
   <i type="int" name="NGXF">   168</i>
   <i type="int" name="NGYF">   168</i>
   <i type="int" name="NGZF">   168</i>
   <i type="logical" name="ADDGRID"> F  </i>
  </separator>
  <separator name="ionic" >
   <i type="int" name="NSW">  1000</i>
   <i type="int" name="IBRION">     2</i>
   <i type="int" name="ISIF">     2</i>
   <i name="PSTRESS">      0.00000000</i>
   <i name="EDIFFG">      0.00100000</i>
   <i type="int" name="NFREE">     1</i>
   <i name="POTIM">      0.10000000</i>
   <i name="SMASS">     -3.00000000</i>
   <i name="SCALEE">      1.00000000</i>
  </separator>
  <separator name="ionic md" >
   <i name="TEBEG">      0.00010000</i>
   <i name="TEEND">      0.00010000</i>
   <i type="int" name="NBLOCK">     1</i>
   <i type="int" name="KBLOCK">  1000</i>
   <i type="int" name="NPACO">   256</i>
   <i name="APACO">     16.00000000</i>
  </separator>
  <separator name="symmetry" >
   <i type="int" name="ISYM">     2</i>
   <i name="SYMPREC">      0.00001000</i>
  </separator>
  <separator name="dos" >
   <i type="logical" name="LORBIT"> F  </i>
   <v name="RWIGS">     -1.00000000</v>
   <i type="int" name="NEDOS">   301</i>
   <i name="EMIN">     10.00000000</i>
   <i name="EMAX">    -10.00000000</i>
   <i name="EFERMI">      0.00000000</i>
  </separator>
  <separator name="writing" >
   <i type="int" name="NWRITE">     2</i>
   <i type="logical" name="LWAVE"> F  </i>
   <i type="logical" name="LCHARG"> F  </i>
   <i type="logical" name="LPARD"> F  </i>
   <i type="logical" name="LVTOT"> F  </i>
   <i type="logical" name="LVHAR"> F  </i>
   <i type="logical" name="LELF"> F  </i>
   <i type="logical" name="LOPTICS"> F  </i>
   <v name="STM">      0.00000000      0.00000000      0.00000000      0.00000000      0.00000000      0.00000000      0.00000000</v>
  </separator>
  <separator name="performance" >
   <i type="int" name="NPAR">     4</i>
   <i type="int" name="NSIM">     4</i>
   <i type="int" name="NBLK">    -1</i>
   <i type="logical" name="LPLANE"> T  </i>
   <i type="logical" name="LSCALAPACK"> T  </i>
   <i type="logical" name="LSCAAWARE"> F  </i>
   <i type="logical" name="LSCALU"> F  </i>
   <i type="logical" name="LASYNC"> F  </i>
   <i type="logical" name="LORBITALREAL"> F  </i>
  </separator>
  <separator name="miscellaneous" >
   <i type="int" name="IDIOT">     3</i>
   <i type="logical" name="LMUSIC"> F  </i>
   <v name="POMASS">    107.86800000</v>
   <v name="DARWINR">      0.00000000</v>
   <v name="DARWINV">      1.00000000</v>
   <i type="logical" name="LCORR"> T  </i>
  </separator>
  <i type="logical" name="GGA_COMPAT"> T  </i>
  <i type="logical" name="LBERRY"> F  </i>
  <i type="int" name="ICORELEVEL">     0</i>
  <i type="logical" name="LDAU"> F  </i>
  <i type="int" name="I_CONSTRAINED_M">     0</i>
  <separator name="electronic exchange-correlation" >
   <i type="string" name="GGA">PE</i>
   <i type="int" name="VOSKOWN">     0</i>
   <i type="logical" name="LHFCALC"> F  </i>
   <i type="string" name="PRECFOCK"></i>
   <i type="logical" name="LSYMGRAD"> F  </i>
   <i type="logical" name="LHFONE"> F  </i>
   <i type="logical" name="LRHFCALC"> F  </i>
   <i type="logical" name="LTHOMAS"> F  </i>
   <i type="logical" name="LMODELHF"> F  </i>
   <i name="ENCUT4O">     -1.00000000</i>
   <i type="int" name="EXXOEP">     0</i>
   <i type="int" name="FOURORBIT">     0</i>
   <i name="AEXX">      0.00000000</i>
   <i name="HFALPHA">      0.00000000</i>
   <i name="MCALPHA">      0.00000000</i>
   <i name="ALDAX">      1.00000000</i>
   <i name="AGGAX">      1.00000000</i>
   <i name="ALDAC">      1.00000000</i>
   <i name="AGGAC">      1.00000000</i>
   <i type="int" name="NKREDX">     1</i>
   <i type="int" name="NKREDY">     1</i>
   <i type="int" name="NKREDZ">     1</i>
   <i type="logical" name="SHIFTRED"> F  </i>
   <i type="logical" name="ODDONLY"> F  </i>
   <i type="logical" name="EVENONLY"> F  </i>
   <i type="int" name="LMAXFOCK">     0</i>
   <i type="int" name="NMAXFOCKAE">     0</i>
   <i type="logical" name="LFOCKAEDFT"> F  </i>
   <i name="HFSCREEN">      0.00000000</i>
   <i name="HFSCREENC">      0.00000000</i>
   <i type="int" name="NBANDSGWLOW">     0</i>
  </separator>
  <separator name="vdW DFT" >
   <i type="logical" name="LUSE_VDW"> F  </i>
   <i name="Zab_VDW">     -0.84910000</i>
   <i name="PARAM1">      0.12340000</i>
   <i name="PARAM2">      1.00000000</i>
   <i name="PARAM3">      0.00000000</i>
  </separator>
  <separator name="model GW" >
   <i type="int" name="MODEL_GW">     0</i>
   <i name="MODEL_EPS0">    190.88867701</i>
   <i name="MODEL_ALPHA">      1.00000000</i>
  </separator>
  <separator name="linear response parameters" >
   <i type="logical" name="LEPSILON"> F  </i>
   <i type="logical" name="LRPA"> F  </i>
   <i type="logical" name="LNABLA"> F  </i>
   <i type="logical" name="LVEL"> F  </i>
   <i type="int" name="KINTER">     0</i>
   <i name="CSHIFT">      0.10000000</i>
   <i name="OMEGAMAX">     -1.00000000</i>
   <i name="DEG_THRESHOLD">      0.00200000</i>
  </separator>
  <separator name="orbital magnetization" >
   <i type="logical" name="NUCIND"> F  </i>
   <v name="MAGPOS">      0.00000000      0.00000000      0.00000000</v>
   <i type="logical" name="LNICSALL"> T  </i>
   <i type="logical" name="ORBITALMAG"> F  </i>
   <i type="logical" name="LMAGBLOCH"> F  </i>
   <i type="logical" name="LCHIMAG"> F  </i>
   <i type="logical" name="LGAUGE"> T  </i>
   <i type="int" name="MAGATOM">     0</i>
   <v name="MAGDIPOL">      0.00000000      0.00000000      0.00000000</v>
   <v name="AVECCONST">      0.00000000      0.00000000      0.00000000</v>
  </separator>
  <separator name="response functions" >
   <i type="logical" name="LADDER"> F  </i>
   <i type="logical" name="LFXC"> F  </i>
   <i type="logical" name="LHARTREE"> T  </i>
   <i type="int" name="IBSE">     0</i>
   <i type="logical" name="LTCTE"> F  </i>
   <i type="logical" name="LTETE"> F  </i>
   <i type="logical" name="LTRIPLET"> F  </i>
   <i type="logical" name="LFXCEPS"> F  </i>
   <i type="logical" name="LFXHEG"> F  </i>
   <i type="logical" name="L2ORDER"> F  </i>
   <i type="logical" name="LUSEW"> F  </i>
   <i name="ENCUTGW">     -2.00000000</i>
   <i name="ENCUTGWSOFT">     -2.00000000</i>
   <i name="ENCUTLF">     -1.00000000</i>
   <i type="int" name="LMAXMP2">    -1</i>
   <i name="SCISSOR">      0.00000000</i>
   <i type="int" name="NOMEGA">     0</i>
   <i type="int" name="NOMEGAR">     0</i>
   <i type="int" name="NBANDSGW">    -1</i>
   <i type="int" name="NBANDSO">    -1</i>
   <i type="int" name="NBANDSV">    -1</i>
   <i type="int" name="NELM">     1</i>
   <i type="int" name="DIM">     3</i>
   <i type="int" name="ANTIRES">     0</i>
   <i name="OMEGAMAX">    -30.00000000</i>
   <i name="OMEGAMIN">    -30.00000000</i>
   <i name="OMEGATL">   -200.00000000</i>
   <i type="int" name="OMEGAGRID">     0</i>
   <i name="CSHIFT">     -0.10000000</i>
   <i type="logical" name="SELFENERGY"> F  </i>
   <i type="logical" name="LSPECTRAL"> F  </i>
   <i type="logical" name="ODDONLYGW"> F  </i>
   <i type="logical" name="EVENONLYGW"> F  </i>
   <i type="int" name="NKREDLFX">     1</i>
   <i type="int" name="NKREDLFY">     1</i>
   <i type="int" name="NKREDLFZ">     1</i>
   <i type="int" name="MAXMEM">  1800</i>
   <i type="int" name="TELESCOPE">     0</i>
   <i type="int" name="TAUPAR">     1</i>
  </separator>
  <separator name="External order field" >
   <i name="OFIELD_KAPPA">      0.00000000</i>
   <v name="OFIELD_K">      0.00000000      0.00000000      0.00000000</v>
   <i name="OFIELD_Q6_NEAR">      0.00000000</i>
   <i name="OFIELD_Q6_FAR">      0.00000000</i>
   <i name="OFIELD_A">      0.00000000</i>
  </separator>
 </parameters>
 <atominfo>
  <atoms>      29 </atoms>
  <types>       1 </types>
  <array name="atoms" >
   <dimension dim="1">ion</dimension>
   <field type="string">element</field>
   <field type="int">atomtype</field>
   <set>
    <rc><c>Ag</c><c>   1</c></rc>
    <rc><c>Ag</c><c>   1</c></rc>
    <rc><c>Ag</c><c>   1</c></rc>
    <rc><c>Ag</c><c>   1</c></rc>
    <rc><c>Ag</c><c>   1</c></rc>
    <rc><c>Ag</c><c>   1</c></rc>
    <rc><c>Ag</c><c>   1</c></rc>
    <rc><c>Ag</c><c>   1</c></rc>
    <rc><c>Ag</c><c>   1</c></rc>
    <rc><c>Ag</c><c>   1</c></rc>
    <rc><c>Ag</c><c>   1</c></rc>
    <rc><c>Ag</c><c>   1</c></rc>
    <rc><c>Ag</c><c>   1</c></rc>
    <rc><c>Ag</c><c>   1</c></rc>
    <rc><c>Ag</c><c>   1</c></rc>
    <rc><c>Ag</c><c>   1</c></rc>
    <rc><c>Ag</c><c>   1</c></rc>
    <rc><c>Ag</c><c>   1</c></rc>
    <rc><c>Ag</c><c>   1</c></rc>
    <rc><c>Ag</c><c>   1</c></rc>
    <rc><c>Ag</c><c>   1</c></rc>
    <rc><c>Ag</c><c>   1</c></rc>
    <rc><c>Ag</c><c>   1</c></rc>
    <rc><c>Ag</c><c>   1</c></rc>
    <rc><c>Ag</c><c>   1</c></rc>
    <rc><c>Ag</c><c>   1</c></rc>
    <rc><c>Ag</c><c>   1</c></rc>
    <rc><c>Ag</c><c>   1</c></rc>
    <rc><c>Ag</c><c>   1</c></rc>
   </set>
  </array>
  <array name="atomtypes" >
   <dimension dim="1">type</dimension>
   <field type="int">atomspertype</field>
   <field type="string">element</field>
   <field>mass</field>
   <field>valence</field>
   <field type="string">pseudopotential</field>
   <set>
    <rc><c>  29</c><c>Ag</c><c>    107.86800000</c><c>     11.00000000</c><c>  PAW_PBE Ag 02Apr2005                  </c></rc>
   </set>
  </array>
 </atominfo>
 <structure name="initialpos" >
  <crystal>
   <varray name="basis" >
    <v>      20.97372834       0.00000000       0.00000000 </v>
    <v>       0.00000000      20.97372834       0.00000000 </v>
    <v>       0.00000000       0.00000000      20.97372834 </v>
   </varray>
   <i name="volume">   9226.28605534 </i>
   <varray name="rec_basis" >
    <v>       0.04767870       0.00000000       0.00000000 </v>
    <v>       0.00000000       0.04767870       0.00000000 </v>
    <v>       0.00000000       0.00000000       0.04767870 </v>
   </varray>
  </crystal>
  <varray name="positions" >
   <v>       0.60289253       0.69831522       0.36307312 </v>
   <v>       0.57954045       0.56434167       0.35475047 </v>
   <v>       0.47589735       0.64933111       0.37000652 </v>
   <v>       0.54589463       0.44057696       0.36297918 </v>
   <v>       0.66289976       0.61420719       0.45223678 </v>
   <v>       0.54635295       0.67016651       0.48490189 </v>
   <v>       0.61551802       0.48957154       0.46148459 </v>
   <v>       0.44351466       0.51850404       0.32809061 </v>
   <v>       0.49186806       0.54356571       0.45610429 </v>
   <v>       0.56249340       0.36453385       0.47312432 </v>
   <v>       0.36341792       0.60067608       0.41474282 </v>
   <v>       0.70960039       0.53549701       0.54323200 </v>
   <v>       0.58130920       0.56735724       0.56241404 </v>
   <v>       0.43953766       0.41913374       0.43073706 </v>
   <v>       0.32850209       0.47691101       0.39258699 </v>
   <v>       0.42218191       0.64272890       0.52093654 </v>
   <v>       0.50382672       0.45436263       0.55085849 </v>
   <v>       0.51274607       0.66755995       0.61557292 </v>
   <v>       0.43896939       0.33479628       0.52911806 </v>
   <v>       0.63468189       0.42509069       0.57030032 </v>
   <v>       0.31938159       0.38867306       0.49432927 </v>
   <v>       0.55204774       0.56173667       0.69137988 </v>
   <v>       0.54172553       0.33773113       0.60650783 </v>
   <v>       0.37456669       0.51293354       0.51435680 </v>
   <v>       0.44597180       0.55267831       0.61613257 </v>
   <v>       0.66967827       0.51607657       0.66435297 </v>
   <v>       0.60311080       0.40824209       0.70202953 </v>
   <v>       0.38251665       0.42900271       0.61395570 </v>
   <v>       0.48062006       0.44880625       0.69195875 </v>
  </varray>
 </structure>
 <calculation>
  <scstep>
   <time name="dav">    3.58    3.58</time>
   <time name="total">    3.88    6.63</time>
   <energy>
    <i name="alphaZ">     77.53240597 </i>
    <i name="ewald">  61432.22050489 </i>
    <i name="hartreedc"> -90308.58886527 </i>
    <i name="XCdc">   -317.67685210 </i>
    <i name="pawpsdc">  29097.79316402 </i>
    <i name="pawaedc"> -27760.67365749 </i>
    <i name="eentropy">     -0.00000000 </i>
    <i name="bandstr">    462.22141570 </i>
    <i name="atom">  30078.76027250 </i>
    <i name="e_fr_energy">   2761.58838823 </i>
    <i name="e_wo_entrp">   2761.58838823 </i>
    <i name="e_0_energy">   2761.58838823 </i>
   </energy>
  </scstep>
  <scstep>
   <time name="dav">    5.52    5.52</time>
   <time name="total">    5.52    5.53</time>
   <energy>
    <i name="e_fr_energy">    555.54360466 </i>
    <i name="e_wo_entrp">    555.54360466 </i>
    <i name="e_0_energy">    555.54360466 </i>
   </energy>
  </scstep>
  <scstep>
   <time name="dav">    4.41    4.41</time>
   <time name="total">    4.41    5.11</time>
   <energy>
    <i name="e_fr_energy">    -31.91470063 </i>
    <i name="e_wo_entrp">    -31.91470063 </i>
    <i name="e_0_energy">    -31.91470063 </i>
   </energy>
  </scstep>
  <scstep>
   <time name="dav">    3.86    3.86</time>
   <time name="total">    3.86    3.87</time>
   <energy>
    <i name="e_fr_energy">    -59.92086792 </i>
    <i name="e_wo_entrp">    -59.92086792 </i>
    <i name="e_0_energy">    -59.92086792 </i>
   </energy>
  </scstep>
  <scstep>
   <time name="dav">    3.97    3.97</time>
   <time name="total">    4.12    4.12</time>
   <energy>
    <i name="e_fr_energy">    -60.32216678 </i>
    <i name="e_wo_entrp">    -60.32216678 </i>
    <i name="e_0_energy">    -60.32216678 </i>
   </energy>
  </scstep>
  <scstep>
   <time name="dav">    3.65    3.66</time>
   <time name="total">    4.09    4.10</time>
   <energy>
    <i name="e_fr_energy">    -26.76412916 </i>
    <i name="e_wo_entrp">    -26.76412916 </i>
    <i name="e_0_energy">    -26.76412916 </i>
   </energy>
  </scstep>
  <scstep>
   <time name="dav">    3.87    3.87</time>
   <time name="total">    4.31    4.31</time>
   <energy>
    <i name="e_fr_energy">    -18.81694621 </i>
    <i name="e_wo_entrp">    -18.81694621 </i>
    <i name="e_0_energy">    -18.81694621 </i>
   </energy>
  </scstep>
  <scstep>
   <time name="dav">    3.77    3.77</time>
   <time name="total">    4.21    4.24</time>
   <energy>
    <i name="e_fr_energy">    -14.96479075 </i>
    <i name="e_wo_entrp">    -14.96479075 </i>
    <i name="e_0_energy">    -14.96479075 </i>
   </energy>
  </scstep>
  <scstep>
   <time name="dav">    3.79    3.79</time>
   <time name="total">    4.23    4.29</time>
   <energy>
    <i name="e_fr_energy">    -20.96111865 </i>
    <i name="e_wo_entrp">    -20.96111865 </i>
    <i name="e_0_energy">    -20.96111865 </i>
   </energy>
  </scstep>
  <scstep>
   <time name="dav">    3.67    3.67</time>
   <time name="total">    4.11    4.12</time>
   <energy>
    <i name="e_fr_energy">    -31.78473439 </i>
    <i name="e_wo_entrp">    -31.78473439 </i>
    <i name="e_0_energy">    -31.78473439 </i>
   </energy>
  </scstep>
  <scstep>
   <time name="dav">    3.68    3.68</time>
   <time name="total">    4.12    5.59</time>
   <energy>
    <i name="e_fr_energy">    -43.12036628 </i>
    <i name="e_wo_entrp">    -43.12036628 </i>
    <i name="e_0_energy">    -43.12036628 </i>
   </energy>
  </scstep>
  <scstep>
   <time name="dav">    3.96    3.97</time>
   <time name="total">    4.41    4.50</time>
   <energy>
    <i name="e_fr_energy">    -44.54327255 </i>
    <i name="e_wo_entrp">    -44.54327255 </i>
    <i name="e_0_energy">    -44.54327255 </i>
   </energy>
  </scstep>
  <scstep>
   <time name="dav">    3.70    3.71</time>
   <time name="total">    4.15    4.17</time>
   <energy>
    <i name="e_fr_energy">    -48.33906483 </i>
    <i name="e_wo_entrp">    -48.33906483 </i>
    <i name="e_0_energy">    -48.33906483 </i>
   </energy>
  </scstep>
  <scstep>
   <time name="dav">    3.65    3.65</time>
   <time name="total">    4.10    4.10</time>
   <energy>
    <i name="e_fr_energy">    -53.86058395 </i>
    <i name="e_wo_entrp">    -53.86058395 </i>
    <i name="e_0_energy">    -53.86058395 </i>
   </energy>
  </scstep>
  <scstep>
   <time name="dav">    3.68    3.68</time>
   <time name="total">    4.12    4.62</time>
   <energy>
    <i name="e_fr_energy">    -56.13085524 </i>
    <i name="e_wo_entrp">    -56.13085524 </i>
    <i name="e_0_energy">    -56.13085524 </i>
   </energy>
  </scstep>
  <scstep>
   <time name="dav">    4.10    4.10</time>
   <time name="total">    4.54    4.74</time>
   <energy>
    <i name="e_fr_energy">    -56.24116968 </i>
    <i name="e_wo_entrp">    -56.24116968 </i>
    <i name="e_0_energy">    -56.24116968 </i>
   </energy>
  </scstep>
  <scstep>
   <time name="dav">    3.76    3.76</time>
   <time name="total">    4.20    4.23</time>
   <energy>
    <i name="e_fr_energy">    -56.77268650 </i>
    <i name="e_wo_entrp">    -56.77268650 </i>
    <i name="e_0_energy">    -56.77268650 </i>
   </energy>
  </scstep>
  <scstep>
   <time name="dav">    3.63    3.63</time>
   <time name="total">    4.08    4.08</time>
   <energy>
    <i name="e_fr_energy">    -57.82505620 </i>
    <i name="e_wo_entrp">    -57.82505620 </i>
    <i name="e_0_energy">    -57.82505620 </i>
   </energy>
  </scstep>
  <scstep>
   <time name="dav">    3.76    3.76</time>
   <time name="total">    4.21    4.74</time>
   <energy>
    <i name="e_fr_energy">    -58.77739901 </i>
    <i name="e_wo_entrp">    -58.77739901 </i>
    <i name="e_0_energy">    -58.77739901 </i>
   </energy>
  </scstep>
  <scstep>
   <time name="dav">    3.87    3.87</time>
   <time name="total">    4.32    4.32</time>
   <energy>
    <i name="e_fr_energy">    -59.06883492 </i>
    <i name="e_wo_entrp">    -59.06883492 </i>
    <i name="e_0_energy">    -59.06883492 </i>
   </energy>
  </scstep>
  <scstep>
   <time name="dav">    3.76    3.77</time>
   <time name="total">    4.21    4.75</time>
   <energy>
    <i name="e_fr_energy">    -59.30099867 </i>
    <i name="e_wo_entrp">    -59.30099867 </i>
    <i name="e_0_energy">    -59.30099867 </i>
   </energy>
  </scstep>
  <scstep>
   <time name="dav">    3.79    3.79</time>
   <time name="total">    4.24    4.54</time>
   <energy>
    <i name="e_fr_energy">    -59.36586548 </i>
    <i name="e_wo_entrp">    -59.36586548 </i>
    <i name="e_0_energy">    -59.36586548 </i>
   </energy>
  </scstep>
  <scstep>
   <time name="dav">    3.07    3.07</time>
   <time name="total">    3.52    3.53</time>
   <energy>
    <i name="e_fr_energy">    -59.38540626 </i>
    <i name="e_wo_entrp">    -59.38540626 </i>
    <i name="e_0_energy">    -59.38540626 </i>
   </energy>
  </scstep>
  <scstep>
   <time name="dav">    3.23    3.23</time>
   <time name="total">    3.68    6.59</time>
   <energy>
    <i name="e_fr_energy">    -59.39696631 </i>
    <i name="e_wo_entrp">    -59.39696631 </i>
    <i name="e_0_energy">    -59.39696631 </i>
   </energy>
  </scstep>
  <scstep>
   <time name="dav">    2.92    2.92</time>
   <time name="total">    3.37    3.38</time>
   <energy>
    <i name="e_fr_energy">    -59.39985637 </i>
    <i name="e_wo_entrp">    -59.39985637 </i>
    <i name="e_0_energy">    -59.39985637 </i>
   </energy>
  </scstep>
  <scstep>
   <time name="dav">    2.95    2.95</time>
   <time name="total">    3.40    3.42</time>
   <energy>
    <i name="e_fr_energy">    -59.40209459 </i>
    <i name="e_wo_entrp">    -59.40209459 </i>
    <i name="e_0_energy">    -59.40209459 </i>
   </energy>
  </scstep>
  <scstep>
   <time name="dav">    2.87    2.87</time>
   <time name="total">    3.32    3.61</time>
   <energy>
    <i name="e_fr_energy">    -59.40532381 </i>
    <i name="e_wo_entrp">    -59.40532381 </i>
    <i name="e_0_energy">    -59.40532381 </i>
   </energy>
  </scstep>
  <scstep>
   <time name="dav">    2.88    2.88</time>
   <time name="total">    3.33    3.41</time>
   <energy>
    <i name="e_fr_energy">    -59.40617724 </i>
    <i name="e_wo_entrp">    -59.40617724 </i>
    <i name="e_0_energy">    -59.40617724 </i>
   </energy>
  </scstep>
  <scstep>
   <time name="dav">    2.85    2.85</time>
   <time name="total">    3.30    3.31</time>
   <energy>
    <i name="e_fr_energy">    -59.40628313 </i>
    <i name="e_wo_entrp">    -59.40628313 </i>
    <i name="e_0_energy">    -59.40628313 </i>
   </energy>
  </scstep>
  <scstep>
   <time name="dav">    2.74    2.74</time>
   <time name="total">    3.04    3.06</time>
   <energy>
    <i name="alphaZ">     77.53240597 </i>
    <i name="ewald">  61432.22050489 </i>
    <i name="hartreedc"> -90260.60496234 </i>
    <i name="XCdc">   -328.69521057 </i>
    <i name="pawpsdc">  31436.33619666 </i>
    <i name="pawaedc"> -30152.81402633 </i>
    <i name="eentropy">      0.00000000 </i>
    <i name="bandstr">  -2342.14145147 </i>
    <i name="atom">  30078.76027250 </i>
    <i name="e_fr_energy">    -59.40627069 </i>
    <i name="e_wo_entrp">    -59.40627069 </i>
    <i name="e_0_energy">    -59.40627069 </i>
   </energy>
  </scstep>
  <structure>
   <crystal>
    <varray name="basis" >
     <v>      20.97372834       0.00000000       0.00000000 </v>
     <v>       0.00000000      20.97372834       0.00000000 </v>
     <v>       0.00000000       0.00000000      20.97372834 </v>
    </varray>
    <i name="volume">   9226.28605534 </i>
    <varray name="rec_basis" >
     <v>       0.04767870       0.00000000       0.00000000 </v>
     <v>       0.00000000       0.04767870       0.00000000 </v>
     <v>       0.00000000       0.00000000       0.04767870 </v>
    </varray>
   </crystal>
   <varray name="positions" >
    <v>       0.60289253       0.69831522       0.36307312 </v>
    <v>       0.57954045       0.56434167       0.35475047 </v>
    <v>       0.47589735       0.64933111       0.37000652 </v>
    <v>       0.54589463       0.44057696       0.36297918 </v>
    <v>       0.66289976       0.61420719       0.45223678 </v>
    <v>       0.54635295       0.67016651       0.48490189 </v>
    <v>       0.61551802       0.48957154       0.46148459 </v>
    <v>       0.44351466       0.51850404       0.32809061 </v>
    <v>       0.49186806       0.54356571       0.45610429 </v>
    <v>       0.56249340       0.36453385       0.47312432 </v>
    <v>       0.36341792       0.60067608       0.41474282 </v>
    <v>       0.70960039       0.53549701       0.54323200 </v>
    <v>       0.58130920       0.56735724       0.56241404 </v>
    <v>       0.43953766       0.41913374       0.43073706 </v>
    <v>       0.32850209       0.47691101       0.39258699 </v>
    <v>       0.42218191       0.64272890       0.52093654 </v>
    <v>       0.50382672       0.45436263       0.55085849 </v>
    <v>       0.51274607       0.66755995       0.61557292 </v>
    <v>       0.43896939       0.33479628       0.52911806 </v>
    <v>       0.63468189       0.42509069       0.57030032 </v>
    <v>       0.31938159       0.38867306       0.49432927 </v>
    <v>       0.55204774       0.56173667       0.69137988 </v>
    <v>       0.54172553       0.33773113       0.60650783 </v>
    <v>       0.37456669       0.51293354       0.51435680 </v>
    <v>       0.44597180       0.55267831       0.61613257 </v>
    <v>       0.66967827       0.51607657       0.66435297 </v>
    <v>       0.60311080       0.40824209       0.70202953 </v>
    <v>       0.38251665       0.42900271       0.61395570 </v>
    <v>       0.48062006       0.44880625       0.69195875 </v>
   </varray>
  </structure>
  <varray name="forces" >
   <v>      -0.05100523      -0.22441539       0.17889760 </v>
   <v>      -0.06209677       0.48765758      -0.08737815 </v>
   <v>       0.15982886       0.02138902      -0.17200099 </v>
   <v>       0.13901914      -0.31455673      -0.28364059 </v>
   <v>      -0.07427215       0.32649506      -0.18700311 </v>
   <v>       0.19101403       0.03049241      -0.28351095 </v>
   <v>       0.16525640      -0.11924861      -0.29489775 </v>
   <v>      -0.05378253       0.32153539       0.34775364 </v>
   <v>      -0.13261716       0.30114560      -0.27998141 </v>
   <v>      -0.12539856      -0.04644385      -0.12092791 </v>
   <v>       0.00788845      -0.10712375      -0.34217279 </v>
   <v>       0.30612420       0.04817323       0.05208274 </v>
   <v>       0.18674401       0.02915853       0.06128800 </v>
   <v>      -0.19341384      -0.14730769      -0.07325886 </v>
   <v>      -0.20136232      -0.03546355      -0.08300624 </v>
   <v>      -0.07647065       0.10261592       0.11427461 </v>
   <v>      -0.09898248      -0.28083992       0.15202943 </v>
   <v>      -0.08020814       0.04373850       0.11046068 </v>
   <v>      -0.34213227      -0.02187255       0.08102203 </v>
   <v>       0.26633521      -0.08729873       0.54539476 </v>
   <v>       0.12168751       0.19061592       0.20467786 </v>
   <v>      -0.05245287      -0.06543543       0.32341499 </v>
   <v>       0.13685191       0.14837919       0.45282592 </v>
   <v>      -0.39659045      -0.13177253      -0.20895228 </v>
   <v>      -0.15083077       0.24695853       0.10250942 </v>
   <v>       0.14549458      -0.20650942       0.09979185 </v>
   <v>       0.12625654       0.04605076      -0.01917295 </v>
   <v>      -0.25796472      -0.35855592      -0.42763042 </v>
   <v>       0.39708007      -0.19756158       0.03711089 </v>
  </varray>
  <varray name="stress" >
   <v>      -0.79964940       0.11101481       0.45593427 </v>
   <v>       0.11101480      -1.41955957      -0.46960276 </v>
   <v>       0.45593426      -0.46960275      -0.99289001 </v>
  </varray>
  <energy>
   <i name="e_fr_energy">    -59.40627069 </i>
   <i name="e_wo_entrp">    -59.40627069 </i>
   <i name="e_0_energy">      0.00000000 </i>
  </energy>
  <time name="totalsc">  127.24  138.00</time>
 </calculation>
 <calculation>
  <scstep>
   <time name="dav">    3.82    3.82</time>
   <time name="total">    4.26    4.30</time>
   <energy>
    <i name="alphaZ">     77.53240597 </i>
    <i name="ewald">  61386.43658588 </i>
    <i name="hartreedc"> -90215.04383800 </i>
    <i name="XCdc">   -328.74030882 </i>
    <i name="pawpsdc">  31436.41682807 </i>
    <i name="pawaedc"> -30152.89464547 </i>
    <i name="eentropy">      0.00000000 </i>
    <i name="bandstr">  -2341.90886268 </i>
    <i name="atom">  30078.76027250 </i>
    <i name="e_fr_energy">    -59.44156255 </i>
    <i name="e_wo_entrp">    -59.44156255 </i>
    <i name="e_0_energy">    -59.44156255 </i>
   </energy>
  </scstep>
  <scstep>
   <time name="dav">    3.85    3.85</time>
   <time name="total">    4.29    4.71</time>
   <energy>
    <i name="e_fr_energy">    -59.44275250 </i>
    <i name="e_wo_entrp">    -59.44275250 </i>
    <i name="e_0_energy">    -59.44275250 </i>
   </energy>
  </scstep>
  <scstep>
   <time name="dav">    2.65    2.65</time>
   <time name="total">    2.95    2.95</time>
   <energy>
    <i name="alphaZ">     77.53240597 </i>
    <i name="ewald">  61386.43658588 </i>
    <i name="hartreedc"> -90215.38395499 </i>
    <i name="XCdc">   -328.73568900 </i>
    <i name="pawpsdc">  31432.54562386 </i>
    <i name="pawaedc"> -30148.95880006 </i>
    <i name="eentropy">      0.00000000 </i>
    <i name="bandstr">  -2341.63919925 </i>
    <i name="atom">  30078.76027250 </i>
    <i name="e_fr_energy">    -59.44275507 </i>
    <i name="e_wo_entrp">    -59.44275507 </i>
    <i name="e_0_energy">    -59.44275507 </i>
   </energy>
  </scstep>
  <structure>
   <crystal>
    <varray name="basis" >
     <v>      20.97372834       0.00000000       0.00000000 </v>
     <v>       0.00000000      20.97372834       0.00000000 </v>
     <v>       0.00000000       0.00000000      20.97372834 </v>
    </varray>
    <i name="volume">   9226.28605534 </i>
    <varray name="rec_basis" >
     <v>       0.04767870       0.00000000       0.00000000 </v>
     <v>       0.00000000       0.04767870       0.00000000 </v>
     <v>       0.00000000       0.00000000       0.04767870 </v>
    </varray>
   </crystal>
   <varray name="positions" >
    <v>       0.60286907       0.69821198       0.36315542 </v>
    <v>       0.57951188       0.56456601       0.35471028 </v>
    <v>       0.47597088       0.64934095       0.36992739 </v>
    <v>       0.54595859       0.44043225       0.36284869 </v>
    <v>       0.66286560       0.61435739       0.45215075 </v>
    <v>       0.54644082       0.67018054       0.48477146 </v>
    <v>       0.61559404       0.48951668       0.46134893 </v>
    <v>       0.44348991       0.51865195       0.32825059 </v>
    <v>       0.49180705       0.54370425       0.45597549 </v>
    <v>       0.56243572       0.36451249       0.47306869 </v>
    <v>       0.36342154       0.60062680       0.41458541 </v>
    <v>       0.70974122       0.53551917       0.54325596 </v>
    <v>       0.58139511       0.56737066       0.56244224 </v>
    <v>       0.43944869       0.41906598       0.43070336 </v>
    <v>       0.32840946       0.47689469       0.39254880 </v>
    <v>       0.42214673       0.64277611       0.52098911 </v>
    <v>       0.50378118       0.45423344       0.55092843 </v>
    <v>       0.51270917       0.66758007       0.61562373 </v>
    <v>       0.43881200       0.33478622       0.52915533 </v>
    <v>       0.63480441       0.42505053       0.57055122 </v>
    <v>       0.31943757       0.38876075       0.49442343 </v>
    <v>       0.55202361       0.56170657       0.69152866 </v>
    <v>       0.54178848       0.33779939       0.60671614 </v>
    <v>       0.37438425       0.51287292       0.51426068 </v>
    <v>       0.44590241       0.55279192       0.61617973 </v>
    <v>       0.66974520       0.51598157       0.66439888 </v>
    <v>       0.60316889       0.40826328       0.70202071 </v>
    <v>       0.38239798       0.42883776       0.61375897 </v>
    <v>       0.48080273       0.44871537       0.69197582 </v>
   </varray>
  </structure>
  <varray name="forces" >
   <v>      -0.04221020      -0.19806913       0.16338143 </v>
   <v>      -0.06225475       0.43469895      -0.08381836 </v>
   <v>       0.14131914       0.02909283      -0.16920751 </v>
   <v>       0.12595429      -0.28010630      -0.27083322 </v>
   <v>      -0.05884860       0.29460505      -0.16348722 </v>
   <v>       0.16917511       0.02578314      -0.25356081 </v>
   <v>       0.15615888      -0.11341985      -0.25943796 </v>
   <v>      -0.04699882       0.30308404       0.33424178 </v>
   <v>      -0.12230841       0.26600903      -0.24227897 </v>
   <v>      -0.12179079      -0.03920380      -0.10258039 </v>
   <v>       0.01437009      -0.09584995      -0.32039255 </v>
   <v>       0.28121876       0.04982226       0.03929990 </v>
   <v>       0.17505747       0.02020699       0.05383128 </v>
   <v>      -0.17011784      -0.13407063      -0.07689235 </v>
   <v>      -0.19846088      -0.03761510      -0.08394270 </v>
   <v>      -0.07545921       0.09263533       0.09752064 </v>
   <v>      -0.09407535      -0.24400184       0.13313839 </v>
   <v>      -0.07208730       0.03809039       0.10044510 </v>
   <v>      -0.30727145      -0.02782119       0.08771539 </v>
   <v>       0.24586462      -0.07236940       0.48832376 </v>
   <v>       0.10375515       0.18045550       0.19294875 </v>
   <v>      -0.04767277      -0.06237110       0.30099782 </v>
   <v>       0.11652736       0.13816358       0.41980923 </v>
   <v>      -0.36593661      -0.10958402      -0.19279557 </v>
   <v>      -0.14562807       0.21251120       0.09108076 </v>
   <v>       0.14048241      -0.19011942       0.09711268 </v>
   <v>       0.13402900       0.04040605      -0.00216980 </v>
   <v>      -0.22244297      -0.33195350      -0.38917798 </v>
   <v>       0.34965173      -0.18900910       0.01072849 </v>
  </varray>
  <varray name="stress" >
   <v>      -0.84825283       0.10515828       0.43828552 </v>
   <v>       0.10515827      -1.45506380      -0.45466647 </v>
   <v>       0.43828553      -0.45466646      -1.04790615 </v>
  </varray>
  <energy>
   <i name="e_fr_energy">    -59.44275507 </i>
   <i name="e_wo_entrp">    -59.44275507 </i>
   <i name="e_0_energy">      0.00000000 </i>
  </energy>
  <time name="totalsc">   18.30   19.27</time>
 </calculation>
 <calculation>
  <scstep>
   <time name="dav">    3.68    3.68</time>
   <time name="total">    4.12    4.13</time>
   <energy>
    <i name="alphaZ">     77.53240597 </i>
    <i name="ewald">  61249.97558085 </i>
    <i name="hartreedc"> -90079.80278473 </i>
    <i name="XCdc">   -328.86209644 </i>
    <i name="pawpsdc">  31429.62241119 </i>
    <i name="pawaedc"> -30145.99687807 </i>
    <i name="eentropy">      0.00000000 </i>
    <i name="bandstr">  -2340.75515183 </i>
    <i name="atom">  30078.76027250 </i>
    <i name="e_fr_energy">    -59.52624055 </i>
    <i name="e_wo_entrp">    -59.52624055 </i>
    <i name="e_0_energy">    -59.52624055 </i>
   </energy>
  </scstep>
  <scstep>
   <time name="dav">    3.89    3.89</time>
   <time name="total">    4.33    4.34</time>
   <energy>
    <i name="e_fr_energy">    -59.53647236 </i>
    <i name="e_wo_entrp">    -59.53647236 </i>
    <i name="e_0_energy">    -59.53647236 </i>
   </energy>
  </scstep>
  <scstep>
   <time name="dav">    3.91    3.92</time>
   <time name="total">    4.36    4.38</time>
   <energy>
    <i name="e_fr_energy">    -59.53627213 </i>
    <i name="e_wo_entrp">    -59.53627213 </i>
    <i name="e_0_energy">    -59.53627213 </i>
   </energy>
  </scstep>
  <scstep>
   <time name="dav">    3.86    3.86</time>
   <time name="total">    4.30    4.32</time>
   <energy>
    <i name="e_fr_energy">    -59.53614480 </i>
    <i name="e_wo_entrp">    -59.53614480 </i>
    <i name="e_0_energy">    -59.53614480 </i>
   </energy>
  </scstep>
  <scstep>
   <time name="dav">    2.70    2.70</time>
   <time name="total">    3.00    3.85</time>
   <energy>
    <i name="alphaZ">     77.53240597 </i>
    <i name="ewald">  61249.97558085 </i>
    <i name="hartreedc"> -90081.00300994 </i>
    <i name="XCdc">   -328.84353014 </i>
    <i name="pawpsdc">  31409.13101895 </i>
    <i name="pawaedc"> -30125.19174316 </i>
    <i name="eentropy">      0.00000000 </i>
    <i name="bandstr">  -2339.89713575 </i>
    <i name="atom">  30078.76027250 </i>
    <i name="e_fr_energy">    -59.53614073 </i>
    <i name="e_wo_entrp">    -59.53614073 </i>
    <i name="e_0_energy">    -59.53614073 </i>
   </energy>
  </scstep>
  <structure>
   <crystal>
    <varray name="basis" >
     <v>      20.97372834       0.00000000       0.00000000 </v>
     <v>       0.00000000      20.97372834       0.00000000 </v>
     <v>       0.00000000       0.00000000      20.97372834 </v>
    </varray>
    <i name="volume">   9226.28605534 </i>
    <varray name="rec_basis" >
     <v>       0.04767870       0.00000000       0.00000000 </v>
     <v>       0.00000000       0.04767870       0.00000000 </v>
     <v>       0.00000000       0.00000000       0.04767870 </v>
    </varray>
   </crystal>
   <varray name="positions" >
    <v>       0.60279868       0.69790227       0.36340231 </v>
    <v>       0.57942618       0.56523902       0.35458969 </v>
    <v>       0.47619145       0.64937047       0.36969001 </v>
    <v>       0.54615044       0.43999814       0.36245725 </v>
    <v>       0.66276309       0.61480798       0.45189267 </v>
    <v>       0.54670444       0.67022262       0.48438019 </v>
    <v>       0.61582211       0.48935211       0.46094195 </v>
    <v>       0.44341569       0.51909570       0.32873052 </v>
    <v>       0.49162403       0.54411986       0.45558909 </v>
    <v>       0.56226265       0.36444839       0.47290180 </v>
    <v>       0.36343243       0.60047896       0.41411319 </v>
    <v>       0.71016369       0.53558565       0.54332784 </v>
    <v>       0.58165284       0.56741090       0.56252682 </v>
    <v>       0.43918176       0.41886268       0.43060226 </v>
    <v>       0.32813156       0.47684575       0.39243425 </v>
    <v>       0.42204119       0.64291773       0.52114682 </v>
    <v>       0.50364458       0.45384586       0.55113824 </v>
    <v>       0.51259848       0.66764043       0.61577618 </v>
    <v>       0.43833983       0.33475603       0.52926715 </v>
    <v>       0.63517197       0.42493005       0.57130391 </v>
    <v>       0.31960551       0.38902382       0.49470590 </v>
    <v>       0.55195122       0.56161626       0.69197500 </v>
    <v>       0.54197735       0.33800416       0.60734108 </v>
    <v>       0.37383692       0.51269107       0.51397231 </v>
    <v>       0.44569425       0.55313275       0.61632120 </v>
    <v>       0.66994600       0.51569657       0.66453660 </v>
    <v>       0.60334313       0.40832683       0.70199425 </v>
    <v>       0.38204197       0.42834292       0.61316881 </v>
    <v>       0.48135073       0.44844271       0.69202704 </v>
   </varray>
  </structure>
  <varray name="forces" >
   <v>      -0.02006532      -0.13610604       0.12751054 </v>
   <v>      -0.06561330       0.32132232      -0.07953026 </v>
   <v>       0.09901928       0.05192218      -0.17321575 </v>
   <v>       0.09927494      -0.20818343      -0.25108998 </v>
   <v>      -0.01916428       0.22559755      -0.10878142 </v>
   <v>       0.12115226       0.01436568      -0.19088497 </v>
   <v>       0.13999809      -0.10274094      -0.18034571 </v>
   <v>      -0.03239651       0.27329011       0.31724420 </v>
   <v>      -0.10279225       0.19034858      -0.15538475 </v>
   <v>      -0.11997526      -0.02258959      -0.06316313 </v>
   <v>       0.03212874      -0.07226437      -0.28275133 </v>
   <v>       0.23162391       0.05661027       0.00851547 </v>
   <v>       0.15460077      -0.00158646       0.03747044 </v>
   <v>      -0.11831364      -0.10704746      -0.09132647 </v>
   <v>      -0.20479016      -0.04543440      -0.09100024 </v>
   <v>      -0.07663281       0.07136508       0.06013339 </v>
   <v>      -0.08651383      -0.15942537       0.09191427 </v>
   <v>      -0.05566146       0.02505705       0.08178270 </v>
   <v>      -0.23469833      -0.04578071       0.11165300 </v>
   <v>       0.20990852      -0.03695196       0.36518966 </v>
   <v>       0.05924723       0.16023856       0.17311629 </v>
   <v>      -0.03863756      -0.05903904       0.26025983 </v>
   <v>       0.06819878       0.12052496       0.36020743 </v>
   <v>      -0.30644224      -0.05621877      -0.16165950 </v>
   <v>      -0.13918243       0.13570516       0.06583467 </v>
   <v>       0.13704400      -0.15613886       0.09611832 </v>
   <v>       0.16498154       0.02696498       0.04582501 </v>
   <v>      -0.14551480      -0.28469160      -0.31666972 </v>
   <v>       0.24921614      -0.17911346      -0.05697199 </v>
  </varray>
  <varray name="stress" >
   <v>      -0.96469872       0.09179170       0.39192761 </v>
   <v>       0.09179170      -1.53232480      -0.41726322 </v>
   <v>       0.39192761      -0.41726322      -1.17378868 </v>
  </varray>
  <energy>
   <i name="e_fr_energy">    -59.53614073 </i>
   <i name="e_wo_entrp">    -59.53614073 </i>
   <i name="e_0_energy">      0.00000000 </i>
  </energy>
  <time name="totalsc">   26.90   28.44</time>
 </calculation>
 <calculation>
  <scstep>
   <time name="dav">    3.66    3.66</time>
   <time name="total">    4.10    4.11</time>
   <energy>
    <i name="alphaZ">     77.53240597 </i>
    <i name="ewald">  60981.05943321 </i>
    <i name="hartreedc"> -89813.38710150 </i>
    <i name="XCdc">   -329.06568569 </i>
    <i name="pawpsdc">  31409.23139828 </i>
    <i name="pawaedc"> -30125.29480957 </i>
    <i name="eentropy">      0.00000000 </i>
    <i name="bandstr">  -2338.45083589 </i>
    <i name="atom">  30078.76027250 </i>
    <i name="e_fr_energy">    -59.61492270 </i>
    <i name="e_wo_entrp">    -59.61492270 </i>
    <i name="e_0_energy">    -59.61492270 </i>
   </energy>
  </scstep>
  <scstep>
   <time name="dav">    3.78    3.79</time>
   <time name="total">    4.23    4.23</time>
   <energy>
    <i name="e_fr_energy">    -59.65638868 </i>
    <i name="e_wo_entrp">    -59.65638868 </i>
    <i name="e_0_energy">    -59.65638868 </i>
   </energy>
  </scstep>
  <scstep>
   <time name="dav">    3.95    3.95</time>
   <time name="total">    4.39    4.40</time>
   <energy>
    <i name="e_fr_energy">    -59.65569217 </i>
    <i name="e_wo_entrp">    -59.65569217 </i>
    <i name="e_0_energy">    -59.65569217 </i>
   </energy>
  </scstep>
  <scstep>
   <time name="dav">    3.87    3.87</time>
   <time name="total">    4.32    4.33</time>
   <energy>
    <i name="e_fr_energy">    -59.65509909 </i>
    <i name="e_wo_entrp">    -59.65509909 </i>
    <i name="e_0_energy">    -59.65509909 </i>
   </energy>
  </scstep>
  <scstep>
   <time name="dav">    2.67    2.67</time>
   <time name="total">    2.97    2.97</time>
   <energy>
    <i name="alphaZ">     77.53240597 </i>
    <i name="ewald">  60981.05943321 </i>
    <i name="hartreedc"> -89815.61604260 </i>
    <i name="XCdc">   -329.03255052 </i>
    <i name="pawpsdc">  31377.23789619 </i>
    <i name="pawaedc"> -30092.77964896 </i>
    <i name="eentropy">      0.00000000 </i>
    <i name="bandstr">  -2336.81686832 </i>
    <i name="atom">  30078.76027250 </i>
    <i name="e_fr_energy">    -59.65510253 </i>
    <i name="e_wo_entrp">    -59.65510253 </i>
    <i name="e_0_energy">    -59.65510253 </i>
   </energy>
  </scstep>
  <structure>
   <crystal>
    <varray name="basis" >
     <v>      20.97372834       0.00000000       0.00000000 </v>
     <v>       0.00000000      20.97372834       0.00000000 </v>
     <v>       0.00000000       0.00000000      20.97372834 </v>
    </varray>
    <i name="volume">   9226.28605534 </i>
    <varray name="rec_basis" >
     <v>       0.04767870       0.00000000       0.00000000 </v>
     <v>       0.00000000       0.04767870       0.00000000 </v>
     <v>       0.00000000       0.00000000       0.04767870 </v>
    </varray>
   </crystal>
   <varray name="positions" >
    <v>       0.60265789       0.69728285       0.36389610 </v>
    <v>       0.57925479       0.56658504       0.35434851 </v>
    <v>       0.47663261       0.64942951       0.36921526 </v>
    <v>       0.54653416       0.43912990       0.36167435 </v>
    <v>       0.66255809       0.61570916       0.45137651 </v>
    <v>       0.54723167       0.67030679       0.48359765 </v>
    <v>       0.61627825       0.48902296       0.46012798 </v>
    <v>       0.44326724       0.51998320       0.32969038 </v>
    <v>       0.49125798       0.54495107       0.45481629 </v>
    <v>       0.56191653       0.36432020       0.47256802 </v>
    <v>       0.36345421       0.60018328       0.41316873 </v>
    <v>       0.71100865       0.53571862       0.54347159 </v>
    <v>       0.58216828       0.56749138       0.56269599 </v>
    <v>       0.43864790       0.41845608       0.43040005 </v>
    <v>       0.32757577       0.47674786       0.39220513 </v>
    <v>       0.42183012       0.64320097       0.52146224 </v>
    <v>       0.50337137       0.45307069       0.55155787 </v>
    <v>       0.51237709       0.66776116       0.61608107 </v>
    <v>       0.43739548       0.33469566       0.52949079 </v>
    <v>       0.63590711       0.42468909       0.57280930 </v>
    <v>       0.31994139       0.38954995       0.49527085 </v>
    <v>       0.55180644       0.56143565       0.69286768 </v>
    <v>       0.54235509       0.33841371       0.60859096 </v>
    <v>       0.37274226       0.51232735       0.51339556 </v>
    <v>       0.44527794       0.55381440       0.61660414 </v>
    <v>       0.67034759       0.51512657       0.66481204 </v>
    <v>       0.60369162       0.40845394       0.70194133 </v>
    <v>       0.38132994       0.42735324       0.61198847 </v>
    <v>       0.48244674       0.44789741       0.69212947 </v>
   </varray>
  </structure>
  <varray name="forces" >
   <v>       0.02917765       0.01010196       0.03354486 </v>
   <v>      -0.06214988       0.08259163      -0.07221780 </v>
   <v>       0.00078765       0.10607945      -0.17545305 </v>
   <v>       0.04202422      -0.06925631      -0.20011136 </v>
   <v>       0.07186763       0.07115488       0.00749734 </v>
   <v>       0.01162029      -0.00825112      -0.04769044 </v>
   <v>       0.10147212      -0.07184346      -0.03037692 </v>
   <v>      -0.00353109       0.19395123       0.25951346 </v>
   <v>      -0.06160011       0.04184494       0.02424819 </v>
   <v>      -0.11356784       0.01059378       0.01421021 </v>
   <v>       0.05974725      -0.02049384      -0.19419292 </v>
   <v>       0.12376253       0.06543097      -0.04827334 </v>
   <v>       0.10905653      -0.04279692       0.00363707 </v>
   <v>      -0.01331023      -0.05034052      -0.11627890 </v>
   <v>      -0.21107960      -0.06132437      -0.10329479 </v>
   <v>      -0.07555355       0.02793641      -0.01489682 </v>
   <v>      -0.06799868       0.00665372       0.01276477 </v>
   <v>      -0.01989183      -0.00046320       0.04240903 </v>
   <v>      -0.07968800      -0.08816480       0.14582200 </v>
   <v>       0.14248262       0.02465328       0.11110008 </v>
   <v>      -0.04555733       0.10233984       0.11103157 </v>
   <v>      -0.01985384      -0.04938537       0.16967888 </v>
   <v>      -0.02941446       0.07479623       0.23148715 </v>
   <v>      -0.17521832       0.06067403      -0.09659349 </v>
   <v>      -0.12036572      -0.01199544       0.01825378 </v>
   <v>       0.12978614      -0.07377912       0.09350020 </v>
   <v>       0.22696623      -0.00206987       0.15510422 </v>
   <v>      -0.00449085      -0.17681655      -0.16001939 </v>
   <v>       0.05452047      -0.15182147      -0.17440360 </v>
  </varray>
  <varray name="stress" >
   <v>      -1.16547651       0.06620472       0.31073020 </v>
   <v>       0.06620471      -1.65388775      -0.34100712 </v>
   <v>       0.31073019      -0.34100710      -1.38349244 </v>
  </varray>
  <energy>
   <i name="e_fr_energy">    -59.65510253 </i>
   <i name="e_wo_entrp">    -59.65510253 </i>
   <i name="e_0_energy">      0.00000000 </i>
  </energy>
  <time name="totalsc">   26.80   27.50</time>
 </calculation>
 <calculation>
  <scstep>
   <time name="dav">    3.66    3.66</time>
   <time name="total">    4.10    4.11</time>
   <energy>
    <i name="alphaZ">     77.53240597 </i>
    <i name="ewald">  60459.23725308 </i>
    <i name="hartreedc"> -89295.34565793 </i>
    <i name="XCdc">   -329.34772904 </i>
    <i name="pawpsdc">  31377.27660506 </i>
    <i name="pawaedc"> -30092.82206566 </i>
    <i name="eentropy">      0.00000000 </i>
    <i name="bandstr">  -2334.75822388 </i>
    <i name="atom">  30078.76027250 </i>
    <i name="e_fr_energy">    -59.46713990 </i>
    <i name="e_wo_entrp">    -59.46713990 </i>
    <i name="e_0_energy">    -59.46713990 </i>
   </energy>
  </scstep>
  <scstep>
   <time name="dav">    3.76    3.76</time>
   <time name="total">    4.20    4.21</time>
   <energy>
    <i name="e_fr_energy">    -59.63661499 </i>
    <i name="e_wo_entrp">    -59.63661499 </i>
    <i name="e_0_energy">    -59.63661499 </i>
   </energy>
  </scstep>
  <scstep>
   <time name="dav">    3.97    3.97</time>
   <time name="total">    4.42    4.44</time>
   <energy>
    <i name="e_fr_energy">    -59.63439369 </i>
    <i name="e_wo_entrp">    -59.63439369 </i>
    <i name="e_0_energy">    -59.63439369 </i>
   </energy>
  </scstep>
  <scstep>
   <time name="dav">    3.76    3.76</time>
   <time name="total">    4.20    4.51</time>
   <energy>
    <i name="e_fr_energy">    -59.63195374 </i>
    <i name="e_wo_entrp">    -59.63195374 </i>
    <i name="e_0_energy">    -59.63195374 </i>
   </energy>
  </scstep>
  <scstep>
   <time name="dav">    3.86    3.87</time>
   <time name="total">    4.16    4.17</time>
   <energy>
    <i name="alphaZ">     77.53240597 </i>
    <i name="ewald">  60459.23725308 </i>
    <i name="hartreedc"> -89298.77396031 </i>
    <i name="XCdc">   -329.29342636 </i>
    <i name="pawpsdc">  31345.03101268 </i>
    <i name="pawaedc"> -30059.91304726 </i>
    <i name="eentropy">      0.00000000 </i>
    <i name="bandstr">  -2332.21253699 </i>
    <i name="atom">  30078.76027250 </i>
    <i name="e_fr_energy">    -59.63202668 </i>
    <i name="e_wo_entrp">    -59.63202668 </i>
    <i name="e_0_energy">    -59.63202668 </i>
   </energy>
  </scstep>
  <structure>
   <crystal>
    <varray name="basis" >
     <v>      20.97372834       0.00000000       0.00000000 </v>
     <v>       0.00000000      20.97372834       0.00000000 </v>
     <v>       0.00000000       0.00000000      20.97372834 </v>
    </varray>
    <i name="volume">   9226.28605534 </i>
    <varray name="rec_basis" >
     <v>       0.04767870       0.00000000       0.00000000 </v>
     <v>       0.00000000       0.04767870       0.00000000 </v>
     <v>       0.00000000       0.00000000       0.04767870 </v>
    </varray>
   </crystal>
   <varray name="positions" >
    <v>       0.60237633       0.69604399       0.36488368 </v>
    <v>       0.57891199       0.56927708       0.35386615 </v>
    <v>       0.47751492       0.64954758       0.36826575 </v>
    <v>       0.54730160       0.43739344       0.36010855 </v>
    <v>       0.66214808       0.61751153       0.45034419 </v>
    <v>       0.54828614       0.67047512       0.48203257 </v>
    <v>       0.61719052       0.48836467       0.45850004 </v>
    <v>       0.44297034       0.52175818       0.33161010 </v>
    <v>       0.49052589       0.54661350       0.45327070 </v>
    <v>       0.56122429       0.36406381       0.47190045 </v>
    <v>       0.36349775       0.59959192       0.41127981 </v>
    <v>       0.71269856       0.53598455       0.54375911 </v>
    <v>       0.58319917       0.56765235       0.56303432 </v>
    <v>       0.43758019       0.41764289       0.42999563 </v>
    <v>       0.32646418       0.47655209       0.39174691 </v>
    <v>       0.42140797       0.64376744       0.52209308 </v>
    <v>       0.50282495       0.45152035       0.55239712 </v>
    <v>       0.51193431       0.66800261       0.61669085 </v>
    <v>       0.43550679       0.33457492       0.52993806 </v>
    <v>       0.63737737       0.42420717       0.57582007 </v>
    <v>       0.32061315       0.39060222       0.49640074 </v>
    <v>       0.55151688       0.56107442       0.69465305 </v>
    <v>       0.54311056       0.33923282       0.61109072 </v>
    <v>       0.37055294       0.51159992       0.51224207 </v>
    <v>       0.44444530       0.55517769       0.61717003 </v>
    <v>       0.67115077       0.51398657       0.66536293 </v>
    <v>       0.60438860       0.40870816       0.70183548 </v>
    <v>       0.37990588       0.42537389       0.60962780 </v>
    <v>       0.48463876       0.44680680       0.69233434 </v>
   </varray>
  </structure>
  <varray name="forces" >
   <v>       0.13767402       0.38379569      -0.20535975 </v>
   <v>      -0.02159469      -0.41376567      -0.08072994 </v>
   <v>      -0.22499599       0.24712356      -0.18343233 </v>
   <v>      -0.06952929       0.14973622      -0.09010534 </v>
   <v>       0.29575002      -0.24503140       0.23446374 </v>
   <v>      -0.22502202      -0.04167382       0.25094785 </v>
   <v>       0.01867277       0.00170390       0.19886304 </v>
   <v>       0.04846584      -0.00092593       0.07655902 </v>
   <v>       0.02518203      -0.21496460       0.38600650 </v>
   <v>      -0.10405537       0.07064240       0.13993290 </v>
   <v>       0.08042522       0.09013707      -0.03867316 </v>
   <v>      -0.07201289       0.07293512      -0.12980130 </v>
   <v>       0.02668904      -0.10955223      -0.05859994 </v>
   <v>       0.17727221       0.05519160      -0.16044276 </v>
   <v>      -0.22331679      -0.09367011      -0.13032173 </v>
   <v>      -0.06841707      -0.04763250      -0.14728836 </v>
   <v>      -0.02914993       0.28534713      -0.11344184 </v>
   <v>       0.04879876      -0.04197269      -0.02404571 </v>
   <v>       0.20817232      -0.19511132       0.18001519 </v>
   <v>       0.03746732       0.10624856      -0.36980639 </v>
   <v>      -0.30745081      -0.04760370      -0.07514954 </v>
   <v>       0.00816825      -0.02374510       0.00706229 </v>
   <v>      -0.20022776      -0.04413235      -0.01010048 </v>
   <v>       0.08521114       0.31601694       0.02674601 </v>
   <v>      -0.07179780      -0.27947800      -0.05597901 </v>
   <v>       0.13375652       0.11740591       0.09644657 </v>
   <v>       0.36682765      -0.06088717       0.41984610 </v>
   <v>       0.22271485       0.04779651       0.19921965 </v>
   <v>      -0.30367755      -0.08393401      -0.34283129 </v>
  </varray>
  <varray name="stress" >
   <v>      -1.39350916       0.02743650       0.19810718 </v>
   <v>       0.02743650      -1.72933833      -0.19037028 </v>
   <v>       0.19810718      -0.19037028      -1.60715284 </v>
  </varray>
  <energy>
   <i name="e_fr_energy">    -59.63202668 </i>
   <i name="e_wo_entrp">    -59.63202668 </i>
   <i name="e_0_energy">      0.00000000 </i>
  </energy>
  <time name="totalsc">   27.87   28.26</time>
 </calculation>
 <calculation>
  <scstep>
   <time name="dav">    3.65    3.65</time>
   <time name="total">    4.09    4.11</time>
   <energy>
    <i name="alphaZ">     77.53240597 </i>
    <i name="ewald">  60748.03843504 </i>
    <i name="hartreedc"> -89587.15291011 </i>
    <i name="XCdc">   -329.12602078 </i>
    <i name="pawpsdc">  31344.55424417 </i>
    <i name="pawaedc"> -30059.43827517 </i>
    <i name="eentropy">      0.00000000 </i>
    <i name="bandstr">  -2332.80499560 </i>
    <i name="atom">  30078.76027250 </i>
    <i name="e_fr_energy">    -59.63684398 </i>
    <i name="e_wo_entrp">    -59.63684398 </i>
    <i name="e_0_energy">    -59.63684398 </i>
   </energy>
  </scstep>
  <scstep>
   <time name="dav">    3.88    3.89</time>
   <time name="total">    4.33    6.27</time>
   <energy>
    <i name="e_fr_energy">    -59.68904448 </i>
    <i name="e_wo_entrp">    -59.68904448 </i>
    <i name="e_0_energy">    -59.68904448 </i>
   </energy>
  </scstep>
  <scstep>
   <time name="dav">    3.89    3.89</time>
   <time name="total">    4.33    4.36</time>
   <energy>
    <i name="e_fr_energy">    -59.68808830 </i>
    <i name="e_wo_entrp">    -59.68808830 </i>
    <i name="e_0_energy">    -59.68808830 </i>
   </energy>
  </scstep>
  <scstep>
   <time name="dav">    3.84    3.84</time>
   <time name="total">    4.28    4.29</time>
   <energy>
    <i name="e_fr_energy">    -59.68748873 </i>
    <i name="e_wo_entrp">    -59.68748873 </i>
    <i name="e_0_energy">    -59.68748873 </i>
   </energy>
  </scstep>
  <scstep>
   <time name="dav">    2.82    2.83</time>
   <time name="total">    3.12    3.13</time>
   <energy>
    <i name="alphaZ">     77.53240597 </i>
    <i name="ewald">  60748.03843504 </i>
    <i name="hartreedc"> -89585.22161749 </i>
    <i name="XCdc">   -329.16492886 </i>
    <i name="pawpsdc">  31357.28480847 </i>
    <i name="pawaedc"> -30072.47959670 </i>
    <i name="eentropy">      0.00000000 </i>
    <i name="bandstr">  -2334.43732132 </i>
    <i name="atom">  30078.76027250 </i>
    <i name="e_fr_energy">    -59.68754239 </i>
    <i name="e_wo_entrp">    -59.68754239 </i>
    <i name="e_0_energy">    -59.68754239 </i>
   </energy>
  </scstep>
  <structure>
   <crystal>
    <varray name="basis" >
     <v>      20.97372834       0.00000000       0.00000000 </v>
     <v>       0.00000000      20.97372834       0.00000000 </v>
     <v>       0.00000000       0.00000000      20.97372834 </v>
    </varray>
    <i name="volume">   9226.28605534 </i>
    <varray name="rec_basis" >
     <v>       0.04767870       0.00000000       0.00000000 </v>
     <v>       0.00000000       0.04767870       0.00000000 </v>
     <v>       0.00000000       0.00000000       0.04767870 </v>
    </varray>
   </crystal>
   <varray name="positions" >
    <v>       0.60253358       0.69673588       0.36433213 </v>
    <v>       0.57910344       0.56777360       0.35413554 </v>
    <v>       0.47702216       0.64948164       0.36879604 </v>
    <v>       0.54687299       0.43836324       0.36098303 </v>
    <v>       0.66237707       0.61650493       0.45092073 </v>
    <v>       0.54769723       0.67038111       0.48290665 </v>
    <v>       0.61668103       0.48873232       0.45940922 </v>
    <v>       0.44313616       0.52076687       0.33053796 </v>
    <v>       0.49093475       0.54568505       0.45413389 </v>
    <v>       0.56161090       0.36420700       0.47227328 </v>
    <v>       0.36347343       0.59992219       0.41233475 </v>
    <v>       0.71175477       0.53583603       0.54359853 </v>
    <v>       0.58262343       0.56756245       0.56284536 </v>
    <v>       0.43817650       0.41809705       0.43022149 </v>
    <v>       0.32708499       0.47666143       0.39200282 </v>
    <v>       0.42164374       0.64345107       0.52174076 </v>
    <v>       0.50313012       0.45238620       0.55192841 </v>
    <v>       0.51218160       0.66786776       0.61635029 </v>
    <v>       0.43656161       0.33464235       0.52968826 </v>
    <v>       0.63655624       0.42447631       0.57413858 </v>
    <v>       0.32023798       0.39001454       0.49576971 </v>
    <v>       0.55167860       0.56127616       0.69365594 </v>
    <v>       0.54268864       0.33877536       0.60969463 </v>
    <v>       0.37177566       0.51200618       0.51288628 </v>
    <v>       0.44491032       0.55441631       0.61685399 </v>
    <v>       0.67070220       0.51462325       0.66505527 </v>
    <v>       0.60399935       0.40856618       0.70189460 </v>
    <v>       0.38070120       0.42647934       0.61094621 </v>
    <v>       0.48341454       0.44741589       0.69221992 </v>
   </varray>
  </structure>
  <varray name="forces" >
   <v>       0.07626387       0.16325394      -0.06595215 </v>
   <v>      -0.04910202      -0.13603126      -0.07081130 </v>
   <v>      -0.09575123       0.16518016      -0.17628500 </v>
   <v>      -0.01044201       0.04282435      -0.14713968 </v>
   <v>       0.16450351      -0.07152865       0.11124937 </v>
   <v>      -0.09178225      -0.02638209       0.08523674 </v>
   <v>       0.06137394      -0.03871347       0.08507441 </v>
   <v>       0.02102431       0.10970730       0.18674599 </v>
   <v>      -0.02321895      -0.08158558       0.18726354 </v>
   <v>      -0.10805245       0.03926665       0.07820822 </v>
   <v>       0.07524258       0.02778617      -0.11857188 </v>
   <v>       0.02983169       0.07005572      -0.09003058 </v>
   <v>       0.06936329      -0.07666810      -0.02543235 </v>
   <v>       0.07603410       0.00030604      -0.13535375 </v>
   <v>      -0.21757952      -0.07638319      -0.11493635 </v>
   <v>      -0.07184386      -0.00915473      -0.07831124 </v>
   <v>      -0.05006306       0.14161033      -0.05035446 </v>
   <v>       0.01351165      -0.02153596       0.00884766 </v>
   <v>       0.05702302      -0.13117110       0.16449100 </v>
   <v>       0.08878742       0.06681776      -0.11120624 </v>
   <v>      -0.15427040       0.03880896       0.03662897 </v>
   <v>      -0.00462411      -0.03881977       0.08904907 </v>
   <v>      -0.11043028       0.02487327       0.11685984 </v>
   <v>      -0.05159439       0.17241167      -0.04060818 </v>
   <v>      -0.09805086      -0.14120706      -0.01982104 </v>
   <v>       0.12460743       0.00999901       0.09229860 </v>
   <v>       0.28520998      -0.02807242       0.26631819 </v>
   <v>       0.10658780      -0.07252636      -0.00426354 </v>
   <v>      -0.11255918      -0.12312159      -0.25919387 </v>
  </varray>
  <varray name="stress" >
   <v>      -1.28930509       0.04286662       0.24713722 </v>
   <v>       0.04286663      -1.71025562      -0.26744308 </v>
   <v>       0.24713723      -0.26744308      -1.51649560 </v>
  </varray>
  <energy>
   <i name="e_fr_energy">    -59.68754239 </i>
   <i name="e_wo_entrp">    -59.68754239 </i>
   <i name="e_0_energy">      0.00000000 </i>
  </energy>
  <time name="totalsc">   26.97   29.01</time>
 </calculation>
 <calculation>
  <scstep>
   <time name="dav">    3.74    3.74</time>
   <time name="total">    4.19    4.20</time>
   <energy>
    <i name="alphaZ">     77.53240597 </i>
    <i name="ewald">  60639.66950963 </i>
    <i name="hartreedc"> -89477.57520606 </i>
    <i name="XCdc">   -329.29530133 </i>
    <i name="pawpsdc">  31357.06064559 </i>
    <i name="pawaedc"> -30072.25311579 </i>
    <i name="eentropy">      0.00000000 </i>
    <i name="bandstr">  -2333.61540220 </i>
    <i name="atom">  30078.76027250 </i>
    <i name="e_fr_energy">    -59.71619168 </i>
    <i name="e_wo_entrp">    -59.71619168 </i>
    <i name="e_0_energy">    -59.71619168 </i>
   </energy>
  </scstep>
  <scstep>
   <time name="dav">    3.87    3.87</time>
   <time name="total">    4.31    4.32</time>
   <energy>
    <i name="e_fr_energy">    -59.72177932 </i>
    <i name="e_wo_entrp">    -59.72177932 </i>
    <i name="e_0_energy">    -59.72177932 </i>
   </energy>
  </scstep>
  <scstep>
   <time name="dav">    3.98    3.98</time>
   <time name="total">    4.28    4.30</time>
   <energy>
    <i name="alphaZ">     77.53240597 </i>
    <i name="ewald">  60639.66950963 </i>
    <i name="hartreedc"> -89478.22493115 </i>
    <i name="XCdc">   -329.27682487 </i>
    <i name="pawpsdc">  31347.78159218 </i>
    <i name="pawaedc"> -30062.82299746 </i>
    <i name="eentropy">      0.00000000 </i>
    <i name="bandstr">  -2333.14071735 </i>
    <i name="atom">  30078.76027250 </i>
    <i name="e_fr_energy">    -59.72169055 </i>
    <i name="e_wo_entrp">    -59.72169055 </i>
    <i name="e_0_energy">    -59.72169055 </i>
   </energy>
  </scstep>
  <structure>
   <crystal>
    <varray name="basis" >
     <v>      20.97372834       0.00000000       0.00000000 </v>
     <v>       0.00000000      20.97372834       0.00000000 </v>
     <v>       0.00000000       0.00000000      20.97372834 </v>
    </varray>
    <i name="volume">   9226.28605534 </i>
    <varray name="rec_basis" >
     <v>       0.04767870       0.00000000       0.00000000 </v>
     <v>       0.00000000       0.04767870       0.00000000 </v>
     <v>       0.00000000       0.00000000       0.04767870 </v>
    </varray>
   </crystal>
   <varray name="positions" >
    <v>       0.60264456       0.69691827       0.36430070 </v>
    <v>       0.57898652       0.56776561       0.35396797 </v>
    <v>       0.47692869       0.64978516       0.36840067 </v>
    <v>       0.54692103       0.43828864       0.36058595 </v>
    <v>       0.66263358       0.61653428       0.45102870 </v>
    <v>       0.54762574       0.67034887       0.48292223 </v>
    <v>       0.61686914       0.48860647       0.45941906 </v>
    <v>       0.44314773       0.52111564       0.33103607 </v>
    <v>       0.49083002       0.54568441       0.45433231 </v>
    <v>       0.56135900       0.36425448       0.47235423 </v>
    <v>       0.36361081       0.59992022       0.41196036 </v>
    <v>       0.71195433       0.53598349       0.54346362 </v>
    <v>       0.58283602       0.56744028       0.56282956 </v>
    <v>       0.43821888       0.41802705       0.42994609 </v>
    <v>       0.32660224       0.47650882       0.39175900 </v>
    <v>       0.42147956       0.64348396       0.52165644 </v>
    <v>       0.50299383       0.45250314       0.55191181 </v>
    <v>       0.51216718       0.66785047       0.61641890 </v>
    <v>       0.43649901       0.33439898       0.53001912 </v>
    <v>       0.63684143       0.42455314       0.57420231 </v>
    <v>       0.32002234       0.39017473       0.49593276 </v>
    <v>       0.55164527       0.56117590       0.69396893 </v>
    <v>       0.54255810       0.33889058       0.61011897 </v>
    <v>       0.37149413       0.51224920       0.51271412 </v>
    <v>       0.44466399       0.55428385       0.61686788 </v>
    <v>       0.67099312       0.51454211       0.66526693 </v>
    <v>       0.60456621       0.40853839       0.70235827 </v>
    <v>       0.38076692       0.42617886       0.61073385 </v>
    <v>       0.48340485       0.44710268       0.69177748 </v>
   </varray>
  </structure>
  <varray name="forces" >
   <v>       0.06969134       0.13587416      -0.04759991 </v>
   <v>      -0.04612931      -0.11788414      -0.03750087 </v>
   <v>      -0.06459150       0.15657836      -0.15328776 </v>
   <v>      -0.00241559       0.05017587      -0.11851725 </v>
   <v>       0.12696580      -0.05830036       0.08435422 </v>
   <v>      -0.07933972      -0.03982190       0.06816848 </v>
   <v>       0.03826890      -0.03593395       0.05847883 </v>
   <v>       0.01674810       0.08171037       0.15920319 </v>
   <v>      -0.00034267      -0.06069837       0.17373314 </v>
   <v>      -0.09990522       0.04773771       0.08007829 </v>
   <v>       0.05892606       0.01950502      -0.11047344 </v>
   <v>       0.02955417       0.05359831      -0.06088601 </v>
   <v>       0.05549845      -0.06697630      -0.00738937 </v>
   <v>       0.04477881      -0.00451447      -0.09848203 </v>
   <v>      -0.18653642      -0.06731699      -0.09014208 </v>
   <v>      -0.06697319      -0.01267360      -0.06451384 </v>
   <v>      -0.03364149       0.11785545      -0.05647087 </v>
   <v>       0.00802370      -0.04753994      -0.00163737 </v>
   <v>       0.05203447      -0.10178245       0.13129967 </v>
   <v>       0.05691470       0.05549167      -0.09563754 </v>
   <v>      -0.13317115       0.03609671       0.02429438 </v>
   <v>      -0.00673930      -0.04790192       0.05488429 </v>
   <v>      -0.09205202       0.05510408       0.11272710 </v>
   <v>      -0.05200692       0.14669095      -0.03834395 </v>
   <v>      -0.07915753      -0.11805044      -0.01625202 </v>
   <v>       0.11754827       0.02440587       0.06955632 </v>
   <v>       0.23640468      -0.02462960       0.23258107 </v>
   <v>       0.08713911      -0.04966505      -0.01061708 </v>
   <v>      -0.05549452      -0.12713508      -0.24160760 </v>
  </varray>
  <varray name="stress" >
   <v>      -1.39382279       0.04455066       0.23369635 </v>
   <v>       0.04455067      -1.79564974      -0.23525702 </v>
   <v>       0.23369636      -0.23525700      -1.61684129 </v>
  </varray>
  <energy>
   <i name="e_fr_energy">    -59.72169055 </i>
   <i name="e_wo_entrp">    -59.72169055 </i>
   <i name="e_0_energy">      0.00000000 </i>
  </energy>
  <time name="totalsc">   19.60   20.15</time>
 </calculation>
 <calculation>
  <scstep>
   <time name="dav">    3.66    3.66</time>
   <time name="total">    4.10    4.12</time>
   <energy>
    <i name="alphaZ">     77.53240597 </i>
    <i name="ewald">  60315.56144322 </i>
    <i name="hartreedc"> -89156.37084276 </i>
    <i name="XCdc">   -329.64580362 </i>
    <i name="pawpsdc">  31341.87736137 </i>
    <i name="pawaedc"> -30056.82589459 </i>
    <i name="eentropy">      0.00000000 </i>
    <i name="bandstr">  -2330.63056284 </i>
    <i name="atom">  30078.76027250 </i>
    <i name="e_fr_energy">    -59.74162075 </i>
    <i name="e_wo_entrp">    -59.74162075 </i>
    <i name="e_0_energy">    -59.74162075 </i>
   </energy>
  </scstep>
  <scstep>
   <time name="dav">    3.86    3.87</time>
   <time name="total">    4.31    4.32</time>
   <energy>
    <i name="e_fr_energy">    -59.79156036 </i>
    <i name="e_wo_entrp">    -59.79156036 </i>
    <i name="e_0_energy">    -59.79156036 </i>
   </energy>
  </scstep>
  <scstep>
   <time name="dav">    3.94    3.95</time>
   <time name="total">    4.39    4.42</time>
   <energy>
    <i name="e_fr_energy">    -59.79095213 </i>
    <i name="e_wo_entrp">    -59.79095213 </i>
    <i name="e_0_energy">    -59.79095213 </i>
   </energy>
  </scstep>
  <scstep>
   <time name="dav">    3.86    3.86</time>
   <time name="total">    4.30    4.31</time>
   <energy>
    <i name="e_fr_energy">    -59.78933707 </i>
    <i name="e_wo_entrp">    -59.78933707 </i>
    <i name="e_0_energy">    -59.78933707 </i>
   </energy>
  </scstep>
  <scstep>
   <time name="dav">    3.89    3.89</time>
   <time name="total">    4.33    4.36</time>
   <energy>
    <i name="e_fr_energy">    -59.78933722 </i>
    <i name="e_wo_entrp">    -59.78933722 </i>
    <i name="e_0_energy">    -59.78933722 </i>
   </energy>
  </scstep>
  <scstep>
   <time name="dav">    2.75    2.75</time>
   <time name="total">    3.05    3.16</time>
   <energy>
    <i name="alphaZ">     77.53240597 </i>
    <i name="ewald">  60315.56144322 </i>
    <i name="hartreedc"> -89159.05051225 </i>
    <i name="XCdc">   -329.57379445 </i>
    <i name="pawpsdc">  31289.39328544 </i>
    <i name="pawaedc"> -30003.44721111 </i>
    <i name="eentropy">      0.00000000 </i>
    <i name="bandstr">  -2328.96522671 </i>
    <i name="atom">  30078.76027250 </i>
    <i name="e_fr_energy">    -59.78933738 </i>
    <i name="e_wo_entrp">    -59.78933738 </i>
    <i name="e_0_energy">    -59.78933738 </i>
   </energy>
  </scstep>
  <structure>
   <crystal>
    <varray name="basis" >
     <v>      20.97372834       0.00000000       0.00000000 </v>
     <v>       0.00000000      20.97372834       0.00000000 </v>
     <v>       0.00000000       0.00000000      20.97372834 </v>
    </varray>
    <i name="volume">   9226.28605534 </i>
    <varray name="rec_basis" >
     <v>       0.04767870       0.00000000       0.00000000 </v>
     <v>       0.00000000       0.04767870       0.00000000 </v>
     <v>       0.00000000       0.00000000       0.04767870 </v>
    </varray>
   </crystal>
   <varray name="positions" >
    <v>       0.60297751       0.69746546       0.36420641 </v>
    <v>       0.57863576       0.56774162       0.35346525 </v>
    <v>       0.47664828       0.65069574       0.36721456 </v>
    <v>       0.54706513       0.43806484       0.35939470 </v>
    <v>       0.66340313       0.61662233       0.45135263 </v>
    <v>       0.54741127       0.67025215       0.48296894 </v>
    <v>       0.61743347       0.48822894       0.45944855 </v>
    <v>       0.44318245       0.52216194       0.33253039 </v>
    <v>       0.49051582       0.54568247       0.45492755 </v>
    <v>       0.56060329       0.36439692       0.47259709 </v>
    <v>       0.36402293       0.59991433       0.41083719 </v>
    <v>       0.71255303       0.53642585       0.54305889 </v>
    <v>       0.58347378       0.56707379       0.56278214 </v>
    <v>       0.43834601       0.41781705       0.42911986 </v>
    <v>       0.32515399       0.47605101       0.39102753 </v>
    <v>       0.42098701       0.64358262       0.52140348 </v>
    <v>       0.50258496       0.45285398       0.55186200 </v>
    <v>       0.51212392       0.66779859       0.61662472 </v>
    <v>       0.43631122       0.33366886       0.53101170 </v>
    <v>       0.63769700       0.42478364       0.57439351 </v>
    <v>       0.31937542       0.39065530       0.49642192 </v>
    <v>       0.55154528       0.56087511       0.69490790 </v>
    <v>       0.54216649       0.33923624       0.61139200 </v>
    <v>       0.37064954       0.51297826       0.51219762 </v>
    <v>       0.44392502       0.55388649       0.61690958 </v>
    <v>       0.67186589       0.51429868       0.66590194 </v>
    <v>       0.60626680       0.40845502       0.70374930 </v>
    <v>       0.38096407       0.42527742       0.61009679 </v>
    <v>       0.48337575       0.44616303       0.69045017 </v>
   </varray>
  </structure>
  <varray name="forces" >
   <v>       0.04898871       0.06714279      -0.00167232 </v>
   <v>      -0.03785942      -0.07914462       0.05153461 </v>
   <v>       0.01812196       0.13530355      -0.08668773 </v>
   <v>       0.01191893       0.08039628      -0.03301374 </v>
   <v>       0.02424595      -0.02703346       0.01346514 </v>
   <v>      -0.04828661      -0.07654787       0.02920633 </v>
   <v>      -0.03230562      -0.02362047      -0.00389787 </v>
   <v>       0.01357023      -0.01402891       0.05932806 </v>
   <v>       0.06821664      -0.01137622       0.15097202 </v>
   <v>      -0.07442543       0.07254492       0.08857456 </v>
   <v>       0.00534574       0.00849859      -0.07546362 </v>
   <v>       0.02452583       0.00720591       0.01646164 </v>
   <v>       0.01190597      -0.04104629       0.03538759 </v>
   <v>      -0.02964430      -0.00703767       0.00128834 </v>
   <v>      -0.08956819      -0.04064862      -0.01408173 </v>
   <v>      -0.04991210      -0.02724115      -0.02661582 </v>
   <v>       0.01722451       0.05711413      -0.07762339 </v>
   <v>      -0.00366997      -0.11860379      -0.03402446 </v>
   <v>       0.04851947      -0.02859945       0.03014769 </v>
   <v>      -0.03756103       0.03039518      -0.06539877 </v>
   <v>      -0.08181443       0.02580372      -0.01844576 </v>
   <v>      -0.01242775      -0.07062479      -0.03941658 </v>
   <v>      -0.04336306       0.13120922       0.10024176 </v>
   <v>      -0.04206808       0.07962526      -0.02640357 </v>
   <v>      -0.02066925      -0.05930230      -0.00928010 </v>
   <v>       0.09086206       0.06948809       0.00634776 </v>
   <v>       0.09594037      -0.01759923       0.13762493 </v>
   <v>       0.03543436       0.01717224      -0.01711942 </v>
   <v>       0.08875452      -0.13944502      -0.19143555 </v>
  </varray>
  <varray name="stress" >
   <v>      -1.63790121       0.04764186       0.18036743 </v>
   <v>       0.04764186      -2.00096662      -0.13791863 </v>
   <v>       0.18036743      -0.13791864      -1.86432202 </v>
  </varray>
  <energy>
   <i name="e_fr_energy">    -59.78933738 </i>
   <i name="e_wo_entrp">    -59.78933738 </i>
   <i name="e_0_energy">      0.00000000 </i>
  </energy>
  <time name="totalsc">   31.30   32.31</time>
 </calculation>
 <calculation>
  <scstep>
   <time name="dav">    3.66    3.67</time>
   <time name="total">    4.12    4.12</time>
   <energy>
    <i name="alphaZ">     77.53240597 </i>
    <i name="ewald">  59671.95517010 </i>
    <i name="hartreedc"> -88518.98941996 </i>
    <i name="XCdc">   -330.25274085 </i>
    <i name="pawpsdc">  31289.88276540 </i>
    <i name="pawaedc"> -30003.93848263 </i>
    <i name="eentropy">      0.00000000 </i>
    <i name="bandstr">  -2324.52905308 </i>
    <i name="atom">  30078.76027250 </i>
    <i name="e_fr_energy">    -59.57908256 </i>
    <i name="e_wo_entrp">    -59.57908256 </i>
    <i name="e_0_energy">    -59.57908256 </i>
   </energy>
  </scstep>
[...]
       <r>    -0.3172     0.0066   181.0003 </r>
       <r>    -0.2779     0.0000   183.0000 </r>
       <r>    -0.2386     0.0000   184.0000 </r>
       <r>    -0.1992     0.0000   184.0000 </r>
       <r>    -0.1599     0.0000   184.0000 </r>
       <r>    -0.1206     0.0000   185.0000 </r>
       <r>    -0.0812     0.0000   185.0000 </r>
       <r>    -0.0419     0.0000   185.0000 </r>
       <r>    -0.0026     0.0000   185.0000 </r>
       <r>     0.0368     0.0000   185.0000 </r>
       <r>     0.0761     0.0000   185.0000 </r>
       <r>     0.1154     0.0000   187.0000 </r>
       <r>     0.1548     0.0000   187.0000 </r>
       <r>     0.1941     0.0000   187.0000 </r>
       <r>     0.2334     0.0000   187.0000 </r>
       <r>     0.2728     0.0000   187.0000 </r>
       <r>     0.3121     0.0000   188.0000 </r>
       <r>     0.3514     0.0000   189.0000 </r>
       <r>     0.3908     0.0000   189.0000 </r>
       <r>     0.4301     0.0000   189.0000 </r>
       <r>     0.4694     0.0000   189.0000 </r>
       <r>     0.5088     0.0000   190.0000 </r>
       <r>     0.5481     0.0000   190.0000 </r>
       <r>     0.5874     0.0000   190.0000 </r>
       <r>     0.6268     0.0000   190.0000 </r>
       <r>     0.6661     0.0000   191.0000 </r>
       <r>     0.7054     0.0000   192.0000 </r>
       <r>     0.7448     0.0000   192.0000 </r>
       <r>     0.7841     0.0000   193.0000 </r>
       <r>     0.8234     0.0000   195.0000 </r>
       <r>     0.8628     0.0000   197.0000 </r>
       <r>     0.9021     0.0000   197.0000 </r>
       <r>     0.9414     0.0000   197.0000 </r>
       <r>     0.9808     0.0000   198.0000 </r>
       <r>     1.0201     0.0000   200.0000 </r>
       <r>     1.0594     0.0000   201.0000 </r>
       <r>     1.0988     0.0000   203.0000 </r>
       <r>     1.1381     0.0000   204.0000 </r>
       <r>     1.1774     0.0000   206.0000 </r>
       <r>     1.2168     0.0000   208.0000 </r>
       <r>     1.2561     0.0000   208.0000 </r>
       <r>     1.2954     0.0000   208.0000 </r>
       <r>     1.3348     0.0000   208.0000 </r>
       <r>     1.3741     0.0000   208.0000 </r>
       <r>     1.4134     0.0000   208.0000 </r>
       <r>     1.4528     0.0000   208.0000 </r>
       <r>     1.4921     0.0000   208.0000 </r>
       <r>     1.5314     0.0000   208.0000 </r>
       <r>     1.5708     0.0000   208.0000 </r>
       <r>     1.6101     0.0000   208.0000 </r>
       <r>     1.6494     0.0000   208.0000 </r>
       <r>     1.6888     0.0000   208.0000 </r>
       <r>     1.7281     0.0000   208.0000 </r>
       <r>     1.7675     0.0000   208.0000 </r>
      </set>
      <set comment="spin 2">
       <r>   -10.0327     0.0000     0.0000 </r>
       <r>    -9.9934     0.0000     0.0000 </r>
       <r>    -9.9541     0.0000     0.0000 </r>
       <r>    -9.9147     0.0000     0.0000 </r>
       <r>    -9.8754     0.0000     0.0000 </r>
       <r>    -9.8361     0.0000     0.0000 </r>
       <r>    -9.7967     0.0000     0.0000 </r>
       <r>    -9.7574     0.0000     0.0000 </r>
       <r>    -9.7181     0.0000     0.0000 </r>
       <r>    -9.6787     0.0000     0.0000 </r>
       <r>    -9.6394     0.0000     0.0000 </r>
       <r>    -9.6001     0.0000     0.0000 </r>
       <r>    -9.5607     0.0000     0.0000 </r>
       <r>    -9.5214     0.0000     0.0000 </r>
       <r>    -9.4821     0.0019     0.0001 </r>
       <r>    -9.4427     0.0000     1.0000 </r>
       <r>    -9.4034     0.0000     1.0000 </r>
       <r>    -9.3641     0.0000     1.0000 </r>
       <r>    -9.3247     0.0000     1.0000 </r>
       <r>    -9.2854     0.0000     1.0000 </r>
       <r>    -9.2461     0.0000     1.0000 </r>
       <r>    -9.2067     0.0000     1.0000 </r>
       <r>    -9.1674     0.0000     1.0000 </r>
       <r>    -9.1281     0.0000     1.0000 </r>
       <r>    -9.0887     0.0000     1.0000 </r>
       <r>    -9.0494     0.0000     2.0000 </r>
       <r>    -9.0101     0.0000     2.0000 </r>
       <r>    -8.9707     0.0000     3.0000 </r>
       <r>    -8.9314     0.0000     5.0000 </r>
       <r>    -8.8921     0.0000     7.0000 </r>
       <r>    -8.8527     0.0000     9.0000 </r>
       <r>    -8.8134     0.0000    11.0000 </r>
       <r>    -8.7740     0.0000    12.0000 </r>
       <r>    -8.7347     0.0000    14.0000 </r>
       <r>    -8.6954     0.0000    15.0000 </r>
       <r>    -8.6560     0.0000    16.0000 </r>
       <r>    -8.6167     0.0000    17.0000 </r>
       <r>    -8.5774     0.0000    20.0000 </r>
       <r>    -8.5380     0.2663    21.0105 </r>
       <r>    -8.4987     0.0000    23.0000 </r>
       <r>    -8.4594     0.0000    25.0000 </r>
       <r>    -8.4200     0.0000    27.0000 </r>
       <r>    -8.3807     0.0000    29.0000 </r>
       <r>    -8.3414     0.0000    32.0000 </r>
       <r>    -8.3020     0.0000    33.0000 </r>
       <r>    -8.2627     0.0000    34.0000 </r>
       <r>    -8.2234     0.0000    35.0000 </r>
       <r>    -8.1840     0.0000    38.0000 </r>
       <r>    -8.1447     0.0000    39.0000 </r>
       <r>    -8.1054     0.0000    42.0000 </r>
       <r>    -8.0660     0.0000    44.0000 </r>
       <r>    -8.0267     0.0000    45.0000 </r>
       <r>    -7.9874     0.0000    47.0000 </r>
       <r>    -7.9480     0.0000    48.0000 </r>
       <r>    -7.9087     0.0000    49.0000 </r>
       <r>    -7.8694     0.0000    51.0000 </r>
       <r>    -7.8300     0.0000    53.0000 </r>
       <r>    -7.7907     0.0000    56.0000 </r>
       <r>    -7.7514     0.0000    56.0000 </r>
       <r>    -7.7120     0.0000    59.0000 </r>
       <r>    -7.6727     0.0000    61.0000 </r>
       <r>    -7.6334     0.0000    64.0000 </r>
       <r>    -7.5940     0.0000    65.0000 </r>
       <r>    -7.5547     0.0000    67.0000 </r>
       <r>    -7.5154     0.0000    67.0000 </r>
       <r>    -7.4760     0.0000    70.0000 </r>
       <r>    -7.4367     0.0000    72.0000 </r>
       <r>    -7.3974     0.0000    73.0000 </r>
       <r>    -7.3580     0.0000    77.0000 </r>
       <r>    -7.3187     0.0000    79.0000 </r>
       <r>    -7.2794     0.0000    80.0000 </r>
       <r>    -7.2400     0.0000    82.0000 </r>
       <r>    -7.2007     0.0000    83.0000 </r>
       <r>    -7.1614     0.0000    85.0000 </r>
       <r>    -7.1220     0.0000    86.0000 </r>
       <r>    -7.0827     0.0000    89.0000 </r>
       <r>    -7.0434     0.0000    92.0000 </r>
       <r>    -7.0040     0.0000    94.0000 </r>
       <r>    -6.9647     0.0000    96.0000 </r>
       <r>    -6.9254    25.2226    99.9921 </r>
       <r>    -6.8860     0.0000   102.0000 </r>
       <r>    -6.8467     0.0000   105.0000 </r>
       <r>    -6.8074     0.0000   108.0000 </r>
       <r>    -6.7680     0.0000   111.0000 </r>
       <r>    -6.7287     0.0000   114.0000 </r>
       <r>    -6.6893     0.0000   116.0000 </r>
       <r>    -6.6500     0.0000   119.0000 </r>
       <r>    -6.6107     0.0000   123.0000 </r>
       <r>    -6.5713     0.0000   126.0000 </r>
       <r>    -6.5320     0.0015   128.0001 </r>
       <r>    -6.4927    25.4233   131.0000 </r>
       <r>    -6.4533     0.0000   134.0000 </r>
       <r>    -6.4140     0.0000   137.0000 </r>
       <r>    -6.3747     0.0000   139.0000 </r>
       <r>    -6.3353     0.0000   140.0000 </r>
       <r>    -6.2960     0.0000   143.0000 </r>
       <r>    -6.2567     0.0000   146.0000 </r>
       <r>    -6.2173     0.0000   147.0000 </r>
       <r>    -6.1780     0.0000   149.0000 </r>
       <r>    -6.1387     0.0000   149.0000 </r>
       <r>    -6.0993     0.0000   149.0000 </r>
       <r>    -6.0600     0.0000   149.0000 </r>
       <r>    -6.0207     0.0000   149.0000 </r>
       <r>    -5.9813     0.0000   149.0000 </r>
       <r>    -5.9420     0.0000   149.0000 </r>
       <r>    -5.9027     0.0000   149.0000 </r>
       <r>    -5.8633     0.0000   149.0000 </r>
       <r>    -5.8240     0.0000   149.0000 </r>
       <r>    -5.7847     0.0000   149.0000 </r>
       <r>    -5.7453     0.0000   150.0000 </r>
       <r>    -5.7060     0.0000   150.0000 </r>
       <r>    -5.6667     0.0000   151.0000 </r>
       <r>    -5.6273     0.0000   151.0000 </r>
       <r>    -5.5880     0.0000   151.0000 </r>
       <r>    -5.5487     0.0000   152.0000 </r>
       <r>    -5.5093     0.0000   152.0000 </r>
       <r>    -5.4700     0.0000   152.0000 </r>
       <r>    -5.4307     0.0000   152.0000 </r>
       <r>    -5.3913     0.0000   152.0000 </r>
       <r>    -5.3520     0.0000   152.0000 </r>
       <r>    -5.3127     0.0000   152.0000 </r>
       <r>    -5.2733     0.0000   152.0000 </r>
       <r>    -5.2340     0.0000   152.0000 </r>
       <r>    -5.1947     0.0000   152.0000 </r>
       <r>    -5.1553     0.0000   152.0000 </r>
       <r>    -5.1160     0.0000   152.0000 </r>
       <r>    -5.0767     0.0000   152.0000 </r>
       <r>    -5.0373     0.0000   153.0000 </r>
       <r>    -4.9980     0.0000   153.0000 </r>
       <r>    -4.9587     0.0000   153.0000 </r>
       <r>    -4.9193     0.0000   153.0000 </r>
       <r>    -4.8800     0.0000   153.0000 </r>
       <r>    -4.8407     0.0000   153.0000 </r>
       <r>    -4.8013     0.0000   153.0000 </r>
       <r>    -4.7620     0.0000   154.0000 </r>
       <r>    -4.7227     0.0000   154.0000 </r>
       <r>    -4.6833     0.0000   154.0000 </r>
       <r>    -4.6440     0.0000   154.0000 </r>
       <r>    -4.6046     0.0000   154.0000 </r>
       <r>    -4.5653     0.0000   154.0000 </r>
       <r>    -4.5260     0.0000   154.0000 </r>
       <r>    -4.4866     0.0000   154.0000 </r>
       <r>    -4.4473     0.0000   154.0000 </r>
       <r>    -4.4080     0.0000   154.0000 </r>
       <r>    -4.3686     0.0000   154.0000 </r>
       <r>    -4.3293     0.0000   154.0000 </r>
       <r>    -4.2900     0.0000   154.0000 </r>
       <r>    -4.2506     0.0000   154.0000 </r>
       <r>    -4.2113     0.0000   156.0000 </r>
       <r>    -4.1720     0.0000   156.0000 </r>
       <r>    -4.1326     0.0000   156.0000 </r>
       <r>    -4.0933     0.0000   156.0000 </r>
       <r>    -4.0540     0.0000   156.0000 </r>
       <r>    -4.0146     0.0000   156.0000 </r>
       <r>    -3.9753     0.0000   156.0000 </r>
       <r>    -3.9360     0.0000   157.0000 </r>
       <r>    -3.8966     0.0000   157.0000 </r>
       <r>    -3.8573     0.0000   158.0000 </r>
       <r>    -3.8180     0.0000   158.0000 </r>
       <r>    -3.7786     0.0000   158.0000 </r>
       <r>    -3.7393     0.0000   158.0000 </r>
       <r>    -3.7000     0.0000   159.0000 </r>
       <r>    -3.6606     0.0000   159.0000 </r>
       <r>    -3.6213     0.0000   159.0000 </r>
       <r>    -3.5820     0.0000   159.0000 </r>
       <r>    -3.5426     0.0000   159.0000 </r>
       <r>    -3.5033     0.0000   159.0000 </r>
       <r>    -3.4640     0.0000   159.0000 </r>
       <r>    -3.4246     0.0000   159.0000 </r>
       <r>    -3.3853     0.0000   160.0000 </r>
       <r>    -3.3460     0.0000   160.0000 </r>
       <r>    -3.3066     0.0000   161.0000 </r>
       <r>    -3.2673     0.0000   161.0000 </r>
       <r>    -3.2280     0.0000   161.0000 </r>
       <r>    -3.1886     0.0000   161.0000 </r>
       <r>    -3.1493     0.0000   161.0000 </r>
       <r>    -3.1100     0.0000   161.0000 </r>
       <r>    -3.0706     0.0000   161.0000 </r>
       <r>    -3.0313     0.0000   161.0000 </r>
       <r>    -2.9920     0.0000   162.0000 </r>
       <r>    -2.9526     0.0000   162.0000 </r>
       <r>    -2.9133     0.0000   162.0000 </r>
       <r>    -2.8740     0.0000   162.0000 </r>
       <r>    -2.8346     0.0000   162.0000 </r>
       <r>    -2.7953     0.0000   162.0000 </r>
       <r>    -2.7560     0.0000   162.0000 </r>
       <r>    -2.7166     0.0000   162.0000 </r>
       <r>    -2.6773     0.0000   162.0000 </r>
       <r>    -2.6380     0.0000   162.0000 </r>
       <r>    -2.5986     0.0000   162.0000 </r>
       <r>    -2.5593     0.0000   163.0000 </r>
       <r>    -2.5200     0.0000   163.0000 </r>
       <r>    -2.4806     0.0000   163.0000 </r>
       <r>    -2.4413     0.0000   164.0000 </r>
       <r>    -2.4019     0.0000   165.0000 </r>
       <r>    -2.3626     0.0000   166.0000 </r>
       <r>    -2.3233     0.0000   166.0000 </r>
       <r>    -2.2839     0.0000   166.0000 </r>
       <r>    -2.2446     0.0000   166.0000 </r>
       <r>    -2.2053     0.0000   166.0000 </r>
       <r>    -2.1659     0.0000   167.0000 </r>
       <r>    -2.1266     0.0000   167.0000 </r>
       <r>    -2.0873     0.0000   167.0000 </r>
       <r>    -2.0479     0.0000   168.0000 </r>
       <r>    -2.0086     0.0000   168.0000 </r>
       <r>    -1.9693     0.0000   168.0000 </r>
       <r>    -1.9299     0.0000   169.0000 </r>
       <r>    -1.8906     0.0000   169.0000 </r>
       <r>    -1.8513     0.0000   169.0000 </r>
       <r>    -1.8119     0.0000   169.0000 </r>
       <r>    -1.7726     0.0000   169.0000 </r>
       <r>    -1.7333     0.0000   170.0000 </r>
       <r>    -1.6939     0.0000   171.0000 </r>
       <r>    -1.6546     0.0000   171.0000 </r>
       <r>    -1.6153     0.0000   171.0000 </r>
       <r>    -1.5759     0.0000   172.0000 </r>
       <r>    -1.5366     0.0000   172.0000 </r>
       <r>    -1.4973     0.0000   172.0000 </r>
       <r>    -1.4579     0.0000   173.0000 </r>
       <r>    -1.4186     0.0000   173.0000 </r>
       <r>    -1.3793     0.0000   173.0000 </r>
       <r>    -1.3399     0.0000   173.0000 </r>
       <r>    -1.3006     0.0000   173.0000 </r>
       <r>    -1.2613     0.0000   173.0000 </r>
       <r>    -1.2219     0.0000   173.0000 </r>
       <r>    -1.1826     0.0000   173.0000 </r>
       <r>    -1.1433     0.0000   174.0000 </r>
       <r>    -1.1039     0.0000   175.0000 </r>
       <r>    -1.0646     0.0000   175.0000 </r>
       <r>    -1.0253     0.0000   175.0000 </r>
       <r>    -0.9859     0.0000   175.0000 </r>
       <r>    -0.9466     0.0000   175.0000 </r>
       <r>    -0.9073     0.0000   175.0000 </r>
       <r>    -0.8679     0.0000   176.0000 </r>
       <r>    -0.8286     0.0000   176.0000 </r>
       <r>    -0.7893     0.0000   177.0000 </r>
       <r>    -0.7499     0.0000   177.0000 </r>
       <r>    -0.7106     0.0000   177.0000 </r>
       <r>    -0.6713     0.0000   177.0000 </r>
       <r>    -0.6319     0.0000   178.0000 </r>
       <r>    -0.5926     0.0000   178.0000 </r>
       <r>    -0.5533     0.0000   178.0000 </r>
       <r>    -0.5139     0.0000   179.0000 </r>
       <r>    -0.4746     0.0000   180.0000 </r>
       <r>    -0.4353     0.0000   180.0000 </r>
       <r>    -0.3959     0.0000   181.0000 </r>
       <r>    -0.3566     0.0000   181.0000 </r>
       <r>    -0.3172     0.0000   181.0000 </r>
       <r>    -0.2779     0.0000   182.0000 </r>
       <r>    -0.2386     0.0000   183.0000 </r>
       <r>    -0.1992     0.0000   184.0000 </r>
       <r>    -0.1599     0.0000   184.0000 </r>
       <r>    -0.1206     0.0000   185.0000 </r>
       <r>    -0.0812     0.0000   185.0000 </r>
       <r>    -0.0419     0.0000   185.0000 </r>
       <r>    -0.0026     0.0000   185.0000 </r>
       <r>     0.0368     0.0000   185.0000 </r>
       <r>     0.0761     0.0000   185.0000 </r>
       <r>     0.1154     0.0000   185.0000 </r>
       <r>     0.1548     0.0000   186.0000 </r>
       <r>     0.1941     0.0000   187.0000 </r>
       <r>     0.2334     0.0000   187.0000 </r>
       <r>     0.2728     0.0000   187.0000 </r>
       <r>     0.3121     0.0000   187.0000 </r>
       <r>     0.3514     0.0000   188.0000 </r>
       <r>     0.3908     0.0000   189.0000 </r>
       <r>     0.4301     0.0000   189.0000 </r>
       <r>     0.4694     0.0000   189.0000 </r>
       <r>     0.5088     0.0000   189.0000 </r>
       <r>     0.5481     0.0000   190.0000 </r>
       <r>     0.5874     0.0000   190.0000 </r>
       <r>     0.6268     0.0000   190.0000 </r>
       <r>     0.6661     0.0000   190.0000 </r>
       <r>     0.7054     0.0000   191.0000 </r>
       <r>     0.7448     0.0000   192.0000 </r>
       <r>     0.7841     0.0000   193.0000 </r>
       <r>     0.8234     0.0000   195.0000 </r>
       <r>     0.8628     0.0000   196.0000 </r>
       <r>     0.9021     0.0000   197.0000 </r>
       <r>     0.9414     0.0000   197.0000 </r>
       <r>     0.9808     0.0000   197.0000 </r>
       <r>     1.0201     0.0000   198.0000 </r>
       <r>     1.0594     0.0000   200.0000 </r>
       <r>     1.0988     0.0000   201.0000 </r>
       <r>     1.1381    25.4233   204.0000 </r>
       <r>     1.1774     0.0000   206.0000 </r>
       <r>     1.2168     0.0000   207.0000 </r>
       <r>     1.2561     0.0000   208.0000 </r>
       <r>     1.2954     0.0000   208.0000 </r>
       <r>     1.3348     0.0000   208.0000 </r>
       <r>     1.3741     0.0000   208.0000 </r>
       <r>     1.4134     0.0000   208.0000 </r>
       <r>     1.4528     0.0000   208.0000 </r>
       <r>     1.4921     0.0000   208.0000 </r>
       <r>     1.5314     0.0000   208.0000 </r>
       <r>     1.5708     0.0000   208.0000 </r>
       <r>     1.6101     0.0000   208.0000 </r>
       <r>     1.6494     0.0000   208.0000 </r>
       <r>     1.6888     0.0000   208.0000 </r>
       <r>     1.7281     0.0000   208.0000 </r>
       <r>     1.7675     0.0000   208.0000 </r>
      </set>
     </set>
    </array>
   </total>
  </dos>
 </calculation>
 <structure name="finalpos" >
  <crystal>
   <varray name="basis" >
    <v>      20.97372834       0.00000000       0.00000000 </v>
    <v>       0.00000000      20.97372834       0.00000000 </v>
    <v>       0.00000000       0.00000000      20.97372834 </v>
   </varray>
   <i name="volume">   9226.28605534 </i>
   <varray name="rec_basis" >
    <v>       0.04767870       0.00000000       0.00000000 </v>
    <v>       0.00000000       0.04767870       0.00000000 </v>
    <v>       0.00000000       0.00000000       0.04767870 </v>
   </varray>
  </crystal>
  <varray name="positions" >
   <v>       0.60656466       0.69804327       0.36101038 </v>
   <v>       0.57577729       0.56881370       0.35825770 </v>
   <v>       0.47818360       0.65718754       0.35900552 </v>
   <v>       0.54594175       0.43786564       0.36291165 </v>
   <v>       0.66591752       0.61790894       0.44918572 </v>
   <v>       0.54369835       0.66628564       0.47776455 </v>
   <v>       0.62533601       0.48665941       0.45530677 </v>
   <v>       0.44669000       0.52372140       0.33597115 </v>
   <v>       0.49116081       0.54460531       0.46175741 </v>
   <v>       0.55881356       0.37197190       0.47989355 </v>
   <v>       0.36960021       0.60334511       0.40779447 </v>
   <v>       0.72184330       0.53646926       0.53801562 </v>
   <v>       0.59435531       0.56725677       0.55664042 </v>
   <v>       0.43675416       0.42271193       0.43767226 </v>
   <v>       0.32536989       0.47835268       0.38751490 </v>
   <v>       0.41762999       0.64104065       0.52486256 </v>
   <v>       0.50153805       0.45880768       0.56205039 </v>
   <v>       0.51209986       0.65291661       0.61570277 </v>
   <v>       0.43811007       0.33755869       0.53907265 </v>
   <v>       0.63877778       0.43165759       0.57516533 </v>
   <v>       0.31594583       0.39157116       0.49227645 </v>
   <v>       0.54793384       0.53588114       0.67825947 </v>
   <v>       0.54893309       0.34055617       0.61478394 </v>
   <v>       0.36264814       0.51718459       0.51039188 </v>
   <v>       0.42719953       0.55053655       0.62428988 </v>
   <v>       0.68092720       0.52223646       0.66334339 </v>
   <v>       0.60806784       0.41834207       0.70629706 </v>
   <v>       0.37076284       0.42794970       0.60735133 </v>
   <v>       0.47468372       0.42567012       0.68970512 </v>
  </varray>
 </structure>
</modeling>
