7
Energy = -10.51251060 eV
Ag 9.1731113645935 10.194563788564274 7.754548197573988
Ag 7.228197150155653 10.140693032288825 9.705060362977811
Ag 10.72251165196578 11.659856081723811 9.487991191282102
Ag 11.707863525997153 9.366507732195663 8.404809115647636
Ag 9.741540916598318 9.206957328786848 10.371913104892453
Ag 8.126083270425731 7.798382542064817 8.618716232223779
Ag 10.494723231334213 8.802263714053916 12.81924817987173
