       N       E                     dE             d eps       ncg     rms          rms(c)
DAV:   1     0.261256387864E+04    0.26126E+04   -0.54737E+04   768   0.595E+02
DAV:   2     0.584320818339E+03   -0.20282E+04   -0.18145E+04  1328   0.145E+02
DAV:   3    -0.223727642805E+02   -0.60669E+03   -0.55287E+03  1016   0.885E+01
DAV:   4    -0.552296595342E+02   -0.32857E+02   -0.32544E+02   840   0.226E+01
DAV:   5    -0.557008778758E+02   -0.47122E+00   -0.47041E+00   864   0.322E+00    0.304E+01
DAV:   6    -0.207334950518E+02    0.34967E+02   -0.11069E+02   776   0.163E+01    0.159E+01
DAV:   7    -0.178238692421E+02    0.29096E+01   -0.54818E+00   808   0.580E+00    0.916E+00
DAV:   8    -0.175900871887E+02    0.23378E+00   -0.19998E+00   808   0.302E+00    0.476E+00
DAV:   9    -0.207019518854E+02   -0.31119E+01   -0.70449E-01   848   0.146E+00    0.361E+00
DAV:  10    -0.214583056149E+02   -0.75635E+00   -0.10174E-01   864   0.105E+00    0.328E+00
DAV:  11    -0.289259239362E+02   -0.74676E+01   -0.24520E+00   792   0.298E+00    0.246E+00
DAV:  12    -0.401641390886E+02   -0.11238E+02   -0.55176E+00   776   0.352E+00    0.228E+00
DAV:  13    -0.418453061543E+02   -0.16812E+01   -0.39528E-01   832   0.116E+00    0.185E+00
DAV:  14    -0.447612609469E+02   -0.29160E+01   -0.69122E-01   800   0.120E+00    0.147E+00
DAV:  15    -0.490933956166E+02   -0.43321E+01   -0.13966E+00   792   0.148E+00    0.183E+00
DAV:  16    -0.498008805746E+02   -0.70748E+00   -0.97673E-02   840   0.545E-01    0.144E+00
DAV:  17    -0.511057141868E+02   -0.13048E+01   -0.24031E-01   768   0.644E-01    0.100E+00
DAV:  18    -0.528582464482E+02   -0.17525E+01   -0.44629E-01   784   0.879E-01    0.376E-01
DAV:  19    -0.537268888235E+02   -0.86864E+00   -0.87005E-02   808   0.365E-01    0.297E-01
DAV:  20    -0.542521613456E+02   -0.52527E+00   -0.22304E-02   800   0.265E-01    0.166E-01
DAV:  21    -0.546572569906E+02   -0.40510E+00   -0.19695E-02   816   0.167E-01    0.881E-02
DAV:  22    -0.547318702033E+02   -0.74613E-01   -0.14321E-03   672   0.550E-02    0.606E-02
DAV:  23    -0.547792002409E+02   -0.47330E-01   -0.21377E-03   768   0.547E-02    0.386E-02
DAV:  24    -0.547845677804E+02   -0.53675E-02   -0.86543E-04   560   0.436E-02    0.234E-02
DAV:  25    -0.547885121036E+02   -0.39443E-02   -0.19256E-04   568   0.214E-02    0.224E-02
DAV:  26    -0.547925714277E+02   -0.40593E-02   -0.22026E-04   552   0.187E-02    0.143E-02
DAV:  27    -0.547950522933E+02   -0.24809E-02   -0.75856E-05   568   0.134E-02    0.712E-03
DAV:  28    -0.547964605238E+02   -0.14082E-02   -0.32027E-05   536   0.897E-03    0.477E-03
DAV:  29    -0.547969580074E+02   -0.49748E-03   -0.17233E-05   528   0.667E-03    0.297E-03
DAV:  30    -0.547970122218E+02   -0.54214E-04   -0.40853E-06   528   0.350E-03
   1 F= -.54797012E+02 E0= -.54797012E+02  d E =-.547970E+02  mag=     1.0000
       N       E                     dE             d eps       ncg     rms          rms(c)
DAV:   1    -0.548259524527E+02   -0.28994E-01   -0.21106E+00   808   0.283E+00    0.112E-01
DAV:   2    -0.548268841002E+02   -0.93165E-03   -0.90861E-03   824   0.256E-01    0.739E-02
DAV:   3    -0.548268745233E+02    0.95769E-05   -0.17275E-04   520   0.387E-02
   2 F= -.54826875E+02 E0= -.54826875E+02  d E =-.298623E-01  mag=     1.0000
       N       E                     dE             d eps       ncg     rms          rms(c)
DAV:   1    -0.548893562143E+02   -0.62472E-01   -0.19042E+01   768   0.850E+00    0.323E-01
DAV:   2    -0.548974587917E+02   -0.81026E-02   -0.82524E-02   816   0.771E-01    0.209E-01
DAV:   3    -0.548972088293E+02    0.24996E-03   -0.15991E-03   832   0.118E-01    0.135E-01
DAV:   4    -0.548971052511E+02    0.10358E-03   -0.79253E-04   832   0.641E-02    0.231E-02
DAV:   5    -0.548970922443E+02    0.13007E-04   -0.43951E-05   488   0.181E-02
   3 F= -.54897092E+02 E0= -.54897092E+02  d E =-.100080E+00  mag=     1.0000
       N       E                     dE             d eps       ncg     rms          rms(c)
DAV:   1    -0.549245357806E+02   -0.27431E-01   -0.76182E+01   768   0.170E+01    0.596E-01
DAV:   2    -0.549573756680E+02   -0.32840E-01   -0.33199E-01   792   0.155E+00    0.392E-01
DAV:   3    -0.549564217211E+02    0.95395E-03   -0.61607E-03   816   0.238E-01    0.264E-01
DAV:   4    -0.549559028046E+02    0.51892E-03   -0.33107E-03   832   0.126E-01    0.457E-02
DAV:   5    -0.549558676109E+02    0.35194E-04   -0.12684E-04   528   0.320E-02
   4 F= -.54955868E+02 E0= -.54955868E+02  d E =-.158855E+00  mag=     1.0000
       N       E                     dE             d eps       ncg     rms          rms(c)
DAV:   1    -0.549814771772E+02   -0.25574E-01   -0.78664E+00   784   0.551E+00    0.168E-01
DAV:   2    -0.549850555993E+02   -0.35784E-02   -0.35544E-02   832   0.517E-01    0.129E-01
DAV:   3    -0.549849954210E+02    0.60178E-04   -0.59636E-04   848   0.680E-02
   5 F= -.54984995E+02 E0= -.54984995E+02  d E =-.291278E-01  mag=     1.0000
       N       E                     dE             d eps       ncg     rms          rms(c)
DAV:   1    -0.550057744029E+02   -0.20719E-01   -0.71044E+01   768   0.166E+01    0.473E-01
DAV:   2    -0.550379994348E+02   -0.32225E-01   -0.31926E-01   816   0.155E+00    0.383E-01
DAV:   3    -0.550374965340E+02    0.50290E-03   -0.52138E-03   840   0.199E-01    0.266E-01
DAV:   4    -0.550367396261E+02    0.75691E-03   -0.29579E-03   824   0.116E-01    0.721E-02
DAV:   5    -0.550367747760E+02   -0.35150E-04   -0.12006E-04   512   0.346E-02
   6 F= -.55036775E+02 E0= -.55036775E+02  d E =-.809072E-01  mag=     1.0000
       N       E                     dE             d eps       ncg     rms          rms(c)
DAV:   1    -0.548679141988E+02    0.16883E+00   -0.28542E+02   768   0.334E+01    0.822E-01
DAV:   2    -0.549984071512E+02   -0.13049E+00   -0.12892E+00   816   0.315E+00    0.723E-01
DAV:   3    -0.549972578255E+02    0.11493E-02   -0.20355E-02   824   0.393E-01    0.528E-01
DAV:   4    -0.549937820719E+02    0.34758E-02   -0.87522E-03   816   0.201E-01    0.223E-01
DAV:   5    -0.549938633575E+02   -0.81286E-04   -0.18979E-03   824   0.102E-01    0.759E-02
DAV:   6    -0.549938192577E+02    0.44100E-04   -0.21760E-04   560   0.313E-02
   7 F= -.54993819E+02 E0= -.54993819E+02  d E =-.379516E-01  mag=     1.0000
       N       E                     dE             d eps       ncg     rms          rms(c)
DAV:   1    -0.549786868058E+02    0.15177E-01   -0.14365E+02   768   0.236E+01    0.673E-01
DAV:   2    -0.550459981128E+02   -0.67311E-01   -0.66633E-01   832   0.224E+00    0.454E-01
DAV:   3    -0.550449356938E+02    0.10624E-02   -0.11177E-02   848   0.290E-01    0.302E-01
DAV:   4    -0.550438328392E+02    0.11029E-02   -0.50430E-03   832   0.152E-01    0.843E-02
DAV:   5    -0.550439399276E+02   -0.10709E-03   -0.21939E-04   576   0.443E-02    0.338E-02
DAV:   6    -0.550439324894E+02    0.74382E-05   -0.83714E-05   520   0.206E-02
   8 F= -.55043932E+02 E0= -.55043932E+02  d E =-.880649E-01  mag=     1.0000
       N       E                     dE             d eps       ncg     rms          rms(c)
DAV:   1    -0.550622793834E+02   -0.18339E-01   -0.24624E+01   784   0.971E+00    0.204E-01
DAV:   2    -0.550737962549E+02   -0.11517E-01   -0.11333E-01   824   0.931E-01    0.193E-01
DAV:   3    -0.550737358013E+02    0.60454E-04   -0.18174E-03   840   0.118E-01    0.141E-01
DAV:   4    -0.550734157205E+02    0.32008E-03   -0.61640E-04   824   0.525E-02    0.729E-02
DAV:   5    -0.550733928612E+02    0.22859E-04   -0.31517E-04   680   0.396E-02
   9 F= -.55073393E+02 E0= -.55073393E+02  d E =-.294604E-01  mag=     1.0000
       N       E                     dE             d eps       ncg     rms          rms(c)
DAV:   1    -0.550094471331E+02    0.63969E-01   -0.22286E+02   768   0.293E+01    0.615E-01
DAV:   2    -0.551139359898E+02   -0.10449E+00   -0.10299E+00   832   0.282E+00    0.591E-01
DAV:   3    -0.551134281287E+02    0.50786E-03   -0.16493E-02   840   0.353E-01    0.428E-01
DAV:   4    -0.551105895352E+02    0.28386E-02   -0.46487E-03   824   0.147E-01    0.244E-01
DAV:   5    -0.551102693156E+02    0.32022E-03   -0.32246E-03   832   0.122E-01    0.821E-02
DAV:   6    -0.551102641038E+02    0.52118E-05   -0.10196E-04   488   0.217E-02
  10 F= -.55110264E+02 E0= -.55110264E+02  d E =-.663316E-01  mag=     1.0000
       N       E                     dE             d eps       ncg     rms          rms(c)
DAV:   1    -0.551203309510E+02   -0.10062E-01   -0.33129E+01   768   0.113E+01    0.224E-01
DAV:   2    -0.551358514669E+02   -0.15521E-01   -0.15144E-01   832   0.107E+00    0.182E-01
DAV:   3    -0.551357103598E+02    0.14111E-03   -0.23322E-03   840   0.134E-01    0.133E-01
DAV:   4    -0.551353712011E+02    0.33916E-03   -0.71879E-04   824   0.567E-02    0.638E-02
DAV:   5    -0.551354110572E+02   -0.39856E-04   -0.41468E-04   808   0.436E-02
  11 F= -.55135411E+02 E0= -.55135411E+02  d E =-.251470E-01  mag=     1.0000
       N       E                     dE             d eps       ncg     rms          rms(c)
DAV:   1    -0.550506791576E+02    0.84692E-01   -0.24206E+02   768   0.306E+01    0.699E-01
DAV:   2    -0.551653682606E+02   -0.11469E+00   -0.11192E+00   816   0.292E+00    0.489E-01
DAV:   3    -0.551638273652E+02    0.15409E-02   -0.17499E-02   832   0.369E-01    0.345E-01
DAV:   4    -0.551612088654E+02    0.26185E-02   -0.54940E-03   824   0.156E-01    0.151E-01
DAV:   5    -0.551611466193E+02    0.62246E-04   -0.19467E-03   840   0.951E-02    0.490E-02
DAV:   6    -0.551611453717E+02    0.12476E-05   -0.13513E-04   512   0.264E-02
  12 F= -.55161145E+02 E0= -.55161145E+02  d E =-.508813E-01  mag=     1.0000
       N       E                     dE             d eps       ncg     rms          rms(c)
DAV:   1    -0.551446043529E+02    0.16542E-01   -0.71577E+01   768   0.166E+01    0.363E-01
DAV:   2    -0.551779367082E+02   -0.33332E-01   -0.33010E-01   824   0.159E+00    0.295E-01
DAV:   3    -0.551775367740E+02    0.39993E-03   -0.53293E-03   840   0.206E-01    0.205E-01
DAV:   4    -0.551767097238E+02    0.82705E-03   -0.18050E-03   816   0.893E-02    0.946E-02
DAV:   5    -0.551767430188E+02   -0.33295E-04   -0.72403E-04   832   0.584E-02
  13 F= -.55176743E+02 E0= -.55176743E+02  d E =-.155976E-01  mag=     1.0000
       N       E                     dE             d eps       ncg     rms          rms(c)
DAV:   1    -0.551762877107E+02    0.42201E-03   -0.96789E-01   808   0.193E+00    0.473E-02
DAV:   2    -0.551767678912E+02   -0.48018E-03   -0.46175E-03   832   0.186E-01    0.356E-02
DAV:   3    -0.551767803672E+02   -0.12476E-04   -0.67068E-05   488   0.245E-02
  14 F= -.55176780E+02 E0= -.55176780E+02  d E =-.156350E-01  mag=     1.0000
       N       E                     dE             d eps       ncg     rms          rms(c)
DAV:   1    -0.551715823379E+02    0.51856E-02   -0.37563E+01   768   0.120E+01    0.245E-01
DAV:   2    -0.551890028561E+02   -0.17421E-01   -0.17349E-01   832   0.115E+00    0.228E-01
DAV:   3    -0.551888406724E+02    0.16218E-03   -0.28175E-03   848   0.148E-01    0.166E-01
DAV:   4    -0.551883574245E+02    0.48325E-03   -0.86509E-04   832   0.629E-02    0.883E-02
DAV:   5    -0.551883384942E+02    0.18930E-04   -0.59957E-04   832   0.523E-02
  15 F= -.55188338E+02 E0= -.55188338E+02  d E =-.115581E-01  mag=     1.0000
       N       E                     dE             d eps       ncg     rms          rms(c)
DAV:   1    -0.551861475386E+02    0.22099E-02   -0.59268E+00   784   0.477E+00    0.103E-01
DAV:   2    -0.551889305636E+02   -0.27830E-02   -0.27901E-02   832   0.460E-01    0.878E-02
DAV:   3    -0.551889165512E+02    0.14012E-04   -0.45589E-04   808   0.600E-02
  16 F= -.55188917E+02 E0= -.55188917E+02  d E =-.121362E-01  mag=     1.0000
       N       E                     dE             d eps       ncg     rms          rms(c)
DAV:   1    -0.551810721959E+02    0.78584E-02   -0.38209E+01   768   0.121E+01    0.229E-01
DAV:   2    -0.551990046047E+02   -0.17932E-01   -0.17653E-01   816   0.116E+00    0.227E-01
DAV:   3    -0.551988600433E+02    0.14456E-03   -0.27746E-03   848   0.143E-01    0.170E-01
DAV:   4    -0.551983249343E+02    0.53511E-03   -0.82200E-04   832   0.618E-02    0.982E-02
DAV:   5    -0.551982581418E+02    0.66793E-04   -0.79574E-04   832   0.592E-02
  17 F= -.55198258E+02 E0= -.55198258E+02  d E =-.934159E-02  mag=     1.0000
       N       E                     dE             d eps       ncg     rms          rms(c)
DAV:   1    -0.551938921335E+02    0.44328E-02   -0.10759E+01   784   0.642E+00    0.126E-01
DAV:   2    -0.551989980900E+02   -0.51060E-02   -0.50602E-02   832   0.618E-01    0.113E-01
DAV:   3    -0.551989766630E+02    0.21427E-04   -0.80118E-04   848   0.779E-02
  18 F= -.55198977E+02 E0= -.55198977E+02  d E =-.100601E-01  mag=     1.0000
       N       E                     dE             d eps       ncg     rms          rms(c)
DAV:   1    -0.551938117290E+02    0.51864E-02   -0.23975E+01   768   0.958E+00    0.194E-01
DAV:   2    -0.552050281335E+02   -0.11216E-01   -0.11023E-01   824   0.909E-01    0.180E-01
DAV:   3    -0.552048976862E+02    0.13045E-03   -0.16485E-03   848   0.106E-01    0.136E-01
DAV:   4    -0.552045355330E+02    0.36215E-03   -0.80173E-04   832   0.601E-02    0.627E-02
DAV:   5    -0.552045420083E+02   -0.64753E-05   -0.28315E-04   624   0.388E-02
  19 F= -.55204542E+02 E0= -.55204542E+02  d E =-.556535E-02  mag=     1.0000
       N       E                     dE             d eps       ncg     rms          rms(c)
DAV:   1    -0.552028226162E+02    0.17129E-02   -0.41054E+00   776   0.396E+00    0.834E-02
DAV:   2    -0.552047981580E+02   -0.19755E-02   -0.19293E-02   832   0.378E-01    0.682E-02
DAV:   3    -0.552047901574E+02    0.80007E-05   -0.26221E-04   520   0.448E-02
  20 F= -.55204790E+02 E0= -.55204790E+02  d E =-.581349E-02  mag=     1.0000
       N       E                     dE             d eps       ncg     rms          rms(c)
DAV:   1    -0.552034613740E+02    0.13368E-02   -0.95521E+00   768   0.603E+00    0.191E-01
DAV:   2    -0.552077578392E+02   -0.42965E-02   -0.43477E-02   824   0.564E-01    0.141E-01
DAV:   3    -0.552076952059E+02    0.62633E-04   -0.77757E-04   832   0.727E-02
  21 F= -.55207695E+02 E0= -.55207695E+02  d E =-.290505E-02  mag=     1.0000
       N       E                     dE             d eps       ncg     rms          rms(c)
DAV:   1    -0.552077667383E+02   -0.88992E-05   -0.70764E-01   816   0.164E+00    0.397E-02
DAV:   2    -0.552080967940E+02   -0.33006E-03   -0.31416E-03   832   0.156E-01    0.347E-02
DAV:   3    -0.552080971218E+02   -0.32783E-06   -0.49092E-05   480   0.202E-02
  22 F= -.55208097E+02 E0= -.55208097E+02  d E =-.330696E-02  mag=     1.0000
       N       E                     dE             d eps       ncg     rms          rms(c)
DAV:   1    -0.552078646542E+02    0.23214E-03   -0.77459E+00   784   0.546E+00    0.122E-01
DAV:   2    -0.552114938852E+02   -0.36292E-02   -0.35518E-02   824   0.520E-01    0.963E-02
DAV:   3    -0.552114628357E+02    0.31050E-04   -0.58198E-04   848   0.672E-02
  23 F= -.55211463E+02 E0= -.55211463E+02  d E =-.336571E-02  mag=     1.0000
       N       E                     dE             d eps       ncg     rms          rms(c)
DAV:   1    -0.552113217013E+02    0.17218E-03   -0.82721E-01   816   0.179E+00    0.581E-02
DAV:   2    -0.552116940558E+02   -0.37235E-03   -0.36366E-03   832   0.166E-01    0.454E-02
DAV:   3    -0.552116868669E+02    0.71889E-05   -0.59905E-05   496   0.213E-02
  24 F= -.55211687E+02 E0= -.55211687E+02  d E =-.358975E-02  mag=     1.0000
       N       E                     dE             d eps       ncg     rms          rms(c)
DAV:   1    -0.552104048909E+02    0.12892E-02   -0.86660E+00   800   0.575E+00    0.113E-01
DAV:   2    -0.552145279519E+02   -0.41231E-02   -0.40409E-02   824   0.553E-01    0.103E-01
DAV:   3    -0.552145067489E+02    0.21203E-04   -0.63594E-04   832   0.679E-02
  25 F= -.55214507E+02 E0= -.55214507E+02  d E =-.281988E-02  mag=     1.0000
       N       E                     dE             d eps       ncg     rms          rms(c)
DAV:   1    -0.552135487010E+02    0.97925E-03   -0.26331E+00   800   0.317E+00    0.846E-02
DAV:   2    -0.552147473848E+02   -0.11987E-02   -0.11842E-02   824   0.300E-01    0.762E-02
DAV:   3    -0.552147187800E+02    0.28605E-04   -0.16826E-04   480   0.354E-02
  26 F= -.55214719E+02 E0= -.55214719E+02  d E =-.303191E-02  mag=     1.0000
       N       E                     dE             d eps       ncg     rms          rms(c)
DAV:   1    -0.552137880312E+02    0.95935E-03   -0.45283E+00   800   0.416E+00    0.139E-01
DAV:   2    -0.552158372408E+02   -0.20492E-02   -0.21279E-02   816   0.403E-01    0.107E-01
DAV:   3    -0.552158110216E+02    0.26219E-04   -0.40648E-04   784   0.566E-02
  27 F= -.55215811E+02 E0= -.55215811E+02  d E =-.109224E-02  mag=     1.0000
       N       E                     dE             d eps       ncg     rms          rms(c)
DAV:   1    -0.552157815123E+02    0.55729E-04   -0.44556E-01   808   0.130E+00    0.339E-02
DAV:   2    -0.552159940201E+02   -0.21251E-03   -0.20867E-03   832   0.129E-01    0.278E-02
DAV:   3    -0.552159965982E+02   -0.25781E-05   -0.36910E-05   472   0.184E-02
  28 F= -.55215997E+02 E0= -.55215997E+02  d E =-.127782E-02  mag=     1.0000
       N       E                     dE             d eps       ncg     rms          rms(c)
DAV:   1    -0.552159929353E+02    0.10848E-05   -0.27142E+00   784   0.323E+00    0.693E-02
DAV:   2    -0.552172533561E+02   -0.12604E-02   -0.12442E-02   832   0.307E-01    0.566E-02
DAV:   3    -0.552172353918E+02    0.17964E-04   -0.17988E-04   496   0.392E-02
  29 F= -.55217235E+02 E0= -.55217235E+02  d E =-.123879E-02  mag=     1.0000
       N       E                     dE             d eps       ncg     rms          rms(c)
DAV:   1    -0.552171600445E+02    0.93312E-04   -0.81800E-03   832   0.175E-01    0.123E-02
DAV:   2    -0.552171663173E+02   -0.62728E-05   -0.46109E-05   472   0.203E-02
  30 F= -.55217166E+02 E0= -.55217166E+02  d E =-.116972E-02  mag=     1.0000
       N       E                     dE             d eps       ncg     rms          rms(c)
DAV:   1    -0.552172561109E+02   -0.96066E-04   -0.22130E+00   784   0.291E+00    0.633E-02
DAV:   2    -0.552182934791E+02   -0.10374E-02   -0.10194E-02   832   0.275E-01    0.539E-02
DAV:   3    -0.552182780180E+02    0.15461E-04   -0.13737E-04   480   0.320E-02
  31 F= -.55218278E+02 E0= -.55218278E+02  d E =-.111170E-02  mag=     1.0000
       N       E                     dE             d eps       ncg     rms          rms(c)
DAV:   1    -0.552182666665E+02    0.26813E-04   -0.17910E-03   824   0.852E-02    0.133E-02
DAV:   2    -0.552182683931E+02   -0.17266E-05   -0.75551E-06   472   0.824E-03
  32 F= -.55218268E+02 E0= -.55218268E+02  d E =-.110208E-02  mag=     1.0000
       N       E                     dE             d eps       ncg     rms          rms(c)
DAV:   1    -0.552184415793E+02   -0.17491E-03   -0.93646E-01   792   0.190E+00    0.501E-02
DAV:   2    -0.552188781584E+02   -0.43658E-03   -0.42868E-03   832   0.178E-01    0.386E-02
DAV:   3    -0.552188709102E+02    0.72482E-05   -0.61237E-05   464   0.210E-02
  33 F= -.55218871E+02 E0= -.55218871E+02  d E =-.602517E-03  mag=     1.0000
       N       E                     dE             d eps       ncg     rms          rms(c)
DAV:   1    -0.552188681592E+02    0.99992E-05   -0.14842E-04   488   0.259E-02    0.656E-03
DAV:   2    -0.552188708538E+02   -0.26946E-05   -0.97416E-06   480   0.888E-03
  34 F= -.55218871E+02 E0= -.55218871E+02  d E =-.602461E-03  mag=     1.0000
