    7    7 1000    2
  0.7340745E+03  0.1725624E-08  0.1725624E-08  0.1725624E-08  0.1000000E-15
  1.000000000000000E-004
  CAR 
 unknown system                          
     77      1     52
 
  0.0000000E+00  0.0000000E+00  0.0000000E+00  0.1000000E+01
    1       -9.153260     -9.118086
    2       -8.933342     -8.902708
    3       -8.692623     -8.663817
    4       -8.611024     -8.565916
    5       -8.405173     -8.361281
    6       -8.335300     -8.294991
    7       -8.283760     -8.248503
    8       -8.238849     -8.198229
    9       -8.178483     -8.138806
   10       -8.103048     -8.064679
   11       -8.002663     -7.968205
   12       -7.890303     -7.850765
   13       -7.820919     -7.781436
   14       -7.678982     -7.643866
   15       -7.598829     -7.566083
   16       -7.482975     -7.453076
   17       -7.343270     -7.310176
   18       -7.331433     -7.288669
   19       -7.293817     -7.250109
   20       -7.227707     -7.200814
   21       -7.198930     -7.170909
   22       -7.134305     -7.099151
   23       -7.045356     -7.015958
   24       -7.016320     -6.992282
   25       -7.012548     -6.986111
   26       -6.978352     -6.940930
   27       -6.967968     -6.921456
   28       -6.896891     -6.868240
   29       -6.820837     -6.784544
   30       -6.794621     -6.739234
   31       -6.756252     -6.718911
   32       -6.739269     -6.700330
   33       -6.704422     -6.671543
   34       -6.643294     -6.609446
   35       -6.571071     -6.541570
   36       -6.476949     -6.449072
   37       -5.206276     -5.141975
   38       -4.547093     -4.462538
   39       -3.905714     -3.598027
   40       -2.816693     -2.722619
   41       -2.554224     -2.477355
   42       -2.277862     -2.166228
   43       -1.400818     -1.259374
   44       -1.260992     -1.097251
   45       -1.053499     -0.839336
   46       -0.802429     -0.639484
   47       -0.459120     -0.372989
   48       -0.275407     -0.176159
   49        0.122775      0.205167
   50        0.209928      0.263305
   51        0.299744      0.395956
   52        0.521124      0.609593
