14
Energy = -63.43145175 eV
Si 7.855604660431589 8.23294062202736 12.951930361514176
Si 9.77513290980193 8.457569925482078 11.52341159996493
Si 9.5348876911523 9.698295141000672 13.696183900141234
Si 7.557659532872359 8.447050278525408 10.534423241252478
Si 13.570357520472614 10.51645043917472 11.924020295875563
Si 10.087599747270168 10.733227371230146 11.051419983247744
Si 11.857271724000288 12.271348529689977 11.746755585093585
Si 14.46039219833887 12.553890172892972 11.176426180310138
Si 7.9266224088232455 10.401607091034412 11.914650457520425
Si 10.612660416959496 13.999133579364667 10.690956160936928
Si 13.25795789082385 10.98362821989139 9.576217186721315
Si 10.81393254975001 12.004016417377718 9.231790882762152
Si 12.68102021331334 13.639263220082583 9.629489488876779
Si 14.702470381258554 12.70829662808742 8.817020201920538
