10
Energy = -45.05763981 eV
Si 8.840781678401251 8.498014621234443 6.0842573222342615
Si 7.970364558754511 6.63017611264079 7.519505657346813
Si 10.317611496258786 6.788191821796322 6.796094408199878
Si 6.510389418167137 8.08533245002279 6.173782327454469
Si 7.340336824121321 9.089488559184757 8.118799720897158
Si 9.734596284386894 8.270107570264512 8.51290167208915
Si 6.514435112190338 9.998827497617505 10.10931008764943
Si 10.305106380028132 8.655627599647147 10.75172273077361
Si 8.848118734521682 10.296693106164051 9.856998541434923
Si 7.9511521338001545 8.020433282057349 10.409520152550089
