17
Energy = -79.56757858 eV
Si 11.03958641915956 10.56445014713255 12.216679958417538
Si 7.445725862839286 10.138424267902625 10.033266323610325
Si 11.82617367493448 13.97629223301802 9.50614500558944
Si 9.709346849168607 6.267041830540755 11.348329592153362
Si 11.002947137179161 8.370336343545796 11.328913577747008
Si 9.712650421358527 6.368049134251538 8.850288656097481
Si 8.928496681922844 11.352728666892917 11.499116273188866
Si 12.819313139849543 12.061175467240721 12.143015419798168
Si 11.77206259375009 11.554842630991569 9.957395099911043
Si 8.92689896156586 8.302428844898502 10.170141154254692
Si 11.003403297903661 8.459493261610236 8.964761501105135
Si 11.89166252193515 6.432812814314155 10.092758937305645
Si 8.618745067183733 13.681820900189148 11.828777246550105
Si 9.361327853760923 11.075177923565846 8.9561616814979
Si 11.42724840248771 10.499664568531472 7.837983964253387
Si 9.541255089516117 13.330194942212557 9.622891723577816
Si 11.001784446540368 13.593694444217213 11.672002305997713
