16
Energy = -73.5720486 eV
Si 7.367065076222611 9.631963027152224 11.419721390286615
Si 8.15976576033702 7.381232495628392 11.657487602776062
Si 7.68054717739054 10.977417178803389 13.389853069304214
Si 8.836929189261838 10.77910884057157 9.74240119866933
Si 9.893866665310206 8.790694566777075 10.739049020344396
Si 11.427817289557364 12.67703157177761 10.535808598956304
Si 9.61444027268352 11.179308088594953 11.99396659192793
Si 8.938002772865044 8.914913761225076 13.301816901057885
Si 13.629061559184944 12.526763075993015 8.995122696682326
Si 11.277137840773305 9.36134708787544 12.586259170786438
Si 11.334979123630546 13.35354781883713 8.230586738796083
Si 12.101877617128624 11.716636045161833 12.72436004720468
Si 13.636588238973989 10.031891339364412 8.523278025178342
Si 12.916049967184277 10.744530501195708 10.684493064173811
Si 12.465134644401571 11.569216924450028 7.02118270580291
Si 11.169616050138313 10.85297694069748 8.924647600831598
