16
Energy = -72.34930003 eV
Si 11.513955197131368 10.592605002488598 9.62663834156403
Si 13.187055972689391 12.260689776743005 9.564214556233669
Si 11.2075685367797 12.834783511025412 10.891358498694716
Si 9.231510938137344 11.215079882560405 11.083764299740157
Si 7.245074629847594 7.209575673598764 10.400636205167805
Si 9.461620025977119 9.864031575452287 8.644816265197896
Si 7.015409435705396 8.65468607655116 8.511646796674421
Si 13.117194245675146 11.080170444823363 11.589739421443879
Si 9.188294285059536 7.320391600017735 8.814636102887865
Si 6.511637810029484 8.986984121022887 6.239110230826848
Si 10.906686090882625 11.238057484837551 12.82311064102096
Si 12.582933244579033 9.646224392264283 13.40126417751695
Si 7.654687069994304 10.826580395229687 7.514647960887109
Si 8.801392899650793 8.505601312541303 6.702658531188706
Si 9.015880954753925 8.785124777819078 10.785950533061758
Si 11.30992589232451 9.037095713111066 11.465614429452081
