15
Energy = -69.79143074 eV
Si 7.630941131793701 10.657472163216969 6.331107054801734
Si 9.761344250821633 9.525961886616006 6.026112857361553
Si 5.984967323656428 9.442299353429979 7.619894729446732
Si 8.014886739359735 8.148553013652906 7.150203023328241
Si 8.783795640023374 5.799774159869369 7.481140407110778
Si 9.73457966627263 11.424052367148628 7.677039256287663
Si 10.618842423242235 6.817614980236985 8.654307329454747
Si 9.932035710298273 9.053897375169974 8.39874709321115
Si 7.271593970399176 11.391124230869147 8.70998777736755
Si 9.30829026565282 10.780886087113835 10.037210085927445
Si 7.535803418713231 8.995706112333545 9.412160535241513
Si 10.718298638327864 6.27756870637824 10.946663960293378
Si 8.451569218576546 6.24611548962795 9.791281972192966
Si 9.5249924351737 8.355042172615612 10.981805598251324
Si 7.284726493429721 7.640599227461963 11.339005645464217
