12
Energy = -53.92540252 eV
Si 9.842175771575402 7.226659920975118 10.993153819506535
Si 9.369239783706323 6.6962437215305295 8.590475045621847
Si 11.497790765119687 9.041570446956417 11.253424807711609
Si 10.322404855161992 10.444364928949593 8.131647391785874
Si 7.557265060108736 7.681914423616321 10.013161081410242
Si 6.880252062016332 9.934734217366847 9.292893826126084
Si 10.906649886722745 11.454299630204435 10.591977954858736
Si 8.516300351147692 11.895999910557522 9.51655125044135
Si 9.177624327655144 9.603123435663923 10.37600002892565
Si 8.484724644202936 8.839954387936698 7.805716697327476
Si 10.556040465644895 12.709481124552651 8.58882435198942
Si 11.176532093209651 8.302054128243652 8.95605166734235
