12
Energy = -55.62587641 eV
Si 10.7828730121273 11.265690268381404 11.166695149933773
Si 8.788911496629419 11.37339377840939 9.687450850820886
Si 11.256472444994209 10.006888964556016 9.073923141805484
Si 9.62269970093894 9.32218503945114 10.805613989287798
Si 7.244610980590663 9.384215601213034 9.847792876494713
Si 8.479072230652886 7.267755095680054 10.862728247216916
Si 7.006034128454405 9.204258016024236 7.3366691278175935
Si 10.414055630186663 7.619615041060483 9.062844382165627
Si 9.220989714670115 9.941942168412114 7.825993382134603
Si 7.1845131993000155 6.892203703524927 6.440565382641152
Si 7.924808471537937 7.267156350910422 8.577461650407331
Si 9.4657163806791 7.837917332771005 6.725534056578661
