27
Energy = -125.48547111 eV
Si 11.001830818604699 14.995853171891975 11.888296388671135
Si 10.186258034417312 8.397814577917936 14.175150718151968
Si 12.106229774694452 10.724438708449174 11.473367003127882
Si 13.338341078000221 8.254175413973222 11.833537927293474
Si 10.692391940131245 10.608116051196516 15.14053561485141
Si 14.409056880423925 10.276182782357111 10.925241331497737
Si 11.434361526735866 12.981517893705833 10.8149685534304
Si 13.846968935596317 8.132891551936773 9.492106771992164
Si 9.222688769880635 13.303884300237497 12.064830201408908
Si 10.114414662769127 11.160453835726475 12.864286082947213
Si 8.564251706707804 9.402528168217225 12.209010482244421
Si 7.821786754040959 7.9368814933358465 13.96615333514617
Si 10.94309308319902 8.500274288494717 11.80465449074998
Si 8.441402291763282 10.111304864391364 14.611213577535882
Si 12.990517083707191 10.421864168650053 8.94663199556659
Si 9.78195847191996 14.558956181507826 9.845249392842092
Si 10.645524695938402 10.097024185845951 9.629086119114946
Si 11.729705886466405 8.377809428619065 8.272105866270444
Si 10.684404541496107 12.550363277156046 8.370111549896004
Si 9.92122532080298 7.696243195911256 9.826185166899094
Si 12.673371394262901 11.891849351025424 7.140362613841619
Si 8.869487068671347 12.029617041303872 10.067054481672466
Si 8.2700296296184 9.50291380224883 9.793348404723755
Si 11.681505429276255 9.806756696071318 6.18100421760515
Si 8.26778026083616 12.450226506612177 7.792595089059597
Si 9.712805875105285 10.3159293664865 7.3367100222755575
Si 7.455592303268259 10.046824477416264 7.615654133100002
