25
Energy = -118.13521254 eV
Si 15.598850139836097 15.397910176792983 17.08396054467918
Si 16.522973318335172 16.76470550865121 15.167639003467716
Si 15.122653337307918 16.437365149647295 13.000020858161802
Si 19.087191694439348 15.59704159535429 14.817837107119322
Si 17.05127131165763 15.037731928980529 13.293550493574559
Si 16.270219802067302 12.745310896016136 13.908950946471165
Si 18.446249401161154 11.605596997440252 14.3195900411677
Si 17.113993809112337 14.204501498676306 15.691039538336458
Si 19.27188456937823 13.353018380075381 16.089503576819062
Si 19.953170967670225 13.397979337721244 13.722290151816237
Si 18.05832305777544 12.905922796064717 12.148912440813776
Si 19.176979418667585 15.2480646108592 12.314206901107841
Si 14.178276094410151 15.71379238135074 15.162643486576732
Si 12.040073574453404 13.651741610814254 13.560830408018107
Si 11.103268671941144 15.820860837547402 12.68011375113805
Si 11.463980366288945 13.244007348405482 15.962668307902078
Si 9.085490280994573 13.637751293727813 15.555453227902996
Si 8.88230268800014 15.282866568861444 13.511661481695729
Si 9.535889947455198 15.951723341978973 15.69898443544068
Si 10.402233304115192 11.965144289592295 14.150982476784357
Si 11.769049587172535 15.53088607372318 15.052363272540463
Si 10.178539319677279 13.653752666893343 12.03187714242083
Si 14.684333158326716 13.32642898122179 15.837919492242467
Si 14.382378249347033 14.091228019841083 13.335418331826963
Si 8.139835198214314 12.954078941959411 13.42099386758363
