23
Energy = -106.37836761 eV
Si 15.242415527257013 13.740977874230062 10.101458629730597
Si 16.817176738803386 13.189444734259089 12.21453733580841
Si 17.235830601460762 12.402546125620336 9.813898572331487
Si 13.63867196265626 9.604415352145041 9.61296161521515
Si 15.431175620143838 11.033198210211378 13.117418998319883
Si 12.086454259110235 10.961316237239327 10.96021727176498
Si 15.192945465833658 11.27292932865054 10.611154836569467
Si 17.35978117930932 10.750770741273255 11.686219802716348
Si 10.06802687036132 9.893261317377592 11.185343623360605
Si 10.214007802606822 7.863328183647699 9.902546203409033
Si 11.32554365611921 9.755748352108634 8.952839175871002
Si 12.160684714009669 8.492384415862096 11.150269362898225
Si 10.645926055234334 12.275449090396378 14.033210567217447
Si 7.275785820751363 14.766824959784374 13.158763916511903
Si 9.003528836169524 10.842214384439119 13.137175893963398
Si 14.318468617754169 12.896154890911498 12.139219985153126
Si 11.973489933854221 12.973399635200364 12.20993909032362
Si 8.006123541890114 13.177460334563113 14.73629713637136
Si 8.610111218159954 13.056013133843255 11.915117892831235
Si 10.396684740222117 14.566620538108056 11.318044354372805
Si 10.105939978929875 13.75553180583541 15.747903280133531
Si 6.843756063766782 11.855626296268188 13.117806900698655
Si 9.662199012372751 14.836838399859662 13.608785582921778
