27
Energy = -124.82218051 eV
Si 13.644612861652876 8.667610236607278 12.024747706315688
Si 13.41853174363884 13.385481716013079 7.085530256872993
Si 13.246102396015688 15.137295263960334 11.097653770373872
Si 15.05770309529912 7.333530311053544 10.821078696876855
Si 12.455671483119179 11.913340288943646 8.625480085151363
Si 12.421534909288653 14.636649708798586 8.900283006349278
Si 10.933737956345922 11.99347612602529 12.922322900864604
Si 12.822919770817263 10.891620983077846 12.092043551162316
Si 10.475782185568868 13.738687453216508 14.443409984889433
Si 12.942608178381743 7.515536552661046 9.738077961325981
Si 13.110573238421653 6.327034175360785 12.177134367154556
Si 12.962023959783874 12.87064314977119 10.774763141588446
Si 10.952280317365833 13.761347623342902 7.370352211161254
Si 12.047172067318781 9.755639998297434 10.10130462477933
Si 9.065884413444127 14.959369862756237 12.854146470164805
Si 11.277237394704384 7.681134660721552 11.558359452516411
Si 10.155800118297943 12.53292762147867 9.182385237091838
Si 11.284233354170562 14.327680031769997 12.201474781478932
Si 9.730522574168122 10.196283178522277 9.81993738526079
Si 8.839107219866476 10.86843370717315 12.004453235312344
Si 9.317358038294236 13.195431622408869 11.301559924912564
Si 9.668067835035703 8.82299460328169 12.884292201511183
Si 8.940834175463353 7.507282123480307 10.701811455300016
Si 8.512677104182755 8.5878877924141 8.576852574630822
Si 6.510057978702715 10.361813813465274 12.362647439740707
Si 7.467442942931011 8.02114990364223 12.495032322394922
Si 7.267386954345509 9.498331401283842 10.340651091075351
