26
Energy = -121.94342606 eV
Si 13.435996336624058 9.538983498679173 10.073409241657666
Si 12.720987887928557 8.548186019559731 12.157945418029954
Si 10.897135144774957 9.811630177537959 10.99938611896746
Si 11.318487750515324 10.10293951676761 13.436672372546239
Si 9.783946194266907 12.161776619236608 14.308876114367786
Si 13.476717900422143 7.714910187364658 8.55388975333585
Si 12.204412308921203 11.538144246883176 9.781837800536401
Si 9.301713518586837 12.879705705764009 9.214267344967201
Si 11.876877216747461 7.414253328611888 10.248409368006769
Si 12.252709306987501 12.188039063366501 14.122667118314814
Si 11.59853265736919 12.541049541287284 7.705647469296553
Si 9.14865927114907 9.881188881144844 14.452361128876936
Si 11.25236849369808 8.212405865858567 7.7782325978930835
Si 10.45085187862896 10.333855477859663 8.296244824934524
Si 7.890716651976508 13.442436319475922 13.433713255306978
Si 9.600369273380117 6.7004638991494945 7.021259757903681
Si 11.483097640623114 12.206418253887094 11.940194220077684
Si 9.810591433018688 6.6286533565921655 9.44591643052506
Si 8.094009644844416 11.142191198930355 12.700615890705263
Si 9.888119610800377 14.204780251132462 7.464473175228651
Si 8.297459660804332 8.303510309751607 8.265835463599808
Si 9.284945850451995 11.889066641779852 6.806530530549806
Si 9.35904118432225 13.047342097473406 11.611568745770725
Si 8.024158830044838 10.698051732361646 8.649554600635504
Si 7.813859297835471 7.526934733577779 10.424953516843228
Si 8.541130863015892 9.755422944828911 10.812405946500748
