22
Energy = -102.27649734 eV
Si 10.197634617986571 9.640168016125921 11.542490609128281
Si 14.43498495642899 8.663531773892384 10.239049010451255
Si 12.692740812087214 10.507864587557226 10.254085517013474
Si 11.141039474008887 12.96200163811659 9.21099810205776
Si 10.963747655020718 9.194401910423052 9.179762933010442
Si 10.208066940057899 7.435500150662735 10.750891985472704
Si 10.418292169786538 14.890704968649617 10.468080220627412
Si 8.314103885703199 13.90409605034666 10.181776003639294
Si 13.533153208633104 12.551400690631448 9.314763586746148
Si 15.906202579292763 8.970490036810716 12.127294065081186
Si 9.62919983632237 11.118252388198691 9.191678587121277
Si 14.41024937710912 7.081929659375124 12.457850369000406
Si 12.502435141411679 7.619596183762334 11.290147134826778
Si 9.700164654993134 13.413808546003926 12.286966021998621
Si 13.653690559461188 9.388024529597375 12.591964475735791
Si 7.4353702520364395 11.878379713666073 9.28033722013268
Si 6.161251352537596 11.36361068336167 11.403958315520924
Si 12.370194338929151 12.98297179817631 11.340724917199694
Si 11.842106255474471 10.856421435612296 12.652848883730336
Si 7.280582123360042 13.374614584422627 12.28301348840358
Si 11.703930382786652 13.046188223141906 13.611943675613032
Si 8.513944932560607 11.314664471450548 11.469497639000439
