33
Energy = -156.12783188 eV
Si 9.70037013015621 10.769611532660518 6.835211809860818
Si 10.587629427471942 13.053531733391791 6.4675860642552845
Si 11.426647416978254 9.412556534621157 7.566846163002755
Si 13.67669155600037 10.123512690221888 7.480768352143706
Si 12.7674695636573 12.318985318470123 7.166065759024193
Si 8.106700905941995 9.57895688968304 8.265607075337511
Si 9.949622508213608 8.099745149896243 8.884318364061393
Si 11.32466006700387 12.150384188229635 10.536504287380966
Si 11.13041611925475 13.678516035039369 8.704633224245356
Si 13.4309409614523 11.116724471162431 9.61609701189808
Si 13.799364508947802 13.718978593195091 8.766764108279332
Si 10.049160254255339 10.509312825518812 9.232993742022519
Si 12.43560186405263 15.549952904979996 9.358727535742508
Si 10.46717101669961 8.363423555883758 11.233311304975638
Si 7.877653499696208 11.178225219065487 10.111941448405283
Si 15.302890156532577 12.449867124162573 10.202738105839497
Si 12.527809899951762 9.551387899532536 11.301186331835986
Si 8.591422861025356 9.696327615825922 11.892898040579823
Si 10.678445489850073 15.190555599185686 13.220717006209776
Si 12.028193850026776 14.45552906628999 11.453436297597467
Si 11.297218071894491 7.084624698109835 13.11875476942116
Si 13.701667975411334 12.888008243808903 11.894402572546321
Si 12.992935193170238 14.474961253355765 13.905776351402698
Si 10.800203309024107 11.056475121842215 12.527597800952055
Si 12.37956790012716 9.15679748028868 13.603702104352369
Si 7.568375056932818 8.889764733961147 13.919558729777705
Si 8.903375666989914 10.781516850459996 14.17353054435089
Si 9.852662620842779 8.40864175076708 14.496768513180148
Si 12.95283127216702 11.951806357820615 13.920594663663527
Si 10.84490587525765 13.028144892107813 14.107495130371419
Si 13.365724744206036 10.168678065214056 15.452963156029686
Si 10.943944410558407 10.122040259350257 15.725885261869132
Si 9.641524842886373 12.126254342534342 15.958417366021564
