34
Energy = -160.18766207 eV
Si 14.787822903468987 10.624412605373019 9.51201113340007
Si 10.029723172361578 13.786026067557897 9.61870470020737
Si 10.698561431819686 9.223549347249453 9.60733659693394
Si 14.50584922585961 12.935905138942857 9.790716054342791
Si 12.828075670830271 10.012937033316968 10.767918694337206
Si 10.789817266236321 11.62958089012684 10.22010099553564
Si 16.592385905825996 13.966529709341517 9.773859484710027
Si 16.21098435388931 11.639338804602126 11.18866299253075
Si 8.966500125719687 10.104263113334945 11.035894352287531
Si 11.11458421212985 15.553191628370959 10.85664815972342
Si 12.983900427801188 14.117671694735465 11.176975441143876
Si 18.32402223278767 12.430413412330482 10.425086404384938
Si 8.47875615771624 12.784765387264025 11.098358002961588
Si 6.813598823201284 11.094284042418396 11.043396716405233
Si 16.692449426427267 15.999227449703532 11.001819350488601
Si 16.62877936520819 14.280151951789339 14.11699868622701
Si 12.104061654169815 7.813570110847716 11.021297378334001
Si 17.76113326520039 14.142428549980844 11.998353329465582
Si 12.431037271516077 12.004831617092842 12.065519585212218
Si 15.09637293504584 14.629963755647143 12.20048425678147
Si 7.747367815257896 11.310667428813524 13.281527029129226
Si 12.019859317259158 9.063553174502179 13.063246900006947
Si 8.393318062229591 13.659444897482214 13.497599067999277
Si 10.65922711881795 14.741442962425495 13.102799611336735
Si 9.784261864826108 9.697686056506006 13.209823503493427
Si 10.36787206069995 12.2490406704187 13.150874861210237
Si 15.571077550213314 12.37876419881531 13.33618862200011
Si 13.409749231248437 11.760434820041764 14.190371396452555
Si 8.406106144365546 9.77416083434466 15.092312730850944
Si 12.700074217721752 9.776123435195105 15.32647888145434
Si 9.930247553820104 13.256000979434907 15.475576466337737
Si 12.302150440243674 13.826318636449614 14.588706183471999
Si 11.002158349421634 15.459762507320729 15.508378779119978
Si 10.545312409628565 10.950755051192031 15.33317161469339
