38
Energy = -174.25294514 eV
Si 15.412009743223352 23.45691140885684 16.20685695844098
Si 19.53230568114459 16.82286906904836 11.898530573164075
Si 17.2589491115893 16.339463117156686 15.528516526519937
Si 11.058624726016978 17.1662442598643 17.541413662519034
Si 16.59146043807755 15.320977943799686 18.901168931730627
Si 23.234631165156006 18.593298681471826 16.901587261939753
Si 17.51447258816154 18.332713960628624 11.914885523840871
Si 15.471632707436797 17.885358570307112 15.97364899697136
Si 13.513199231961677 18.061402638418453 14.587876991929734
Si 18.138948536015242 16.827294200910053 17.745200149598265
Si 21.306529556271954 16.775089034066955 19.726148282713126
Si 20.342246312075126 15.681266316105823 17.775157788571107
Si 16.807313112670734 21.81456520842878 16.47170474686985
Si 18.941183314200373 18.479816643807613 15.908614865149467
Si 17.71982780235325 18.769549812771203 19.02383262726054
Si 16.627690924198863 18.564170887628507 21.19767880945809
Si 18.483090659704843 17.500534434922695 13.863182113650067
Si 18.586927723332423 17.68830017091664 10.013604230902562
Si 14.66196438752052 18.78448141347191 19.742623294860824
Si 17.02888367557255 19.59510778229493 16.813163801478307
Si 12.200452179590139 16.235358611354506 15.561473783724576
Si 11.372448141810308 15.570948010518606 19.37141071889242
Si 20.257752641461025 13.638890164895924 16.550975133807995
Si 18.994613935256414 13.415972215165507 18.60072065852694
Si 17.92476614869005 14.201825401958352 16.451468869604497
Si 21.899591102533822 20.1957566799133 18.00713934565137
Si 18.873121676736282 15.547366816855725 19.79206232875788
Si 12.957987995664917 18.301661631847622 16.850263015396106
Si 13.202201473389557 16.954723836798944 20.022492433707896
Si 20.908481555524954 17.994684373046947 17.20266990655873
Si 16.619578242565222 13.09953025816725 18.091273175561113
Si 19.58893943439026 17.239043026293658 21.298697608137772
Si 23.11527321462338 18.427112133509404 19.312655640092427
Si 14.942028985193774 17.037958663513418 18.14841794639932
Si 15.453671034338628 16.51150223619517 20.721048956682214
Si 20.089731418125663 18.911726713168665 19.380003638753678
Si 13.070335181648732 15.594693704469806 17.689322194914713
Si 21.86815162191515 20.265370710801676 20.342750246144405
