31
Energy = -146.1890236 eV
Si 8.579772717762845 8.955772653417418 7.567214913003356
Si 7.294926258591856 10.740685407868433 6.536774566296949
Si 10.98769559039839 9.142858945442171 7.123831362110619
Si 9.642905152588877 11.182373765033676 6.952442073062411
Si 12.405759828638903 15.248495592255129 9.285596074432263
Si 9.937299433511743 7.790333722935216 9.18330242294279
Si 10.381715662640014 14.335939700541163 10.132753892954776
Si 12.550772597657692 12.878128544159123 8.885132097035557
Si 11.669379747850174 9.627561268235134 9.35792151718632
Si 7.885910227550875 11.095046278182403 8.821028879818082
Si 10.43479903879735 11.76176112274956 9.143831226966299
Si 7.846893139558275 8.985844908209826 10.029135813522615
Si 13.880398023107334 9.328907703817716 10.104644881173176
Si 14.027010165088988 11.671593598958816 10.289978202271834
Si 8.327902553422382 13.138170538701111 10.075231301644322
Si 13.090872749525925 13.932889999482303 11.174939143653711
Si 9.839625477491458 9.920072393936342 10.946026059993821
Si 9.422456292582986 14.499316894971574 12.3253707503331
Si 15.29124716806331 13.036880255556431 11.71746801832182
Si 11.291679946494625 13.15779227109658 12.458271147471397
Si 13.36971121810015 9.68017578362729 12.373386122605098
Si 7.371350259548694 13.192108580011938 12.22133850153625
Si 9.248947792890018 11.785254942129683 12.455881173104085
Si 11.011210342697659 9.369765073012609 12.977389012412344
Si 12.713851204296981 7.8066846544866015 13.934032489983238
Si 14.509762647372145 11.553723899170247 13.493287947219567
Si 12.215776837166091 11.521700445319116 13.815051462246247
Si 14.778597912963676 9.268945632738179 14.417958160159309
Si 10.116229216938994 10.790541601583282 14.70326831935507
Si 10.65231476052132 8.39425574496518 15.255117935463945
Si 12.675839176590987 9.65903121781552 15.695007672129877
