37
Energy = -173.75735816 eV
Si 7.261964950313627 10.811126594760054 14.011110944878347
Si 9.00392394712758 9.32609493689114 13.25481335111782
Si 6.03693816397723 9.271554712272971 11.679094915297185
Si 6.813721826478567 8.251941205840964 13.724426104553483
Si 7.422482598721763 6.99564237768639 11.75852894859478
Si 7.020808636715794 11.312774983652533 11.21129658625403
Si 11.132633284354316 7.61224377353078 10.976092991544776
Si 6.054631843319804 6.9793697026215655 9.838979346128061
Si 9.452032222362163 5.961374965848386 11.129410203754574
Si 8.916269857394113 11.79856907589986 12.555771712577455
Si 11.436377785505984 9.15770575518496 12.798750984697705
Si 8.821284762612198 8.152212606523243 10.122222289749557
Si 11.918108508416053 7.253918572757023 8.675123232975334
Si 12.374300276249578 10.677987680611528 7.6154312272694025
Si 10.002687112960954 10.116546532756358 11.13572301564412
Si 5.75920111317455 12.37421493117578 9.459374730780498
Si 13.869227473533899 9.054226272138155 8.506781012640529
Si 8.903525770731827 5.540869126221046 8.843385126756948
Si 7.499452436177114 13.360600326840611 8.02313181510905
Si 7.597640382394334 10.965249548524612 8.666022573343312
Si 9.930818782893493 10.971190404572676 8.945862463444021
Si 10.547146358161937 8.97103742025601 7.8762539530969455
Si 4.310239274068209 8.540916767812268 10.23903283358181
Si 5.195659576263777 10.1509813280807 8.752186785496962
Si 13.405557585345 7.383704663081001 6.610300543493816
Si 10.89798746898422 12.646743478190427 7.545320566407188
Si 10.865156166907145 5.382136548656779 7.5188556120998555
Si 6.650735386608805 5.628603079316656 8.00204137995588
Si 14.09811285624985 9.645719602918685 6.089888077872075
Si 9.753394568643738 11.104480782844972 6.073744546460854
Si 11.64096007421986 9.493699193499948 5.616554647292155
Si 7.833439846595059 7.709431466644423 7.972734972937575
Si 11.259698805094523 7.08159613188435 5.467820165291344
Si 9.105332523078602 6.187719492799896 6.0022255354888685
Si 9.048240982543616 8.645738859800739 5.992904066420294
Si 7.442153598183529 11.726276924579217 6.267807489142901
Si 6.567714205345626 9.605361185031594 6.890556259558424
