35
Energy = -165.25162064 eV
Si 14.130830686769317 13.147620658081397 6.867277294831308
Si 12.110353747955648 14.18424959475623 7.2845169970480645
Si 9.96030312038273 14.912899503758286 7.809553213802586
Si 14.21717418485984 14.374477182601632 8.95205642737415
Si 10.570761633754188 8.764792694036595 9.128950772981149
Si 9.546650052146228 10.832240480806758 9.855076491413511
Si 11.692268350877441 15.759218753658987 9.244918166507686
Si 7.381596900904399 10.19482366297567 10.625396128873899
Si 10.605392240768829 12.985065336346494 9.234003470411785
Si 12.905880831718326 12.272997753587852 8.807850045538741
Si 13.791623022722774 16.38015712894038 10.209801613830722
Si 8.501459247791148 8.031508439923806 10.00680145285198
Si 10.269164684070386 7.2594748320592855 11.36599252238728
Si 12.235233165693797 8.354798097865887 10.747777242397676
Si 14.478997696103871 13.030726260263222 10.914369572893944
Si 10.940065981664393 13.981949089451422 11.34191820449213
Si 14.482229419225341 8.809738989749393 11.254371208983972
Si 11.393353866483947 16.253220584764556 11.614193528084067
Si 13.16798248904815 14.593129203907976 12.09994396012272
Si 11.283942434287225 10.983341627270198 11.574866181117114
Si 13.453074598485172 10.886680901144492 10.680947280225205
Si 10.151165093878975 12.573697266206036 12.957285078310045
Si 10.656239698917641 8.986899341823918 12.967870172427922
Si 8.961357971692697 10.565603487236551 12.37701877849245
Si 13.248484940327065 9.64206208842926 13.16724149798997
Si 13.597987184947316 14.012697080019048 14.35695686001252
Si 13.924446024269624 11.651532428151706 14.310118111099692
Si 11.584693384066195 12.663053025614598 14.774233477566765
Si 12.056694375556539 8.55698207211299 14.881478246056638
Si 14.846164723911036 13.6553682527655 16.41916518748288
Si 12.368912595256875 10.723698487052195 16.041272706365056
Si 12.252893477262221 14.448624322404795 16.363220566054878
Si 14.751679479182563 11.103387956129477 16.48075446984375
Si 10.881883772963398 12.431819845794664 17.057034474565498
Si 13.21848107408116 12.610885722334858 17.845190749589722
