36
Energy = -170.9784838 eV
Si 12.44562748974612 10.954984733661547 7.116462721239546
Si 10.237762584099393 11.695356635067176 7.786641890356309
Si 8.292765680638386 10.392559946511463 7.4103309891917
Si 12.148394202043148 8.80469225547395 7.9516450379336545
Si 14.16893101989571 12.270367942488575 8.270667108796516
Si 10.679302128826517 13.723278113156715 8.869856510458282
Si 14.201796654206948 7.57924331698954 8.401914915730488
Si 9.857586112295563 9.207578284029516 8.888739316576686
Si 16.472242435098867 11.623064216936502 8.886269380000458
Si 12.573702262371013 12.766106591391287 10.010907822553003
Si 15.054876741815566 9.79803037384314 8.426666106025094
Si 7.508011284667724 11.417276358290298 9.48354004833495
Si 11.670811618690797 10.592420903497178 9.638403934799642
Si 9.088852966455148 15.228746383300344 9.940707463836736
Si 9.346533053267253 12.653827818661352 10.538304871910857
Si 9.09234354061753 7.901216898987155 10.770989023393836
Si 13.487665091863903 8.98632255575247 10.185724656200813
Si 7.109091954662516 13.66671415950235 10.298026400295992
Si 8.16219417238891 9.968628873007134 11.188274181340688
Si 12.89539500759228 8.836745902716867 12.450797469211336
Si 10.01850423953716 14.550263956122837 12.14580731397887
Si 7.816331120184098 13.241649910376045 12.561617950876494
Si 14.760422874886638 11.107098886171672 10.512755694325257
Si 10.521355038329409 11.306701772266672 12.227523094870367
Si 10.562818043105404 8.897884660887216 12.376048531645509
Si 8.089483541660037 11.01436337623742 13.281884414614755
Si 12.028503217405264 13.203375593425026 12.259886201862468
Si 13.979278500514127 11.050396988255466 12.851198980026682
Si 8.902703586370276 14.559375307332704 14.21435714376879
Si 14.39042262405583 9.068065140727695 14.211547306043194
Si 9.833841756961148 12.284470477794628 14.63398582685328
Si 10.383581876204817 9.446909109352882 14.64859091974029
Si 13.680141436560005 13.123477531309058 13.95558104549454
Si 12.100501679030844 11.608457374249038 14.902833092141323
Si 8.457221156365113 10.526941766853431 15.568534477281954
Si 12.517711955440957 9.48011453322805 15.66968680614373
