45
Energy = -214.25544462 eV
Si 14.108175495207483 14.169649745152201 8.49596214053492
Si 10.747384907678313 7.689397263403307 7.867977245654393
Si 9.250298994315996 11.324978931610081 9.05374933130008
Si 13.359748208890109 16.10803427102877 9.511600576048194
Si 11.268824302002743 17.465252313210748 9.63829864069331
Si 9.15299715368222 6.632170893603537 9.457352844319967
Si 9.678093285643177 9.057157451590012 9.593747507970214
Si 11.3151937431377 11.596234804707127 10.28571593325754
Si 12.369461750715043 13.73166640155254 10.163623514631634
Si 13.451013297633118 17.833211798277205 11.134025888764631
Si 11.576610323807921 6.1444684669761696 9.672086028938987
Si 15.322044543386776 14.151926591162953 10.587316353011543
Si 12.022249906756908 8.569084745387729 9.750474190516476
Si 10.700068633640955 15.36111628221935 10.695602807744255
Si 8.747837104981796 12.035168036243057 11.247722734387862
Si 8.813456659877398 14.31201578341632 11.761595190455235
Si 10.47536195688093 7.586731184113669 11.320958014909621
Si 15.72276289562838 12.680871295078141 12.609855481288873
Si 11.15658435591547 17.50397913664901 12.024812591693651
Si 14.39681614725622 15.888754401334305 12.220999847510244
Si 13.462113222250986 10.448939005679994 9.92272009205284
Si 16.917107947510313 15.751531839714362 11.341756185569341
Si 13.50228986004857 13.458639801646939 12.208166992106314
Si 13.720188375012278 9.688129354799994 12.13920278227417
Si 10.461288481241457 7.248635398424763 13.676052035080998
Si 16.458649791807773 16.45185672232183 13.541288255878516
Si 17.58244084744067 14.130571313988368 13.178941605612337
Si 10.791636866686867 12.458305807010186 12.596543000248287
Si 15.175642730659812 10.63639121197302 13.723600896231074
Si 10.238446989570921 9.586818820361502 14.03137994226806
Si 12.443586922390033 10.909383120696754 13.777852224719021
Si 12.56261013669303 8.30854467359665 13.632485416928844
Si 10.724575737794764 15.396406796202669 13.179937756850617
Si 8.662655212076132 11.223468575901892 13.449647881812508
Si 12.75755245850032 14.62881521029265 14.075686647179802
Si 8.527797061603254 15.081079364826882 14.01711562260443
Si 15.716902370808821 14.157590331130145 14.7316063224555
Si 13.318912541041053 9.217693344202521 15.669940537469506
Si 14.412211835609193 16.16068483046631 14.89774229937323
Si 9.585291173607269 13.013446171494193 14.681122678345112
Si 11.246176123756408 10.36725667075513 16.016655964827404
Si 15.635973228133995 9.931273051550296 15.919518664888116
Si 12.526385278275802 12.72216681434569 15.480951474397616
Si 14.820662778565117 12.188412526849108 15.674925148632905
Si 10.611330230593724 12.48950131376881 16.839094577278868
