49
Energy = -235.23464376 eV
Si 11.650580169323216 11.423407955237346 6.498526442186604
Si 9.404330441281072 10.741267917201554 7.037058358191613
Si 12.77831925763255 9.674618639488342 7.6633537591642895
Si 14.840391522247511 10.661912193623701 8.13563208407211
Si 12.27251378241855 13.29042406657492 7.887728000634867
Si 11.97899579546489 7.500834437345813 7.9841432215121575
Si 11.161802513000296 15.363055431060138 8.3151758068315
Si 14.655102136425535 13.00263768705739 7.560975762486766
Si 8.76414879731348 12.06516927724048 8.928706930544427
Si 10.124134864800174 8.904774412280037 8.433744240651059
Si 11.05224737577334 11.325137890900253 8.86946554148873
Si 9.428535689297567 14.228986828216797 9.624188155580029
Si 8.645414835390559 8.854858198843667 10.222499840334242
Si 13.752076905411835 12.111710770998847 9.740334974183533
Si 7.187130479611935 10.738326122677334 9.980817544551208
Si 12.413881797976172 15.32689029838166 10.35411202775753
Si 15.985556829089148 10.824316794977337 10.275837756688494
Si 10.864066779462128 13.592578105439339 11.42331816560632
Si 12.610501332219279 8.227226135428925 10.204985172250794
Si 16.023391802291272 13.29462960274329 9.588606042455392
Si 14.370128177118163 14.16313213640825 10.98631417882355
Si 11.116077961033112 9.947708848047048 10.840959981588977
Si 7.667762632510011 15.606503471166707 10.589436306728818
Si 14.946469422680723 8.316421293765183 10.884732108360117
Si 14.476708217850097 10.479791993336502 12.15679641522917
Si 13.028261708831545 6.4984726332981015 11.885562050587778
Si 9.273604158640008 15.659586354876605 12.332030680463383
Si 11.615979990577474 15.793765467967633 12.472151341226533
Si 6.988589627487378 13.92335807202984 12.252013874889137
Si 7.486749358518148 11.64592936429079 12.115569774288897
Si 13.98013308353681 8.346907687734472 13.15706381755824
Si 9.504517108920787 9.012149991707979 12.380237284042447
Si 12.393500716037304 11.831092948677897 12.018064761608779
Si 13.985398043435975 13.406417350575023 13.143565424664386
Si 11.419599586169197 7.800957548707067 13.085224387016817
Si 9.228483081515634 13.117845080747719 13.075204423491831
Si 11.74706729421618 11.16500323924655 14.359593000614888
Si 15.627770636175688 11.805550035664785 13.810746005017371
Si 7.972929567940572 14.955687645541238 14.188771004991153
Si 14.092056089272099 10.686890098612848 15.205611292491668
Si 12.965390987491192 15.179213277699507 14.368531494291627
Si 7.750437066997194 9.904748854793525 13.741543417527055
Si 12.150859406772975 8.711921577216367 15.099681472303871
Si 14.435284872360695 8.334696373711287 15.51604513313347
Si 9.3143187883982 11.071134834806902 15.01618857912501
Si 11.601951266493618 13.509014926542259 15.294888400495019
Si 12.542215857703058 11.833452845161395 16.655352437347926
Si 9.2386827898615 13.374866529304413 15.478268604392508
Si 10.844863857570614 10.123931215191744 16.51955698307521
