40
Energy = -189.63646993 eV
Si 8.739387922276938 11.340994458456874 6.671517111104109
Si 11.605729878598824 9.372933227614674 7.074662588327529
Si 11.070992460152043 11.764503704108607 7.441458458615949
Si 8.57621873316988 9.311500193245108 7.966133171269489
Si 13.353906568318124 12.576304757483665 7.3019829218396985
Si 7.752486451121463 13.056093718345496 8.111695446850112
Si 9.926936561892973 7.5965234453170005 7.115751443643332
Si 13.754437146492341 8.574228674427617 7.873567446990205
Si 14.568410215563086 10.749658717381738 8.230159910572617
Si 9.154529059036143 11.392508666522595 9.259634522246072
Si 7.563145976026699 9.643152318199329 10.067666360834574
Si 11.997427077059399 9.739023425300566 9.41058405509113
Si 6.788212865543707 11.881505404190962 9.980547120853858
Si 14.13854162296346 13.990468690706741 9.18833065083241
Si 12.928666680955002 11.915428936832294 9.659948053171743
Si 9.981665782461974 13.705393381745735 8.778735731697818
Si 12.958292700998818 7.603014381028489 9.944503722698657
Si 10.681604405401497 7.4013721414978315 9.33523473577769
Si 15.388506852702061 11.985661043743349 10.105646641128326
Si 12.348892617243424 14.038272996759812 10.84026611235929
Si 10.164211250916244 14.924062677081984 10.820811545261348
Si 12.007091353608088 11.68986854560368 12.181291928522638
Si 10.760977668068476 9.11184557743423 11.391483642284477
Si 10.420399646546182 6.730017081246583 11.606493175646312
Si 9.910489684325308 12.471362679342672 11.355660435877025
Si 12.603349762646872 7.413389863579523 12.307709811733464
Si 7.607022910161308 12.360835096358768 12.161614223783989
Si 14.402743317846829 11.43563338221031 12.254016222205472
Si 6.935589611958023 8.733408259858098 12.24776046062202
Si 13.519179816129828 13.554716285094761 12.845290345141299
Si 8.998163400904414 14.127971276435343 13.017775400226327
Si 9.068227102950118 10.219861873955349 12.869626295924334
Si 8.915107852580553 7.7146277172718705 13.118889237905805
Si 12.184343853597467 9.498243671033475 13.54827721624979
Si 12.451224255325938 12.352418550067949 14.566610133895686
Si 10.129232666411136 12.318403091623484 14.160767743485135
Si 6.82599572871629 10.746622241616683 13.734160859136516
Si 14.090774509615729 10.508818752974923 14.556476829556177
Si 10.184621409179925 8.869075172794426 14.774370537179147
Si 8.752346159107647 10.78935946008147 15.331971288032802
