44
Energy = -208.16580458 eV
Si 12.227185989387284 14.904508563679334 9.593037871358565
Si 13.912013833005899 13.126819779052951 9.79318834084265
Si 12.392595695665326 13.855641626246078 7.428977339262185
Si 11.36727593011545 12.632471575986076 10.535020062695056
Si 13.264470332148246 11.225117718475174 11.122025719079138
Si 12.229110706395279 10.341593633179631 6.215430701918411
Si 9.92778784194733 13.905735744480717 9.04835616976747
Si 10.837350889681561 11.377535678728243 12.771061358064058
Si 13.395005965738344 11.66491334205986 7.799878948870867
Si 10.337994658691152 11.492325469828518 5.494128876304666
Si 9.759270310432898 13.621422730018194 12.384597576255128
Si 8.379004736909655 12.609172577163681 10.529554101889282
Si 13.23379314547138 9.638182382489589 9.359132775357994
Si 10.938171589578701 11.749485500889623 7.971486883542165
Si 8.59363122603265 9.823129607538478 5.7316938747494195
Si 9.24389496395911 12.330745252182526 14.436474699198207
Si 7.3753774996444035 10.506966184605158 7.714884656833805
Si 7.4487587559743895 12.125332695903918 12.78725501209519
Si 12.922363853900082 10.374799856012343 13.29701990488247
Si 9.465356522338272 10.49614918316509 10.942295768621541
Si 9.913875586412464 8.134267243846303 6.865668272773713
Si 10.136386092183729 13.620036203457095 6.5905498062160754
Si 13.688087262917787 7.617127535491186 10.888683757591478
Si 12.708635390914482 7.501680846859337 8.314725589436486
Si 8.803234121716342 10.07380637930038 13.403580761487767
Si 11.072286923782354 8.852212606983752 9.959063339541535
Si 6.416837104415125 11.825547885826634 9.48383945184024
Si 12.158535023060278 7.987369144384067 6.018938072784362
Si 9.543907492154649 9.96418748303062 8.41276020001349
Si 13.180859204998155 5.578372046000193 9.682481343004884
Si 11.818390941845783 8.467109982172273 12.251746361758846
Si 5.570410759168065 10.025660850676223 10.887614211708499
Si 10.763672070355296 6.528850467440241 9.379493373133615
Si 7.773097093613584 8.780377137403118 11.278017391328122
Si 9.122827712572034 6.026482742255624 7.716384369094378
Si 6.29246866859871 9.71073725518563 13.19804001681789
Si 9.937708792446635 7.84100401682979 13.579422626979952
Si 6.530328019675999 8.709309017605836 8.940783731944649
Si 11.58112393935831 5.934743241734939 11.55430496185013
Si 7.900545262587913 6.741836126192092 9.615711839087291
Si 4.258035592905063 8.4996869821514 9.535488449006198
Si 5.669053107613279 6.925732335624318 10.640942157285785
Si 8.690441046062777 6.618293909925367 11.929803989177191
Si 6.508496940533733 7.207157172765304 12.80300359068966
