45
Energy = -206.5108322 eV
Si 14.767367542308627 20.919251043484973 16.455467779076034
Si 17.229954420934433 15.855669331955676 16.689538344510105
Si 21.19134388216296 9.099600171567685 11.476109492554281
Si 16.432175948846602 15.050112761191329 14.603533205864023
Si 19.803642915203994 16.35425971395954 17.517605916230618
Si 12.944857634649587 15.17957067554449 13.22817668157598
Si 12.53524468874027 16.84263303618199 19.216512338038765
Si 12.118013263893591 15.082734257067624 22.824631079469167
Si 12.470681955689194 15.709455571458454 15.630978076079515
Si 18.071792486234045 16.745836908939317 14.270349280029542
Si 18.26869832068762 14.597990022858557 18.458156963074476
Si 20.07986286946942 19.54650088867283 15.02015520961265
Si 16.981396311601497 20.741057897943158 15.556324945257025
Si 13.887218892661751 15.565717147903406 21.192273215400846
Si 12.135482696895206 17.551781580660972 14.03823685786142
Si 20.49077800120291 -1.8017623282518436 16.070836307225857
Si 12.74532835814184 13.290259885600491 21.257519561267504
Si 20.174835739078286 15.459795506256281 19.65904909842901
Si 22.45884876088448 10.760858586696141 10.63061300771882
Si 11.150910890731526 15.134213345780925 20.600749091946295
Si 22.04281387500079 18.213024057338988 14.806060507906427
Si 20.235757100318008 11.230805555478423 11.417947198715767
Si 14.568105694334665 16.61946036314144 14.651613269398794
Si 19.0312726979696 9.419106819597413 12.2711106221388
Si 11.497289613439719 16.62409374646688 11.8804737571158
Si 13.926350380695213 17.28075769890894 12.337142701689869
Si 20.164900285728958 22.360537645407078 17.979547540014945
Si 20.292036065943606 16.57401662934337 15.204713712956014
Si 17.96301888726656 18.82773370170811 18.439006870010353
Si 16.167557469836034 16.01539888775559 18.94132762444562
Si 10.635035794102551 15.592476148019811 13.944770279792383
Si 12.181313578606632 17.273315017097705 21.555955184678073
Si 19.702020972537618 20.119134774912247 17.594712401501585
Si 15.263308116734528 14.028659953586603 19.94316901127718
Si 14.580984746416842 17.696046375999643 18.414576772218123
Si 17.912159395047283 19.092067548152006 14.162936639070464
Si 14.80563162696693 18.493344268064984 16.204342692069424
Si 21.143553344571757 18.34080798656461 17.043742270725808
Si 17.150905081127366 18.223213461473936 16.286116089723
Si 13.058706515769877 14.180805674622528 19.002349156863303
Si 19.164551275569156 21.68891430948571 15.779275255779952
Si 18.215961516973636 16.905620947392315 19.8549317841322
Si 11.265180943343134 15.300065270943342 17.941237364610014
Si 17.996716349142808 11.425301522894646 12.28095995725446
Si 15.763962987315665 19.71886142966084 18.363447639109285
