5
Energy = -17.64203141 eV
Si 11.316099583209883 10.590238582099508 9.25481592432681
Si 9.14607986236105 9.833260290357616 9.706971186300928
Si 9.012300623752424 6.554360826733925 6.946168210878772
Si 7.942532818114329 8.004741401886463 8.396936378343526
Si 6.926607747657817 9.328280628031276 9.981896144228566
