54
Energy = -258.44929286 eV
Si 11.516285518493714 11.528442877208873 6.233651708490024
Si 12.877140784316818 13.473116769894364 6.802867544286878
Si 11.323434905829941 15.09871360089622 7.506698132031139
Si 10.296838953546954 13.030432431473473 7.581544952505457
Si 15.111903802167935 13.087066395338185 7.664461285063128
Si 13.364720206285906 13.997042917806573 9.262790437938028
Si 12.268344755126884 10.61497290093459 8.346002785172809
Si 10.956384549331414 16.94887806226863 8.999362182916887
Si 14.612772853844357 10.925953483394379 8.780471637644299
Si 9.421619857202906 13.112162265048966 9.736050865203856
Si 15.759836985324242 9.113455262408543 9.87365598745147
Si 10.03198818564165 15.299331945966928 10.449998121779423
Si 11.737678962876736 12.38343552198823 9.898536227837965
Si 12.625194994305582 15.925306156243069 10.408990287105798
Si 11.613973258602567 9.91517247390168 10.501251950975963
Si 13.749105407591191 9.298931636457706 11.289026966108121
Si 14.378021945451877 11.399365171469562 12.15136530240403
Si 8.918066991253324 12.3738388524723 11.99237575850258
Si 16.66456438332808 10.830662302185711 11.390427232930186
Si 11.277152173389416 12.273880634083644 12.230371769696422
Si 10.053365567584994 9.765716442428973 12.341276405281182
Si 15.383176572553134 12.813803747396795 10.169122001866725
Si 17.705727653741125 12.948350534884803 10.775022790484023
Si 14.110723761746158 13.774117855935932 12.044774877943205
Si 11.711075628745423 14.626843804063743 12.318772199026121
Si 8.748535853768514 14.71829247947655 12.389012523647413
Si 13.766856245537216 17.35086905164434 12.03503781426066
Si 7.804684781724128 10.415100328061087 12.778292142845407
Si 13.334441234961258 8.585277610637721 13.540631773784861
Si 14.433441456751456 12.042415275546999 14.548293590131083
Si 15.353392230096276 15.805495970047746 12.97117745934235
Si 16.256873059754838 10.4706490641947 13.697759641958983
Si 16.545091207682827 13.83422353050318 12.708807914991928
Si 12.286852894027218 16.4044093125652 13.858537500579
Si 13.470260797975207 14.23398169762184 14.544586505337136
Si 15.13808253430234 8.836224245172337 15.08719130855125
Si 11.003761627754802 8.541332302043818 14.078822380925349
Si 12.278090526931587 10.728137299552953 13.704197298712483
Si 14.403060647327333 16.40858285724528 15.071229500219726
Si 16.85866604468915 12.53812710711403 14.752357014305515
Si 10.407608305803658 12.608172582134817 14.614233525024462
Si 9.310502106663513 14.76259561785232 14.707299057920551
Si 14.025092812683534 10.574059840979547 16.42508469601444
Si 10.57781607177281 16.578057554267275 15.63719227546182
Si 11.609469328176631 14.453603798428496 15.935247352377411
Si 15.6158670625284 12.858344409811535 16.785214221463658
Si 14.227069093188971 14.762874664846175 16.93774989625909
Si 9.871653071386929 9.056965806345856 16.174498854074205
Si 8.75989588649762 10.860443246245369 14.950119275211529
Si 11.61687055624145 10.709437492274192 16.004263206223794
Si 8.395617191817303 12.939856036338506 16.243100455100485
Si 10.750608572857091 12.639014284118593 17.187442295767223
Si 14.94148682903475 11.332895837589152 18.507441811790407
Si 13.131586098894328 12.783899440301429 17.768642086184457
