50
Energy = -233.98947001 eV
Si 16.248684015601015 11.948933025974473 12.756294968829216
Si 14.163955641756 12.038159098293013 16.676377868289613
Si 14.278400825110266 11.867582935831594 14.278091959654184
Si 12.829951417464995 13.553680945866247 12.969045670547434
Si 14.427684782132502 16.620646350669297 12.612817264494044
Si 14.627699951561292 14.823540469349263 14.45827786959491
Si 15.114109948897267 14.242975775841495 12.174359645382326
Si 14.620815794057437 15.710927409398195 10.267538507602792
Si 10.619888739907989 14.107487116944741 10.889090817082536
Si 9.988886725551664 14.502226102586343 8.596780255643795
Si 12.143565957888448 15.60708646512883 9.256755653420958
Si 9.027783351077739 16.484488216306012 9.914990606643114
Si 12.216735964305279 15.724660814184006 11.77685534984819
Si 12.405412775416222 15.693578402422345 14.229879910397395
Si 10.645946866840632 13.164908040023231 14.116659203654699
Si 9.674255954759367 16.02561727363689 12.204347862998777
Si 8.093411048587875 14.377726386982031 10.44146493182602
Si 10.651383096269956 14.914293869655511 15.814853475063869
Si 10.091286792016788 11.789976663180225 16.264582450558343
Si 12.34539174604543 10.625636221133982 16.23792343067458
Si 12.138857538444666 13.18132545325553 16.309333537575537
Si 8.57776487221382 10.050668764618457 12.825900387010824
Si 8.666600348659607 13.825352193977569 12.831726940784156
Si 6.993707671220297 11.977474571998467 12.529569310539573
Si 9.266375800770582 11.937846638504048 11.432394449969559
Si 12.79589793203988 10.318708918004479 12.903155623980485
Si 11.98385284906931 11.958175601830416 10.983937985745994
Si 14.60945052939833 8.254821215472594 10.234528949430729
Si 12.11675035352759 8.25684393640827 9.28114510131679
Si 8.104104758552756 9.501539227508356 10.437675423575676
Si 9.991747505681783 9.446035252561188 8.597827302320965
Si 15.39446416252096 13.557544658580865 9.363610827834389
Si 12.93812070635282 10.561000243214645 9.205784695666148
Si 14.489142634889559 11.996470344462852 11.10244918682049
Si 9.46559397157157 11.994195974202984 8.99507417446484
Si 12.97169164652894 13.314307359117453 9.165493187332517
Si 9.08701472978694 7.4056113467285085 9.90226689978057
Si 9.65039880502889 7.8480734020613205 12.207031480814427
Si 12.192792178952562 8.136811795649514 11.812190195343527
Si 7.225193639951188 11.958349156173012 10.023647221984449
Si 15.115739248931824 9.720132550951838 12.168587767325121
Si 15.390822045104434 10.393492977898356 9.401724634893492
Si 14.262782725060404 11.8881525099404 7.615932012034848
Si 16.947994432881785 11.964866209044853 10.292142550243744
Si 10.61134330482876 10.71555208157784 14.00360355707078
Si 10.511216625987858 9.204860242315744 15.9252467193647
Si 10.612573799251042 9.766845532830398 10.909286118417976
Si 12.27686765619328 8.271180255659477 14.300696449259483
Si 14.508289544449896 7.345002348617473 12.51274914774403
Si 14.558146779118884 9.095177268989037 14.458850266928055
