51
Energy = -244.45352038 eV
Si 11.332259279127664 9.62647153738964 13.592323529534653
Si 7.064246999097527 10.715401198633447 8.553196018984863
Si 13.022758063121756 15.752330924325047 10.145428598839644
Si 12.67126422269062 11.087569621137513 6.008228572483712
Si 14.443627705015228 12.722714060451201 9.494887784928359
Si 8.007551086352773 10.434152319824543 11.998060941775808
Si 6.6069684263046895 9.235364185810765 10.444140255996667
Si 14.958719766638957 10.926010642122788 12.579174428635419
Si 10.341956097033224 12.5254294897368 13.174867457672363
Si 12.83724890726323 8.08910889083099 14.982340051009526
Si 10.097574508653999 14.669753988259194 10.471786026873358
Si 12.872209162976656 13.547915732394724 11.161769405662096
Si 8.312274594145142 7.750753314617635 9.604636373825128
Si 11.001231455447927 8.866223668608539 10.490163371576802
Si 14.774823814709832 14.090747051019308 12.598090721125564
Si 8.919462059444987 8.925685112978243 13.625818950260792
Si 13.34123280052091 7.993265034294773 10.822221879990444
Si 8.501545537992484 14.276133699641088 14.144465707424898
Si 8.018156903423831 12.800181694141573 8.975942887923077
Si 9.350097665170022 13.288312379857816 7.0577772678662765
Si 14.692610345181478 8.879561961371925 9.121100613474775
Si 11.037222553436456 16.43327284331953 9.08602819917559
Si 11.787242417418108 6.415629693253607 9.990330355920022
Si 11.318469349259981 14.547595471173455 7.698809649901238
Si 11.75365685035785 13.836366279589981 14.887482512957163
Si 7.681315514092734 14.44116991341029 10.603816924625928
Si 9.793155614452559 6.964438959331891 11.247051569763336
Si 10.639220020887983 12.572959353125189 9.203170256339545
Si 12.74681017545158 12.673878273574324 7.812250994864772
Si 8.135283201671486 12.808249054916546 12.278560641107392
Si 15.221913669465337 14.82105517934467 10.311012600387977
Si 13.688762998764394 8.932105606073907 12.927520906244267
Si 10.677632645360786 14.886465507010511 12.924421166971621
Si 9.772827338809707 12.799666960188269 15.53463224025792
Si 9.191841800878388 10.651945803421787 9.932590725936242
Si 12.788914506248789 9.532498319191722 7.808518294494439
Si 10.110223633818917 10.517862223075868 15.75296128227045
Si 8.992602216660966 7.313066341642941 7.330809156852506
Si 12.97103540267193 10.49446743368532 10.096421575155071
Si 12.425890297237949 10.349429193931947 15.728261145483375
Si 11.195441729348255 7.838147731687557 8.217859992043735
Si 12.488035837493014 11.381995995539988 12.353796395684942
Si 10.54204597059709 11.24867612524787 6.999120443561229
Si 10.542370249501008 7.436528654301993 14.767483014064519
Si 8.889434425041548 6.491495734032422 13.336175786326393
Si 12.981527571871817 15.660633044809314 12.481397717455762
Si 13.407441666861942 12.167745459510842 14.510419092711224
Si 15.554459519679241 10.804893106724311 10.263233179992584
Si 15.75105286196496 12.539754782133825 14.185522127279016
Si 8.79730548962411 8.62390567599128 16.02232548728796
Si 8.955069401380115 9.617039103933447 7.667607244364408
