52
Energy = -246.93982651 eV
Si 7.928237732633453 8.439493218495326 12.18642583479494
Si 7.877109179552703 4.683388495765907 9.316480059022796
Si 12.014860458284646 7.374665738894773 8.0975931084338
Si 10.417598479250978 10.332220613806038 13.390709510233634
Si 12.463959103972677 6.012677423918161 10.651780630239472
Si 9.385318866038688 8.34746462434746 14.28513225699555
Si 12.614279326921 10.929251532413048 6.9932232208414336
Si 5.036619800417942 7.020724973265615 9.04772196177335
Si 7.331978283707003 11.226531082915226 7.295442225241365
Si 8.440241714434405 10.871434670956344 12.29842582185957
Si 6.075395384720005 13.165015960004215 8.200728237876316
Si 13.757115536394986 8.979561648094569 7.732595526669196
Si 9.911753068657383 5.970410200052299 14.298747642052868
Si 3.577944291398252 10.980309027065607 7.677652555124793
Si 5.944409792362034 14.57528648783691 6.384114785697673
Si 6.605148126510826 5.755861815970413 7.633000668123631
Si 12.599013665750583 11.279023544263444 13.155375142326841
Si 10.31154305283148 10.404803251830884 7.0801327039911435
Si 6.199101579646762 8.685347122175743 10.477372454289547
Si 7.702806235028155 7.137502023893975 9.350646173090293
Si 4.8217767731715755 10.560812466401345 9.781643265461012
Si 5.202778873218456 12.173253695345666 6.170489182370114
Si 12.024151364511743 11.886504191476677 10.887326202683289
Si 7.4691758082827615 10.663869019888848 9.626669868988332
Si 11.913344443560527 4.963476607589893 12.848254752097427
Si 8.22141729495739 7.538143461732444 7.1040531186033515
Si 15.278879881713 9.341579192625655 9.550412520655499
Si 13.288657769251072 8.16535966789319 10.19106467149182
Si 9.964062445553907 9.389410671377085 10.958095737101361
Si 10.137964189816664 11.232143007290881 9.404860544084455
Si 10.424576424992718 8.116710921802396 6.568527255501637
Si 11.141833623698373 7.319432247191267 12.724441139162744
Si 11.672733436755312 14.650803297575957 8.445095380601979
Si 5.930680959340216 12.594849638439628 10.454822587239372
Si 6.6778601980222305 9.063938288121964 6.35649012447154
Si 6.875991253901552 10.891588527761588 4.881373360014933
Si 10.253343728221267 4.9651216091124715 9.230899490430453
Si 9.027615108611093 11.847696001284913 5.646521044383285
Si 13.279698039622867 13.127328465427839 7.55375290694216
Si 12.475244556095888 5.0312909406091055 8.43841034393586
Si 15.192144893780506 13.110344156008479 8.970426668675895
Si 12.26160424716076 9.252960735828035 12.00137857646855
Si 8.170572818665013 13.630268374807804 6.984049357446655
Si 7.577636375588258 3.867717971322485 11.541220881321605
Si 9.588977821375126 13.57410863745327 8.881527756443862
Si 8.310843862902379 12.717429182370285 10.780748110535066
Si 8.302730691015622 6.003053671438424 12.40448922280546
Si 4.806291298114954 8.977383601878866 7.68595786170749
Si 13.146042200097517 13.785698158816357 10.028706672452921
Si 9.956633252849679 4.362730053460966 11.4860035021459
Si 9.87840704050819 6.962717417916581 10.672662956153255
Si 13.63755069507475 11.166957712728847 9.29197946789103
