55
Energy = -262.50234679 eV
Si 13.941401832489642 15.090667649054236 6.381919428232554
Si 10.162952084564012 13.643986186843357 6.7570088844401335
Si 12.571304186089412 13.207494922632726 7.09332396100678
Si 14.779256660795806 9.500276056203973 8.033880914974567
Si 12.952899603659201 15.40768753880918 8.53714384844181
Si 10.942779452614968 14.213496239861714 8.90235780027499
Si 14.075824758869258 11.781169262086658 8.3126895560457
Si 10.627009991543884 10.105395377650922 8.636663597620947
Si 9.246937376503949 11.907915538805895 8.074252421460887
Si 12.738290119434366 9.259372566460152 9.1791654142158
Si 7.02235797212856 11.933737895723022 8.955055499336378
Si 15.074000834628448 13.937792930539018 8.191207337929455
Si 14.345939955116144 14.627274338528114 10.327524463115722
Si 12.19631031122722 7.3469095749885005 10.520296761422033
Si 15.517244031178116 9.258689066120935 10.359554160571
Si 9.754342999351836 14.677879022780516 11.017735290468163
Si 13.534541214136155 12.375344180663001 10.592761520642878
Si 9.420053100809485 8.971411876850075 10.31911149367162
Si 11.036443228823819 12.058609061733852 10.096977310044872
Si 8.534636073643423 12.708591654567874 10.620714210803115
Si 16.57720367985691 7.441409200525369 11.423266285602471
Si 7.545989380894052 10.349023468127495 10.713937227647511
Si 9.89815508691701 6.705466495286384 11.011427675759561
Si 13.155900598978695 9.54745046638271 11.516289169028896
Si 17.21716622040948 12.477863316984479 12.626468252097464
Si 15.467268679016641 11.30076316450047 11.52489589644527
Si 15.186278137786367 16.115513515355982 11.988213390808918
Si 8.063337385944008 11.562330308800975 12.690598703153059
Si 15.401897757870474 13.992209721044283 13.058161223154988
Si 14.19340272360503 7.335622799359079 11.851095912317644
Si 10.754342752732878 8.413342824486607 12.371318232688544
Si 12.179452485854968 10.544603376519401 13.4197513227292
Si 11.33921412485007 14.32091413305294 12.79752151363693
Si 13.164056700416602 12.726849651518107 13.006798734525862
Si 8.741735071502873 15.71857516582745 12.906586560710863
Si 15.840784674194268 8.674211120410359 13.372439344813992
Si 10.18310905908591 10.85374448696968 11.970978877475218
Si 13.228149676480216 15.713790183542486 13.270132686826452
Si 15.976878869870657 10.927192198384065 13.927530205354426
Si 9.217410897873696 17.76587423961072 13.976712093284506
Si 7.43986234336147 11.894155509204626 14.964465293424922
Si 8.273386366241326 14.10565308179669 14.618991564559986
Si 10.655869215057207 14.058330484290634 15.074928667539965
Si 12.836641095225104 8.993582233653092 15.223441204667433
Si 11.292653072999524 16.60737787963994 14.312353560882418
Si 14.208747763712811 7.302760930426723 14.268057909063865
Si 10.549692465513134 9.00069253086379 14.677551647688729
Si 9.73284527943939 11.241835061091274 15.120889697350941
Si 13.996637311154966 11.52086210846381 15.093341515675789
Si 13.882744619040906 13.994376005931771 15.014280292798249
Si 8.946375859751491 16.08544002829669 15.705911598225374
Si 11.359544387737152 11.823895675586536 16.643784940361396
Si 13.246322322672485 10.453736990371958 17.05932739718606
Si 12.30606649310399 13.996855790402215 16.90504049258635
Si 11.127564622160795 16.081207881307922 16.645380004127954
