52
Energy = -249.19485716 eV
Si 12.867390376505309 13.214847828708825 8.26143955987404
Si 10.44899818992724 15.882038232662289 8.324354641936011
Si 12.613434937359692 13.584924924321099 5.919729038087651
Si 13.36433283101129 10.018256481723888 7.125852687178949
Si 11.69055410178327 11.416870818563781 9.552151089442745
Si 10.024946111485391 13.590136615794236 9.31325858410145
Si 12.12120543248771 11.297178054730896 5.691070969991586
Si 12.288239341860661 14.970392173164573 9.783157656444732
Si 6.875302554268279 14.520787685704498 7.0141589725367615
Si 8.22481339103664 15.253919375890264 8.908446211782449
Si 13.646813511185293 9.678710116915344 12.818008569112624
Si 8.844060551414762 10.447231744829132 10.544339640043614
Si 8.029500910576932 10.974114671980054 4.883514215357644
Si 6.748458600499885 12.75796193477563 8.554952816405729
Si 8.737669947295874 12.20797791079732 12.167848827891957
Si 12.449558470594258 7.561243224678955 9.461133341590445
Si 10.228984804072772 10.065891897524653 5.211418054918344
Si 12.91571301877921 7.758946774981383 7.084498604772651
Si 10.956998901173069 9.707673644115486 11.385280256648002
Si 7.686410145209545 13.632326767249085 10.52161575862645
Si 6.024089860941375 10.535524217514876 8.488055821694768
Si 6.854583084371565 6.810728982041315 13.239724127977329
Si 8.45750935832783 12.779526642212272 6.482600270281503
Si 7.538578763485286 10.717148727217236 13.662748114798712
Si 8.435749460583635 7.211053761399029 15.019277082831483
Si 7.3147966102331345 9.624607147245804 6.748323523005319
Si 10.62297053087856 13.140250376212586 13.302510136133428
Si 6.099055221380881 9.087876428391063 12.700652512621112
Si 11.48714541798416 13.192538409914834 11.141199332726755
Si 6.863437110356221 7.048262272491042 9.572879895892834
Si 10.50325675400397 13.876309699534414 6.9437635603519015
Si 11.252129213898316 10.126399387674667 15.65076261945674
Si 8.025761989704339 7.575459473993875 7.618476106865569
Si 9.10680363328442 9.524974564156766 14.971250113877597
Si 8.594705781534639 11.011987548569651 8.259391316803173
Si 6.764792794158095 9.256333681504708 10.387189465608127
Si 8.51276087451881 8.571311354283074 12.793138044022118
Si 10.392473570963908 7.920124401525026 8.386495899554017
Si 11.45675941360336 10.884351552792092 13.41897647632127
Si 8.40080881587624 6.634511862652947 11.28950206842973
Si 10.820075979188175 10.153398753696868 7.615050551386826
Si 10.958430235630997 7.520190401464161 12.19141810543076
Si 9.698750021214734 6.1353324332263846 6.886981530253952
Si 14.236535379695994 11.279381538793336 8.929419300368247
Si 10.880215190961952 7.864744040704695 5.848306860748004
Si 11.765385211743506 8.055555010848263 14.683302982825571
Si 13.367261765554382 7.2325760283016844 13.007443744381378
Si 10.420302005531504 6.0543028639916106 14.159484209602512
Si 12.541306644969666 5.86789441370351 11.148003363435066
Si 13.278327834501207 9.59705290799393 10.418829034946246
Si 10.205197845107705 5.192523840271437 11.895936724334698
Si 12.717724818024159 6.001596649662881 15.089601101997408
