18
Energy = -12.48108701 eV
Rb 17.338423893376742 16.998704095640758 10.099899520715033
Rb 14.09647875301197 13.269467754785023 9.748559134666753
Rb 18.46696940148149 13.054193251842028 11.989829634444188
Rb 10.25498296000237 14.854396617077853 12.366998385644932
Rb 12.760850519383597 17.9801997787622 10.30668330935035
Rb 18.94053404995323 16.88296418513661 14.827769645033877
Rb 11.184324740760397 10.449856545633237 12.608884504444879
Rb 15.705929174039632 20.07358450718709 13.171972400809066
Rb 15.758595627673957 9.447755265386942 12.364152834943864
Rb 14.679269979163749 14.696212621897006 14.727312720644292
Rb 11.688340176469742 18.3865804915969 15.244781584557884
Rb 10.640840178742433 13.141904944204798 16.831954201376398
Rb 13.518260374454982 9.290568666177057 16.417952773561915
Rb 17.80854190589437 11.491737421080227 16.455435514140266
Rb 15.83808927995419 19.35285764610805 17.710058573296344
Rb 17.651799922793437 15.399509243627506 19.20791944712184
Rb 12.748622266442956 16.49124005208046 19.52385660548044
Rb 14.388766098717168 12.207886214093115 19.865598512083952
