13
Energy = -7.1881253 eV
Rb 14.624826285911317 13.251292521521563 10.273361236597312
Rb 13.425449188860261 13.960437998570994 14.672297715752935
Rb 13.270078435838894 9.653579721745537 13.079817271709175
Rb 17.688841464019646 11.509232628245018 13.420265251613182
Rb 17.39138009335174 16.259326955771183 12.86022231706547
Rb 16.04435684399709 22.522483482942125 14.966526418036539
Rb 13.74469780680772 18.513896961836316 14.913663424314787
Rb 18.446393753331964 19.063142203941606 16.637566514575905
Rb 18.14850175367754 14.44729734325533 17.1397851850236
Rb 15.225019088281504 10.688046891251906 17.35836845006628
Rb 14.54887482793179 20.668339300452665 19.068857034823118
Rb 13.936930426234897 15.91696995998464 18.836057794664924
Rb 17.712909228179097 17.75421322690521 20.98147058218071
