27
Energy = -19.51966995 eV
Rb 17.346157377079127 11.916326544479055 9.785953729137514
Rb 15.239343321310484 16.44317778115664 10.984940702765057
Rb 12.976230045559536 12.094062160688223 11.69945218107162
Rb 18.334626426828905 20.13576227369827 11.31883186318288
Rb 14.600750192877205 19.915082243094812 14.337620946399111
Rb 20.155479418326497 15.468277472433556 11.39515357732713
Rb 16.21093992516338 8.944840473804739 13.702454926200499
Rb 11.829018983493748 16.043226304670995 14.477144523368914
Rb 16.870114655200982 13.53399564086657 14.076448182854607
Rb 20.587361054213233 10.803192774192576 13.440782538812106
Rb 18.834856115386238 17.747969765548387 15.215051464675831
Rb 13.361419680118933 11.437429958177853 16.537182474433774
Rb 18.739074033605633 22.534917290788357 15.565284589330743
Rb 21.75456441113047 14.526393284520921 16.583770143988655
Rb 18.38472844089892 11.233016336458878 17.744531789668162
Rb 14.469530269296188 23.763065148141997 17.807744180416947
Rb 15.251535652255555 15.795644977815895 17.5710254601102
Rb 21.42273513605041 19.24734840932574 18.89354792484318
Rb 16.74179198600819 19.854295169433517 18.893252812771347
Rb 12.006704831901594 19.58517710416932 18.3571542127948
Rb 18.72579281148526 23.687172997308366 20.29625465883718
Rb 11.100010585807011 14.86249069387102 19.268632855892776
Rb 19.092441062395938 15.440206655559724 20.380720032314468
Rb 15.19826496206545 12.646609342698554 20.977547758515694
Rb 14.297437728613357 21.998682383165498 22.196597425366726
Rb 14.481783576611424 17.244167918836084 22.197155347551853
Rb 18.734325037071713 19.844486615850006 23.04278141812411
