3
Energy = -0.97565982 eV
Rb 9.170512241225548 10.607241357322229 13.62738302126024
Rb 8.73224498023014 9.071431699573639 9.442038081508823
Rb 5.724652834200604 3.9487369987601992 0.5579889528871168
