47
Energy = -35.18108131 eV
Rb 22.43481422073466 17.888124635394938 12.944224642701196
Rb 18.878455250374383 14.57247832676824 12.74234382222282
Rb 17.33560037169275 19.832620547769984 12.751640837287411
Rb 20.456151191730726 10.127097611876183 14.82560973771314
Rb 12.20494043793797 20.229934038500957 13.77021509538663
Rb 23.439513923564114 12.85151054422015 12.080190730584816
Rb 17.81313503130483 23.85139910012777 18.18320162814161
Rb 21.343519322107177 22.490833228813756 15.242542754237753
Rb 15.635744954249551 11.112973480566344 14.142718980478383
Rb 24.362935419823835 18.529428008780812 17.222997591859375
Rb 15.261373382938263 23.981438001807547 14.244492884303124
Rb 19.286505305356727 18.26503706484368 16.537416074286995
Rb 14.28171377024701 27.226856847646744 17.866401547128817
Rb 26.60108987309025 15.089718303574328 14.930888955124686
Rb 18.01320112302802 13.443215709117819 17.29606089603864
Rb 25.034608209406446 10.629812341111768 16.37512233154194
Rb 14.691197392927853 16.002891808292297 14.827668638667046
Rb 15.115974723101505 20.211440487456045 17.18629380030864
Rb 11.325363281379017 17.515526830034144 18.092880720075367
Rb 17.31101255576205 9.056542705850843 18.366651611509194
Rb 18.89005568640267 27.400222747502074 15.723873557749053
Rb 11.811614664582102 23.09124640344986 18.000447251743882
Rb 22.30527318375575 14.413175574589596 16.22525971523979
Rb 15.653805116147664 16.449137682241595 19.693290087745822
Rb 21.502537406116897 11.15491464508243 19.754683424253145
Rb 22.203013633419133 25.980288603592523 19.089394218678922
Rb 13.485863076537402 12.518662017155988 18.379815032536467
Rb 20.653914553474085 16.401299347897215 20.44597376610854
Rb 25.854584459979854 22.682917543214888 18.74304680908409
Rb 21.690259429211654 21.22844289613266 19.75248544700059
Rb 25.182271618293534 14.354596835235569 19.861073344480026
Rb 18.006887512154382 0.8679884868493705 20.54284937129937
Rb 17.493669192074904 20.30384395075281 21.20484540580833
Rb 14.607152859276201 24.55980082509182 21.73688339393405
Rb 12.633951356305262 14.878569861495514 22.64348689975852
Rb 17.403799281800726 12.628565131412657 21.993582021757156
Rb 13.052008685513036 19.821285057305005 22.048380233828674
Rb 19.420753299760765 24.225826380721298 22.58725254393203
Rb 25.052800863937556 18.679335163586895 22.018873134345263
Rb 16.97928621179785 16.82874466483118 24.334088033290154
Rb 21.98367804701484 14.487608590822221 24.064272271887564
Rb 24.065677341986234 23.508513377170484 23.237051698910104
Rb 21.73546564726712 0.4576542689414401 23.774981776490982
Rb 20.97942341410489 19.72584183569504 24.458514316879494
Rb 17.043019742084443 26.966511603777214 25.320889608769544
Rb 16.431764505252694 21.985359627021538 25.49457689031627
Rb 20.720287951191203 24.225208451692065 26.910234944774192
