42
Energy = -31.67153555 eV
Rb 17.848122917958168 17.640934012409204 8.829790791227211
Rb 13.413131251504737 18.70912786628203 9.94609766861675
Rb 14.934847392571019 13.987076145111144 10.411415072659194
Rb 16.986944752755875 21.697712634441412 11.58392357555067
Rb 19.752451484963345 14.176900697038274 12.04036165416284
Rb 25.393497986356344 20.89053585068716 13.87057119389554
Rb 16.48351884008433 17.176377435917935 13.622960542318976
Rb 12.036730651836644 15.881685005427444 14.121150163413388
Rb 13.208745623920384 20.821485983153895 14.69970265857047
Rb 15.685157745944336 12.60727582523382 15.045316283298128
Rb 21.020877092064662 23.6505667700177 14.2047429766285
Rb 0.3617032245337226 19.737817111533253 18.35041978921209
Rb 24.20066310665682 15.862334082357933 15.621228438477054
Rb 17.947133945383154 20.52566640410058 16.183341241311627
Rb 21.11618638626592 18.784165444229078 12.588850985986005
Rb 15.889473093206856 24.734168006348003 16.09373859989313
Rb 20.397188512410306 11.157925890439525 15.762669931789315
Rb 15.533556749956999 16.64582289794874 18.584620164979114
Rb 22.284058012142776 19.961104756811103 17.252851479169628
Rb 10.870797351100254 18.64238879632969 18.03029862415386
Rb 24.667411564768575 24.188244177087306 17.529403608772874
Rb 19.768120353750508 15.65783472165264 17.03696871870491
Rb 17.03311012179778 11.549189767136811 19.438178334629484
Rb 19.843439656200044 24.260817518687514 19.084484759169158
Rb 11.4121108473283 23.559121445404987 18.831505486765867
Rb 22.214905720903385 12.170552347062484 20.095943829769002
Rb 12.257849719958678 13.620585939579144 18.878677356670394
Rb 15.177013348881086 21.115086608709984 19.79481571671553
Rb 15.362201098528681 25.82555641977576 20.880288780893878
Rb 23.68624105816965 16.750670044002856 20.76701734918787
Rb 19.357458111143792 19.447902961064152 20.643681510278395
Rb 23.42221144820901 21.791261298738448 21.68853024523871
Rb 12.19438903383935 17.665088965904946 22.35277465472186
Rb 19.061291808564167 15.190175915274141 21.922471569652803
Rb 14.91456678332486 13.715939527666743 23.42628470267733
Rb 19.040355971963535 10.811240367144261 23.853611647443852
Rb 18.294687507982836 22.931803036074946 23.594487594337426
Rb 12.916170225711342 22.462866972953368 23.56593601229601
Rb 16.259421570802537 18.496465292071996 24.426085507953395
Rb 22.81204365299772 13.777878208625124 24.81614644021895
Rb 21.217187403715247 18.47057042170408 25.004644988038677
Rb 18.720944978724916 14.706927133541921 0.5219274594312526
