 running on   32 total cores
 distrk:  each k-point on   32 cores,    1 groups
 distr:  one band on    8 cores,    4 groups
 using from now: INCAR     
 vasp.5.3.5 31Mar14 (build Feb 01 2018 12:10:03) gamma-only                     
  
 POSCAR found type information on POSCAR  Ag
 POSCAR found :  1 types and      10 ions
 scaLAPACK will be used
 LDA part: xc-table for Pade appr. of Perdew
 POSCAR, INCAR and KPOINTS ok, starting setup
 WARNING: small aliasing (wrap around) errors must be expected
 FFT: planning ...
 WAVECAR not read
 entering main loop
       N       E                     dE             d eps       ncg     rms          rms(c)
DAV:   1     0.969759569409E+03    0.96976E+03   -0.17122E+04   288   0.545E+02
DAV:   2     0.347949230555E+03   -0.62181E+03   -0.54917E+03   536   0.105E+02
DAV:   3     0.181952421297E+02   -0.32975E+03   -0.30117E+03   408   0.906E+01
DAV:   4    -0.150265943876E+02   -0.33222E+02   -0.29837E+02   328   0.323E+01
DAV:   5    -0.156939718847E+02   -0.66738E+00   -0.66632E+00   320   0.532E+00    0.177E+01
DAV:   6    -0.367485936037E+01    0.12019E+02   -0.35034E+01   296   0.144E+01    0.902E+00
DAV:   7     0.137169342419E+01    0.50466E+01   -0.24929E+00   312   0.390E+00    0.523E+00
DAV:   8    -0.247101961170E+01   -0.38427E+01   -0.16944E+00   320   0.307E+00    0.248E+00
DAV:   9    -0.646167293718E+01   -0.39907E+01   -0.14910E+00   328   0.254E+00    0.129E+00
DAV:  10    -0.104276620152E+02   -0.39660E+01   -0.16158E+00   288   0.275E+00    0.841E-01
DAV:  11    -0.125047270946E+02   -0.20771E+01   -0.61536E-01   312   0.142E+00    0.586E-01
DAV:  12    -0.144344944173E+02   -0.19298E+01   -0.50004E-01   296   0.129E+00    0.300E-01
DAV:  13    -0.151299996713E+02   -0.69551E+00   -0.90962E-02   320   0.580E-01    0.172E-01
DAV:  14    -0.153906406302E+02   -0.26064E+00   -0.12500E-02   296   0.217E-01    0.989E-02
DAV:  15    -0.155633790164E+02   -0.17274E+00   -0.71968E-03   304   0.152E-01    0.475E-02
DAV:  16    -0.156049055342E+02   -0.41527E-01   -0.14675E-03   264   0.672E-02    0.258E-02
DAV:  17    -0.156185338054E+02   -0.13628E-01   -0.84164E-04   256   0.452E-02    0.138E-02
DAV:  18    -0.156209825717E+02   -0.24488E-02   -0.32539E-04   216   0.281E-02    0.892E-03
DAV:  19    -0.156223134638E+02   -0.13309E-02   -0.25119E-04   240   0.228E-02    0.680E-03
DAV:  20    -0.156236512065E+02   -0.13377E-02   -0.71053E-05   232   0.126E-02    0.357E-03
DAV:  21    -0.156243788722E+02   -0.72767E-03   -0.47862E-05   224   0.983E-03    0.233E-03
DAV:  22    -0.156245780107E+02   -0.19914E-03   -0.16521E-05   232   0.627E-03    0.141E-03
DAV:  23    -0.156246120097E+02   -0.33999E-04   -0.66122E-06   192   0.451E-03
   1 F= -.15624612E+02 E0= -.15624612E+02  d E =-.156246E+02  mag=     1.9999
 curvature:   0.00 expect dE= 0.000E+00 dE for cont linesearch  0.000E+00
 trial: gam= 0.00000 g(F)=  0.694E-01 g(S)=  0.000E+00 ort = 0.000E+00 (trialstep = 0.100E+01)
 search vector abs. value=  0.694E-01
 bond charge predicted
       N       E                     dE             d eps       ncg     rms          rms(c)
DAV:   1    -0.156883714722E+02   -0.63793E-01   -0.46835E+00   312   0.684E+00    0.257E-01
DAV:   2    -0.156906672915E+02   -0.22958E-02   -0.23061E-02   320   0.672E-01    0.174E-01
DAV:   3    -0.156905991308E+02    0.68161E-04   -0.53483E-04   320   0.104E-01
   2 F= -.15690599E+02 E0= -.15690599E+02  d E =-.659871E-01  mag=     2.0000
 ZBRENT: can't locate minimum, use default step
 trial-energy change:   -0.065987  1 .order   -0.065797   -0.069376   -0.062218
 step:   4.0000(harm=  9.6924)  dis= 0.03954  next Energy=   -15.960820 (dE=-0.336E+00)
 bond charge predicted
       N       E                     dE             d eps       ncg     rms          rms(c)
DAV:   1    -0.158296637767E+02   -0.13900E+00   -0.42297E+01   288   0.206E+01    0.688E-01
DAV:   2    -0.158496737190E+02   -0.20010E-01   -0.20539E-01   312   0.202E+00    0.503E-01
DAV:   3    -0.158492549641E+02    0.41875E-03   -0.41742E-03   312   0.291E-01    0.272E-01
DAV:   4    -0.158491309051E+02    0.12406E-03   -0.11537E-03   296   0.137E-01    0.415E-02
DAV:   5    -0.158492033869E+02   -0.72482E-04   -0.82195E-05   208   0.369E-02
   3 F= -.15849203E+02 E0= -.15849203E+02  d E =-.224591E+00  mag=     2.0000
 curvature:  -2.77 expect dE=-0.796E-01 dE for cont linesearch -0.769E-01
 ZBRENT: increasing intervall
 opt :  10.0000  next Energy=   -16.002630 (dE=-0.378E+00)
 bond charge predicted
       N       E                     dE             d eps       ncg     rms          rms(c)
DAV:   1    -0.159386492840E+02   -0.89518E-01   -0.17056E+02   288   0.417E+01    0.110E+00
DAV:   2    -0.160192064018E+02   -0.80557E-01   -0.81540E-01   304   0.408E+00    0.920E-01
DAV:   3    -0.160188231318E+02    0.38327E-03   -0.14124E-02   320   0.526E-01    0.612E-01
DAV:   4    -0.160176164797E+02    0.12067E-02   -0.64024E-03   296   0.280E-01    0.134E-01
DAV:   5    -0.160177962192E+02   -0.17974E-03   -0.24043E-04   216   0.756E-02    0.435E-02
DAV:   6    -0.160179133304E+02   -0.11711E-03   -0.95316E-05   224   0.305E-02    0.254E-02
DAV:   7    -0.160180605917E+02   -0.14726E-03   -0.71064E-05   208   0.269E-02    0.846E-03
DAV:   8    -0.160181789263E+02   -0.11833E-03   -0.11670E-05   224   0.126E-02    0.402E-03
DAV:   9    -0.160182449601E+02   -0.66034E-04   -0.35771E-06   216   0.629E-03
   4 F= -.16018245E+02 E0= -.16018245E+02  d E =-.393633E+00  mag=     2.0000
 curvature:  -5.52 expect dE=-0.356E-01 dE for cont linesearch -0.155E-01
 ZBRENT: extrapolating
 opt :  12.7919  next Energy=   -16.037703 (dE=-0.413E+00)
 bond charge predicted
       N       E                     dE             d eps       ncg     rms          rms(c)
DAV:   1    -0.160242863424E+02   -0.61074E-02   -0.36611E+01   296   0.192E+01    0.468E-01
DAV:   2    -0.160414541295E+02   -0.17168E-01   -0.17725E-01   312   0.187E+00    0.348E-01
DAV:   3    -0.160412869799E+02    0.16715E-03   -0.30792E-03   320   0.239E-01    0.222E-01
DAV:   4    -0.160410574458E+02    0.22953E-03   -0.11928E-03   296   0.123E-01    0.490E-02
DAV:   5    -0.160410999316E+02   -0.42486E-04   -0.44621E-05   200   0.304E-02
   5 F= -.16041100E+02 E0= -.16041100E+02  d E =-.416488E+00  mag=     2.0000
 curvature:  -6.95 expect dE=-0.335E-01 dE for cont linesearch -0.795E-03
 trial: gam= 0.02896 g(F)=  0.483E-02 g(S)=  0.000E+00 ort = 0.282E-02 (trialstep = 0.336E+01)
 search vector abs. value=  0.505E-02
 bond charge predicted
       N       E                     dE             d eps       ncg     rms          rms(c)
DAV:   1    -0.160538656344E+02   -0.12808E-01   -0.38342E+00   296   0.618E+00    0.135E-01
DAV:   2    -0.160557232576E+02   -0.18576E-02   -0.19318E-02   312   0.615E-01    0.973E-02
DAV:   3    -0.160556874111E+02    0.35846E-04   -0.35528E-04   280   0.818E-02
   6 F= -.16055687E+02 E0= -.16055687E+02  d E =-.145875E-01  mag=     2.0000
 trial-energy change:   -0.014587  1 .order   -0.014412   -0.016481   -0.012343
 step:  13.3763(harm= 13.3763)  dis= 0.04894  next Energy=   -16.073922 (dE=-0.328E-01)
 bond charge predicted
       N       E                     dE             d eps       ncg     rms          rms(c)
DAV:   1    -0.160619799904E+02   -0.62567E-02   -0.34248E+01   296   0.185E+01    0.384E-01
DAV:   2    -0.160781477541E+02   -0.16168E-01   -0.17178E-01   312   0.183E+00    0.286E-01
DAV:   3    -0.160778566307E+02    0.29112E-03   -0.31345E-03   312   0.240E-01    0.178E-01
DAV:   4    -0.160776164055E+02    0.24023E-03   -0.82982E-04   288   0.136E-01    0.576E-02
DAV:   5    -0.160778909824E+02   -0.27458E-03   -0.88549E-05   200   0.447E-02    0.172E-02
DAV:   6    -0.160781483517E+02   -0.25737E-03   -0.13918E-05   200   0.144E-02    0.106E-02
DAV:   7    -0.160784665667E+02   -0.31822E-03   -0.20273E-05   192   0.131E-02    0.460E-03
DAV:   8    -0.160786877343E+02   -0.22117E-03   -0.57803E-06   192   0.699E-03    0.203E-03
DAV:   9    -0.160788133516E+02   -0.12562E-03   -0.23803E-06   216   0.312E-03    0.125E-03
DAV:  10    -0.160789241927E+02   -0.11084E-03   -0.21547E-06   192   0.249E-03    0.808E-04
DAV:  11    -0.160789977958E+02   -0.73603E-04   -0.36113E-06   192   0.304E-03
   7 F= -.16078998E+02 E0= -.16078998E+02  d E =-.378979E-01  mag=     2.0000
 curvature:  -6.88 expect dE=-0.146E-01 dE for cont linesearch -0.102E-02
 ZBRENT: extrapolating
 opt :  16.4694  next Energy=   -16.080339 (dE=-0.392E-01)
 bond charge predicted
       N       E                     dE             d eps       ncg     rms          rms(c)
DAV:   1    -0.160788135493E+02    0.11064E-03   -0.32537E+00   304   0.568E+00    0.111E-01
DAV:   2    -0.160804116257E+02   -0.15981E-02   -0.16372E-02   304   0.565E-01    0.799E-02
DAV:   3    -0.160803530386E+02    0.58587E-04   -0.28462E-04   256   0.732E-02
   8 F= -.16080353E+02 E0= -.16080353E+02  d E =-.392531E-01  mag=     2.0000
 curvature:  -9.00 expect dE=-0.261E-01 dE for cont linesearch -0.287E-04
 trial: gam= 0.63940 g(F)=  0.290E-02 g(S)=  0.000E+00 ort =-0.127E-03 (trialstep = 0.598E+01)
 search vector abs. value=  0.480E-02
 bond charge predicted
       N       E                     dE             d eps       ncg     rms          rms(c)
DAV:   1    -0.160893762437E+02   -0.89646E-02   -0.11547E+01   288   0.108E+01    0.168E-01
DAV:   2    -0.160948869180E+02   -0.55107E-02   -0.56774E-02   312   0.105E+00    0.132E-01
DAV:   3    -0.160947630655E+02    0.12385E-03   -0.88552E-04   312   0.124E-01    0.909E-02
DAV:   4    -0.160945775298E+02    0.18554E-03   -0.29106E-04   192   0.666E-02    0.361E-02
DAV:   5    -0.160946380236E+02   -0.60494E-04   -0.78331E-05   200   0.399E-02
   9 F= -.16094638E+02 E0= -.16094638E+02  d E =-.142850E-01  mag=     2.0000
 trial-energy change:   -0.014285  1 .order   -0.014482   -0.016833   -0.012131
 step:  21.4109(harm= 21.4109)  dis= 0.05057  next Energy=   -16.110485 (dE=-0.301E-01)
 bond charge predicted
       N       E                     dE             d eps       ncg     rms          rms(c)
DAV:   1    -0.160701791086E+02    0.24398E-01   -0.77079E+01   288   0.279E+01    0.415E-01
DAV:   2    -0.161076135497E+02   -0.37434E-01   -0.38078E-01   304   0.274E+00    0.333E-01
DAV:   3    -0.161073336648E+02    0.27988E-03   -0.59139E-03   320   0.324E-01    0.233E-01
DAV:   4    -0.161065224804E+02    0.81118E-03   -0.17034E-03   288   0.153E-01    0.106E-01
DAV:   5    -0.161066824180E+02   -0.15994E-03   -0.44101E-04   288   0.791E-02    0.353E-02
DAV:   6    -0.161069157157E+02   -0.23330E-03   -0.29268E-05   208   0.189E-02    0.238E-02
DAV:   7    -0.161072950835E+02   -0.37937E-03   -0.52909E-05   208   0.224E-02    0.723E-03
DAV:   8    -0.161075779867E+02   -0.28290E-03   -0.10670E-05   192   0.104E-02    0.306E-03
DAV:   9    -0.161077943232E+02   -0.21634E-03   -0.73233E-06   208   0.609E-03    0.217E-03
DAV:  10    -0.161079395696E+02   -0.14525E-03   -0.30063E-06   200   0.331E-03    0.139E-03
DAV:  11    -0.161080901463E+02   -0.15058E-03   -0.75816E-06   200   0.401E-03    0.873E-04
DAV:  12    -0.161081061030E+02   -0.15957E-04   -0.16784E-06   200   0.195E-03
  10 F= -.16108106E+02 E0= -.16108106E+02  d E =-.277531E-01  mag=     2.0000
 curvature: -18.25 expect dE=-0.218E-01 dE for cont linesearch -0.329E-03
 trial: gam= 0.40794 g(F)=  0.119E-02 g(S)=  0.000E+00 ort =-0.294E-03 (trialstep = 0.907E+01)
 search vector abs. value=  0.175E-02
 bond charge predicted
       N       E                     dE             d eps       ncg     rms          rms(c)
DAV:   1    -0.161104535514E+02   -0.23634E-02   -0.96894E+00   288   0.987E+00    0.144E-01
DAV:   2    -0.161152095582E+02   -0.47560E-02   -0.47870E-02   296   0.966E-01    0.113E-01
DAV:   3    -0.161151631884E+02    0.46370E-04   -0.77121E-04   312   0.118E-01
  11 F= -.16115163E+02 E0= -.16115163E+02  d E =-.705709E-02  mag=     2.0000
 trial-energy change:   -0.007057  1 .order   -0.006875   -0.009739   -0.004011
 step:  15.4155(harm= 15.4155)  dis= 0.01836  next Energy=   -16.116386 (dE=-0.828E-02)
 bond charge predicted
       N       E                     dE             d eps       ncg     rms          rms(c)
DAV:   1    -0.161142786157E+02    0.93094E-03   -0.47639E+00   304   0.692E+00    0.122E-01
DAV:   2    -0.161165184331E+02   -0.22398E-02   -0.23216E-02   304   0.672E-01    0.944E-02
DAV:   3    -0.161164530769E+02    0.65356E-04   -0.37422E-04   280   0.808E-02
  12 F= -.16116453E+02 E0= -.16116453E+02  d E =-.834697E-02  mag=     2.0000
 curvature: -12.58 expect dE=-0.911E-02 dE for cont linesearch -0.166E-04
 trial: gam= 0.50447 g(F)=  0.724E-03 g(S)=  0.000E+00 ort =-0.481E-04 (trialstep = 0.103E+02)
 search vector abs. value=  0.112E-02
 bond charge predicted
       N       E                     dE             d eps       ncg     rms          rms(c)
DAV:   1    -0.161184305291E+02   -0.19121E-02   -0.80573E+00   288   0.897E+00    0.121E-01
DAV:   2    -0.161223487325E+02   -0.39182E-02   -0.39400E-02   288   0.880E-01    0.943E-02
DAV:   3    -0.161223095943E+02    0.39138E-04   -0.62684E-04   312   0.107E-01
  13 F= -.16122310E+02 E0= -.16122310E+02  d E =-.585652E-02  mag=     2.0000
 trial-energy change:   -0.005857  1 .order   -0.005781   -0.007233   -0.004328
 step:  25.7343(harm= 25.7343)  dis= 0.02879  next Energy=   -16.125457 (dE=-0.900E-02)
 bond charge predicted
       N       E                     dE             d eps       ncg     rms          rms(c)
DAV:   1    -0.161167275758E+02    0.56212E-02   -0.17894E+01   288   0.134E+01    0.202E-01
DAV:   2    -0.161255869498E+02   -0.88594E-02   -0.87406E-02   288   0.131E+00    0.154E-01
DAV:   3    -0.161254834925E+02    0.10346E-03   -0.14094E-03   336   0.159E-01    0.107E-01
DAV:   4    -0.161253370364E+02    0.14646E-03   -0.64569E-04   288   0.905E-02    0.368E-02
DAV:   5    -0.161254050093E+02   -0.67973E-04   -0.73826E-05   192   0.341E-02
  14 F= -.16125405E+02 E0= -.16125405E+02  d E =-.895193E-02  mag=     2.0000
 curvature: -20.62 expect dE=-0.147E-01 dE for cont linesearch -0.271E-05
 trial: gam= 1.05431 g(F)=  0.713E-03 g(S)=  0.000E+00 ort = 0.122E-04 (trialstep = 0.758E+01)
 search vector abs. value=  0.199E-02
 bond charge predicted
       N       E                     dE             d eps       ncg     rms          rms(c)
DAV:   1    -0.161265345492E+02   -0.11975E-02   -0.76366E+00   288   0.873E+00    0.905E-02
DAV:   2    -0.161304166922E+02   -0.38821E-02   -0.37260E-02   304   0.848E-01    0.759E-02
DAV:   3    -0.161304135978E+02    0.30944E-05   -0.54604E-04   320   0.971E-02
  15 F= -.16130414E+02 E0= -.16130414E+02  d E =-.500859E-02  mag=     2.0000
 ZBRENT: can't locate minimum, use default step
 trial-energy change:   -0.005009  1 .order   -0.005023   -0.005503   -0.004544
 step:  30.3102(harm= 43.5025)  dis= 0.04169  next Energy=   -16.141200 (dE=-0.158E-01)
 bond charge predicted
       N       E                     dE             d eps       ncg     rms          rms(c)
DAV:   1    -0.161060015854E+02    0.24415E-01   -0.69148E+01   288   0.263E+01    0.300E-01
DAV:   2    -0.161408194769E+02   -0.34818E-01   -0.33695E-01   312   0.256E+00    0.250E-01
DAV:   3    -0.161404893768E+02    0.33010E-03   -0.50133E-03   328   0.292E-01    0.194E-01
DAV:   4    -0.161395886097E+02    0.90077E-03   -0.17081E-03   288   0.134E-01    0.910E-02
DAV:   5    -0.161396028408E+02   -0.14231E-04   -0.98940E-04   304   0.103E-01
  16 F= -.16139603E+02 E0= -.16139603E+02  d E =-.141978E-01  mag=     2.0000
 curvature: -51.46 expect dE=-0.388E-01 dE for cont linesearch -0.296E-02
 ZBRENT: increasing intervall
 opt :  75.7755  next Energy=   -16.143068 (dE=-0.177E-01)
 bond charge predicted
       N       E                     dE             d eps       ncg     rms          rms(c)
DAV:   1    -0.159974969633E+02    0.14209E+00   -0.28090E+02   288   0.537E+01    0.759E-01
DAV:   2    -0.161493326460E+02   -0.15184E+00   -0.14222E+00   312   0.535E+00    0.519E-01
DAV:   3    -0.161491038916E+02    0.22875E-03   -0.22357E-02   312   0.633E-01    0.363E-01
DAV:   4    -0.161467378673E+02    0.23660E-02   -0.36767E-03   296   0.207E-01    0.217E-01
DAV:   5    -0.161464513328E+02    0.28653E-03   -0.39928E-03   296   0.202E-01    0.567E-02
DAV:   6    -0.161466865017E+02   -0.23517E-03   -0.54228E-05   216   0.298E-02    0.377E-02
DAV:   7    -0.161469933179E+02   -0.30682E-03   -0.34606E-05   192   0.186E-02    0.130E-02
DAV:   8    -0.161471813389E+02   -0.18802E-03   -0.13130E-05   208   0.109E-02    0.444E-03
DAV:   9    -0.161473258678E+02   -0.14453E-03   -0.69504E-06   192   0.636E-03    0.249E-03
DAV:  10    -0.161474353539E+02   -0.10949E-03   -0.54094E-06   200   0.395E-03    0.177E-03
DAV:  11    -0.161475044220E+02   -0.69068E-04   -0.31876E-06   192   0.292E-03
  17 F= -.16147504E+02 E0= -.16147504E+02  d E =-.220994E-01  mag=     2.0000
 curvature: -60.25 expect dE=-0.254E+00 dE for cont linesearch -0.828E-03
 trial: gam= 0.00000 g(F)=  0.422E-02 g(S)=  0.000E+00 ort = 0.165E-03 (trialstep = 0.998E+01)
 search vector abs. value=  0.422E-02
 bond charge predicted
       N       E                     dE             d eps       ncg     rms          rms(c)
DAV:   1    -0.161591349942E+02   -0.11700E-01   -0.28408E+01   288   0.167E+01    0.314E-01
DAV:   2    -0.161725820745E+02   -0.13447E-01   -0.13797E-01   304   0.162E+00    0.228E-01
DAV:   3    -0.161725477805E+02    0.34294E-04   -0.23958E-03   320   0.207E-01    0.145E-01
DAV:   4    -0.161723194493E+02    0.22833E-03   -0.70664E-04   304   0.108E-01    0.482E-02
DAV:   5    -0.161723000865E+02    0.19363E-04   -0.50548E-05   200   0.352E-02
  18 F= -.16172300E+02 E0= -.16172300E+02  d E =-.247957E-01  mag=     2.0000
 trial-energy change:   -0.024796  1 .order   -0.025054   -0.042130   -0.007979
 step:  12.3058(harm= 12.3058)  dis= 0.04470  next Energy=   -16.173491 (dE=-0.260E-01)
 bond charge predicted
       N       E                     dE             d eps       ncg     rms          rms(c)
DAV:   1    -0.161724619818E+02   -0.14253E-03   -0.15437E+00   288   0.390E+00    0.733E-02
DAV:   2    -0.161731944351E+02   -0.73245E-03   -0.76097E-03   312   0.377E-01    0.488E-02
DAV:   3    -0.161732063957E+02   -0.11961E-04   -0.11651E-04   184   0.485E-02
  19 F= -.16173206E+02 E0= -.16173206E+02  d E =-.257020E-01  mag=     2.0000
 curvature:  -6.15 expect dE=-0.119E-01 dE for cont linesearch -0.937E-04
 trial: gam= 0.51611 g(F)=  0.193E-02 g(S)=  0.000E+00 ort =-0.254E-03 (trialstep = 0.104E+02)
 search vector abs. value=  0.279E-02
 bond charge predicted
       N       E                     dE             d eps       ncg     rms          rms(c)
DAV:   1    -0.161792693056E+02   -0.60749E-02   -0.20460E+01   288   0.142E+01    0.181E-01
DAV:   2    -0.161895903749E+02   -0.10321E-01   -0.10044E-01   304   0.141E+00    0.171E-01
DAV:   3    -0.161895949364E+02   -0.45614E-05   -0.16887E-03   320   0.179E-01    0.120E-01
DAV:   4    -0.161893817782E+02    0.21316E-03   -0.40450E-04   288   0.752E-02    0.720E-02
DAV:   5    -0.161893828780E+02   -0.10998E-05   -0.32185E-04   288   0.600E-02
  20 F= -.16189383E+02 E0= -.16189383E+02  d E =-.161765E-01  mag=     2.0000
 trial-energy change:   -0.016176  1 .order   -0.015883   -0.018745   -0.013021
 step:  34.1973(harm= 34.1973)  dis= 0.07553  next Energy=   -16.203903 (dE=-0.307E-01)
 bond charge predicted
       N       E                     dE             d eps       ncg     rms          rms(c)
DAV:   1    -0.161458280561E+02    0.43554E-01   -0.10678E+02   288   0.326E+01    0.441E-01
DAV:   2    -0.162000596857E+02   -0.54232E-01   -0.53421E-01   304   0.327E+00    0.385E-01
DAV:   3    -0.162000479678E+02    0.11718E-04   -0.90297E-03   320   0.416E-01    0.260E-01
DAV:   4    -0.161990198993E+02    0.10281E-02   -0.18001E-03   296   0.160E-01    0.158E-01
DAV:   5    -0.161989415176E+02    0.78382E-04   -0.14184E-03   304   0.125E-01    0.507E-02
DAV:   6    -0.161990035425E+02   -0.62025E-04   -0.33430E-05   192   0.219E-02
  21 F= -.16199004E+02 E0= -.16199004E+02  d E =-.257971E-01  mag=     2.0000
 curvature: -26.57 expect dE=-0.762E-01 dE for cont linesearch -0.105E-02
 trial: gam= 1.48918 g(F)=  0.287E-02 g(S)=  0.000E+00 ort =-0.332E-03 (trialstep = 0.525E+01)
 search vector abs. value=  0.807E-02
 bond charge predicted
       N       E                     dE             d eps       ncg     rms          rms(c)
DAV:   1    -0.162029873959E+02   -0.40459E-02   -0.14914E+01   288   0.121E+01    0.126E-01
DAV:   2    -0.162104516286E+02   -0.74642E-02   -0.73128E-02   296   0.119E+00    0.122E-01
DAV:   3    -0.162104206392E+02    0.30989E-04   -0.11516E-03   328   0.145E-01    0.904E-02
DAV:   4    -0.162102667326E+02    0.15391E-03   -0.20671E-04   232   0.522E-02    0.595E-02
DAV:   5    -0.162102879417E+02   -0.21209E-04   -0.40850E-04   304   0.689E-02
  22 F= -.16210288E+02 E0= -.16210288E+02  d E =-.112844E-01  mag=     2.0000
 ZBRENT: can't locate minimum, use default step
 trial-energy change:   -0.011284  1 .order   -0.011538   -0.012475   -0.010600
 step:  21.0143(harm= 34.9496)  dis= 0.05293  next Energy=   -16.240500 (dE=-0.415E-01)
 bond charge predicted
       N       E                     dE             d eps       ncg     rms          rms(c)
DAV:   1    -0.161635378144E+02    0.46729E-01   -0.13568E+02   288   0.369E+01    0.440E-01
DAV:   2    -0.162328267342E+02   -0.69289E-01   -0.67841E-01   296   0.366E+00    0.377E-01
DAV:   3    -0.162325235113E+02    0.30322E-03   -0.10900E-02   320   0.453E-01    0.264E-01
DAV:   4    -0.162310914126E+02    0.14321E-02   -0.18577E-03   288   0.152E-01    0.169E-01
DAV:   5    -0.162307735574E+02    0.31786E-03   -0.24098E-03   288   0.161E-01    0.539E-02
DAV:   6    -0.162308745479E+02   -0.10099E-03   -0.31822E-05   200   0.230E-02    0.377E-02
DAV:   7    -0.162310347412E+02   -0.16019E-03   -0.25852E-05   200   0.162E-02    0.137E-02
DAV:   8    -0.162311571770E+02   -0.12244E-03   -0.12097E-05   192   0.113E-02    0.360E-03
DAV:   9    -0.162312620492E+02   -0.10487E-03   -0.48267E-06   192   0.571E-03    0.216E-03
DAV:  10    -0.162313293030E+02   -0.67254E-04   -0.26547E-06   192   0.311E-03
  23 F= -.16231329E+02 E0= -.16231329E+02  d E =-.323258E-01  mag=     2.0000
 curvature: -46.29 expect dE=-0.140E+00 dE for cont linesearch -0.408E-02
 ZBRENT: increasing intervall
 opt :  52.5358  next Energy=   -16.220911 (dE=-0.219E-01)
 bond charge predicted
       N       E                     dE             d eps       ncg     rms          rms(c)
DAV:   1    -0.159352823213E+02    0.29598E+00   -0.56163E+02   288   0.767E+01    0.128E+00
DAV:   2    -0.162387598395E+02   -0.30348E+00   -0.29394E+00   296   0.785E+00    0.879E-01
DAV:   3    -0.162381867319E+02    0.57311E-03   -0.49250E-02   320   0.993E-01    0.554E-01
DAV:   4    -0.162336543222E+02    0.45324E-02   -0.59476E-03   296   0.275E-01    0.385E-01
DAV:   5    -0.162321142603E+02    0.15401E-02   -0.72599E-03   304   0.280E-01    0.114E-01
DAV:   6    -0.162323273344E+02   -0.21307E-03   -0.13049E-04   208   0.483E-02    0.722E-02
DAV:   7    -0.162326409869E+02   -0.31365E-03   -0.50886E-05   200   0.266E-02    0.283E-02
DAV:   8    -0.162328926453E+02   -0.25166E-03   -0.23556E-05   200   0.164E-02    0.819E-03
DAV:   9    -0.162330980542E+02   -0.20541E-03   -0.11582E-05   200   0.908E-03    0.358E-03
DAV:  10    -0.162332302240E+02   -0.13217E-03   -0.58599E-06   200   0.497E-03    0.242E-03
DAV:  11    -0.162333189793E+02   -0.88755E-04   -0.44696E-06   192   0.386E-03
  24 F= -.16233319E+02 E0= -.16233319E+02  d E =-.343154E-01  mag=     2.0000
 curvature: 118.08 expect dE= 0.943E+00 dE for cont linesearch  0.144E-01
 ZBRENT: bracketing found
 ZBRENT: interpolating
 opt :  35.4985  next Energy=   -16.237439 (dE=-0.384E-01)
 bond charge predicted
       N       E                     dE             d eps       ncg     rms          rms(c)
DAV:   1    -0.161600214872E+02    0.73209E-01   -0.15892E+02   288   0.399E+01    0.479E-01
DAV:   2    -0.162416032261E+02   -0.81582E-01   -0.78865E-01   304   0.393E+00    0.396E-01
DAV:   3    -0.162414632584E+02    0.13997E-03   -0.12509E-02   328   0.477E-01    0.284E-01
DAV:   4    -0.162399299276E+02    0.15333E-02   -0.19792E-03   304   0.160E-01    0.183E-01
DAV:   5    -0.162394984309E+02    0.43150E-03   -0.28556E-03   296   0.177E-01    0.535E-02
DAV:   6    -0.162395970518E+02   -0.98621E-04   -0.39753E-05   224   0.253E-02
  25 F= -.16239597E+02 E0= -.16239597E+02  d E =-.405935E-01  mag=     2.0000
 curvature: -50.05 expect dE=-0.225E+00 dE for cont linesearch -0.286E-04
 trial: gam= 0.98226 g(F)=  0.450E-02 g(S)=  0.000E+00 ort = 0.679E-04 (trialstep = 0.734E+01)
 search vector abs. value=  0.124E-01
 bond charge predicted
       N       E                     dE             d eps       ncg     rms          rms(c)
DAV:   1    -0.162487878875E+02   -0.92895E-02   -0.44948E+01   288   0.210E+01    0.226E-01
DAV:   2    -0.162713794410E+02   -0.22592E-01   -0.21718E-01   312   0.205E+00    0.213E-01
DAV:   3    -0.162714340687E+02   -0.54628E-04   -0.35326E-03   344   0.255E-01    0.156E-01
DAV:   4    -0.162710078342E+02    0.42623E-03   -0.53908E-04   304   0.808E-02    0.103E-01
DAV:   5    -0.162708557636E+02    0.15207E-03   -0.10149E-03   304   0.102E-01    0.318E-02
DAV:   6    -0.162708698647E+02   -0.14101E-04   -0.10790E-05   208   0.131E-02
  26 F= -.16270870E+02 E0= -.16270870E+02  d E =-.312728E-01  mag=     2.0000
 ZBRENT: can't locate minimum, use default step
 trial-energy change:   -0.031273  1 .order   -0.030985   -0.033554   -0.028415
 step:  29.3611(harm= 47.9240)  dis= 0.10362  next Energy=   -16.349133 (dE=-0.110E+00)
 bond charge predicted
       N       E                     dE             d eps       ncg     rms          rms(c)
DAV:   1    -0.161100197749E+02    0.16084E+00   -0.41875E+02   288   0.655E+01    0.102E+00
DAV:   2    -0.163317273677E+02   -0.22171E+00   -0.21036E+00   288   0.652E+00    0.696E-01
DAV:   3    -0.163314893522E+02    0.23802E-03   -0.34625E-02   328   0.804E-01    0.465E-01
DAV:   4    -0.163283149515E+02    0.31744E-02   -0.40905E-03   296   0.233E-01    0.317E-01
DAV:   5    -0.163272716842E+02    0.10433E-02   -0.55352E-03   312   0.239E-01    0.895E-02
DAV:   6    -0.163274833168E+02   -0.21163E-03   -0.81334E-05   200   0.380E-02    0.565E-02
DAV:   7    -0.163278062508E+02   -0.32293E-03   -0.37569E-05   192   0.210E-02    0.224E-02
DAV:   8    -0.163280723402E+02   -0.26609E-03   -0.19770E-05   200   0.148E-02    0.655E-03
DAV:   9    -0.163283213528E+02   -0.24901E-03   -0.11906E-05   200   0.932E-03    0.343E-03
DAV:  10    -0.163284673495E+02   -0.14600E-03   -0.52701E-06   208   0.459E-03    0.215E-03
DAV:  11    -0.163285530414E+02   -0.85692E-04   -0.31337E-06   192   0.350E-03
  27 F= -.16328553E+02 E0= -.16328553E+02  d E =-.889560E-01  mag=     2.0000
 curvature: -51.49 expect dE=-0.115E+00 dE for cont linesearch -0.597E-02
 ZBRENT: extrapolating
 opt :  39.2527  next Energy=   -16.334487 (dE=-0.949E-01)
 bond charge predicted
       N       E                     dE             d eps       ncg     rms          rms(c)
DAV:   1    -0.162924425411E+02    0.36025E-01   -0.81975E+01   288   0.285E+01    0.339E-01
DAV:   2    -0.163341152513E+02   -0.41673E-01   -0.39811E-01   296   0.280E+00    0.282E-01
DAV:   3    -0.163340490762E+02    0.66175E-04   -0.64419E-03   328   0.343E-01    0.201E-01
DAV:   4    -0.163332438098E+02    0.80527E-03   -0.10877E-03   296   0.116E-01    0.125E-01
DAV:   5    -0.163330381719E+02    0.20564E-03   -0.13371E-03   312   0.118E-01    0.394E-02
DAV:   6    -0.163330796937E+02   -0.41522E-04   -0.15852E-05   200   0.159E-02
  28 F= -.16333080E+02 E0= -.16333080E+02  d E =-.934826E-01  mag=     2.0000
 curvature: -51.20 expect dE=-0.170E+00 dE for cont linesearch -0.141E-03
 trial: gam= 0.78583 g(F)=  0.332E-02 g(S)=  0.000E+00 ort =-0.185E-03 (trialstep = 0.137E+02)
 search vector abs. value=  0.107E-01
 bond charge predicted
       N       E                     dE             d eps       ncg     rms          rms(c)
DAV:   1    -0.162887314027E+02    0.44307E-01   -0.13646E+02   288   0.371E+01    0.651E-01
DAV:   2    -0.163589773871E+02   -0.70246E-01   -0.68572E-01   304   0.368E+00    0.392E-01
DAV:   3    -0.163584224479E+02    0.55494E-03   -0.11415E-02   328   0.469E-01    0.257E-01
DAV:   4    -0.163573333273E+02    0.10891E-02   -0.29820E-03   304   0.190E-01    0.107E-01
DAV:   5    -0.163574578328E+02   -0.12451E-03   -0.61609E-04   312   0.908E-02    0.352E-02
DAV:   6    -0.163575556769E+02   -0.97844E-04   -0.37027E-05   208   0.211E-02
  29 F= -.16357556E+02 E0= -.16357556E+02  d E =-.244760E-01  mag=     2.0000
 trial-energy change:   -0.024476  1 .order   -0.024214   -0.043576   -0.004852
 step:  15.4421(harm= 15.4421)  dis= 0.06211  next Energy=   -16.357598 (dE=-0.245E-01)
 bond charge predicted
       N       E                     dE             d eps       ncg     rms          rms(c)
DAV:   1    -0.163569192214E+02    0.53861E-03   -0.21161E+00   296   0.458E+00    0.719E-02
DAV:   2    -0.163580363132E+02   -0.11171E-02   -0.10292E-02   320   0.449E-01    0.550E-02
DAV:   3    -0.163580596810E+02   -0.23368E-04   -0.14808E-04   176   0.558E-02
  30 F= -.16358060E+02 E0= -.16358060E+02  d E =-.249800E-01  mag=     2.0000
 curvature: -26.02 expect dE=-0.401E-01 dE for cont linesearch -0.516E-03
 trial: gam= 0.18629 g(F)=  0.154E-02 g(S)=  0.000E+00 ort =-0.461E-03 (trialstep = 0.141E+02)
 search vector abs. value=  0.174E-02
 bond charge predicted
       N       E                     dE             d eps       ncg     rms          rms(c)
DAV:   1    -0.163612645123E+02   -0.32282E-02   -0.23249E+01   288   0.153E+01    0.278E-01
DAV:   2    -0.163731038147E+02   -0.11839E-01   -0.11669E-01   296   0.152E+00    0.205E-01
DAV:   3    -0.163730971015E+02    0.67133E-05   -0.19592E-03   320   0.184E-01    0.131E-01
DAV:   4    -0.163730215333E+02    0.75568E-04   -0.68055E-04   312   0.102E-01
  31 F= -.16373022E+02 E0= -.16373022E+02  d E =-.149619E-01  mag=     2.0000
 trial-energy change:   -0.014962  1 .order   -0.014751   -0.020482   -0.009021
 step:  25.1382(harm= 25.1382)  dis= 0.03273  next Energy=   -16.376361 (dE=-0.183E-01)
 bond charge predicted
       N       E                     dE             d eps       ncg     rms          rms(c)
DAV:   1    -0.163683144957E+02    0.47826E-02   -0.14384E+01   288   0.120E+01    0.228E-01
DAV:   2    -0.163756435365E+02   -0.73290E-02   -0.72987E-02   312   0.120E+00    0.165E-01
DAV:   3    -0.163756574578E+02   -0.13921E-04   -0.12265E-03   312   0.146E-01    0.103E-01
DAV:   4    -0.163756430027E+02    0.14455E-04   -0.34947E-04   288   0.761E-02
  32 F= -.16375643E+02 E0= -.16375643E+02  d E =-.175833E-01  mag=     2.0000
 curvature: -15.03 expect dE=-0.267E-01 dE for cont linesearch -0.111E-03
 trial: gam= 1.21707 g(F)=  0.178E-02 g(S)=  0.000E+00 ort =-0.113E-03 (trialstep = 0.695E+01)
 search vector abs. value=  0.408E-02
 bond charge predicted
       N       E                     dE             d eps       ncg     rms          rms(c)
DAV:   1    -0.163781980376E+02   -0.25406E-02   -0.13215E+01   288   0.115E+01    0.143E-01
DAV:   2    -0.163849424453E+02   -0.67444E-02   -0.65651E-02   312   0.114E+00    0.125E-01
DAV:   3    -0.163849939191E+02   -0.51474E-04   -0.10733E-03   320   0.141E-01    0.876E-02
DAV:   4    -0.163849367978E+02    0.57121E-04   -0.22000E-04   200   0.612E-02
  33 F= -.16384937E+02 E0= -.16384937E+02  d E =-.929380E-02  mag=     2.0000
 trial-energy change:   -0.009294  1 .order   -0.009710   -0.011394   -0.008026
 step:  23.5025(harm= 23.5025)  dis= 0.04871  next Energy=   -16.394918 (dE=-0.193E-01)
 bond charge predicted
       N       E                     dE             d eps       ncg     rms          rms(c)
DAV:   1    -0.163539237282E+02    0.31070E-01   -0.75370E+01   288   0.276E+01    0.367E-01
DAV:   2    -0.163930427565E+02   -0.39119E-01   -0.37513E-01   296   0.274E+00    0.303E-01
DAV:   3    -0.163931887969E+02   -0.14604E-03   -0.60161E-03   320   0.335E-01    0.207E-01
DAV:   4    -0.163926172038E+02    0.57159E-03   -0.14423E-03   304   0.145E-01    0.115E-01
DAV:   5    -0.163927516380E+02   -0.13443E-03   -0.90724E-04   304   0.108E-01    0.377E-02
DAV:   6    -0.163928310655E+02   -0.79427E-04   -0.23360E-05   208   0.185E-02
  34 F= -.16392831E+02 E0= -.16392831E+02  d E =-.171881E-01  mag=     2.0000
 curvature: -29.24 expect dE=-0.410E-01 dE for cont linesearch -0.102E-03
 trial: gam= 0.66855 g(F)=  0.140E-02 g(S)=  0.000E+00 ort =-0.119E-03 (trialstep = 0.103E+02)
 search vector abs. value=  0.307E-02
 bond charge predicted
       N       E                     dE             d eps       ncg     rms          rms(c)
DAV:   1    -0.163933245199E+02   -0.57288E-03   -0.21622E+01   288   0.147E+01    0.179E-01
DAV:   2    -0.164043518197E+02   -0.11027E-01   -0.10505E-01   288   0.145E+00    0.167E-01
DAV:   3    -0.164043929874E+02   -0.41168E-04   -0.17034E-03   320   0.177E-01    0.122E-01
DAV:   4    -0.164041914968E+02    0.20149E-03   -0.44022E-04   304   0.764E-02    0.697E-02
DAV:   5    -0.164042624993E+02   -0.71003E-04   -0.34501E-04   296   0.629E-02
  35 F= -.16404262E+02 E0= -.16404262E+02  d E =-.114314E-01  mag=     2.0000
 trial-energy change:   -0.011431  1 .order   -0.011766   -0.013578   -0.009954
 step:  38.4383(harm= 38.4383)  dis= 0.07524  next Energy=   -16.418271 (dE=-0.254E-01)
 bond charge predicted
       N       E                     dE             d eps       ncg     rms          rms(c)
DAV:   1    -0.163310607081E+02    0.73131E-01   -0.16513E+02   288   0.411E+01    0.527E-01
DAV:   2    -0.164152553952E+02   -0.84195E-01   -0.80962E-01   304   0.406E+00    0.471E-01
DAV:   3    -0.164152906531E+02   -0.35258E-04   -0.13102E-02   312   0.497E-01    0.332E-01
DAV:   4    -0.164137014801E+02    0.15892E-02   -0.26479E-03   312   0.187E-01    0.203E-01
DAV:   5    -0.164136835855E+02    0.17895E-04   -0.24390E-03   304   0.165E-01    0.668E-02
DAV:   6    -0.164138275559E+02   -0.14397E-03   -0.38718E-05   224   0.247E-02    0.451E-02
DAV:   7    -0.164140309134E+02   -0.20336E-03   -0.56774E-05   208   0.239E-02    0.145E-02
DAV:   8    -0.164141683223E+02   -0.13741E-03   -0.18473E-05   224   0.155E-02    0.463E-03
DAV:   9    -0.164142780940E+02   -0.10977E-03   -0.53318E-06   208   0.717E-03    0.255E-03
DAV:  10    -0.164143611084E+02   -0.83014E-04   -0.29670E-06   208   0.372E-03
  36 F= -.16414361E+02 E0= -.16414361E+02  d E =-.215300E-01  mag=     2.0000
 curvature: -44.55 expect dE=-0.670E-01 dE for cont linesearch -0.123E-02
 ZBRENT: interpolating
 opt :  31.9365  next Energy=   -16.415307 (dE=-0.225E-01)
 bond charge predicted
       N       E                     dE             d eps       ncg     rms          rms(c)
DAV:   1    -0.164110505603E+02    0.32275E-02   -0.86812E+00   288   0.933E+00    0.113E-01
DAV:   2    -0.164152984097E+02   -0.42478E-02   -0.41613E-02   320   0.907E-01    0.969E-02
DAV:   3    -0.164152914144E+02    0.69953E-05   -0.66300E-04   328   0.111E-01
  37 F= -.16415291E+02 E0= -.16415291E+02  d E =-.224603E-01  mag=     2.0000
 curvature: -34.27 expect dE=-0.355E-01 dE for cont linesearch -0.175E-04
 trial: gam= 0.68834 g(F)=  0.104E-02 g(S)=  0.000E+00 ort = 0.395E-04 (trialstep = 0.146E+02)
 search vector abs. value=  0.254E-02
 bond charge predicted
       N       E                     dE             d eps       ncg     rms          rms(c)
DAV:   1    -0.164091012936E+02    0.61971E-02   -0.36432E+01   288   0.191E+01    0.251E-01
DAV:   2    -0.164273553729E+02   -0.18254E-01   -0.17932E-01   304   0.188E+00    0.180E-01
DAV:   3    -0.164272896023E+02    0.65771E-04   -0.28643E-03   320   0.235E-01    0.126E-01
DAV:   4    -0.164269458110E+02    0.34379E-03   -0.50308E-04   312   0.815E-02    0.690E-02
DAV:   5    -0.164268953525E+02    0.50459E-04   -0.41434E-04   320   0.686E-02
  38 F= -.16426895E+02 E0= -.16426895E+02  d E =-.116039E-01  mag=     2.0000
 trial-energy change:   -0.011604  1 .order   -0.012046   -0.015517   -0.008576
 step:  32.6259(harm= 32.6259)  dis= 0.04619  next Energy=   -16.432636 (dE=-0.173E-01)
 bond charge predicted
       N       E                     dE             d eps       ncg     rms          rms(c)
DAV:   1    -0.164030520221E+02    0.23894E-01   -0.55770E+01   288   0.236E+01    0.320E-01
DAV:   2    -0.164308682978E+02   -0.27816E-01   -0.27541E-01   320   0.232E+00    0.233E-01
DAV:   3    -0.164307653407E+02    0.10296E-03   -0.44054E-03   328   0.289E-01    0.163E-01
DAV:   4    -0.164302828688E+02    0.48247E-03   -0.94159E-04   312   0.110E-01    0.839E-02
DAV:   5    -0.164303521956E+02   -0.69327E-04   -0.57824E-04   296   0.819E-02
  39 F= -.16430352E+02 E0= -.16430352E+02  d E =-.150608E-01  mag=     2.0000
 curvature: -39.03 expect dE=-0.428E-01 dE for cont linesearch -0.641E-04
 trial: gam= 1.07063 g(F)=  0.110E-02 g(S)=  0.000E+00 ort =-0.647E-04 (trialstep = 0.119E+02)
 search vector abs. value=  0.388E-02
 bond charge predicted
       N       E                     dE             d eps       ncg     rms          rms(c)
DAV:   1    -0.164203030575E+02    0.99798E-02   -0.37378E+01   288   0.191E+01    0.242E-01
DAV:   2    -0.164390010713E+02   -0.18698E-01   -0.18786E-01   312   0.192E+00    0.197E-01
DAV:   3    -0.164390085345E+02   -0.74632E-05   -0.29836E-03   312   0.235E-01    0.137E-01
DAV:   4    -0.164388323095E+02    0.17622E-03   -0.55228E-04   288   0.852E-02    0.794E-02
DAV:   5    -0.164390376742E+02   -0.20536E-03   -0.49847E-04   288   0.739E-02    0.248E-02
DAV:   6    -0.164391565410E+02   -0.11887E-03   -0.99417E-06   216   0.114E-02    0.173E-02
DAV:   7    -0.164393309988E+02   -0.17446E-03   -0.18638E-05   192   0.126E-02    0.565E-03
DAV:   8    -0.164394677097E+02   -0.13671E-03   -0.65999E-06   216   0.756E-03    0.176E-03
DAV:   9    -0.164395635180E+02   -0.95808E-04   -0.31422E-06   216   0.411E-03
  40 F= -.16439564E+02 E0= -.16439564E+02  d E =-.921132E-02  mag=     2.0000
 trial-energy change:   -0.009211  1 .order   -0.008982   -0.012287   -0.005677
 step:  22.2094(harm= 22.2094)  dis= 0.05336  next Energy=   -16.441772 (dE=-0.114E-01)
 bond charge predicted
       N       E                     dE             d eps       ncg     rms          rms(c)
DAV:   1    -0.164283282036E+02    0.11140E-01   -0.27533E+01   288   0.164E+01    0.202E-01
DAV:   2    -0.164420179521E+02   -0.13690E-01   -0.13716E-01   304   0.164E+00    0.172E-01
DAV:   3    -0.164419751351E+02    0.42817E-04   -0.21761E-03   320   0.201E-01    0.121E-01
DAV:   4    -0.164417257160E+02    0.24942E-03   -0.43710E-04   304   0.755E-02    0.703E-02
DAV:   5    -0.164417684657E+02   -0.42750E-04   -0.39596E-04   296   0.661E-02
  41 F= -.16441768E+02 E0= -.16441768E+02  d E =-.114163E-01  mag=     2.0000
 curvature: -41.85 expect dE=-0.442E-01 dE for cont linesearch -0.515E-04
 trial: gam= 0.59980 g(F)=  0.106E-02 g(S)=  0.000E+00 ort = 0.691E-04 (trialstep = 0.140E+02)
 search vector abs. value=  0.253E-02
 bond charge predicted
       N       E                     dE             d eps       ncg     rms          rms(c)
DAV:   1    -0.164381307204E+02    0.35950E-02   -0.33344E+01   288   0.182E+01    0.204E-01
DAV:   2    -0.164552418393E+02   -0.17111E-01   -0.16397E-01   304   0.179E+00    0.177E-01
DAV:   3    -0.164552565618E+02   -0.14723E-04   -0.25197E-03   312   0.212E-01    0.131E-01
DAV:   4    -0.164549850493E+02    0.27151E-03   -0.50563E-04   288   0.814E-02    0.763E-02
DAV:   5    -0.164550433043E+02   -0.58255E-04   -0.55355E-04   312   0.774E-02
  42 F= -.16455043E+02 E0= -.16455043E+02  d E =-.132748E-01  mag=     2.0000
 ZBRENT: can't locate minimum, use default step
 trial-energy change:   -0.013275  1 .order   -0.013896   -0.015358   -0.012434
 step:  56.0022(harm= 73.5218)  dis= 0.10554  next Energy=   -16.482094 (dE=-0.403E-01)
 bond charge predicted
       N       E                     dE             d eps       ncg     rms          rms(c)
DAV:   1    -0.163111139093E+02    0.14387E+00   -0.30761E+02   288   0.562E+01    0.818E-01
DAV:   2    -0.164733317439E+02   -0.16222E+00   -0.15587E+00   312   0.564E+00    0.605E-01
DAV:   3    -0.164731450462E+02    0.18670E-03   -0.24854E-02   312   0.686E-01    0.409E-01
DAV:   4    -0.164707833026E+02    0.23617E-02   -0.36314E-03   296   0.219E-01    0.260E-01
DAV:   5    -0.164704970173E+02    0.28629E-03   -0.40239E-03   304   0.209E-01    0.735E-02
DAV:   6    -0.164707423647E+02   -0.24535E-03   -0.60011E-05   224   0.332E-02    0.471E-02
DAV:   7    -0.164710551096E+02   -0.31274E-03   -0.47252E-05   192   0.219E-02    0.172E-02
DAV:   8    -0.164712411120E+02   -0.18600E-03   -0.23216E-05   224   0.156E-02    0.572E-03
DAV:   9    -0.164713779380E+02   -0.13683E-03   -0.88682E-06   192   0.798E-03    0.274E-03
DAV:  10    -0.164714598937E+02   -0.81956E-04   -0.37933E-06   216   0.406E-03
  43 F= -.16471460E+02 E0= -.16471460E+02  d E =-.296914E-01  mag=     2.0000
 curvature: -77.52 expect dE=-0.323E+00 dE for cont linesearch -0.900E-03
 trial: gam= 4.27241 g(F)=  0.416E-02 g(S)=  0.000E+00 ort =-0.171E-03 (trialstep = 0.116E+01)
 search vector abs. value=  0.489E-01
 bond charge predicted
       N       E                     dE             d eps       ncg     rms          rms(c)
DAV:   1    -0.164731674350E+02   -0.17895E-02   -0.44146E+00   288   0.662E+00    0.622E-02
DAV:   2    -0.164755306688E+02   -0.23632E-02   -0.21763E-02   312   0.654E-01    0.599E-02
DAV:   3    -0.164755438840E+02   -0.13215E-04   -0.30176E-04   240   0.755E-02
  44 F= -.16475544E+02 E0= -.16475544E+02  d E =-.408399E-02  mag=     2.0000
 ZBRENT: can't locate minimum, use default step
 trial-energy change:   -0.004084  1 .order   -0.003531   -0.003978   -0.003083
 step:   4.6381(harm=  5.1499)  dis= 0.03653  next Energy=   -16.480295 (dE=-0.883E-02)
 bond charge predicted
       N       E                     dE             d eps       ncg     rms          rms(c)
DAV:   1    -0.164657036369E+02    0.98270E-02   -0.39905E+01   288   0.200E+01    0.201E-01
DAV:   2    -0.164861835766E+02   -0.20480E-01   -0.19518E-01   312   0.197E+00    0.197E-01
DAV:   3    -0.164861535400E+02    0.30037E-04   -0.29489E-03   344   0.227E-01    0.155E-01
DAV:   4    -0.164856739766E+02    0.47956E-03   -0.61206E-04   296   0.866E-02    0.951E-02
DAV:   5    -0.164855996221E+02    0.74354E-04   -0.94056E-04   312   0.996E-02
  45 F= -.16485600E+02 E0= -.16485600E+02  d E =-.141397E-01  mag=     2.0000
 curvature: -36.12 expect dE=-0.154E+00 dE for cont linesearch -0.650E-02
 ZBRENT: increasing intervall
 opt :  11.5953  next Energy=   -16.508410 (dE=-0.369E-01)
 bond charge predicted
       N       E                     dE             d eps       ncg     rms          rms(c)
DAV:   1    -0.164137052084E+02    0.71969E-01   -0.16121E+02   288   0.404E+01    0.490E-01
DAV:   2    -0.164988556420E+02   -0.85150E-01   -0.81290E-01   304   0.403E+00    0.396E-01
DAV:   3    -0.164988541347E+02    0.15072E-05   -0.12609E-02   336   0.477E-01    0.281E-01
DAV:   4    -0.164975008660E+02    0.13533E-02   -0.17912E-03   296   0.151E-01    0.180E-01
DAV:   5    -0.164972523894E+02    0.24848E-03   -0.24603E-03   320   0.161E-01    0.543E-02
DAV:   6    -0.164973949392E+02   -0.14255E-03   -0.32754E-05   224   0.236E-02    0.378E-02
DAV:   7    -0.164976191109E+02   -0.22417E-03   -0.29677E-05   200   0.175E-02    0.142E-02
DAV:   8    -0.164977603961E+02   -0.14129E-03   -0.16541E-05   208   0.130E-02    0.413E-03
DAV:   9    -0.164978702260E+02   -0.10983E-03   -0.55444E-06   208   0.678E-03    0.247E-03
DAV:  10    -0.164979415790E+02   -0.71353E-04   -0.30258E-06   208   0.344E-03
  46 F= -.16497942E+02 E0= -.16497942E+02  d E =-.264817E-01  mag=     2.0000
 curvature: ****** expect dE=-0.565E+00 dE for cont linesearch -0.130E-02
 trial: gam= 0.17511 g(F)=  0.446E-02 g(S)=  0.000E+00 ort = 0.709E-03 (trialstep = 0.325E+01)
 search vector abs. value=  0.621E-02
 bond charge predicted
       N       E                     dE             d eps       ncg     rms          rms(c)
DAV:   1    -0.165091165628E+02   -0.11246E-01   -0.44072E+00   288   0.658E+00    0.112E-01
DAV:   2    -0.165112834579E+02   -0.21669E-02   -0.22014E-02   312   0.654E-01    0.854E-02
DAV:   3    -0.165112813875E+02    0.20704E-05   -0.37225E-04   312   0.845E-02
  47 F= -.16511281E+02 E0= -.16511281E+02  d E =-.133398E-01  mag=     2.0000
 ZBRENT: can't locate minimum, use default step
 trial-energy change:   -0.013340  1 .order   -0.013208   -0.014877   -0.011540
 step:  12.9867(harm= 14.4730)  dis= 0.05521  next Energy=   -16.531100 (dE=-0.332E-01)
 bond charge predicted
       N       E                     dE             d eps       ncg     rms          rms(c)
DAV:   1    -0.165131652878E+02   -0.18818E-02   -0.39810E+01   288   0.198E+01    0.351E-01
DAV:   2    -0.165328223962E+02   -0.19657E-01   -0.19895E-01   312   0.196E+00    0.255E-01
DAV:   3    -0.165328074618E+02    0.14934E-04   -0.33855E-03   312   0.251E-01    0.166E-01
DAV:   4    -0.165326585251E+02    0.14894E-03   -0.93328E-04   296   0.126E-01    0.637E-02
DAV:   5    -0.165327414664E+02   -0.82941E-04   -0.12290E-04   208   0.485E-02
  48 F= -.16532741E+02 E0= -.16532741E+02  d E =-.347999E-01  mag=     2.0000
 curvature:  -9.63 expect dE=-0.118E-01 dE for cont linesearch -0.134E-02
 ZBRENT: extrapolating
 opt :  16.4415  next Energy=   -16.534349 (dE=-0.364E-01)
 bond charge predicted
       N       E                     dE             d eps       ncg     rms          rms(c)
DAV:   1    -0.165317029554E+02    0.95557E-03   -0.49833E+00   288   0.698E+00    0.118E-01
DAV:   2    -0.165341172145E+02   -0.24143E-02   -0.25042E-02   304   0.693E-01    0.841E-02
DAV:   3    -0.165341243979E+02   -0.71834E-05   -0.42130E-04   312   0.898E-02
  49 F= -.16534124E+02 E0= -.16534124E+02  d E =-.361828E-01  mag=     2.0000
 curvature: -11.52 expect dE=-0.181E-01 dE for cont linesearch -0.334E-04
 trial: gam= 0.36427 g(F)=  0.157E-02 g(S)=  0.000E+00 ort =-0.134E-03 (trialstep = 0.589E+01)
 search vector abs. value=  0.229E-02
 bond charge predicted
       N       E                     dE             d eps       ncg     rms          rms(c)
DAV:   1    -0.165395289591E+02   -0.54117E-02   -0.53426E+00   288   0.724E+00    0.104E-01
DAV:   2    -0.165421328758E+02   -0.26039E-02   -0.26392E-02   304   0.711E-01    0.817E-02
DAV:   3    -0.165421326722E+02    0.20356E-06   -0.42539E-04   320   0.858E-02
  50 F= -.16542133E+02 E0= -.16542133E+02  d E =-.800827E-02  mag=     2.0000
 ZBRENT: can't locate minimum, use default step
 trial-energy change:   -0.008008  1 .order   -0.008013   -0.008934   -0.007092
 step:  23.5426(harm= 28.5492)  dis= 0.04851  next Energy=   -16.555792 (dE=-0.217E-01)
 bond charge predicted
       N       E                     dE             d eps       ncg     rms          rms(c)
DAV:   1    -0.165320681265E+02    0.10065E-01   -0.48255E+01   288   0.218E+01    0.350E-01
DAV:   2    -0.165566343005E+02   -0.24566E-01   -0.24163E-01   304   0.216E+00    0.244E-01
DAV:   3    -0.165565431038E+02    0.91197E-04   -0.40022E-03   320   0.268E-01    0.167E-01
DAV:   4    -0.165561676149E+02    0.37549E-03   -0.13255E-03   312   0.134E-01    0.653E-02
DAV:   5    -0.165562775029E+02   -0.10989E-03   -0.19854E-04   224   0.567E-02    0.219E-02
DAV:   6    -0.165563667195E+02   -0.89217E-04   -0.25873E-05   208   0.189E-02
  51 F= -.16556367E+02 E0= -.16556367E+02  d E =-.222423E-01  mag=     2.0000
 curvature: -20.51 expect dE=-0.287E-01 dE for cont linesearch -0.207E-02
 ZBRENT: increasing intervall
 opt :  58.8564  next Energy=   -16.547797 (dE=-0.137E-01)
 bond charge predicted
       N       E                     dE             d eps       ncg     rms          rms(c)
DAV:   1    -0.164487472204E+02    0.10753E+00   -0.19520E+02   288   0.443E+01    0.203E+00
DAV:   2    -0.156014673068E+02    0.84728E+00   -0.21411E+00   288   0.602E+00    0.188E+00
DAV:   3    -0.162174671435E+02   -0.61600E+00   -0.24336E-01   304   0.241E+00    0.740E-01
DAV:   4    -0.164321224047E+02   -0.21466E+00   -0.44979E-02   296   0.748E-01    0.143E+00
DAV:   5    -0.163945008582E+02    0.37622E-01   -0.45793E-03   320   0.348E-01    0.131E+00
DAV:   6    -0.163133161657E+02    0.81185E-01   -0.17214E-02   312   0.707E-01    0.996E-01
DAV:   7    -0.162986594182E+02    0.14657E-01   -0.71854E-03   328   0.433E-01    0.812E-01
DAV:   8    -0.163015918237E+02   -0.29324E-02   -0.50854E-04   312   0.938E-02    0.781E-01
DAV:   9    -0.162991853642E+02    0.24065E-02   -0.23645E-04   216   0.792E-02    0.813E-01
DAV:  10    -0.163899605219E+02   -0.90775E-01   -0.87596E-02   304   0.125E+00    0.314E-01
DAV:  11    -0.164184613288E+02   -0.28501E-01   -0.68824E-03   328   0.298E-01    0.243E-01
DAV:  12    -0.164282432726E+02   -0.97819E-02   -0.28892E-04   216   0.984E-02    0.256E-01
DAV:  13    -0.165328821543E+02   -0.10464E+00   -0.99749E-02   296   0.366E-01    0.139E-01
DAV:  14    -0.165438688428E+02   -0.10987E-01   -0.10171E-03   296   0.805E-02    0.120E-01
DAV:  15    -0.165684270244E+02   -0.24558E-01   -0.20363E-03   248   0.904E-02    0.108E-01
DAV:  16    -0.165949164464E+02   -0.26489E-01   -0.70419E-03   296   0.341E-01    0.913E-02
DAV:  17    -0.166013204021E+02   -0.64040E-02   -0.53334E-04   256   0.117E-01    0.926E-02
DAV:  18    -0.166126936923E+02   -0.11373E-01   -0.88735E-04   208   0.453E-02    0.115E-01
DAV:  19    -0.166157635265E+02   -0.30698E-02   -0.90592E-04   216   0.764E-02    0.693E-02
DAV:  20    -0.166174139670E+02   -0.16504E-02   -0.54119E-04   200   0.910E-02    0.230E-02
DAV:  21    -0.166181254021E+02   -0.71144E-03   -0.11594E-04   208   0.304E-02    0.104E-02
DAV:  22    -0.166195008458E+02   -0.13754E-02   -0.10351E-04   200   0.321E-02    0.236E-02
DAV:  23    -0.166198924735E+02   -0.39163E-03   -0.26547E-05   232   0.133E-02    0.216E-02
DAV:  24    -0.166200428158E+02   -0.15034E-03   -0.31483E-05   216   0.191E-02    0.106E-02
DAV:  25    -0.166201150112E+02   -0.72195E-04   -0.14793E-05   224   0.976E-03
  52 F= -.16620115E+02 E0= -.16620115E+02  d E =-.859906E-01  mag=     0.0027
 curvature:  84.87 expect dE= 0.135E+01 dE for cont linesearch  0.256E-01
 ZBRENT: bracketing found
 ZBRENT: interpolating
 opt :  36.4873  next Energy=   -16.559481 (dE=-0.254E-01)
 bond charge predicted
       N       E                     dE             d eps       ncg     rms          rms(c)
DAV:   1    -0.165876742436E+02    0.32369E-01   -0.77671E+01   288   0.278E+01    0.392E-01
DAV:   2    -0.166257999906E+02   -0.38126E-01   -0.38558E-01   304   0.275E+00    0.353E-01
DAV:   3    -0.166255217027E+02    0.27829E-03   -0.63761E-03   312   0.348E-01    0.249E-01
DAV:   4    -0.166244054228E+02    0.11163E-02   -0.16246E-03   304   0.156E-01    0.136E-01
DAV:   5    -0.166242354793E+02    0.16994E-03   -0.93733E-04   312   0.106E-01    0.417E-02
DAV:   6    -0.166244550788E+02   -0.21960E-03   -0.34137E-05   208   0.191E-02    0.268E-02
DAV:   7    -0.166247620002E+02   -0.30692E-03   -0.58274E-05   200   0.224E-02    0.833E-03
DAV:   8    -0.166249890687E+02   -0.22707E-03   -0.13339E-05   208   0.117E-02    0.304E-03
DAV:   9    -0.166251612577E+02   -0.17219E-03   -0.69255E-06   192   0.585E-03    0.181E-03
DAV:  10    -0.166252630624E+02   -0.10180E-03   -0.16328E-06   208   0.289E-03    0.116E-03
DAV:  11    -0.166253774718E+02   -0.11441E-03   -0.19467E-06   192   0.248E-03    0.763E-04
DAV:  12    -0.166254742179E+02   -0.96746E-04   -0.34413E-06   200   0.215E-03
  53 F= -.16625474E+02 E0= -.16625474E+02  d E =-.913498E-01  mag=     0.0000
 curvature: -10.33 expect dE=-0.875E-01 dE for cont linesearch -0.558E-03
 trial: gam= 0.00000 g(F)=  0.847E-02 g(S)=  0.000E+00 ort = 0.352E-03 (trialstep = 0.325E+01)
 search vector abs. value=  0.847E-02
 bond charge predicted
       N       E                     dE             d eps       ncg     rms          rms(c)
DAV:   1    -0.166483585296E+02   -0.22981E-01   -0.60182E+00   288   0.775E+00    0.137E-01
DAV:   2    -0.166509590852E+02   -0.26006E-02   -0.30585E-02   304   0.793E-01    0.120E-01
DAV:   3    -0.166507672913E+02    0.19179E-03   -0.62998E-04   320   0.113E-01    0.745E-02
DAV:   4    -0.166504482500E+02    0.31904E-03   -0.15505E-04   208   0.604E-02    0.393E-02
DAV:   5    -0.166503728762E+02    0.75374E-04   -0.10089E-04   232   0.361E-02
  54 F= -.16650373E+02 E0= -.16650373E+02  d E =-.248987E-01  mag=     0.0000
 ZBRENT: can't locate minimum, use default step
 trial-energy change:   -0.024899  1 .order   -0.025842   -0.027525   -0.024160
 step:  13.0007(harm= 26.5883)  dis= 0.03859  next Energy=   -16.738058 (dE=-0.113E+00)
 bond charge predicted
       N       E                     dE             d eps       ncg     rms          rms(c)
DAV:   1    -0.166808877053E+02   -0.30439E-01   -0.54322E+01   288   0.233E+01    0.389E-01
DAV:   2    -0.167049923006E+02   -0.24105E-01   -0.27425E-01   304   0.236E+00    0.340E-01
DAV:   3    -0.167040142968E+02    0.97800E-03   -0.54120E-03   328   0.320E-01    0.219E-01
DAV:   4    -0.167021846628E+02    0.18296E-02   -0.21728E-03   304   0.184E-01    0.123E-01
DAV:   5    -0.167017136739E+02    0.47099E-03   -0.15562E-03   320   0.103E-01    0.392E-02
DAV:   6    -0.167024999145E+02   -0.78624E-03   -0.10275E-04   224   0.269E-02    0.266E-02
DAV:   7    -0.167040258430E+02   -0.15259E-02   -0.16220E-04   208   0.321E-02    0.136E-02
DAV:   8    -0.167055520923E+02   -0.15262E-02   -0.14908E-04   216   0.278E-02    0.887E-03
DAV:   9    -0.167067691536E+02   -0.12171E-02   -0.10977E-04   208   0.183E-02    0.718E-03
DAV:  10    -0.167078105822E+02   -0.10414E-02   -0.78571E-05   200   0.155E-02    0.344E-03
DAV:  11    -0.167085230589E+02   -0.71248E-03   -0.49629E-05   216   0.110E-02    0.158E-03
DAV:  12    -0.167087521875E+02   -0.22913E-03   -0.79632E-06   192   0.509E-03    0.102E-03
DAV:  13    -0.167088389451E+02   -0.86758E-04   -0.34167E-06   216   0.295E-03
  55 F= -.16708839E+02 E0= -.16708839E+02  d E =-.833647E-01  mag=    -0.0000
 curvature:  -8.79 expect dE=-0.503E-01 dE for cont linesearch -0.204E-01
 ZBRENT: increasing intervall
 opt :  32.5016  next Energy=   -16.736746 (dE=-0.111E+00)
 bond charge predicted
       N       E                     dE             d eps       ncg     rms          rms(c)
DAV:   1    -0.166240734126E+02    0.84679E-01   -0.21964E+02   288   0.474E+01    0.801E-01
DAV:   2    -0.167317250162E+02   -0.10765E+00   -0.11056E+00   304   0.476E+00    0.630E-01
DAV:   3    -0.167305062395E+02    0.12188E-02   -0.20386E-02   328   0.612E-01    0.405E-01
DAV:   4    -0.167257687461E+02    0.47375E-02   -0.87358E-03   304   0.301E-01    0.223E-01
DAV:   5    -0.167234039659E+02    0.23648E-02   -0.61883E-03   320   0.161E-01    0.724E-02
DAV:   6    -0.167244593255E+02   -0.10554E-02   -0.50956E-04   216   0.409E-02    0.485E-02
DAV:   7    -0.167264125108E+02   -0.19532E-02   -0.92087E-04   224   0.475E-02    0.287E-02
DAV:   8    -0.167284137618E+02   -0.20013E-02   -0.10018E-03   216   0.358E-02    0.207E-02
DAV:   9    -0.167311652364E+02   -0.27515E-02   -0.15888E-03   224   0.398E-02    0.156E-02
DAV:  10    -0.167335790943E+02   -0.24139E-02   -0.11665E-03   208   0.331E-02    0.960E-03
DAV:  11    -0.167353978505E+02   -0.18188E-02   -0.61805E-04   224   0.241E-02    0.447E-03
DAV:  12    -0.167361893262E+02   -0.79148E-03   -0.75437E-05   216   0.110E-02    0.256E-03
DAV:  13    -0.167366566324E+02   -0.46731E-03   -0.12982E-05   200   0.641E-03    0.161E-03
DAV:  14    -0.167369310232E+02   -0.27439E-03   -0.97778E-06   200   0.478E-03    0.104E-03
DAV:  15    -0.167371348910E+02   -0.20387E-03   -0.65401E-06   200   0.368E-03    0.532E-04
DAV:  16    -0.167371950873E+02   -0.60196E-04   -0.16644E-06   200   0.206E-03
  56 F= -.16737195E+02 E0= -.16737195E+02  d E =-.111721E+00  mag=     0.0000
 curvature: -12.03 expect dE=-0.206E+00 dE for cont linesearch -0.438E-02
 ZBRENT: bracketing found
 ZBRENT: interpolating
 opt :  26.9691  next Energy=   -16.742051 (dE=-0.117E+00)
 bond charge predicted
       N       E                     dE             d eps       ncg     rms          rms(c)
DAV:   1    -0.167335324424E+02    0.36024E-02   -0.17444E+01   288   0.132E+01    0.190E-01
DAV:   2    -0.167420900980E+02   -0.85577E-02   -0.85901E-02   304   0.131E+00    0.165E-01
DAV:   3    -0.167420959446E+02   -0.58466E-05   -0.14727E-03   312   0.168E-01    0.110E-01
DAV:   4    -0.167419658021E+02    0.13014E-03   -0.35828E-04   272   0.801E-02    0.596E-02
DAV:   5    -0.167419715825E+02   -0.57804E-05   -0.15452E-04   192   0.484E-02
  57 F= -.16741972E+02 E0= -.16741972E+02  d E =-.116497E+00  mag=     0.0000
 curvature: -13.34 expect dE=-0.162E+00 dE for cont linesearch -0.168E-05
 trial: gam= 1.43547 g(F)=  0.121E-01 g(S)=  0.000E+00 ort =-0.326E-04 (trialstep = 0.230E+01)
 search vector abs. value=  0.295E-01
 bond charge predicted
       N       E                     dE             d eps       ncg     rms          rms(c)
DAV:   1    -0.167634469352E+02   -0.21481E-01   -0.10412E+01   288   0.101E+01    0.134E-01
DAV:   2    -0.167684295171E+02   -0.49826E-02   -0.49539E-02   304   0.988E-01    0.107E-01
DAV:   3    -0.167684040578E+02    0.25459E-04   -0.85034E-04   296   0.133E-01
  58 F= -.16768404E+02 E0= -.16768404E+02  d E =-.264325E-01  mag=     0.0000
 ZBRENT: can't locate minimum, use default step
 trial-energy change:   -0.026432  1 .order   -0.026092   -0.027733   -0.024451
 step:   9.1855(harm= 19.4029)  dis= 0.06200  next Energy=   -16.859137 (dE=-0.117E+00)
 bond charge predicted
       N       E                     dE             d eps       ncg     rms          rms(c)
DAV:   1    -0.167817265236E+02   -0.13297E-01   -0.94396E+01   288   0.306E+01    0.478E-01
DAV:   2    -0.168297724395E+02   -0.48046E-01   -0.45861E-01   320   0.302E+00    0.345E-01
DAV:   3    -0.168300114501E+02   -0.23901E-03   -0.79520E-03   304   0.397E-01    0.228E-01
DAV:   4    -0.168292889937E+02    0.72246E-03   -0.21723E-03   288   0.178E-01    0.104E-01
DAV:   5    -0.168293244914E+02   -0.35498E-04   -0.66652E-04   320   0.940E-02
  59 F= -.16829324E+02 E0= -.16829324E+02  d E =-.873529E-01  mag=    -0.0000
 curvature: -15.23 expect dE=-0.112E+00 dE for cont linesearch -0.271E-01
 ZBRENT: increasing intervall
 opt :  22.9637  next Energy=   -16.882026 (dE=-0.140E+00)
 bond charge predicted
       N       E                     dE             d eps       ncg     rms          rms(c)
DAV:   1    -0.166398401386E+02    0.18945E+00   -0.38639E+02   288   0.629E+01    0.134E+00
DAV:   2    -0.168389707983E+02   -0.19913E+00   -0.19531E+00   320   0.631E+00    0.732E-01
DAV:   3    -0.168380546229E+02    0.91618E-03   -0.34024E-02   304   0.833E-01    0.439E-01
DAV:   4    -0.168356548209E+02    0.23998E-02   -0.64478E-03   320   0.303E-01    0.212E-01
DAV:   5    -0.168356829367E+02   -0.28116E-04   -0.19687E-03   320   0.166E-01    0.535E-02
DAV:   6    -0.168357060431E+02   -0.23106E-04   -0.16405E-04   224   0.465E-02
  60 F= -.16835706E+02 E0= -.16835706E+02  d E =-.937345E-01  mag=    -0.0000
 curvature: -29.67 expect dE=-0.504E+00 dE for cont linesearch -0.676E-01
 ZBRENT: bracketing found
 ZBRENT: interpolating
 opt :  15.6454  next Energy=   -16.852698 (dE=-0.111E+00)
 bond charge predicted
       N       E                     dE             d eps       ncg     rms          rms(c)
DAV:   1    -0.168095417415E+02    0.26141E-01   -0.10668E+02   288   0.325E+01    0.475E-01
DAV:   2    -0.168598537897E+02   -0.50312E-01   -0.50605E-01   320   0.315E+00    0.418E-01
DAV:   3    -0.168597845748E+02    0.69215E-04   -0.84802E-03   304   0.401E-01    0.294E-01
DAV:   4    -0.168589103794E+02    0.87420E-03   -0.22821E-03   320   0.189E-01    0.150E-01
DAV:   5    -0.168589785185E+02   -0.68139E-04   -0.98878E-04   288   0.112E-01
  61 F= -.16858979E+02 E0= -.16858979E+02  d E =-.117007E+00  mag=    -0.0000
 curvature: -10.25 expect dE=-0.820E-01 dE for cont linesearch -0.616E-03
 trial: gam= 0.37229 g(F)=  0.800E-02 g(S)=  0.000E+00 ort = 0.133E-02 (trialstep = 0.497E+01)
 search vector abs. value=  0.131E-01
 bond charge predicted
       N       E                     dE             d eps       ncg     rms          rms(c)
DAV:   1    -0.168855904835E+02   -0.26680E-01   -0.21715E+01   288   0.145E+01    0.216E-01
DAV:   2    -0.168960531815E+02   -0.10463E-01   -0.10620E-01   320   0.143E+00    0.169E-01
DAV:   3    -0.168960373638E+02    0.15818E-04   -0.17924E-03   304   0.186E-01    0.111E-01
DAV:   4    -0.168958866581E+02    0.15071E-03   -0.40549E-04   288   0.779E-02    0.534E-02
DAV:   5    -0.168958925577E+02   -0.58996E-05   -0.13246E-04   192   0.441E-02
  62 F= -.16895893E+02 E0= -.16895893E+02  d E =-.369140E-01  mag=    -0.0000
 trial-energy change:   -0.036914  1 .order   -0.036826   -0.042169   -0.031482
 step:  19.5964(harm= 19.5964)  dis= 0.11840  next Energy=   -16.942177 (dE=-0.832E-01)
 bond charge predicted
       N       E                     dE             d eps       ncg     rms          rms(c)
DAV:   1    -0.168329469437E+02    0.62940E-01   -0.19129E+02   288   0.436E+01    0.866E-01
DAV:   2    -0.169264710579E+02   -0.93524E-01   -0.97232E-01   320   0.434E+00    0.549E-01
DAV:   3    -0.169263239355E+02    0.14712E-03   -0.16745E-02   304   0.570E-01    0.330E-01
DAV:   4    -0.169253083272E+02    0.10156E-02   -0.31733E-03   320   0.220E-01    0.143E-01
DAV:   5    -0.169253534663E+02   -0.45139E-04   -0.69363E-04   320   0.101E-01
  63 F= -.16925353E+02 E0= -.16925353E+02  d E =-.663749E-01  mag=    -0.0000
 curvature: -15.08 expect dE=-0.105E+00 dE for cont linesearch -0.932E-02
 ZBRENT: interpolating
 opt :  15.0676  next Energy=   -16.931789 (dE=-0.728E-01)
 bond charge predicted
       N       E                     dE             d eps       ncg     rms          rms(c)
DAV:   1    -0.169226282003E+02    0.26801E-02   -0.18075E+01   288   0.132E+01    0.218E-01
DAV:   2    -0.169310456075E+02   -0.84174E-02   -0.87315E-02   304   0.129E+00    0.187E-01
DAV:   3    -0.169310476535E+02   -0.20459E-05   -0.14815E-03   320   0.166E-01    0.123E-01
DAV:   4    -0.169309517444E+02    0.95909E-04   -0.40808E-04   272   0.818E-02
  64 F= -.16930952E+02 E0= -.16930952E+02  d E =-.719732E-01  mag=     0.0000
 curvature: -10.42 expect dE=-0.391E-01 dE for cont linesearch -0.808E-04
 trial: gam= 0.26113 g(F)=  0.376E-02 g(S)=  0.000E+00 ort = 0.318E-03 (trialstep = 0.699E+01)
 search vector abs. value=  0.482E-02
 bond charge predicted
       N       E                     dE             d eps       ncg     rms          rms(c)
DAV:   1    -0.169460555617E+02   -0.15008E-01   -0.15805E+01   288   0.125E+01    0.224E-01
DAV:   2    -0.169535368905E+02   -0.74813E-02   -0.76658E-02   304   0.124E+00    0.175E-01
DAV:   3    -0.169534613128E+02    0.75578E-04   -0.13145E-03   304   0.160E-01    0.116E-01
DAV:   4    -0.169533368452E+02    0.12447E-03   -0.50928E-04   304   0.862E-02    0.370E-02
DAV:   5    -0.169533462416E+02   -0.93964E-05   -0.37761E-05   176   0.299E-02
  65 F= -.16953346E+02 E0= -.16953346E+02  d E =-.223945E-01  mag=     0.0000
 trial-energy change:   -0.022394  1 .order   -0.022369   -0.026841   -0.017896
 step:  20.9636(harm= 20.9636)  dis= 0.06533  next Energy=   -16.971222 (dE=-0.403E-01)
 bond charge predicted
       N       E                     dE             d eps       ncg     rms          rms(c)
DAV:   1    -0.169405769902E+02    0.12760E-01   -0.63481E+01   288   0.252E+01    0.436E-01
DAV:   2    -0.169710153348E+02   -0.30438E-01   -0.31026E-01   320   0.249E+00    0.346E-01
DAV:   3    -0.169708915117E+02    0.12382E-03   -0.52562E-03   304   0.318E-01    0.231E-01
DAV:   4    -0.169704026396E+02    0.48887E-03   -0.16729E-03   320   0.160E-01    0.875E-02
DAV:   5    -0.169704281169E+02   -0.25477E-04   -0.22081E-04   224   0.637E-02
  66 F= -.16970428E+02 E0= -.16970428E+02  d E =-.394764E-01  mag=     0.0000
 curvature: -13.14 expect dE=-0.135E-01 dE for cont linesearch -0.756E-07
 trial: gam= 0.31307 g(F)=  0.102E-02 g(S)=  0.000E+00 ort = 0.526E-05 (trialstep = 0.978E+01)
 search vector abs. value=  0.150E-02
 bond charge predicted
       N       E                     dE             d eps       ncg     rms          rms(c)
DAV:   1    -0.169731992656E+02   -0.27966E-02   -0.96396E+00   288   0.977E+00    0.134E-01
DAV:   2    -0.169780818838E+02   -0.48826E-02   -0.47659E-02   320   0.954E-01    0.102E-01
DAV:   3    -0.169780762679E+02    0.56159E-05   -0.73482E-04   304   0.114E-01
  67 F= -.16978076E+02 E0= -.16978076E+02  d E =-.764815E-02  mag=     0.0000
 trial-energy change:   -0.007648  1 .order   -0.007635   -0.010037   -0.005233
 step:  20.4366(harm= 20.4366)  dis= 0.02517  next Energy=   -16.980913 (dE=-0.105E-01)
 bond charge predicted
       N       E                     dE             d eps       ncg     rms          rms(c)
DAV:   1    -0.169755633966E+02    0.25185E-02   -0.11470E+01   288   0.107E+01    0.159E-01
DAV:   2    -0.169813631618E+02   -0.57998E-02   -0.56241E-02   304   0.104E+00    0.125E-01
DAV:   3    -0.169813388735E+02    0.24288E-04   -0.87719E-04   320   0.123E-01
  68 F= -.16981339E+02 E0= -.16981339E+02  d E =-.109108E-01  mag=     0.0000
 curvature: -14.94 expect dE=-0.143E-01 dE for cont linesearch -0.349E-04
 trial: gam= 0.86579 g(F)=  0.955E-03 g(S)=  0.000E+00 ort = 0.592E-04 (trialstep = 0.819E+01)
 search vector abs. value=  0.218E-02
 bond charge predicted
       N       E                     dE             d eps       ncg     rms          rms(c)
DAV:   1    -0.169832743738E+02   -0.19112E-02   -0.98340E+00   288   0.991E+00    0.129E-01
DAV:   2    -0.169883687830E+02   -0.50944E-02   -0.48020E-02   304   0.966E-01    0.107E-01
DAV:   3    -0.169883568990E+02    0.11884E-04   -0.72530E-04   304   0.112E-01
  69 F= -.16988357E+02 E0= -.16988357E+02  d E =-.701803E-02  mag=     0.0000
 trial-energy change:   -0.007018  1 .order   -0.007035   -0.008242   -0.005828
 step:  27.9549(harm= 27.9549)  dis= 0.03831  next Energy=   -16.995410 (dE=-0.141E-01)
 bond charge predicted
       N       E                     dE             d eps       ncg     rms          rms(c)
DAV:   1    -0.169662206557E+02    0.22148E-01   -0.57468E+01   288   0.240E+01    0.338E-01
DAV:   2    -0.169961614266E+02   -0.29941E-01   -0.28337E-01   320   0.235E+00    0.264E-01
DAV:   3    -0.169960284151E+02    0.13301E-03   -0.43316E-03   320   0.278E-01    0.191E-01
DAV:   4    -0.169953958625E+02    0.63255E-03   -0.18998E-03   320   0.150E-01    0.710E-02
DAV:   5    -0.169954400102E+02   -0.44148E-04   -0.33328E-04   304   0.707E-02
  70 F= -.16995440E+02 E0= -.16995440E+02  d E =-.141011E-01  mag=     0.0000
 curvature: -30.30 expect dE=-0.373E-01 dE for cont linesearch -0.719E-04
 trial: gam= 1.47042 g(F)=  0.123E-02 g(S)=  0.000E+00 ort = 0.720E-04 (trialstep = 0.430E+01)
 search vector abs. value=  0.616E-02
 bond charge predicted
       N       E                     dE             d eps       ncg     rms          rms(c)
DAV:   1    -0.169968669430E+02   -0.14711E-02   -0.76321E+00   288   0.869E+00    0.868E-02
DAV:   2    -0.170009798112E+02   -0.41129E-02   -0.37902E-02   320   0.855E-01    0.761E-02
DAV:   3    -0.170009931416E+02   -0.13330E-04   -0.55472E-04   320   0.957E-02
  71 F= -.17000993E+02 E0= -.17000993E+02  d E =-.555313E-02  mag=     0.0000
 ZBRENT: can't locate minimum, use default step
 trial-energy change:   -0.005553  1 .order   -0.005605   -0.005754   -0.005456
 step:  17.1969(harm= 82.8452)  dis= 0.04509  next Energy=   -17.050881 (dE=-0.554E-01)
 bond charge predicted
       N       E                     dE             d eps       ncg     rms          rms(c)
DAV:   1    -0.169789745056E+02    0.22005E-01   -0.69206E+01   288   0.262E+01    0.270E-01
DAV:   2    -0.170145263992E+02   -0.35552E-01   -0.33750E-01   320   0.256E+00    0.256E-01
DAV:   3    -0.170143834542E+02    0.14294E-03   -0.50034E-03   336   0.291E-01    0.202E-01
DAV:   4    -0.170135069386E+02    0.87652E-03   -0.12995E-03   320   0.124E-01    0.113E-01
DAV:   5    -0.170133840396E+02    0.12290E-03   -0.13410E-03   320   0.120E-01    0.384E-02
DAV:   6    -0.170134220236E+02   -0.37984E-04   -0.21586E-05   208   0.187E-02
  72 F= -.17013422E+02 E0= -.17013422E+02  d E =-.179820E-01  mag=     0.0000
 curvature: -57.49 expect dE=-0.788E-01 dE for cont linesearch -0.553E-02
 ZBRENT: increasing intervall
 opt :  42.9923  next Energy=   -17.020397 (dE=-0.250E-01)
 bond charge predicted
       N       E                     dE             d eps       ncg     rms          rms(c)
DAV:   1    -0.168719860731E+02    0.14140E+00   -0.28180E+02   288   0.537E+01    0.684E-01
DAV:   2    -0.170171375213E+02   -0.14515E+00   -0.14084E+00   320   0.531E+00    0.554E-01
DAV:   3    -0.170163030276E+02    0.83449E-03   -0.21203E-02   320   0.618E-01    0.392E-01
DAV:   4    -0.170136060339E+02    0.26970E-02   -0.32468E-03   320   0.200E-01    0.255E-01
DAV:   5    -0.170127730475E+02    0.83299E-03   -0.44242E-03   320   0.216E-01    0.737E-02
DAV:   6    -0.170128685052E+02   -0.95458E-04   -0.61486E-05   208   0.345E-02
  73 F= -.17012869E+02 E0= -.17012869E+02  d E =-.174285E-01  mag=     0.0000
 curvature: -72.56 expect dE=-0.210E+00 dE for cont linesearch -0.462E-02
 ZBRENT: bracketing found
 ZBRENT: interpolating
 opt :  31.4195  next Energy=   -17.016492 (dE=-0.211E-01)
 bond charge predicted
       N       E                     dE             d eps       ncg     rms          rms(c)
DAV:   1    -0.169909898980E+02    0.21783E-01   -0.55662E+01   288   0.235E+01    0.259E-01
DAV:   2    -0.170189129086E+02   -0.27923E-01   -0.27123E-01   320   0.229E+00    0.207E-01
DAV:   3    -0.170186822944E+02    0.23061E-03   -0.39075E-03   320   0.257E-01    0.159E-01
DAV:   4    -0.170180872012E+02    0.59509E-03   -0.10605E-03   288   0.109E-01    0.757E-02
DAV:   5    -0.170180631569E+02    0.24044E-04   -0.66833E-04   320   0.853E-02
  74 F= -.17018063E+02 E0= -.17018063E+02  d E =-.226231E-01  mag=     0.0000
 curvature: -56.94 expect dE=-0.110E+00 dE for cont linesearch -0.259E-03
 trial: gam= 1.02943 g(F)=  0.193E-02 g(S)=  0.000E+00 ort =-0.167E-03 (trialstep = 0.738E+01)
 search vector abs. value=  0.812E-02
 bond charge predicted
       N       E                     dE             d eps       ncg     rms          rms(c)
DAV:   1    -0.170150608272E+02    0.30264E-02   -0.29759E+01   288   0.172E+01    0.183E-01
DAV:   2    -0.170301196142E+02   -0.15059E-01   -0.14572E-01   320   0.167E+00    0.160E-01
DAV:   3    -0.170300134362E+02    0.10618E-03   -0.20970E-03   320   0.187E-01    0.124E-01
DAV:   4    -0.170296361457E+02    0.37729E-03   -0.65612E-04   320   0.865E-02    0.601E-02
DAV:   5    -0.170296099171E+02    0.26229E-04   -0.40177E-04   304   0.674E-02
  75 F= -.17029610E+02 E0= -.17029610E+02  d E =-.115468E-01  mag=     0.0000
 ZBRENT: can't locate minimum, use default step
 trial-energy change:   -0.011547  1 .order   -0.011452   -0.013005   -0.009898
 step:  29.5135(harm= 30.8817)  dis= 0.09713  next Energy=   -17.045280 (dE=-0.272E-01)
 bond charge predicted
       N       E                     dE             d eps       ncg     rms          rms(c)
DAV:   1    -0.168989123132E+02    0.13072E+00   -0.27302E+02   288   0.527E+01    0.766E-01
DAV:   2    -0.170421888694E+02   -0.14328E+00   -0.13815E+00   320   0.524E+00    0.531E-01
DAV:   3    -0.170415261532E+02    0.66272E-03   -0.21024E-02   320   0.611E-01    0.360E-01
DAV:   4    -0.170389765668E+02    0.25496E-02   -0.42358E-03   320   0.226E-01    0.200E-01
DAV:   5    -0.170386264083E+02    0.35016E-03   -0.30881E-03   288   0.184E-01    0.557E-02
DAV:   6    -0.170386799255E+02   -0.53517E-04   -0.83818E-05   224   0.338E-02
  76 F= -.17038680E+02 E0= -.17038680E+02  d E =-.206168E-01  mag=     0.0000
 curvature: -70.90 expect dE=-0.155E+00 dE for cont linesearch -0.133E-03
 trial: gam= 0.86495 g(F)=  0.218E-02 g(S)=  0.000E+00 ort =-0.123E-03 (trialstep = 0.118E+02)
 search vector abs. value=  0.805E-02
 bond charge predicted
       N       E                     dE             d eps       ncg     rms          rms(c)
DAV:   1    -0.170155010405E+02    0.23125E-01   -0.75865E+01   288   0.274E+01    0.340E-01
DAV:   2    -0.170552604446E+02   -0.39759E-01   -0.38198E-01   320   0.270E+00    0.262E-01
DAV:   3    -0.170549952571E+02    0.26519E-03   -0.56902E-03   320   0.312E-01    0.190E-01
DAV:   4    -0.170542019355E+02    0.79332E-03   -0.16070E-03   288   0.143E-01    0.885E-02
DAV:   5    -0.170542044952E+02   -0.25596E-05   -0.78103E-04   320   0.960E-02
  77 F= -.17054204E+02 E0= -.17054204E+02  d E =-.155246E-01  mag=    -0.0000
 trial-energy change:   -0.015525  1 .order   -0.016107   -0.024523   -0.007691
 step:  20.1648(harm= 17.2000)  dis= 0.05464  next Energy=   -17.056721 (dE=-0.180E-01)
 bond charge predicted
       N       E                     dE             d eps       ncg     rms          rms(c)
DAV:   1    -0.170346099384E+02    0.19592E-01   -0.37886E+01   288   0.193E+01    0.239E-01
DAV:   2    -0.170539935223E+02   -0.19384E-01   -0.18977E-01   320   0.190E+00    0.185E-01
DAV:   3    -0.170538939287E+02    0.99594E-04   -0.28171E-03   320   0.219E-01    0.133E-01
DAV:   4    -0.170535414544E+02    0.35247E-03   -0.86462E-04   288   0.106E-01    0.589E-02
DAV:   5    -0.170535830332E+02   -0.41579E-04   -0.33240E-04   240   0.653E-02
  78 F= -.17053583E+02 E0= -.17053583E+02  d E =-.149031E-01  mag=    -0.0000
 curvature: -23.25 expect dE=-0.318E-01 dE for cont linesearch -0.105E-02
 ZBRENT: interpolating
 opt :  16.1476  next Energy=   -17.054794 (dE=-0.161E-01)
 bond charge predicted
       N       E                     dE             d eps       ncg     rms          rms(c)
DAV:   1    -0.170509426490E+02    0.25988E-02   -0.87426E+00   288   0.928E+00    0.101E-01
DAV:   2    -0.170554097430E+02   -0.44671E-02   -0.43091E-02   304   0.907E-01    0.920E-02
DAV:   3    -0.170554037604E+02    0.59827E-05   -0.64044E-04   336   0.105E-01
  79 F= -.17055404E+02 E0= -.17055404E+02  d E =-.167238E-01  mag=    -0.0000
 curvature: -26.81 expect dE=-0.250E-01 dE for cont linesearch -0.494E-04
 trial: gam= 0.29601 g(F)=  0.934E-03 g(S)=  0.000E+00 ort =-0.122E-03 (trialstep = 0.127E+02)
 search vector abs. value=  0.157E-02
 bond charge predicted
       N       E                     dE             d eps       ncg     rms          rms(c)
DAV:   1    -0.170555836177E+02   -0.17387E-03   -0.16956E+01   288   0.129E+01    0.160E-01
DAV:   2    -0.170641915095E+02   -0.86079E-02   -0.86024E-02   288   0.128E+00    0.132E-01
DAV:   3    -0.170641746632E+02    0.16846E-04   -0.13920E-03   320   0.166E-01    0.909E-02
DAV:   4    -0.170640342359E+02    0.14043E-03   -0.23906E-04   208   0.592E-02    0.521E-02
DAV:   5    -0.170640377047E+02   -0.34688E-05   -0.28090E-04   288   0.591E-02
  80 F= -.17064038E+02 E0= -.17064038E+02  d E =-.863394E-02  mag=    -0.0000
 trial-energy change:   -0.008634  1 .order   -0.008813   -0.011379   -0.006248
 step:  28.1040(harm= 28.1040)  dis= 0.04593  next Energy=   -17.068020 (dE=-0.126E-01)
 bond charge predicted
       N       E                     dE             d eps       ncg     rms          rms(c)
DAV:   1    -0.170542728966E+02    0.97613E-02   -0.25161E+01   288   0.157E+01    0.202E-01
DAV:   2    -0.170668185783E+02   -0.12546E-01   -0.12678E-01   288   0.155E+00    0.170E-01
DAV:   3    -0.170667584592E+02    0.60119E-04   -0.20150E-03   320   0.197E-01    0.117E-01
DAV:   4    -0.170665192884E+02    0.23917E-03   -0.47537E-04   288   0.793E-02    0.618E-02
DAV:   5    -0.170665188454E+02    0.44307E-06   -0.29611E-04   272   0.595E-02
  81 F= -.17066519E+02 E0= -.17066519E+02  d E =-.111151E-01  mag=    -0.0000
 curvature: -24.52 expect dE=-0.175E-01 dE for cont linesearch -0.114E-03
 trial: gam= 0.72745 g(F)=  0.714E-03 g(S)=  0.000E+00 ort =-0.855E-04 (trialstep = 0.158E+02)
 search vector abs. value=  0.142E-02
 bond charge predicted
       N       E                     dE             d eps       ncg     rms          rms(c)
DAV:   1    -0.170613284774E+02    0.51908E-02   -0.23726E+01   288   0.154E+01    0.179E-01
DAV:   2    -0.170732395919E+02   -0.11911E-01   -0.11754E-01   304   0.151E+00    0.151E-01
DAV:   3    -0.170731792548E+02    0.60337E-04   -0.17908E-03   320   0.176E-01    0.111E-01
DAV:   4    -0.170729409969E+02    0.23826E-03   -0.45051E-04   288   0.785E-02    0.580E-02
DAV:   5    -0.170729379366E+02    0.30603E-05   -0.27740E-04   240   0.576E-02
  82 F= -.17072938E+02 E0= -.17072938E+02  d E =-.641909E-02  mag=     0.0000
 trial-energy change:   -0.006419  1 .order   -0.007022   -0.010267   -0.003778
 step:  24.9355(harm= 24.9355)  dis= 0.03288  next Energy=   -17.074641 (dE=-0.812E-02)
 bond charge predicted
       N       E                     dE             d eps       ncg     rms          rms(c)
DAV:   1    -0.170695488613E+02    0.33921E-02   -0.80284E+00   288   0.896E+00    0.106E-01
DAV:   2    -0.170735835919E+02   -0.40347E-02   -0.39870E-02   304   0.879E-01    0.872E-02
DAV:   3    -0.170735701038E+02    0.13488E-04   -0.60587E-04   320   0.102E-01
  83 F= -.17073570E+02 E0= -.17073570E+02  d E =-.705126E-02  mag=     0.0000
 curvature: -27.15 expect dE=-0.137E-01 dE for cont linesearch -0.855E-04
 trial: gam= 0.63878 g(F)=  0.504E-03 g(S)=  0.000E+00 ort =-0.668E-04 (trialstep = 0.176E+02)
 search vector abs. value=  0.998E-03
 bond charge predicted
       N       E                     dE             d eps       ncg     rms          rms(c)
DAV:   1    -0.170680750142E+02    0.55086E-02   -0.20779E+01   288   0.145E+01    0.191E-01
DAV:   2    -0.170783160600E+02   -0.10241E-01   -0.10207E-01   288   0.141E+00    0.143E-01
DAV:   3    -0.170782323604E+02    0.83700E-04   -0.15998E-03   320   0.171E-01    0.104E-01
DAV:   4    -0.170780363394E+02    0.19602E-03   -0.53573E-04   288   0.805E-02    0.396E-02
DAV:   5    -0.170780489776E+02   -0.12638E-04   -0.12590E-04   208   0.438E-02
  84 F= -.17078049E+02 E0= -.17078049E+02  d E =-.447887E-02  mag=     0.0000
 trial-energy change:   -0.004479  1 .order   -0.004851   -0.008122   -0.001580
 step:  21.8450(harm= 21.8450)  dis= 0.02385  next Energy=   -17.078612 (dE=-0.504E-02)
 bond charge predicted
       N       E                     dE             d eps       ncg     rms          rms(c)
DAV:   1    -0.170774872714E+02    0.54907E-03   -0.12064E+00   288   0.348E+00    0.482E-02
DAV:   2    -0.170780880903E+02   -0.60082E-03   -0.59891E-03   320   0.339E-01    0.329E-02
DAV:   3    -0.170780900297E+02   -0.19394E-05   -0.83194E-05   192   0.418E-02
  85 F= -.17078090E+02 E0= -.17078090E+02  d E =-.451993E-02  mag=     0.0000
 curvature: -23.61 expect dE=-0.736E-02 dE for cont linesearch -0.423E-03
 trial: gam= 0.00000 g(F)=  0.312E-03 g(S)=  0.000E+00 ort =-0.134E-03 (trialstep = 0.184E+02)
 search vector abs. value=  0.312E-03
 bond charge predicted
       N       E                     dE             d eps       ncg     rms          rms(c)
DAV:   1    -0.170764035053E+02    0.16846E-02   -0.71583E+00   288   0.847E+00    0.159E-01
DAV:   2    -0.170798367002E+02   -0.34332E-02   -0.34841E-02   288   0.819E-01    0.120E-01
DAV:   3    -0.170798168273E+02    0.19873E-04   -0.59801E-04   320   0.993E-02
  86 F= -.17079817E+02 E0= -.17079817E+02  d E =-.172680E-02  mag=     0.0000
 trial-energy change:   -0.001727  1 .order   -0.001733   -0.005753    0.002288
 step:  13.1970(harm= 13.1970)  dis= 0.00799  next Energy=   -17.080148 (dE=-0.206E-02)
 bond charge predicted
       N       E                     dE             d eps       ncg     rms          rms(c)
DAV:   1    -0.170798179209E+02    0.18779E-04   -0.57529E-01   288   0.240E+00    0.324E-02
DAV:   2    -0.170801013301E+02   -0.28341E-03   -0.27911E-03   320   0.236E-01    0.276E-02
DAV:   3    -0.170801024473E+02   -0.11172E-05   -0.42985E-05   192   0.296E-02
  87 F= -.17080102E+02 E0= -.17080102E+02  d E =-.201242E-02  mag=     0.0000
 curvature:  -6.60 expect dE=-0.113E-02 dE for cont linesearch -0.258E-04
 trial: gam= 0.43784 g(F)=  0.172E-03 g(S)=  0.000E+00 ort = 0.349E-04 (trialstep = 0.174E+02)
 search vector abs. value=  0.262E-03
 bond charge predicted
       N       E                     dE             d eps       ncg     rms          rms(c)
DAV:   1    -0.170796741347E+02    0.42720E-03   -0.53204E+00   288   0.725E+00    0.810E-02
DAV:   2    -0.170823843125E+02   -0.27102E-02   -0.26304E-02   288   0.711E-01    0.698E-02
DAV:   3    -0.170823740914E+02    0.10221E-04   -0.39288E-04   304   0.823E-02
  88 F= -.17082374E+02 E0= -.17082374E+02  d E =-.227164E-02  mag=     0.0000
 trial-energy change:   -0.002272  1 .order   -0.002278   -0.003250   -0.001307
 step:  29.0995(harm= 29.0995)  dis= 0.01753  next Energy=   -17.082820 (dE=-0.272E-02)
 bond charge predicted
       N       E                     dE             d eps       ncg     rms          rms(c)
DAV:   1    -0.170818221132E+02    0.56220E-03   -0.24182E+00   288   0.489E+00    0.660E-02
DAV:   2    -0.170829922213E+02   -0.11701E-02   -0.11562E-02   288   0.473E-01    0.588E-02
DAV:   3    -0.170829729382E+02    0.19283E-04   -0.15406E-04   192   0.530E-02
  89 F= -.17082973E+02 E0= -.17082973E+02  d E =-.287049E-02  mag=     0.0000
 curvature: -20.40 expect dE=-0.290E-02 dE for cont linesearch -0.748E-04
 trial: gam= 0.87629 g(F)=  0.142E-03 g(S)=  0.000E+00 ort =-0.310E-04 (trialstep = 0.179E+02)
 search vector abs. value=  0.289E-03
 bond charge predicted
       N       E                     dE             d eps       ncg     rms          rms(c)
DAV:   1    -0.170820893142E+02    0.90291E-03   -0.61973E+00   288   0.781E+00    0.925E-02
DAV:   2    -0.170850947928E+02   -0.30055E-02   -0.29089E-02   288   0.744E-01    0.793E-02
DAV:   3    -0.170850721020E+02    0.22691E-04   -0.42531E-04   320   0.846E-02
  90 F= -.17085072E+02 E0= -.17085072E+02  d E =-.209916E-02  mag=     0.0000
 trial-energy change:   -0.002099  1 .order   -0.001772   -0.002056   -0.001487
 step:  64.6552(harm= 64.6552)  dis= 0.04496  next Energy=   -17.086688 (dE=-0.372E-02)
 bond charge predicted
       N       E                     dE             d eps       ncg     rms          rms(c)
DAV:   1    -0.170634211108E+02    0.21674E-01   -0.42372E+01   288   0.205E+01    0.267E-01
DAV:   2    -0.170838107728E+02   -0.20390E-01   -0.19943E-01   320   0.195E+00    0.219E-01
DAV:   3    -0.170835589047E+02    0.25187E-03   -0.29834E-03   320   0.226E-01    0.158E-01
DAV:   4    -0.170830343833E+02    0.52452E-03   -0.13812E-03   288   0.125E-01    0.631E-02
DAV:   5    -0.170830491580E+02   -0.14775E-04   -0.29873E-04   272   0.627E-02
  91 F= -.17083049E+02 E0= -.17083049E+02  d E =-.762198E-04  mag=     0.0000
 curvature: -81.26 expect dE=-0.474E-01 dE for cont linesearch -0.624E-02
 ZBRENT: interpolating
 opt :  34.6460  next Energy=   -17.085768 (dE=-0.280E-02)
 bond charge predicted
       N       E                     dE             d eps       ncg     rms          rms(c)
DAV:   1    -0.170775363917E+02    0.54980E-02   -0.17418E+01   288   0.131E+01    0.149E-01
DAV:   2    -0.170859079601E+02   -0.83716E-02   -0.81462E-02   304   0.125E+00    0.134E-01
DAV:   3    -0.170858308471E+02    0.77113E-04   -0.11880E-03   320   0.141E-01    0.103E-01
DAV:   4    -0.170856003250E+02    0.23052E-03   -0.51147E-04   288   0.761E-02    0.453E-02
DAV:   5    -0.170856044105E+02   -0.40856E-05   -0.18233E-04   208   0.490E-02
  92 F= -.17085604E+02 E0= -.17085604E+02  d E =-.263147E-02  mag=     0.0000
 curvature:  -9.07 expect dE=-0.119E-02 dE for cont linesearch -0.232E-04
 trial: gam= 0.00000 g(F)=  0.131E-03 g(S)=  0.000E+00 ort =-0.272E-04 (trialstep = 0.212E+02)
 search vector abs. value=  0.131E-03
 bond charge predicted
       N       E                     dE             d eps       ncg     rms          rms(c)
DAV:   1    -0.170843069997E+02    0.12933E-02   -0.39995E+00   288   0.631E+00    0.131E-01
DAV:   2    -0.170861896612E+02   -0.18827E-02   -0.19900E-02   288   0.606E-01    0.867E-02
DAV:   3    -0.170861671616E+02    0.22500E-04   -0.35058E-04   256   0.816E-02
  93 F= -.17086167E+02 E0= -.17086167E+02  d E =-.562751E-03  mag=     0.0000
 trial-energy change:   -0.000563  1 .order   -0.000172   -0.002782    0.002438
 step:  11.3212(harm= 11.3212)  dis= 0.00510  next Energy=   -17.086346 (dE=-0.741E-03)
 bond charge predicted
       N       E                     dE             d eps       ncg     rms          rms(c)
DAV:   1    -0.170860358557E+02    0.15381E-03   -0.86508E-01   288   0.293E+00    0.534E-02
DAV:   2    -0.170864552708E+02   -0.41942E-03   -0.42529E-03   288   0.284E-01    0.380E-02
DAV:   3    -0.170864496139E+02    0.56569E-05   -0.70647E-05   176   0.374E-02
  94 F= -.17086450E+02 E0= -.17086450E+02  d E =-.845203E-03  mag=     0.0000
 curvature:  -5.66 expect dE=-0.280E-03 dE for cont linesearch -0.999E-04
 trial: gam= 0.01070 g(F)=  0.495E-04 g(S)=  0.000E+00 ort = 0.481E-04 (trialstep = 0.193E+02)
 search vector abs. value=  0.505E-04
 reached required accuracy - stopping structural energy minimisation
Application 90920254 resources: utime ~16565s, stime ~297s, Rss ~54460, inblocks ~83495, outblocks ~156358
