15
Energy = -79.72047115 eV
Rh 10.356020437038818 8.73804811847744 6.585583149289202
Rh 8.289284561998453 8.178943706162425 5.16353729701631
Rh 10.308589706917175 6.682050961663584 5.054316865488298
Rh 8.027182775265805 9.222543928465369 7.444218969041914
Rh 8.203746931840804 5.890088407441472 6.179826455761781
Rh 10.275465132491613 6.445306731478286 7.60815793449774
Rh 6.257712520276004 7.553877933639193 6.6662972143289885
Rh 5.677898371187351 9.593618931117346 8.233056266236737
Rh 5.609271438335927 7.324916863483499 9.215566512038526
Rh 7.95157399108819 6.897159419749107 8.46715510407573
Rh 9.831748908674443 8.49411048369178 9.068884156816562
Rh 7.813746350313454 10.798361011260962 9.278721292161034
Rh 7.714858405662559 7.140123134388267 10.863695418377935
Rh 6.414603502617049 9.26481350853147 10.664293795491872
Rh 8.880710782312542 9.3884506764697 11.119103385396832
