13
Energy = -68.39657355 eV
Rh 9.973716 11.774947832219993 11.864983020803583
Rh 11.244664584382788 11.210596679655515 9.62383726695285
Rh 11.702728055172406 9.973716 11.859529907776938
Rh 7.729180473646966 9.973716 7.574321149101605
Rh 8.244703944827592 9.973716 11.859529907776938
Rh 8.702767415617211 8.736835320344483 9.62383726695285
Rh 9.973716 8.721322522822607 7.438001649707648
Rh 12.218251526353033 9.973716 7.574321149101605
Rh 9.973716 8.172484167780004 11.864983020803583
Rh 11.244664584382788 8.736835320344483 9.62383726695285
Rh 8.702767415617211 11.210596679655515 9.62383726695285
Rh 9.973716 11.226109477177394 7.438001649707648
Rh 9.973716 9.973716 13.689287401049869
