13
Energy = -68.28598211 eV
Rh 10.137242890612269 12.422423556471932 12.150667389587067
Rh 8.325682004733393 8.303244781815172 9.988112
Rh 8.956892591120816 10.36282750141141 11.321528371537761
Rh 8.956892591120816 10.36282750141141 8.654695628462232
Rh 10.137242890612269 12.422423556471932 7.825556610412937
Rh 11.118888312723533 11.531070165363898 9.988112
Rh 10.966440236502217 8.940437555846648 9.988112
Rh 11.306594942067521 10.160337477197507 7.771612448674169
Rh 11.306594942067521 10.160337477197507 12.204611551325824
Rh 9.829570490558286 8.051539165648768 7.928078509454173
Rh 10.158404629715122 6.522483193370286 9.988112
Rh 8.815438911248856 12.553964825785485 9.988112
Rh 9.829570490558286 8.051539165648768 12.048145490545823
