12
Energy = -61.84310525 eV
Rh 7.811195867239632 9.008153742314315 7.530375840093806
Rh 6.4754758640512815 10.18709017608391 9.464604405666861
Rh 8.668580480803216 11.028210193746428 8.819809636725687
Rh 10.229690152845421 9.080547526486928 8.172410612195968
Rh 7.178341253994973 10.041449583228285 11.76673850422246
Rh 8.44015364002381 8.628306432776256 10.000504667616761
Rh 11.156377752303078 11.185635407945906 9.40371245539767
Rh 10.905788427353858 8.84337548740449 10.629895097597025
Rh 12.291502695857496 7.9740565071563525 8.643191806768462
Rh 9.384984087775836 10.774102141155124 11.26042244754111
Rh 11.835957019213593 10.86476766382771 11.867332487749461
Rh 13.142754368475746 9.893456071411435 9.84094699578432
