12
Energy = -62.54977906 eV
Rh 10.126612862474023 12.508169501482003 9.979991
Rh 11.084399827294458 10.510793570669215 11.239524136908683
Rh 9.112320001046943 11.796618875834765 12.221147382894818
Rh 10.847661998953054 8.16336312416523 7.738834617105186
Rh 9.112320001046943 11.796618875834765 7.738834617105186
Rh 8.875582172705547 9.449188429330786 8.720457863091319
Rh 9.833369137525978 7.451812498518003 9.979991
Rh 10.847661998953054 8.16336312416523 12.221147382894818
Rh 7.9228811612019285 11.44512564809555 9.979991
Rh 8.875582172705547 9.449188429330786 11.239524136908683
Rh 11.084399827294458 10.510793570669215 8.720457863091319
Rh 12.037100838798073 8.514856351904458 9.979991
