15
Energy = -79.67471945 eV
Rh 11.942151050179048 9.480503748751715 9.433489591959155
Rh 10.90460057758003 9.514503738288397 11.790243185639016
Rh 10.780825273446043 7.381816332449982 10.338346268968346
Rh 10.773759123931693 11.678166751047414 10.126082945164766
Rh 10.310781889540005 8.192043280583365 7.849523439021082
Rh 8.646099431191413 8.04421528665776 11.682373319737474
Rh 10.678972978043165 10.852401783067538 7.658608197847668
Rh 9.308941010685734 9.664389549799923 9.865523789029464
Rh 8.559922733843376 11.835587647338293 8.789937426910157
Rh 8.443232225803248 7.193419856007838 9.361086339103798
Rh 8.33419683317165 9.765241121636182 7.415214901831341
Rh 8.141708599275633 7.291290287625583 6.844812228674411
Rh 6.821181315586773 9.153856007590912 9.372766716657114
Rh 6.176938994437661 6.858923012444397 8.439493445597643
Rh 6.086455035681595 8.838410606728036 6.928044600316855
