10
Energy = -50.09370304 eV
Rh 11.05111439711995 8.71204756175297 8.06404285677149
Rh 10.314198370605599 10.156144352634643 10.035097005902964
Rh 9.303775473336515 7.886751872540147 9.711789194773884
Rh 8.949222059681922 7.77719475338763 7.109905625668398
Rh 8.970278122005412 10.201784472519279 7.976630961126266
Rh 6.880322106775395 9.374216440380005 7.081195476611911
Rh 7.718561715766948 9.936219906390827 10.143899778110372
Rh 6.652902977390848 6.7813640075325905 6.946490299660142
Rh 8.275833585596086 5.877900394241113 8.68025698415856
Rh 6.805287958168403 7.926012385040664 9.129584132562258
