28
Energy = -159.00072586 eV
Rh 16.136021253290313 15.52573458387442 10.589743385346361
Rh 12.833296414200436 12.087704693087979 9.237549269123267
Rh 12.368996390531015 10.148647533919386 12.872785031737305
Rh 10.876936056741789 10.354608657389955 9.816013776757114
Rh 14.79408520313539 9.420563036139981 12.464022262690387
Rh 10.343769759426797 10.409909459664178 14.533326106672131
Rh 9.854562279170048 14.586924761357972 11.8632286272949
Rh 11.67967819180242 8.230761739184087 11.265428555892452
Rh 14.561859573618337 13.768480217535444 9.841078694932518
Rh 13.25969842974877 9.940052694771468 10.511226425839086
Rh 16.177833363363703 13.484146653579176 11.897943889556759
Rh 13.369303460472143 12.456177696177784 11.783059139835544
Rh 12.035891547692838 14.302285669743203 13.097541486297507
Rh 8.506993001961915 11.541867929540873 10.8897534535419
Rh 8.338620252643286 13.92785739850488 9.979937636640226
Rh 10.768857901063862 12.151132712567179 11.74995336330588
Rh 9.72220762726142 12.78626543143104 13.904786863790232
Rh 9.907498527080506 9.698001414547901 12.146827123556548
Rh 12.184338755196752 12.146564516526418 14.404619473465699
Rh 10.362474551902315 12.779634514694555 9.251315368900666
Rh 14.2252500382892 10.665552168994761 14.634851401074533
Rh 14.114742983699614 15.074673283918626 11.980122269361408
Rh 7.700666401763268 13.364268403660375 12.432922704937509
Rh 16.249419591628104 11.36002791293433 13.213070151096327
Rh 14.4930635329797 13.098150493225287 13.859760138746905
Rh 15.329941522032652 11.318328015756157 10.806518628122898
Rh 8.066498119164386 10.915632728368713 13.361233260507623
Rh 12.027265339716829 14.314983627172754 10.456793782791662
