21
Energy = -114.45353027 eV
Rh 13.322456791513245 9.40704344811366 12.704000757596175
Rh 8.22030494555162 11.638574277533557 7.4939294998605
Rh 8.848384764326575 11.668887704953283 10.038111081584757
Rh 13.017683952087175 13.902554123130239 11.141217640502477
Rh 13.776614688045 11.209150172256996 14.130463128140951
Rh 12.133497391834211 12.691619624632752 13.029560679988379
Rh 10.836112573261426 7.838200266712107 11.393978298560672
Rh 10.070811813115217 9.351002568363903 9.505122453980803
Rh 10.730395777069885 11.547749389577362 8.250276729739852
Rh 10.681503947153493 13.615517120919051 10.560319337878248
Rh 6.898707098662361 10.14766513498536 10.64181012151798
Rh 9.307439614924979 13.64189834642997 8.568060463699169
Rh 7.787103018191376 9.441276262291465 8.517725812460252
Rh 12.551945198912968 11.912108732866807 9.788292271131743
Rh 10.96735539178696 11.234496632797514 11.597266229453538
Rh 12.468161186909589 9.525674002386447 10.347903482322346
Rh 13.244425952125935 7.367345461962916 11.443152745375507
Rh 8.987315332278673 9.676003909625107 11.74481876349639
Rh 11.503006129847773 11.21034659436636 14.9330970809993
Rh 10.998844445523783 9.51192299421276 13.328097864099586
Rh 9.802038829916702 9.612692030492424 6.982626268171596
