28
Energy = -158.80760952 eV
Rh 10.65904251966605 14.714629495643335 10.501012695218579
Rh 12.65626358737213 13.242423078825436 10.07453011782639
Rh 11.575122138000475 14.3761698078837 8.128990268432801
Rh 11.297347139988373 12.777589565036534 12.202349931383742
Rh 9.28506245345404 13.945829930846322 7.154014118922991
Rh 8.803831932354823 13.698507081803529 11.98049976711226
Rh 8.52526509378545 13.819409624008467 9.482768618872855
Rh 10.234295058436555 11.956830503916041 9.992091489501455
Rh 13.165738761767109 11.602804470179473 8.268439576318464
Rh 12.559460685672507 10.83305546826258 10.643903545805468
Rh 10.843913420978653 12.011601166831909 7.546804108992981
Rh 9.26406092835479 11.289825772475398 12.555732373773205
Rh 8.310344454460052 11.711056359252485 7.990801468525568
Rh 7.718323529497192 11.58181611418149 10.552590241848577
Rh 11.367801664573236 9.761802810229664 8.624079508150228
Rh 8.87047393236927 9.645612951570726 9.138599934274616
Rh 11.618205729811413 10.423955883133207 13.178949220896152
Rh 7.947792626830246 9.284156803366463 11.652891010182097
Rh 12.96508958907792 8.671745737764395 11.803042006050154
Rh 10.003462368887293 7.627823018790907 8.115508988504532
Rh 10.5133859358572 9.164524002192653 11.19331089068647
Rh 9.470722515273058 9.065920980804744 13.719708206028361
Rh 11.866682432920776 7.529518749157646 9.746088510440558
Rh 11.773287889056375 7.875063388213559 13.85563015999949
Rh 8.558259082615669 7.357690098761298 10.171073907318249
Rh 12.361380038954175 6.206575643169523 11.849986558141413
Rh 10.338635615304128 5.634273699037357 10.136314979362734
Rh 10.025061631681194 6.970056839960609 12.277879825983884
