21
Energy = -113.60959978 eV
Rh 10.580948292964065 13.124328847812475 8.913236113674644
Rh 13.663160532621442 9.000989266931176 11.727538877902427
Rh 11.005545672458087 7.264774004008512 12.343784744734819
Rh 11.61847983478103 13.6465829979839 11.183512652064788
Rh 12.78368111732087 6.986369071526067 10.709249894735725
Rh 9.772097220406867 11.973914775356027 11.049372038411027
Rh 7.539139472445458 12.663268071533349 10.44943898182525
Rh 7.9719903834445285 11.026466214876093 6.184054282309644
Rh 6.632567086772852 10.466739522149153 10.535635628126647
Rh 14.244278687055946 11.247705737874009 11.27944551225212
Rh 8.923417087365218 9.616731522461986 10.733628083388409
Rh 12.152844385799463 11.424141781313308 10.05222744143933
Rh 9.578297826305793 9.348085563307352 6.752931304553486
Rh 12.368251785907983 8.673937789235787 13.711264736898052
Rh 8.37933506741574 12.23406266790216 8.186938957274801
Rh 7.66643525530606 9.828691525840068 8.430163033638737
Rh 11.225988478262575 10.525769922324828 12.51956897720714
Rh 10.211738286856832 10.541326569230284 8.684866367316715
Rh 12.713014252511842 12.32848037017644 12.89144521492173
Rh 9.371423159766337 8.913341453095157 12.976509347571282
Rh 11.409568059903517 9.024653071490851 10.425225217591306
