34
Energy = -194.28225159 eV
Rh 14.057371264116409 9.981086006397472 13.932594287615457
Rh 11.605871100446972 13.496937870618806 7.745782777219333
Rh 9.148503004654023 6.992290294005243 12.550781296857762
Rh 14.986372908631882 10.961586754392368 9.636794545806977
Rh 9.60333809482633 10.745856139037722 11.64502873743955
Rh 11.921957439786283 10.56955098347931 12.871778239011332
Rh 8.373477083941275 9.87248569011402 8.44239088288831
Rh 13.92528255053436 11.949010557570443 11.866509263760404
Rh 11.278268869614305 11.783628149714707 9.86254852647396
Rh 10.30056406647007 11.239454578245647 7.483955241154216
Rh 6.4211517123185855 8.36467676202052 9.559215051160928
Rh 10.412291062761964 6.880290856043111 14.638291079990884
Rh 10.276722646689503 14.163548105097739 10.043540041217597
Rh 8.731109828215816 13.128038619860213 11.786332438842624
Rh 8.745172119021563 12.135046110405023 9.482855713540905
Rh 6.648409420129537 12.124447365679337 12.398273563968988
Rh 14.206799918207999 12.922162963321492 8.460111698996492
Rh 12.04287715586637 15.55673106582087 9.000717396300828
Rh 7.5806817921158896 10.031888900665255 13.111241751550951
Rh 15.113667943319703 9.64534541335089 11.783385107188279
Rh 11.08323867392005 8.472061648318084 11.60106273579559
Rh 12.839510397452731 10.847350895007645 8.115241079296908
Rh 12.892599029970425 13.662680195352612 10.352666237836779
Rh 12.911906240015165 9.904390825468068 10.600825186625375
Rh 9.869226420337933 9.229798923761024 13.78934168005798
Rh 10.79608814359774 9.376769100463195 9.191433119737349
Rh 7.734673248379704 7.944758532086463 14.445209179832696
Rh 11.232321995519046 12.835696021285967 12.165455866265741
Rh 7.060514402699682 10.525861554526255 10.557068307848224
Rh 13.682816178851196 13.719403399338812 6.3009038182304735
Rh 12.278352120620863 8.237087852182434 13.832946761257489
Rh 6.8714723201466885 7.92287908856839 12.00401512894639
Rh 8.808986618634806 8.44602090852461 10.477915420520153
Rh 12.192227881030137 11.842672055563208 5.913794566221195
