39
Energy = -229.05384271 eV
Rh 10.069786377541087 7.588858107691118 8.295643134399935
Rh 12.457827812441497 8.579277614199164 8.992042667250374
Rh 11.05269528867381 12.461282670601156 7.196018436009361
Rh 10.592116005569798 10.001984351271185 7.837136046413734
Rh 13.304517687171234 13.526850380365774 7.751360296522225
Rh 14.99997619989686 12.233585967758316 9.345005036549864
Rh 16.478916604173605 10.946771812039872 10.962766274101599
Rh 14.505675346391318 9.735882334729018 9.93675596906737
Rh 12.81542616367643 11.105000295013653 8.517250039553018
Rh 10.936051487383855 7.053995493748673 10.593534354796843
Rh 8.34765050834196 9.34934170304041 9.027262373106142
Rh 8.722694980273788 11.766781207864074 8.132979671043026
Rh 9.141092489679545 14.142999336265 7.262271605605243
Rh 11.095453757671768 14.607183247821295 8.81652174682315
Rh 12.795957026154767 8.48756536952443 11.618816711800624
Rh 10.54911916290411 9.600786500947683 10.452198160897767
Rh 12.938000236554442 13.476393360220637 10.222783100699196
Rh 10.741398603728785 12.151003524105825 9.736341016000619
Rh 14.665122738570574 10.069088772617954 12.512208413155108
Rh 8.371968173931444 11.369930044199398 10.658962861486419
Rh 10.74500643253288 14.3658398056309 11.348695747202823
Rh 10.49713161645874 8.44542957621475 12.774593785069873
Rh 14.716102024036058 12.571236133950354 11.868930805207713
Rh 10.39140413895511 11.594717609465377 12.46586129359829
Rh 8.460081988153572 6.905980339803986 10.153633117079726
Rh 12.292282072112213 10.149803357203462 13.58358102733134
Rh 12.65592897883177 11.042302745580674 11.175902572315524
Rh 8.771279295943732 13.81787532682932 9.755330522649668
Rh 8.289208142817404 8.924524632559288 11.56763895848934
Rh 10.555661730240212 14.494877589793173 13.855657491608742
Rh 14.120812266693356 11.859398853756284 14.265281977420058
Rh 8.165637104738451 8.42380551932053 13.986095429078746
Rh 12.400643339167162 13.152085675404797 12.815310630628193
Rh 8.504404332186924 13.344563820256301 12.339154042678938
Rh 7.963999727123413 10.888827558733395 13.154072987872828
Rh 11.776446377809602 12.161705973415524 15.132482407758676
Rh 9.293136672769176 12.557182599022514 14.688058132956595
Rh 10.196701647237568 11.291862189115061 16.77344501213398
Rh 9.907661038260516 10.038394176717249 14.713391720435158
