32
Energy = -184.33267376 eV
Rh 15.00430577029203 14.860862089901026 10.005777798046903
Rh 12.555965580595684 14.945054365950801 10.480225191078574
Rh 11.29787328393121 14.067004256164356 14.986659116541265
Rh 10.85261565676341 11.459444361458408 11.451040765834613
Rh 13.10908516873638 14.913445040346174 8.033797867341162
Rh 12.100415578787347 11.738960320560137 16.156656033608456
Rh 11.362954654230775 13.172860958930661 8.013537155043261
Rh 10.326422940014822 10.967556664063205 9.099791379246259
Rh 12.77531656631697 11.087146480209045 7.842018983426593
Rh 9.039079979540523 12.954160513446414 12.50600500108848
Rh 10.328777617667813 9.024458033043084 10.935294047452897
Rh 10.254309598686037 13.613643179715528 10.243375649855004
Rh 11.403710204359605 14.051921465624067 12.539080840324404
Rh 9.53545871672057 9.680351511627258 13.294607476940685
Rh 12.635124471519095 9.948427776711762 10.173310315102306
Rh 13.050663244673581 12.043707141842352 12.612513098611494
Rh 15.541712289221058 12.165480590421804 13.359563790069407
Rh 15.15971718921737 12.438563368591065 10.843266188336788
Rh 12.731019981728457 12.52177216920506 10.080484195958352
Rh 9.236780297514597 10.688666086611718 15.63431200106405
Rh 13.743639767820842 10.479037071772698 14.488851860791282
Rh 14.573862721677731 10.132900820035543 11.933273140288847
Rh 14.123769148073848 14.287061566173548 12.434859811910938
Rh 8.95350036170967 13.191612999280403 15.036300682619286
Rh 12.165641762543597 9.537575823854777 12.708450631506471
Rh 14.546463888723414 12.895372144877705 8.426031740173693
Rh 10.82330081386306 11.759286787741818 14.002171513390879
Rh 13.681548558945993 13.163471359162473 14.79593098932285
Rh 14.916129838340524 10.45018130865409 9.250519708607223
Rh 7.610826986765193 11.299977614398191 13.695282374845764
Rh 11.429033909408968 9.460581100983866 15.203829288783332
Rh 8.421151158242147 10.77480032250021 11.189467526495156
