45
Energy = -267.29966751 eV
Rh 9.779258854214174 10.93481505339866 6.98718025472509
Rh 9.235477098263187 10.043901292817624 10.724386943365598
Rh 11.332493665115756 10.798220279347742 15.11451812019401
Rh 8.04913507802556 9.789010611500403 8.55413824889252
Rh 14.585348301657346 11.965302643084073 8.144283097523903
Rh 14.670821342380247 13.048388354912683 10.516609646913137
Rh 8.551681365354339 14.735272061119153 9.258329368115476
Rh 10.458819534190166 11.140919097762298 12.661112022043639
Rh 11.225471069073933 7.146665351903502 9.859253350802858
Rh 13.379403085230392 9.676129261105476 7.999811104345415
Rh 10.141581108769591 12.505472557245975 10.208611554412233
Rh 8.198882994724672 12.347929593085437 8.341259639746609
Rh 7.60776099158713 12.89603639028873 10.755583128282565
Rh 11.231868849561625 10.452788119582786 9.048682233272027
Rh 12.194201513540785 11.754872702244606 7.0453824539884
Rh 12.622818298108974 6.85342560472356 12.060277319380992
Rh 14.880185538714255 11.461374376034822 12.542689519552576
Rh 10.987556035398788 14.994493354348897 9.816213066271356
Rh 10.516729204781235 13.302865472912904 13.951544349628456
Rh 11.943125470407288 8.673904222564822 13.783293278907275
Rh 12.449167808836199 7.415627883166818 7.614065654556767
Rh 14.103731979647469 9.021037071623713 12.304482402073866
Rh 10.191052264724393 8.503535608961467 7.88218305420972
Rh 7.817179657615686 8.430032511203297 12.271137014302802
Rh 7.07424868037562 10.28461793951747 14.018284826898581
Rh 6.319459167487324 8.710594041988525 10.058547289445908
Rh 13.832836398466553 10.152923098604523 14.623883537404561
Rh 6.8861311618113294 10.659582282575819 11.55958974752978
Rh 10.393514677037611 13.46751270138474 7.779125859352437
Rh 6.094499412785686 11.274766838235086 9.30342533596202
Rh 9.38359266211638 14.339915952605056 11.863358338938532
Rh 12.61461201150955 13.227019747792552 9.08867638964432
Rh 11.985697873792818 14.100081311996371 11.965343596379716
Rh 12.793914340244934 12.1856409737937 13.642356145216496
Rh 8.313964942343029 12.30336474254847 13.153045755843358
Rh 8.881078906552608 11.44442246387366 15.440474673851698
Rh 14.43886593736064 10.447670345865179 10.193891372967729
Rh 12.528647373731088 11.750408246875013 11.115009096768901
Rh 13.66515877014664 8.011716397231751 9.928715806597987
Rh 10.156727186798513 7.526699143326498 12.257808601010678
Rh 8.760784473497383 7.7057711217951725 9.963236963409987
Rh 11.755603701959453 9.269520205457818 11.261540835170175
Rh 11.709759780565731 9.391879390382577 6.029217282813483
Rh 9.450038878857953 9.362006102351883 14.040513783589759
Rh 14.329945732753984 14.014700656977649 12.791761115814467
