4
Energy = -16.93821527 eV
Rh 10.283237202529396 9.103245422552181 8.511985253564434
Rh 8.395665536789457 10.23727735098381 9.214506510515132
Rh 7.141080772350356 8.315630318284978 8.92753461752388
Rh 9.02140413882033 7.191837088952223 8.198812766048599
