46
Energy = -272.20705692 eV
Rh 12.304607274188552 10.678898814674474 8.94452298324547
Rh 10.24085645685739 10.905888774490155 7.4603011401237795
Rh 7.944997531270028 7.622757290517437 9.332946525828032
Rh 13.755696958065109 10.379519224217105 11.309795281081385
Rh 12.450253186976067 8.154868057188882 8.101169924140903
Rh 11.625392852685154 6.1878952133719585 6.492217210941395
Rh 8.047865002470953 9.33607437671253 13.586391807449688
Rh 10.284396869081862 12.513909959824671 12.373158550049071
Rh 8.519197716456794 9.775535479153152 11.178407234557335
Rh 12.576873482641066 9.158420706453228 13.22921725749145
Rh 10.137412106260074 6.7970621699307685 10.562507675496358
Rh 8.04654162352278 7.299569149028071 11.948453633756763
Rh 5.989249532334637 11.807930955178367 9.662790455364979
Rh 5.72937597851227 10.33301096602444 7.519303726198075
Rh 8.044870926003247 13.086872763087142 8.781895207923716
Rh 10.208479197078548 8.982632313690745 9.313286074776377
Rh 10.421821107058223 10.488048044672196 13.94562891315561
Rh 9.34268708407389 10.121325577480876 5.232733043718453
Rh 10.280084310469906 8.189582353947685 12.677777446197604
Rh 12.399500314458253 8.12201985874963 10.768641724023023
Rh 11.960524918484678 9.737079485943086 6.108455123900061
Rh 11.99484801913585 5.960341647955204 9.11860801950477
Rh 7.2862565203771155 6.180801163442343 7.245926003496861
Rh 6.709448729566491 10.29166811276016 5.071384874432364
Rh 12.676538699494843 11.7379217749432 13.243824230103934
Rh 10.535011384599587 8.006987059389735 4.358203537683494
Rh 10.178269645876275 8.173976887943882 6.857810988890642
Rh 6.219354191539413 10.774638800134928 12.378483116700679
Rh 7.920523176724184 8.082997090952997 4.411570449172235
Rh 6.753001611836123 5.921878152021027 4.841445498510496
Rh 9.242775301384713 6.112352741816229 5.514598436730077
Rh 9.650855585603471 6.01758962094506 8.14657034395213
Rh 8.215724744790808 11.86024679544628 13.747237779458017
Rh 7.9707788148127205 10.339520473503551 8.784272582661137
Rh 14.341565706956187 9.10919371041906 9.32388675303279
Rh 5.544532011327913 8.05829619780429 5.692204576266391
Rh 7.717005874747965 8.623568433529512 6.8727157832898245
Rh 10.051559132539007 11.88753010772463 9.746990594838154
Rh 11.100617679382605 10.264471172702573 11.446460119973935
Rh 5.858531310189328 6.774834058241979 10.530578999100333
Rh 7.922160364389014 11.75310596630379 6.703691932314401
Rh 5.804241859436074 8.292597023565488 12.623894947223063
Rh 7.952306083621346 12.25067375973902 11.280208976962157
Rh 5.539383367582094 7.804353488374132 8.246180118163046
Rh 5.983416754359314 9.348041274385352 10.255177394978004
Rh 12.30683140723261 12.479735358072883 10.81469540959736
