45
Energy = -267.9287896 eV
Rh 7.3001611477236645 9.419834802147818 13.297411435431721
Rh 7.786091062457569 7.463691268143433 11.683828438003667
Rh 9.150934428409322 10.563400480736389 14.595444344727234
Rh 7.854475319485749 12.100088866023478 12.67759544703482
Rh 7.993532913969338 9.946422715481132 10.949948798419399
Rh 9.735618600699944 8.513170094244495 12.921280619870673
Rh 10.215655508277973 6.750015663715397 11.078681412675337
Rh 11.135159127436141 11.679944533106298 15.802203615244755
Rh 8.547957932623449 7.945322877080374 9.297387591599643
Rh 9.565401353082834 13.121030884100112 14.314579190565036
Rh 9.918115086492081 13.564194638563672 11.729874916688784
Rh 11.667817417046242 9.832795493391847 14.021285002032743
Rh 10.033071848237716 10.966977476089872 12.263442614372527
Rh 8.188628286173872 12.413454548258535 10.122604736520891
Rh 12.249168238570437 8.086741601568788 12.150028279405745
Rh 10.299086346570148 6.2691499146070475 8.5805647935467
Rh 10.476627721399934 9.202782077489058 10.391876242511218
Rh 13.134231743399958 12.863479565084432 16.906970583211827
Rh 11.303506445535346 14.24167257920536 15.794717242732455
Rh 11.545903192033897 14.954211075398709 13.31501252248597
Rh 8.653819410825026 10.405876897250637 8.494170044503981
Rh 11.8326401107797 12.416271520881475 13.363723185042227
Rh 13.533784413111329 13.93494811924979 14.605903631480045
Rh 10.594778486060548 11.71974001181623 9.83580889277764
Rh 11.596540444512343 15.472277513578156 10.844171119776265
Rh 12.476523858352143 10.61511209027841 11.5053678169207
Rh 10.565917532932882 8.709972032858705 7.857802004886372
Rh 13.617296371671813 11.332245688446463 14.974663456558757
Rh 10.241594214180655 14.164977942960464 9.14155721762752
Rh 12.253537540650976 7.584511084149045 9.583428903103089
Rh 14.155169398631495 9.595987522605608 13.165051529348265
Rh 14.374379455371097 12.260982413761717 12.702143250143328
Rh 13.938153809551514 14.786679559180307 12.192955392645572
Rh 8.746431413983958 12.774952144651841 7.6039088555397685
Rh 14.205821011131823 9.036438170462256 10.522004853998572
Rh 12.487022213989526 13.149661650792606 10.950126403074735
Rh 15.985047799241004 13.281443623228588 11.103054076036265
Rh 10.76805065435282 11.20800900013428 7.2552866912149305
Rh 12.355688497332167 15.366282900962103 8.345621199292008
Rh 12.529545237307632 10.201366842954295 8.856900149688052
Rh 14.234307902288547 14.310722076618704 9.618488879293936
Rh 16.004151057358417 10.61472701966381 11.647336514922229
Rh 10.902378322247786 13.793692930120045 6.687188465787853
Rh 14.394900797620945 11.630459286100052 9.922867387597783
Rh 12.525484451567275 12.778074057608947 8.354071407649766
