43
Energy = -254.90555962 eV
Rh 14.203859422210893 12.627759869938469 12.669905474697584
Rh 14.504318936134382 13.080605728747813 10.22772378754448
Rh 14.403153769716427 10.695027390673307 11.004157869319142
Rh 13.486317474068402 10.230862789733576 13.552705544595053
Rh 12.160414077981416 14.141830845633269 12.3039982715432
Rh 12.284356273023585 12.471430331237535 14.304635326800625
Rh 13.438808553460396 11.18768850379958 8.651994629292863
Rh 12.067647011767383 11.430998036398245 11.717892241877214
Rh 12.087563328389304 13.160651921439293 9.816554752332538
Rh 13.527210878740403 8.72424652235526 9.61358379895025
Rh 14.490568751788572 8.38460373557504 12.050294081179544
Rh 10.954633460765134 10.380583822483429 13.95035039298552
Rh 10.0633852355815 12.665044681103854 12.811873426274868
Rh 11.192003616296963 11.832754730795646 7.71828152773788
Rh 10.114860325484972 14.49738502314375 10.93763406889089
Rh 12.050297382362654 9.304596048038107 7.394432093994653
Rh 11.36123661388766 10.05674377420916 9.662509312126781
Rh 12.836563313762644 6.541053901942286 10.93393265730961
Rh 12.021194364789082 8.730234312647157 11.792782121905054
Rh 9.346133033526339 12.590595357223442 6.223379434656774
Rh 9.795174325663286 13.873512418469055 8.440215063067253
Rh 11.913828243479205 8.057541763325444 14.183288728058232
Rh 10.226061931460423 7.76062351867353 10.010124822478966
Rh 9.711555717275932 10.061604605698319 6.466369587053273
Rh 8.978944047614583 10.042688287777846 8.79584257927609
Rh 12.07330196056622 6.921797436521053 8.539157233436528
Rh 9.752223515070316 12.059508939895704 10.215347704946456
Rh 9.64895409472052 9.91144309892956 11.691640662735765
Rh 7.366796753920088 10.932907757328403 5.971857316691203
Rh 7.767433114187879 13.68882202835667 10.161157287246697
Rh 10.61726776125538 6.753261260788151 12.366824822851008
Rh 8.575838850981652 11.087189033523321 14.248143824866037
Rh 7.752722424783996 12.164166362364366 8.156043504977285
Rh 7.7255514570091774 11.776342408221776 11.936827607125268
Rh 9.966919719793228 7.709949170303571 7.492715766879653
Rh 9.333982341403598 8.481273700881681 13.859804491272964
Rh 7.752540730297575 8.364603234360914 6.385631708164836
Rh 7.794544399242557 7.695037760657999 8.985866184658587
Rh 7.128834612888492 9.647653710526003 10.547611840380865
Rh 6.54397305887603 9.79656340033503 8.101216003605474
Rh 6.036568061219506 11.797110780957498 9.959576899641096
Rh 8.263531779386867 7.623318435990648 11.62005371010475
Rh 7.077459404955235 9.448570228191691 13.058411739997858
