51
Energy = -305.41190353 eV
Rh 12.881904393585783 7.297345574962162 10.117443624196047
Rh 14.581876017871311 9.154333044747291 9.019201206329218
Rh 12.713970507255372 7.404652481569078 12.740687414904308
Rh 14.783001971771824 8.46107156957839 11.469382138834208
Rh 12.124053445740365 8.966971750241898 8.340720575745982
Rh 10.541375034272733 6.971840737942865 8.848092939295446
Rh 10.839787152544371 6.386102112177782 11.351093641894424
Rh 11.511076960896183 10.814484629408273 6.708145810828001
Rh 14.861384788714714 11.186100183789772 10.685097965941756
Rh 10.784655511580572 6.254593051748135 13.953500886900416
Rh 14.681480048055711 8.27165767879318 14.208756820493495
Rh 12.6679125147961 9.810285448990927 10.692611596086323
Rh 12.573989016225836 7.532608788243251 15.290634193603536
Rh 13.255392515130627 11.477625155495826 8.608381815507828
Rh 9.65683421641416 9.35712430926407 7.81681559627416
Rh 11.27617403928294 9.3853184097497 12.798800269921838
Rh 13.90752908463459 10.233248566552934 12.983168466109326
Rh 10.072150666950762 8.825080007192064 10.46005393194366
Rh 8.429599119434561 6.721320192977553 10.764598409726542
Rh 7.749910845911248 8.313878298712844 8.957599178832227
Rh 9.245171587795925 11.811658125676754 7.308712925572861
Rh 15.267481774173847 12.909075768040903 8.683778459617885
Rh 11.382794222971226 13.16721578145951 7.722066113680906
Rh 10.824468137190205 11.112654221442588 9.408673895638916
Rh 10.230083035721373 8.570354600904167 15.031717996029101
Rh 9.208240237322224 7.885127595385736 12.869951651340932
Rh 8.078240236440802 10.881419600792151 9.413837509532334
Rh 12.462536283552168 10.086644474391662 15.018298447805979
Rh 14.354986711350966 12.596486558205545 13.010180952463596
Rh 13.416041427629269 14.610221537568489 8.420142872978229
Rh 12.10875625842586 13.295215960468656 10.19093608855021
Rh 8.938973498368087 14.35201777727481 7.511042100264214
Rh 9.443448242554428 13.205553565402024 9.825643893680628
Rh 6.965429552521467 12.726012957739094 7.579895823043558
Rh 12.22602250122336 12.690455737953677 14.623952058261064
Rh 7.5995294428173485 9.187481138173425 11.339762792931152
Rh 11.992499656467725 11.833921557739256 12.236444764393566
Rh 14.425582259680398 13.817106816379289 10.850581120131153
Rh 10.20532343537082 11.135918635544137 14.392464125044148
Rh 10.855306081263013 15.402528745498083 8.824856367708898
Rh 9.486455801992145 11.150092690474587 11.706515044266919
Rh 8.068256384227142 10.016296551031349 13.71554986336586
Rh 6.926646100754968 13.139485402950445 9.957620297960272
Rh 12.541423054698463 14.391150561818982 12.66252079805657
Rh 10.421201883428777 15.16573951858724 11.342246667925984
Rh 8.301348414717912 15.469249798389656 9.793239328565997
Rh 12.752594200165088 15.854972441866126 10.55531294172333
Rh 10.135243158134719 13.383540766172477 13.133326004069062
Rh 7.078608552743061 11.665456292098433 11.974826831438767
Rh 7.990839634941182 12.604450137780567 14.179351740351509
Rh 8.047564694365676 14.167560691716083 12.01142679876714
