7
Energy = -32.3708509 eV
Rh 10.073140907504477 9.644753747354486 8.911128210464911
Rh 10.387475348758297 10.812441918336381 12.588159832007168
Rh 11.71054025565411 9.818545112441356 10.640905142388535
Rh 11.845142611269724 12.290951231582005 11.21793350771458
Rh 12.88175600112548 10.47128153602563 12.63397422018204
Rh 9.638208770438855 11.592119815444967 10.38760465092119
Rh 8.331286806525304 11.182340222476965 8.434882235206164
