   30   30 1000    2
  0.3548940E+03  0.2199919E-08  0.2199919E-08  0.2199919E-08  0.1000000E-15
  1.000000000000000E-004
  CAR 
 unknown system                          
    330      1    216
 
  0.0000000E+00  0.0000000E+00  0.0000000E+00  0.1000000E+01
    1       -8.948321     -8.948321
    2       -8.851992     -8.851992
    3       -8.819647     -8.819647
    4       -8.799560     -8.799560
    5       -8.772085     -8.772085
    6       -8.767743     -8.767743
    7       -8.742209     -8.742209
    8       -8.732150     -8.732150
    9       -8.707875     -8.707875
   10       -8.694080     -8.694080
   11       -8.669258     -8.669258
   12       -8.624207     -8.624207
   13       -8.620621     -8.620621
   14       -8.601060     -8.601060
   15       -8.550589     -8.550589
   16       -8.548463     -8.548463
   17       -8.534870     -8.534870
   18       -8.503114     -8.503114
   19       -8.486871     -8.486871
   20       -8.445092     -8.445092
   21       -8.409708     -8.409708
   22       -8.404231     -8.404231
   23       -8.391567     -8.391567
   24       -8.358158     -8.358158
   25       -8.348941     -8.348941
   26       -8.326528     -8.326528
   27       -8.322722     -8.322722
   28       -8.295717     -8.295717
   29       -8.287605     -8.287605
   30       -8.271659     -8.271659
   31       -8.257858     -8.257858
   32       -8.239409     -8.239409
   33       -8.228210     -8.228210
   34       -8.215165     -8.215165
   35       -8.210510     -8.210510
   36       -8.183705     -8.183705
   37       -8.175684     -8.175684
   38       -8.171733     -8.171733
   39       -8.136482     -8.136482
   40       -8.097945     -8.097945
   41       -8.095699     -8.095699
   42       -8.088785     -8.088785
   43       -8.067816     -8.067816
   44       -8.055404     -8.055404
   45       -8.032675     -8.032675
   46       -8.012385     -8.012385
   47       -8.006898     -8.006898
   48       -7.998256     -7.998256
   49       -7.968205     -7.968205
   50       -7.950112     -7.950112
   51       -7.929487     -7.929487
   52       -7.897305     -7.897305
   53       -7.877139     -7.877139
   54       -7.855411     -7.855411
   55       -7.821272     -7.821272
   56       -7.798766     -7.798766
   57       -7.773543     -7.773543
   58       -7.758595     -7.758595
   59       -7.742616     -7.742616
   60       -7.680074     -7.680074
   61       -7.673577     -7.673577
   62       -7.655733     -7.655733
   63       -7.635088     -7.635088
   64       -7.619571     -7.619571
   65       -7.598127     -7.598127
   66       -7.552388     -7.552388
   67       -7.535604     -7.535604
   68       -7.527721     -7.527721
   69       -7.490687     -7.490687
   70       -7.469433     -7.469433
   71       -7.439892     -7.439892
   72       -7.433504     -7.433504
   73       -7.384702     -7.384702
   74       -7.376819     -7.376819
   75       -7.363233     -7.363233
   76       -7.330987     -7.330987
   77       -7.306929     -7.306929
   78       -7.300531     -7.300531
   79       -7.281899     -7.281899
   80       -7.252586     -7.252586
   81       -7.237432     -7.237432
   82       -7.212485     -7.212485
   83       -7.204793     -7.204793
   84       -7.178187     -7.178187
   85       -7.171255     -7.171255
   86       -7.157534     -7.157534
   87       -7.120233     -7.120233
   88       -7.110726     -7.110726
   89       -7.088871     -7.088871
   90       -7.082695     -7.082695
   91       -7.081909     -7.081909
   92       -7.049596     -7.049596
   93       -7.044171     -7.044171
   94       -7.025778     -7.025778
   95       -7.016589     -7.016589
   96       -6.978710     -6.978710
   97       -6.974490     -6.974490
   98       -6.947903     -6.947903
   99       -6.940216     -6.940216
  100       -6.918799     -6.918799
  101       -6.904681     -6.904681
  102       -6.878853     -6.878853
  103       -6.873383     -6.873383
  104       -6.848103     -6.848103
  105       -6.825685     -6.825685
  106       -6.821795     -6.821795
  107       -6.816288     -6.816288
  108       -6.796960     -6.796960
  109       -6.783731     -6.783731
  110       -6.772020     -6.772020
  111       -6.762855     -6.762855
  112       -6.745342     -6.745342
  113       -6.736135     -6.736135
  114       -6.722537     -6.722537
  115       -6.710998     -6.710998
  116       -6.695884     -6.695884
  117       -6.691702     -6.691702
  118       -6.687407     -6.687407
  119       -6.669311     -6.669311
  120       -6.661600     -6.661600
  121       -6.653072     -6.653072
  122       -6.640190     -6.640190
  123       -6.625860     -6.625860
  124       -6.621347     -6.621347
  125       -6.611301     -6.611301
  126       -6.590861     -6.590861
  127       -6.576454     -6.576454
  128       -6.564299     -6.564299
  129       -6.558088     -6.558088
  130       -6.545078     -6.545078
  131       -6.537652     -6.537652
  132       -6.527620     -6.527620
  133       -6.526366     -6.526366
  134       -6.509983     -6.509983
  135       -6.504609     -6.504609
  136       -6.478407     -6.478407
  137       -6.471659     -6.471659
  138       -6.460760     -6.460760
  139       -6.443406     -6.443406
  140       -6.415660     -6.415660
  141       -6.406435     -6.406435
  142       -6.384807     -6.384807
  143       -6.372488     -6.372488
  144       -6.342803     -6.342803
  145       -6.302503     -6.302503
  146       -6.294917     -6.294917
  147       -6.237393     -6.237393
  148       -6.211759     -6.211759
  149       -6.186273     -6.186273
  150       -6.169965     -6.169965
  151       -6.156528     -6.156528
  152       -6.130059     -6.130059
  153       -6.107614     -6.107614
  154       -6.051809     -6.051809
  155       -5.852627     -5.852627
  156       -5.669146     -5.669146
  157       -5.629621     -5.629621
  158       -5.450257     -5.450257
  159       -5.194192     -5.194192
  160       -4.539716     -4.539716
  161       -4.448821     -4.448821
  162       -4.323630     -4.323630
  163       -4.098137     -4.098137
  164       -4.059926     -4.059926
  165       -3.697060     -3.697060
  166       -3.487258     -3.487258
  167       -3.084324     -3.084324
  168       -2.741019     -2.741019
  169       -2.664270     -2.664270
  170       -2.571507     -2.571507
  171       -2.465635     -2.465635
  172       -2.406070     -2.406070
  173       -2.277754     -2.277754
  174       -2.107681     -2.107681
  175       -1.983106     -1.983106
  176       -1.720387     -1.720386
  177       -1.683870     -1.683870
  178       -1.472071     -1.472071
  179       -1.325400     -1.325400
  180       -1.300856     -1.300855
  181       -1.178627     -1.178626
  182       -0.925978     -0.925977
  183       -0.867720     -0.867720
  184       -0.787588     -0.787588
  185       -0.725936     -0.725936
  186       -0.601435     -0.601434
  187       -0.496205     -0.496205
  188       -0.392362     -0.392360
  189       -0.335208     -0.335208
  190       -0.169143     -0.169142
  191       -0.011300     -0.011299
  192        0.055800      0.055801
  193        0.113813      0.113815
  194        0.247396      0.247397
  195        0.291798      0.291800
  196        0.372490      0.372491
  197        0.419488      0.419490
  198        0.456339      0.456349
  199        0.575761      0.575764
  200        0.662141      0.662148
  201        0.711318      0.711327
  202        0.732616      0.732621
  203        0.772997      0.773006
  204        0.796448      0.796455
  205        0.807674      0.807684
  206        0.838518      0.838529
  207        0.873355      0.873362
  208        0.891075      0.891084
  209        0.969060      0.969066
  210        0.984267      0.984274
  211        1.019413      1.019424
  212        1.039862      1.039869
  213        1.059207      1.059219
  214        1.099210      1.099218
  215        1.117294      1.117302
  216        1.135991      1.136003
