   5   5   0   0
  0.1271927E+04  0.1852724E-08  0.1852724E-08  0.1852724E-08  0.1000000E-15
  1.000000000000000E-004
  CAR 
 unknown system                          
      0.35396411     -9.53924840  301     -4.47722133      1.00000000
     -9.539  0.0000E+00  0.0000E+00  0.0000E+00  0.0000E+00
     -9.506  0.0000E+00  0.0000E+00  0.0000E+00  0.0000E+00
     -9.473  0.0000E+00  0.0000E+00  0.0000E+00  0.0000E+00
     -9.440  0.0000E+00  0.0000E+00  0.0000E+00  0.0000E+00
     -9.407  0.0000E+00  0.0000E+00  0.0000E+00  0.0000E+00
     -9.374  0.0000E+00  0.0000E+00  0.0000E+00  0.0000E+00
     -9.341  0.0000E+00  0.0000E+00  0.0000E+00  0.0000E+00
     -9.308  0.0000E+00  0.0000E+00  0.0000E+00  0.0000E+00
     -9.275  0.0000E+00  0.0000E+00  0.0000E+00  0.0000E+00
     -9.242  0.0000E+00  0.0000E+00  0.0000E+00  0.0000E+00
     -9.209  0.0000E+00  0.0000E+00  0.0000E+00  0.0000E+00
     -9.176  0.0000E+00  0.0000E+00  0.0000E+00  0.0000E+00
     -9.144  0.0000E+00  0.0000E+00  0.0000E+00  0.0000E+00
     -9.111  0.0000E+00  0.0000E+00  0.0000E+00  0.0000E+00
     -9.078  0.0000E+00  0.0000E+00  0.1000E-02  0.0000E+00
     -9.045  0.0000E+00  0.0000E+00  0.1000E-02  0.0000E+00
     -9.012  0.0000E+00  0.0000E+00  0.1000E-02  0.1000E-02
     -8.979  0.0000E+00  0.0000E+00  0.1000E-02  0.1000E-02
     -8.946  0.0000E+00  0.0000E+00  0.1000E-02  0.1000E-02
     -8.913  0.0000E+00  0.0000E+00  0.1000E-02  0.1000E-02
     -8.880  0.0000E+00  0.0000E+00  0.1000E-02  0.1000E-02
     -8.847  0.0000E+00  0.0000E+00  0.1000E-02  0.1000E-02
     -8.814  0.0000E+00  0.0000E+00  0.1000E-02  0.1000E-02
     -8.781  0.0000E+00  0.0000E+00  0.1000E-02  0.1000E-02
     -8.748  0.0000E+00  0.0000E+00  0.1000E-02  0.1000E-02
     -8.715  0.0000E+00  0.0000E+00  0.1000E-02  0.1000E-02
     -8.682  0.0000E+00  0.0000E+00  0.1000E-02  0.1000E-02
     -8.649  0.0000E+00  0.0000E+00  0.1000E-02  0.1000E-02
     -8.616  0.0000E+00  0.0000E+00  0.1000E-02  0.1000E-02
     -8.583  0.0000E+00  0.0000E+00  0.1000E-02  0.1000E-02
     -8.550  0.0000E+00  0.0000E+00  0.1000E-02  0.1000E-02
     -8.517  0.0000E+00  0.0000E+00  0.1000E-02  0.1000E-02
     -8.484  0.0000E+00  0.0000E+00  0.2000E-02  0.1000E-02
     -8.451  0.0000E+00  0.0000E+00  0.2000E-02  0.2000E-02
     -8.418  0.0000E+00  0.0000E+00  0.2000E-02  0.2000E-02
     -8.385  0.0000E+00  0.0000E+00  0.3000E-02  0.2000E-02
     -8.352  0.0000E+00  0.0000E+00  0.3000E-02  0.2000E-02
     -8.319  0.0000E+00  0.0000E+00  0.3000E-02  0.3000E-02
     -8.286  0.0000E+00  0.0000E+00  0.3000E-02  0.3000E-02
     -8.253  0.0000E+00  0.0000E+00  0.4000E-02  0.3000E-02
     -8.220  0.0000E+00  0.0000E+00  0.4000E-02  0.4000E-02
     -8.187  0.0000E+00  0.0000E+00  0.4000E-02  0.4000E-02
     -8.154  0.0000E+00  0.0000E+00  0.4000E-02  0.4000E-02
     -8.121  0.0000E+00  0.0000E+00  0.4000E-02  0.4000E-02
     -8.088  0.0000E+00  0.0000E+00  0.4000E-02  0.4000E-02
     -8.055  0.0000E+00  0.0000E+00  0.4000E-02  0.4000E-02
     -8.022  0.0000E+00  0.0000E+00  0.4000E-02  0.4000E-02
     -7.989  0.0000E+00  0.0000E+00  0.4000E-02  0.4000E-02
     -7.956  0.0000E+00  0.0000E+00  0.5000E-02  0.4000E-02
     -7.923  0.0000E+00  0.0000E+00  0.5000E-02  0.4000E-02
     -7.890  0.0000E+00  0.0000E+00  0.6000E-02  0.5000E-02
     -7.857  0.0000E+00  0.0000E+00  0.6000E-02  0.5000E-02
     -7.824  0.0000E+00  0.0000E+00  0.7000E-02  0.6000E-02
     -7.791  0.0000E+00  0.0000E+00  0.7000E-02  0.7000E-02
     -7.758  0.0000E+00  0.0000E+00  0.7000E-02  0.7000E-02
     -7.725  0.0000E+00  0.0000E+00  0.8000E-02  0.7000E-02
     -7.693  0.0000E+00  0.0000E+00  0.8000E-02  0.8000E-02
     -7.660  0.0000E+00  0.0000E+00  0.8000E-02  0.8000E-02
     -7.627  0.0000E+00  0.0000E+00  0.9000E-02  0.8000E-02
     -7.594  0.0000E+00  0.0000E+00  0.9000E-02  0.8000E-02
     -7.561  0.0000E+00  0.0000E+00  0.9000E-02  0.9000E-02
     -7.528  0.0000E+00  0.0000E+00  0.1000E-01  0.9000E-02
     -7.495  0.0000E+00  0.0000E+00  0.1100E-01  0.9000E-02
     -7.462  0.0000E+00  0.0000E+00  0.1100E-01  0.1000E-01
     -7.429  0.0000E+00  0.0000E+00  0.1100E-01  0.1100E-01
     -7.396  0.0000E+00  0.0000E+00  0.1100E-01  0.1100E-01
     -7.363  0.0000E+00  0.0000E+00  0.1100E-01  0.1100E-01
     -7.330  0.0000E+00  0.0000E+00  0.1100E-01  0.1100E-01
     -7.297  0.0000E+00  0.0000E+00  0.1200E-01  0.1100E-01
     -7.264  0.0000E+00  0.0000E+00  0.1300E-01  0.1200E-01
     -7.231  0.0000E+00  0.0000E+00  0.1300E-01  0.1300E-01
     -7.198  0.0000E+00  0.0000E+00  0.1500E-01  0.1300E-01
     -7.165  0.0000E+00  0.0000E+00  0.1500E-01  0.1400E-01
     -7.132  0.0000E+00  0.0000E+00  0.1500E-01  0.1500E-01
     -7.099  0.0000E+00  0.0000E+00  0.1700E-01  0.1500E-01
     -7.066  0.0000E+00  0.0000E+00  0.1800E-01  0.1500E-01
     -7.033  0.0000E+00  0.0000E+00  0.1900E-01  0.1700E-01
     -7.000  0.0000E+00  0.6065E-02  0.1900E-01  0.1820E-01
     -6.967  0.0000E+00  0.0000E+00  0.2000E-01  0.1900E-01
     -6.934  0.0000E+00  0.0000E+00  0.2000E-01  0.1900E-01
     -6.901  0.0000E+00  0.0000E+00  0.2000E-01  0.2000E-01
     -6.868  0.0000E+00  0.0000E+00  0.2000E-01  0.2000E-01
     -6.835  0.0000E+00  0.0000E+00  0.2100E-01  0.2000E-01
     -6.802  0.0000E+00  0.0000E+00  0.2200E-01  0.2100E-01
     -6.769  0.0000E+00  0.0000E+00  0.2200E-01  0.2200E-01
     -6.736  0.0000E+00  0.0000E+00  0.2200E-01  0.2200E-01
     -6.703  0.0000E+00  0.0000E+00  0.2200E-01  0.2200E-01
     -6.670  0.0000E+00  0.0000E+00  0.2200E-01  0.2200E-01
     -6.637  0.0000E+00  0.0000E+00  0.2300E-01  0.2200E-01
     -6.604  0.0000E+00  0.0000E+00  0.2300E-01  0.2300E-01
     -6.571  0.0000E+00  0.0000E+00  0.2400E-01  0.2300E-01
     -6.538  0.0000E+00  0.0000E+00  0.2400E-01  0.2400E-01
     -6.505  0.0000E+00  0.0000E+00  0.2400E-01  0.2400E-01
     -6.472  0.0000E+00  0.0000E+00  0.2500E-01  0.2400E-01
     -6.439  0.0000E+00  0.0000E+00  0.2500E-01  0.2500E-01
     -6.406  0.0000E+00  0.0000E+00  0.2500E-01  0.2500E-01
     -6.373  0.0000E+00  0.0000E+00  0.2500E-01  0.2500E-01
     -6.340  0.0000E+00  0.0000E+00  0.2500E-01  0.2500E-01
     -6.307  0.0000E+00  0.0000E+00  0.2500E-01  0.2500E-01
     -6.274  0.0000E+00  0.0000E+00  0.2500E-01  0.2500E-01
     -6.242  0.0000E+00  0.0000E+00  0.2500E-01  0.2500E-01
     -6.209  0.0000E+00  0.0000E+00  0.2500E-01  0.2500E-01
     -6.176  0.0000E+00  0.0000E+00  0.2500E-01  0.2500E-01
     -6.143  0.0000E+00  0.0000E+00  0.2500E-01  0.2500E-01
     -6.110  0.0000E+00  0.0000E+00  0.2600E-01  0.2500E-01
     -6.077  0.0000E+00  0.0000E+00  0.2600E-01  0.2500E-01
     -6.044  0.0000E+00  0.0000E+00  0.2600E-01  0.2600E-01
     -6.011  0.0000E+00  0.0000E+00  0.2600E-01  0.2600E-01
     -5.978  0.0000E+00  0.0000E+00  0.2600E-01  0.2600E-01
     -5.945  0.0000E+00  0.0000E+00  0.2600E-01  0.2600E-01
     -5.912  0.0000E+00  0.0000E+00  0.2600E-01  0.2600E-01
     -5.879  0.0000E+00  0.0000E+00  0.2600E-01  0.2600E-01
     -5.846  0.0000E+00  0.0000E+00  0.2600E-01  0.2600E-01
     -5.813  0.0000E+00  0.0000E+00  0.2600E-01  0.2600E-01
     -5.780  0.0000E+00  0.0000E+00  0.2600E-01  0.2600E-01
     -5.747  0.0000E+00  0.0000E+00  0.2600E-01  0.2600E-01
     -5.714  0.0000E+00  0.0000E+00  0.2600E-01  0.2600E-01
     -5.681  0.0000E+00  0.0000E+00  0.2600E-01  0.2600E-01
     -5.648  0.0000E+00  0.0000E+00  0.2600E-01  0.2600E-01
     -5.615  0.0000E+00  0.0000E+00  0.2600E-01  0.2600E-01
     -5.582  0.0000E+00  0.0000E+00  0.2600E-01  0.2600E-01
     -5.549  0.0000E+00  0.0000E+00  0.2600E-01  0.2600E-01
     -5.516  0.0000E+00  0.0000E+00  0.2600E-01  0.2600E-01
     -5.483  0.0000E+00  0.0000E+00  0.2600E-01  0.2600E-01
     -5.450  0.0000E+00  0.0000E+00  0.2600E-01  0.2600E-01
     -5.417  0.0000E+00  0.0000E+00  0.2600E-01  0.2600E-01
     -5.384  0.0000E+00  0.0000E+00  0.2600E-01  0.2600E-01
     -5.351  0.0000E+00  0.0000E+00  0.2600E-01  0.2600E-01
     -5.318  0.0000E+00  0.0000E+00  0.2600E-01  0.2600E-01
     -5.285  0.0000E+00  0.0000E+00  0.2600E-01  0.2600E-01
     -5.252  0.0000E+00  0.0000E+00  0.2600E-01  0.2600E-01
     -5.219  0.0000E+00  0.0000E+00  0.2600E-01  0.2600E-01
     -5.186  0.0000E+00  0.0000E+00  0.2600E-01  0.2600E-01
     -5.153  0.0000E+00  0.0000E+00  0.2600E-01  0.2600E-01
     -5.120  0.0000E+00  0.0000E+00  0.2600E-01  0.2600E-01
     -5.087  0.0000E+00  0.0000E+00  0.2600E-01  0.2600E-01
     -5.054  0.0000E+00  0.0000E+00  0.2600E-01  0.2600E-01
     -5.021  0.0000E+00  0.0000E+00  0.2600E-01  0.2600E-01
     -4.988  0.0000E+00  0.0000E+00  0.2600E-01  0.2600E-01
     -4.955  0.0000E+00  0.0000E+00  0.2700E-01  0.2600E-01
     -4.922  0.0000E+00  0.0000E+00  0.2700E-01  0.2600E-01
     -4.889  0.0000E+00  0.0000E+00  0.2700E-01  0.2600E-01
     -4.856  0.0000E+00  0.0000E+00  0.2700E-01  0.2600E-01
     -4.823  0.0000E+00  0.0000E+00  0.2700E-01  0.2600E-01
     -4.791  0.0000E+00  0.0000E+00  0.2700E-01  0.2600E-01
     -4.758  0.0000E+00  0.0000E+00  0.2700E-01  0.2700E-01
     -4.725  0.0000E+00  0.0000E+00  0.2700E-01  0.2700E-01
     -4.692  0.0000E+00  0.0000E+00  0.2700E-01  0.2700E-01
     -4.659  0.0000E+00  0.0000E+00  0.2700E-01  0.2700E-01
     -4.626  0.0000E+00  0.0000E+00  0.2700E-01  0.2700E-01
     -4.593  0.0000E+00  0.0000E+00  0.2700E-01  0.2700E-01
     -4.560  0.0000E+00  0.0000E+00  0.2700E-01  0.2700E-01
     -4.527  0.0000E+00  0.0000E+00  0.2700E-01  0.2700E-01
     -4.494  0.4763E-04  0.0000E+00  0.2700E-01  0.2700E-01
     -4.461  0.0000E+00  0.0000E+00  0.2800E-01  0.2700E-01
     -4.428  0.0000E+00  0.0000E+00  0.2800E-01  0.2700E-01
     -4.395  0.0000E+00  0.0000E+00  0.2800E-01  0.2700E-01
     -4.362  0.0000E+00  0.0000E+00  0.2800E-01  0.2700E-01
     -4.329  0.0000E+00  0.0000E+00  0.2800E-01  0.2700E-01
     -4.296  0.0000E+00  0.0000E+00  0.2800E-01  0.2700E-01
     -4.263  0.0000E+00  0.0000E+00  0.2800E-01  0.2700E-01
     -4.230  0.0000E+00  0.0000E+00  0.2800E-01  0.2800E-01
     -4.197  0.0000E+00  0.0000E+00  0.2800E-01  0.2800E-01
     -4.164  0.0000E+00  0.0000E+00  0.2800E-01  0.2800E-01
     -4.131  0.0000E+00  0.0000E+00  0.2800E-01  0.2800E-01
     -4.098  0.0000E+00  0.0000E+00  0.2800E-01  0.2800E-01
     -4.065  0.0000E+00  0.0000E+00  0.2800E-01  0.2800E-01
     -4.032  0.0000E+00  0.0000E+00  0.2800E-01  0.2800E-01
     -3.999  0.0000E+00  0.0000E+00  0.2800E-01  0.2800E-01
     -3.966  0.0000E+00  0.0000E+00  0.2800E-01  0.2800E-01
     -3.933  0.0000E+00  0.0000E+00  0.2800E-01  0.2800E-01
     -3.900  0.0000E+00  0.0000E+00  0.2800E-01  0.2800E-01
     -3.867  0.0000E+00  0.0000E+00  0.2800E-01  0.2800E-01
     -3.834  0.0000E+00  0.0000E+00  0.2800E-01  0.2800E-01
     -3.801  0.0000E+00  0.0000E+00  0.2800E-01  0.2800E-01
     -3.768  0.0000E+00  0.0000E+00  0.2800E-01  0.2800E-01
     -3.735  0.0000E+00  0.0000E+00  0.2800E-01  0.2800E-01
     -3.702  0.0000E+00  0.0000E+00  0.2800E-01  0.2800E-01
     -3.669  0.0000E+00  0.0000E+00  0.2800E-01  0.2800E-01
     -3.636  0.0000E+00  0.0000E+00  0.2800E-01  0.2800E-01
     -3.603  0.0000E+00  0.0000E+00  0.2800E-01  0.2800E-01
     -3.570  0.0000E+00  0.0000E+00  0.2800E-01  0.2800E-01
     -3.537  0.0000E+00  0.0000E+00  0.2800E-01  0.2800E-01
     -3.504  0.0000E+00  0.0000E+00  0.2800E-01  0.2800E-01
     -3.471  0.0000E+00  0.0000E+00  0.2800E-01  0.2800E-01
     -3.438  0.0000E+00  0.0000E+00  0.2800E-01  0.2800E-01
     -3.405  0.0000E+00  0.0000E+00  0.2800E-01  0.2800E-01
     -3.372  0.0000E+00  0.0000E+00  0.2800E-01  0.2800E-01
     -3.340  0.0000E+00  0.0000E+00  0.2800E-01  0.2800E-01
     -3.307  0.0000E+00  0.0000E+00  0.2800E-01  0.2800E-01
     -3.274  0.0000E+00  0.0000E+00  0.2800E-01  0.2800E-01
     -3.241  0.0000E+00  0.0000E+00  0.2800E-01  0.2800E-01
     -3.208  0.0000E+00  0.0000E+00  0.2800E-01  0.2800E-01
     -3.175  0.0000E+00  0.0000E+00  0.2800E-01  0.2800E-01
     -3.142  0.0000E+00  0.0000E+00  0.2800E-01  0.2800E-01
     -3.109  0.0000E+00  0.0000E+00  0.2800E-01  0.2800E-01
     -3.076  0.0000E+00  0.0000E+00  0.2800E-01  0.2800E-01
     -3.043  0.0000E+00  0.0000E+00  0.2800E-01  0.2800E-01
     -3.010  0.0000E+00  0.0000E+00  0.2900E-01  0.2800E-01
     -2.977  0.0000E+00  0.0000E+00  0.2900E-01  0.2800E-01
     -2.944  0.0000E+00  0.0000E+00  0.2900E-01  0.2800E-01
     -2.911  0.0000E+00  0.0000E+00  0.2900E-01  0.2800E-01
     -2.878  0.0000E+00  0.0000E+00  0.2900E-01  0.2800E-01
     -2.845  0.0000E+00  0.0000E+00  0.2900E-01  0.2900E-01
     -2.812  0.0000E+00  0.0000E+00  0.2900E-01  0.2900E-01
     -2.779  0.0000E+00  0.0000E+00  0.2900E-01  0.2900E-01
     -2.746  0.0000E+00  0.0000E+00  0.2900E-01  0.2900E-01
     -2.713  0.0000E+00  0.0000E+00  0.2900E-01  0.2900E-01
     -2.680  0.0000E+00  0.0000E+00  0.2900E-01  0.2900E-01
     -2.647  0.0000E+00  0.0000E+00  0.2900E-01  0.2900E-01
     -2.614  0.0000E+00  0.0000E+00  0.2900E-01  0.2900E-01
     -2.581  0.0000E+00  0.0000E+00  0.2900E-01  0.2900E-01
     -2.548  0.0000E+00  0.0000E+00  0.2900E-01  0.2900E-01
     -2.515  0.0000E+00  0.0000E+00  0.2900E-01  0.2900E-01
     -2.482  0.0000E+00  0.0000E+00  0.2900E-01  0.2900E-01
     -2.449  0.0000E+00  0.0000E+00  0.2900E-01  0.2900E-01
     -2.416  0.0000E+00  0.0000E+00  0.2900E-01  0.2900E-01
     -2.383  0.0000E+00  0.0000E+00  0.2900E-01  0.2900E-01
     -2.350  0.0000E+00  0.0000E+00  0.2900E-01  0.2900E-01
     -2.317  0.0000E+00  0.0000E+00  0.3000E-01  0.2900E-01
     -2.284  0.0000E+00  0.0000E+00  0.3000E-01  0.2900E-01
     -2.251  0.0000E+00  0.0000E+00  0.3000E-01  0.2900E-01
     -2.218  0.0000E+00  0.0000E+00  0.3000E-01  0.2900E-01
     -2.185  0.0000E+00  0.0000E+00  0.3000E-01  0.2900E-01
     -2.152  0.0000E+00  0.0000E+00  0.3000E-01  0.3000E-01
     -2.119  0.0000E+00  0.0000E+00  0.3000E-01  0.3000E-01
     -2.086  0.0000E+00  0.0000E+00  0.3000E-01  0.3000E-01
     -2.053  0.0000E+00  0.0000E+00  0.3000E-01  0.3000E-01
     -2.020  0.0000E+00  0.0000E+00  0.3000E-01  0.3000E-01
     -1.987  0.0000E+00  0.0000E+00  0.3000E-01  0.3000E-01
     -1.954  0.0000E+00  0.0000E+00  0.3000E-01  0.3000E-01
     -1.921  0.0000E+00  0.0000E+00  0.3000E-01  0.3000E-01
     -1.888  0.0000E+00  0.0000E+00  0.3000E-01  0.3000E-01
     -1.856  0.0000E+00  0.0000E+00  0.3000E-01  0.3000E-01
     -1.823  0.0000E+00  0.0000E+00  0.3000E-01  0.3000E-01
     -1.790  0.0000E+00  0.0000E+00  0.3000E-01  0.3000E-01
     -1.757  0.0000E+00  0.0000E+00  0.3000E-01  0.3000E-01
     -1.724  0.0000E+00  0.0000E+00  0.3000E-01  0.3000E-01
     -1.691  0.0000E+00  0.0000E+00  0.3000E-01  0.3000E-01
     -1.658  0.0000E+00  0.0000E+00  0.3100E-01  0.3000E-01
     -1.625  0.0000E+00  0.0000E+00  0.3100E-01  0.3000E-01
     -1.592  0.0000E+00  0.0000E+00  0.3100E-01  0.3000E-01
     -1.559  0.0000E+00  0.0000E+00  0.3100E-01  0.3000E-01
     -1.526  0.0000E+00  0.0000E+00  0.3100E-01  0.3100E-01
     -1.493  0.0000E+00  0.0000E+00  0.3100E-01  0.3100E-01
     -1.460  0.0000E+00  0.0000E+00  0.3100E-01  0.3100E-01
     -1.427  0.0000E+00  0.0000E+00  0.3100E-01  0.3100E-01
     -1.394  0.0000E+00  0.0000E+00  0.3100E-01  0.3100E-01
     -1.361  0.0000E+00  0.0000E+00  0.3100E-01  0.3100E-01
     -1.328  0.0000E+00  0.0000E+00  0.3100E-01  0.3100E-01
     -1.295  0.0000E+00  0.0000E+00  0.3100E-01  0.3100E-01
     -1.262  0.0000E+00  0.0000E+00  0.3100E-01  0.3100E-01
     -1.229  0.0000E+00  0.0000E+00  0.3100E-01  0.3100E-01
     -1.196  0.0000E+00  0.0000E+00  0.3100E-01  0.3100E-01
     -1.163  0.0000E+00  0.0000E+00  0.3100E-01  0.3100E-01
     -1.130  0.0000E+00  0.0000E+00  0.3100E-01  0.3100E-01
     -1.097  0.0000E+00  0.0000E+00  0.3100E-01  0.3100E-01
     -1.064  0.0000E+00  0.0000E+00  0.3200E-01  0.3100E-01
     -1.031  0.0000E+00  0.0000E+00  0.3200E-01  0.3100E-01
     -0.998  0.0000E+00  0.0000E+00  0.3200E-01  0.3100E-01
     -0.965  0.0000E+00  0.0000E+00  0.3300E-01  0.3100E-01
     -0.932  0.0000E+00  0.0000E+00  0.3300E-01  0.3100E-01
     -0.899  0.0000E+00  0.0000E+00  0.3300E-01  0.3100E-01
     -0.866  0.0000E+00  0.0000E+00  0.3400E-01  0.3200E-01
     -0.833  0.0000E+00  0.0000E+00  0.3400E-01  0.3200E-01
     -0.800  0.0000E+00  0.0000E+00  0.3400E-01  0.3300E-01
     -0.767  0.0000E+00  0.0000E+00  0.3400E-01  0.3300E-01
     -0.734  0.0000E+00  0.0000E+00  0.3400E-01  0.3300E-01
     -0.701  0.0000E+00  0.0000E+00  0.3400E-01  0.3400E-01
     -0.668  0.0000E+00  0.0000E+00  0.3400E-01  0.3400E-01
     -0.635  0.0000E+00  0.0000E+00  0.3500E-01  0.3400E-01
     -0.602  0.0000E+00  0.0000E+00  0.3500E-01  0.3400E-01
     -0.569  0.0000E+00  0.0000E+00  0.3500E-01  0.3400E-01
     -0.536  0.0000E+00  0.0000E+00  0.3500E-01  0.3400E-01
     -0.503  0.0000E+00  0.0000E+00  0.3500E-01  0.3400E-01
     -0.470  0.0000E+00  0.0000E+00  0.3500E-01  0.3500E-01
     -0.437  0.0000E+00  0.0000E+00  0.3500E-01  0.3500E-01
     -0.405  0.0000E+00  0.0000E+00  0.3500E-01  0.3500E-01
     -0.372  0.0000E+00  0.0000E+00  0.3500E-01  0.3500E-01
     -0.339  0.0000E+00  0.0000E+00  0.3500E-01  0.3500E-01
     -0.306  0.0000E+00  0.0000E+00  0.3500E-01  0.3500E-01
     -0.273  0.0000E+00  0.0000E+00  0.3600E-01  0.3500E-01
     -0.240  0.0000E+00  0.0000E+00  0.3600E-01  0.3500E-01
     -0.207  0.0000E+00  0.0000E+00  0.3600E-01  0.3500E-01
     -0.174  0.0000E+00  0.0000E+00  0.3600E-01  0.3500E-01
     -0.141  0.0000E+00  0.0000E+00  0.3600E-01  0.3500E-01
     -0.108  0.0000E+00  0.0000E+00  0.3600E-01  0.3500E-01
     -0.075  0.0000E+00  0.0000E+00  0.3600E-01  0.3600E-01
     -0.042  0.0000E+00  0.0000E+00  0.3600E-01  0.3600E-01
     -0.009  0.0000E+00  0.0000E+00  0.3600E-01  0.3600E-01
      0.024  0.0000E+00  0.0000E+00  0.3600E-01  0.3600E-01
      0.057  0.0000E+00  0.0000E+00  0.3600E-01  0.3600E-01
      0.090  0.0000E+00  0.0000E+00  0.3600E-01  0.3600E-01
      0.123  0.0000E+00  0.0000E+00  0.3600E-01  0.3600E-01
      0.156  0.0000E+00  0.0000E+00  0.3600E-01  0.3600E-01
      0.189  0.0000E+00  0.0000E+00  0.3600E-01  0.3600E-01
      0.222  0.0000E+00  0.0000E+00  0.3600E-01  0.3600E-01
      0.255  0.0000E+00  0.0000E+00  0.3600E-01  0.3600E-01
      0.288  0.0000E+00  0.0000E+00  0.3600E-01  0.3600E-01
      0.321  0.0000E+00  0.0000E+00  0.3600E-01  0.3600E-01
      0.354  0.0000E+00  0.0000E+00  0.3600E-01  0.3600E-01
