   5   5   0   0
  0.1514591E+04  0.1963760E-08  0.1963760E-08  0.1963760E-08  0.1000000E-15
  1.000000000000000E-004
  CAR 
 unknown system                          
      0.30332503     -9.52107835  301     -4.73168170      1.00000000
     -9.521  0.0000E+00  0.0000E+00  0.0000E+00  0.0000E+00
     -9.488  0.0000E+00  0.0000E+00  0.0000E+00  0.0000E+00
     -9.456  0.0000E+00  0.0000E+00  0.0000E+00  0.0000E+00
     -9.423  0.0000E+00  0.0000E+00  0.0000E+00  0.0000E+00
     -9.390  0.0000E+00  0.0000E+00  0.0000E+00  0.0000E+00
     -9.357  0.0000E+00  0.0000E+00  0.0000E+00  0.0000E+00
     -9.325  0.0000E+00  0.0000E+00  0.0000E+00  0.0000E+00
     -9.292  0.0000E+00  0.0000E+00  0.0000E+00  0.0000E+00
     -9.259  0.0000E+00  0.0000E+00  0.0000E+00  0.0000E+00
     -9.226  0.0000E+00  0.0000E+00  0.0000E+00  0.0000E+00
     -9.194  0.0000E+00  0.0000E+00  0.0000E+00  0.0000E+00
     -9.161  0.0000E+00  0.0000E+00  0.0000E+00  0.0000E+00
     -9.128  0.0000E+00  0.0000E+00  0.0000E+00  0.0000E+00
     -9.095  0.0000E+00  0.0000E+00  0.0000E+00  0.0000E+00
     -9.063  0.0000E+00  0.0000E+00  0.1000E-02  0.0000E+00
     -9.030  0.0000E+00  0.0000E+00  0.1000E-02  0.0000E+00
     -8.997  0.0000E+00  0.0000E+00  0.1000E-02  0.1000E-02
     -8.964  0.0000E+00  0.0000E+00  0.1000E-02  0.1000E-02
     -8.932  0.0000E+00  0.0000E+00  0.1000E-02  0.1000E-02
     -8.899  0.0000E+00  0.0000E+00  0.1000E-02  0.1000E-02
     -8.866  0.0000E+00  0.0000E+00  0.1000E-02  0.1000E-02
     -8.833  0.0000E+00  0.0000E+00  0.1000E-02  0.1000E-02
     -8.801  0.0000E+00  0.0000E+00  0.1000E-02  0.1000E-02
     -8.768  0.0000E+00  0.0000E+00  0.1000E-02  0.1000E-02
     -8.735  0.0000E+00  0.0000E+00  0.1000E-02  0.1000E-02
     -8.702  0.0000E+00  0.0000E+00  0.1000E-02  0.1000E-02
     -8.670  0.0000E+00  0.0000E+00  0.1000E-02  0.1000E-02
     -8.637  0.0000E+00  0.0000E+00  0.1000E-02  0.1000E-02
     -8.604  0.0000E+00  0.0000E+00  0.1000E-02  0.1000E-02
     -8.571  0.0000E+00  0.0000E+00  0.1000E-02  0.1000E-02
     -8.539  0.0000E+00  0.0000E+00  0.1000E-02  0.1000E-02
     -8.506  0.0000E+00  0.0000E+00  0.2000E-02  0.1000E-02
     -8.473  0.0000E+00  0.0000E+00  0.2000E-02  0.1000E-02
     -8.440  0.0000E+00  0.0000E+00  0.2000E-02  0.2000E-02
     -8.408  0.0000E+00  0.0000E+00  0.2000E-02  0.2000E-02
     -8.375  0.0000E+00  0.0000E+00  0.2000E-02  0.2000E-02
     -8.342  0.0000E+00  0.0000E+00  0.2000E-02  0.2000E-02
     -8.309  0.0000E+00  0.0000E+00  0.2000E-02  0.2000E-02
     -8.277  0.0000E+00  0.0000E+00  0.2000E-02  0.2000E-02
     -8.244  0.0000E+00  0.0000E+00  0.2000E-02  0.2000E-02
     -8.211  0.0000E+00  0.0000E+00  0.2000E-02  0.2000E-02
     -8.178  0.0000E+00  0.0000E+00  0.4000E-02  0.2000E-02
     -8.146  0.0000E+00  0.0000E+00  0.4000E-02  0.2000E-02
     -8.113  0.0000E+00  0.0000E+00  0.4000E-02  0.4000E-02
     -8.080  0.0000E+00  0.0000E+00  0.4000E-02  0.4000E-02
     -8.047  0.0000E+00  0.0000E+00  0.4000E-02  0.4000E-02
     -8.015  0.0000E+00  0.0000E+00  0.4000E-02  0.4000E-02
     -7.982  0.0000E+00  0.0000E+00  0.4000E-02  0.4000E-02
     -7.949  0.0000E+00  0.0000E+00  0.6000E-02  0.4000E-02
     -7.916  0.0000E+00  0.0000E+00  0.6000E-02  0.4000E-02
     -7.884  0.0000E+00  0.0000E+00  0.6000E-02  0.6000E-02
     -7.851  0.0000E+00  0.0000E+00  0.6000E-02  0.6000E-02
     -7.818  0.0000E+00  0.0000E+00  0.6000E-02  0.6000E-02
     -7.785  0.0000E+00  0.0000E+00  0.6000E-02  0.6000E-02
     -7.753  0.0000E+00  0.0000E+00  0.7000E-02  0.6000E-02
     -7.720  0.0000E+00  0.0000E+00  0.7000E-02  0.6000E-02
     -7.687  0.0000E+00  0.0000E+00  0.7000E-02  0.7000E-02
     -7.654  0.0000E+00  0.0000E+00  0.7000E-02  0.7000E-02
     -7.622  0.0000E+00  0.0000E+00  0.7000E-02  0.7000E-02
     -7.589  0.0000E+00  0.0000E+00  0.9000E-02  0.7000E-02
     -7.556  0.0000E+00  0.0000E+00  0.9000E-02  0.7000E-02
     -7.523  0.0000E+00  0.0000E+00  0.9000E-02  0.9000E-02
     -7.491  0.0000E+00  0.0000E+00  0.1300E-01  0.9000E-02
     -7.458  0.0000E+00  0.0000E+00  0.1300E-01  0.9000E-02
     -7.425  0.0000E+00  0.0000E+00  0.1300E-01  0.1300E-01
     -7.392  0.0000E+00  0.0000E+00  0.1500E-01  0.1300E-01
     -7.360  0.0000E+00  0.0000E+00  0.1500E-01  0.1300E-01
     -7.327  0.0000E+00  0.0000E+00  0.1500E-01  0.1500E-01
     -7.294  0.0000E+00  0.0000E+00  0.1500E-01  0.1500E-01
     -7.261  0.0000E+00  0.0000E+00  0.1500E-01  0.1500E-01
     -7.229  0.0000E+00  0.0000E+00  0.1500E-01  0.1500E-01
     -7.196  0.0000E+00  0.0000E+00  0.1500E-01  0.1500E-01
     -7.163  0.0000E+00  0.0000E+00  0.1500E-01  0.1500E-01
     -7.130  0.0000E+00  0.0000E+00  0.1700E-01  0.1700E-01
     -7.098  0.0000E+00  0.0000E+00  0.1900E-01  0.1900E-01
     -7.065  0.0000E+00  0.0000E+00  0.1900E-01  0.1900E-01
     -7.032  0.0000E+00  0.0000E+00  0.2100E-01  0.1900E-01
     -6.999  0.0000E+00  0.0000E+00  0.2100E-01  0.2100E-01
     -6.967  0.0000E+00  0.0000E+00  0.2100E-01  0.2100E-01
     -6.934  0.0000E+00  0.0000E+00  0.2200E-01  0.2100E-01
     -6.901  0.0000E+00  0.0000E+00  0.2200E-01  0.2100E-01
     -6.868  0.0000E+00  0.0000E+00  0.2200E-01  0.2200E-01
     -6.836  0.0000E+00  0.0000E+00  0.2200E-01  0.2200E-01
     -6.803  0.0000E+00  0.0000E+00  0.2200E-01  0.2200E-01
     -6.770  0.0000E+00  0.0000E+00  0.2200E-01  0.2200E-01
     -6.737  0.0000E+00  0.0000E+00  0.2200E-01  0.2200E-01
     -6.705  0.0000E+00  0.0000E+00  0.2200E-01  0.2200E-01
     -6.672  0.0000E+00  0.0000E+00  0.2400E-01  0.2200E-01
     -6.639  0.0000E+00  0.0000E+00  0.2400E-01  0.2400E-01
     -6.607  0.0000E+00  0.0000E+00  0.2400E-01  0.2400E-01
     -6.574  0.0000E+00  0.0000E+00  0.2400E-01  0.2400E-01
     -6.541  0.0000E+00  0.0000E+00  0.2400E-01  0.2400E-01
     -6.508  0.0000E+00  0.0000E+00  0.2500E-01  0.2400E-01
     -6.476  0.0000E+00  0.3050E-01  0.2500E-01  0.2500E-01
     -6.443  0.0000E+00  0.0000E+00  0.2500E-01  0.2500E-01
     -6.410  0.0000E+00  0.0000E+00  0.2500E-01  0.2500E-01
     -6.377  0.0000E+00  0.0000E+00  0.2500E-01  0.2500E-01
     -6.345  0.0000E+00  0.0000E+00  0.2500E-01  0.2500E-01
     -6.312  0.0000E+00  0.0000E+00  0.2500E-01  0.2500E-01
     -6.279  0.0000E+00  0.0000E+00  0.2500E-01  0.2500E-01
     -6.246  0.0000E+00  0.0000E+00  0.2500E-01  0.2500E-01
     -6.214  0.0000E+00  0.0000E+00  0.2500E-01  0.2500E-01
     -6.181  0.0000E+00  0.0000E+00  0.2500E-01  0.2500E-01
     -6.148  0.0000E+00  0.0000E+00  0.2500E-01  0.2500E-01
     -6.115  0.0000E+00  0.0000E+00  0.2500E-01  0.2500E-01
     -6.083  0.0000E+00  0.0000E+00  0.2500E-01  0.2500E-01
     -6.050  0.0000E+00  0.0000E+00  0.2500E-01  0.2500E-01
     -6.017  0.0000E+00  0.0000E+00  0.2500E-01  0.2500E-01
     -5.984  0.0000E+00  0.0000E+00  0.2500E-01  0.2500E-01
     -5.952  0.0000E+00  0.0000E+00  0.2500E-01  0.2500E-01
     -5.919  0.0000E+00  0.0000E+00  0.2500E-01  0.2500E-01
     -5.886  0.0000E+00  0.0000E+00  0.2500E-01  0.2500E-01
     -5.853  0.0000E+00  0.0000E+00  0.2500E-01  0.2500E-01
     -5.821  0.0000E+00  0.0000E+00  0.2500E-01  0.2500E-01
     -5.788  0.0000E+00  0.0000E+00  0.2500E-01  0.2500E-01
     -5.755  0.0000E+00  0.0000E+00  0.2500E-01  0.2500E-01
     -5.722  0.0000E+00  0.0000E+00  0.2500E-01  0.2500E-01
     -5.690  0.0000E+00  0.0000E+00  0.2600E-01  0.2500E-01
     -5.657  0.0000E+00  0.0000E+00  0.2600E-01  0.2500E-01
     -5.624  0.0000E+00  0.0000E+00  0.2600E-01  0.2500E-01
     -5.591  0.0000E+00  0.0000E+00  0.2600E-01  0.2500E-01
     -5.559  0.0000E+00  0.0000E+00  0.2600E-01  0.2600E-01
     -5.526  0.0000E+00  0.0000E+00  0.2600E-01  0.2600E-01
     -5.493  0.0000E+00  0.0000E+00  0.2600E-01  0.2600E-01
     -5.460  0.0000E+00  0.0000E+00  0.2600E-01  0.2600E-01
     -5.428  0.0000E+00  0.0000E+00  0.2600E-01  0.2600E-01
     -5.395  0.0000E+00  0.0000E+00  0.2600E-01  0.2600E-01
     -5.362  0.0000E+00  0.0000E+00  0.2600E-01  0.2600E-01
     -5.329  0.0000E+00  0.0000E+00  0.2700E-01  0.2600E-01
     -5.297  0.0000E+00  0.0000E+00  0.2700E-01  0.2600E-01
     -5.264  0.0000E+00  0.0000E+00  0.2700E-01  0.2600E-01
     -5.231  0.0000E+00  0.0000E+00  0.2700E-01  0.2600E-01
     -5.198  0.0000E+00  0.0000E+00  0.2700E-01  0.2700E-01
     -5.166  0.0000E+00  0.0000E+00  0.2700E-01  0.2700E-01
     -5.133  0.0000E+00  0.0000E+00  0.2700E-01  0.2700E-01
     -5.100  0.0000E+00  0.0000E+00  0.2700E-01  0.2700E-01
     -5.067  0.0000E+00  0.0000E+00  0.2700E-01  0.2700E-01
     -5.035  0.0000E+00  0.0000E+00  0.2700E-01  0.2700E-01
     -5.002  0.0000E+00  0.0000E+00  0.2700E-01  0.2700E-01
     -4.969  0.0000E+00  0.0000E+00  0.2700E-01  0.2700E-01
     -4.936  0.0000E+00  0.0000E+00  0.2700E-01  0.2700E-01
     -4.904  0.0000E+00  0.0000E+00  0.2700E-01  0.2700E-01
     -4.871  0.0000E+00  0.0000E+00  0.2700E-01  0.2700E-01
     -4.838  0.0000E+00  0.0000E+00  0.2700E-01  0.2700E-01
     -4.805  0.0000E+00  0.0000E+00  0.2700E-01  0.2700E-01
     -4.773  0.0000E+00  0.0000E+00  0.2700E-01  0.2700E-01
     -4.740  0.0000E+00  0.0000E+00  0.2800E-01  0.2700E-01
     -4.707  0.0000E+00  0.0000E+00  0.2800E-01  0.2700E-01
     -4.674  0.0000E+00  0.0000E+00  0.2800E-01  0.2700E-01
     -4.642  0.0000E+00  0.0000E+00  0.2800E-01  0.2700E-01
     -4.609  0.0000E+00  0.0000E+00  0.2800E-01  0.2700E-01
     -4.576  0.0000E+00  0.0000E+00  0.2800E-01  0.2700E-01
     -4.543  0.0000E+00  0.0000E+00  0.2800E-01  0.2700E-01
     -4.511  0.0000E+00  0.0000E+00  0.2800E-01  0.2700E-01
     -4.478  0.0000E+00  0.0000E+00  0.2800E-01  0.2800E-01
     -4.445  0.0000E+00  0.0000E+00  0.2800E-01  0.2800E-01
     -4.412  0.0000E+00  0.0000E+00  0.2800E-01  0.2800E-01
     -4.380  0.0000E+00  0.0000E+00  0.2800E-01  0.2800E-01
     -4.347  0.0000E+00  0.0000E+00  0.2800E-01  0.2800E-01
     -4.314  0.0000E+00  0.0000E+00  0.2800E-01  0.2800E-01
     -4.281  0.0000E+00  0.0000E+00  0.2800E-01  0.2800E-01
     -4.249  0.0000E+00  0.0000E+00  0.2800E-01  0.2800E-01
     -4.216  0.0000E+00  0.0000E+00  0.2800E-01  0.2800E-01
     -4.183  0.0000E+00  0.0000E+00  0.2800E-01  0.2800E-01
     -4.150  0.0000E+00  0.0000E+00  0.2800E-01  0.2800E-01
     -4.118  0.0000E+00  0.0000E+00  0.2800E-01  0.2800E-01
     -4.085  0.0000E+00  0.0000E+00  0.2800E-01  0.2800E-01
     -4.052  0.0000E+00  0.0000E+00  0.2800E-01  0.2800E-01
     -4.019  0.0000E+00  0.0000E+00  0.2800E-01  0.2800E-01
     -3.987  0.0000E+00  0.0000E+00  0.2800E-01  0.2800E-01
     -3.954  0.0000E+00  0.0000E+00  0.2800E-01  0.2800E-01
     -3.921  0.0000E+00  0.0000E+00  0.2800E-01  0.2800E-01
     -3.888  0.0000E+00  0.0000E+00  0.2800E-01  0.2800E-01
     -3.856  0.0000E+00  0.0000E+00  0.2800E-01  0.2800E-01
     -3.823  0.0000E+00  0.0000E+00  0.2800E-01  0.2800E-01
     -3.790  0.0000E+00  0.0000E+00  0.2800E-01  0.2800E-01
     -3.757  0.0000E+00  0.0000E+00  0.2800E-01  0.2800E-01
     -3.725  0.0000E+00  0.0000E+00  0.2800E-01  0.2800E-01
     -3.692  0.0000E+00  0.0000E+00  0.2800E-01  0.2800E-01
     -3.659  0.0000E+00  0.0000E+00  0.2800E-01  0.2800E-01
     -3.626  0.0000E+00  0.0000E+00  0.2800E-01  0.2800E-01
     -3.594  0.0000E+00  0.0000E+00  0.2800E-01  0.2800E-01
     -3.561  0.0000E+00  0.0000E+00  0.2800E-01  0.2800E-01
     -3.528  0.0000E+00  0.0000E+00  0.2800E-01  0.2800E-01
     -3.495  0.0000E+00  0.0000E+00  0.2800E-01  0.2800E-01
     -3.463  0.0000E+00  0.0000E+00  0.2900E-01  0.2800E-01
     -3.430  0.0000E+00  0.0000E+00  0.2900E-01  0.2800E-01
     -3.397  0.0000E+00  0.0000E+00  0.2900E-01  0.2800E-01
     -3.364  0.0000E+00  0.0000E+00  0.2900E-01  0.2800E-01
     -3.332  0.0000E+00  0.0000E+00  0.2900E-01  0.2800E-01
     -3.299  0.0000E+00  0.0000E+00  0.2900E-01  0.2900E-01
     -3.266  0.0000E+00  0.0000E+00  0.2900E-01  0.2900E-01
     -3.233  0.0000E+00  0.0000E+00  0.2900E-01  0.2900E-01
     -3.201  0.0000E+00  0.0000E+00  0.2900E-01  0.2900E-01
     -3.168  0.0000E+00  0.0000E+00  0.2900E-01  0.2900E-01
     -3.135  0.0000E+00  0.0000E+00  0.2900E-01  0.2900E-01
     -3.102  0.0000E+00  0.0000E+00  0.2900E-01  0.2900E-01
     -3.070  0.0000E+00  0.0000E+00  0.2900E-01  0.2900E-01
     -3.037  0.0000E+00  0.0000E+00  0.2900E-01  0.2900E-01
     -3.004  0.0000E+00  0.0000E+00  0.2900E-01  0.2900E-01
     -2.971  0.0000E+00  0.0000E+00  0.2900E-01  0.2900E-01
     -2.939  0.0000E+00  0.0000E+00  0.2900E-01  0.2900E-01
     -2.906  0.0000E+00  0.0000E+00  0.2900E-01  0.2900E-01
     -2.873  0.0000E+00  0.0000E+00  0.2900E-01  0.2900E-01
     -2.840  0.0000E+00  0.0000E+00  0.2900E-01  0.2900E-01
     -2.808  0.0000E+00  0.0000E+00  0.2900E-01  0.2900E-01
     -2.775  0.0000E+00  0.0000E+00  0.2900E-01  0.2900E-01
     -2.742  0.0000E+00  0.0000E+00  0.2900E-01  0.2900E-01
     -2.709  0.0000E+00  0.0000E+00  0.2900E-01  0.2900E-01
     -2.677  0.0000E+00  0.0000E+00  0.2900E-01  0.2900E-01
     -2.644  0.0000E+00  0.0000E+00  0.2900E-01  0.2900E-01
     -2.611  0.0000E+00  0.0000E+00  0.2900E-01  0.2900E-01
     -2.578  0.0000E+00  0.0000E+00  0.2900E-01  0.2900E-01
     -2.546  0.0000E+00  0.0000E+00  0.2900E-01  0.2900E-01
     -2.513  0.0000E+00  0.0000E+00  0.2900E-01  0.2900E-01
     -2.480  0.0000E+00  0.0000E+00  0.2900E-01  0.2900E-01
     -2.448  0.0000E+00  0.0000E+00  0.2900E-01  0.2900E-01
     -2.415  0.0000E+00  0.0000E+00  0.2900E-01  0.2900E-01
     -2.382  0.0000E+00  0.0000E+00  0.2900E-01  0.2900E-01
     -2.349  0.0000E+00  0.0000E+00  0.2900E-01  0.2900E-01
     -2.317  0.0000E+00  0.0000E+00  0.2900E-01  0.2900E-01
     -2.284  0.0000E+00  0.0000E+00  0.2900E-01  0.2900E-01
     -2.251  0.0000E+00  0.0000E+00  0.2900E-01  0.2900E-01
     -2.218  0.0000E+00  0.0000E+00  0.2900E-01  0.2900E-01
     -2.186  0.0000E+00  0.0000E+00  0.2900E-01  0.2900E-01
     -2.153  0.0000E+00  0.0000E+00  0.2900E-01  0.2900E-01
     -2.120  0.0000E+00  0.0000E+00  0.2900E-01  0.2900E-01
     -2.087  0.0000E+00  0.0000E+00  0.2900E-01  0.2900E-01
     -2.055  0.0000E+00  0.0000E+00  0.2900E-01  0.2900E-01
     -2.022  0.0000E+00  0.0000E+00  0.2900E-01  0.2900E-01
     -1.989  0.0000E+00  0.0000E+00  0.2900E-01  0.2900E-01
     -1.956  0.0000E+00  0.0000E+00  0.2900E-01  0.2900E-01
     -1.924  0.0000E+00  0.0000E+00  0.2900E-01  0.2900E-01
     -1.891  0.0000E+00  0.0000E+00  0.3000E-01  0.2900E-01
     -1.858  0.0000E+00  0.0000E+00  0.3000E-01  0.2900E-01
     -1.825  0.0000E+00  0.0000E+00  0.3000E-01  0.2900E-01
     -1.793  0.0000E+00  0.0000E+00  0.3000E-01  0.2900E-01
     -1.760  0.0000E+00  0.0000E+00  0.3000E-01  0.2900E-01
     -1.727  0.0000E+00  0.0000E+00  0.3000E-01  0.2900E-01
     -1.694  0.0000E+00  0.0000E+00  0.3000E-01  0.3000E-01
     -1.662  0.0000E+00  0.0000E+00  0.3000E-01  0.3000E-01
     -1.629  0.0000E+00  0.0000E+00  0.3000E-01  0.3000E-01
     -1.596  0.0000E+00  0.0000E+00  0.3000E-01  0.3000E-01
     -1.563  0.0000E+00  0.0000E+00  0.3000E-01  0.3000E-01
     -1.531  0.0000E+00  0.0000E+00  0.3200E-01  0.3000E-01
     -1.498  0.0000E+00  0.0000E+00  0.3200E-01  0.3000E-01
     -1.465  0.0000E+00  0.0000E+00  0.3200E-01  0.3000E-01
     -1.432  0.0000E+00  0.0000E+00  0.3200E-01  0.3000E-01
     -1.400  0.0000E+00  0.0000E+00  0.3200E-01  0.3200E-01
     -1.367  0.0000E+00  0.0000E+00  0.3200E-01  0.3200E-01
     -1.334  0.0000E+00  0.0000E+00  0.3200E-01  0.3200E-01
     -1.301  0.0000E+00  0.0000E+00  0.3200E-01  0.3200E-01
     -1.269  0.0000E+00  0.0000E+00  0.3200E-01  0.3200E-01
     -1.236  0.0000E+00  0.0000E+00  0.3200E-01  0.3200E-01
     -1.203  0.0000E+00  0.0000E+00  0.3200E-01  0.3200E-01
     -1.170  0.0000E+00  0.0000E+00  0.3200E-01  0.3200E-01
     -1.138  0.0000E+00  0.0000E+00  0.3200E-01  0.3200E-01
     -1.105  0.0000E+00  0.0000E+00  0.3200E-01  0.3200E-01
     -1.072  0.0000E+00  0.0000E+00  0.3400E-01  0.3200E-01
     -1.039  0.0000E+00  0.0000E+00  0.3400E-01  0.3200E-01
     -1.007  0.0000E+00  0.0000E+00  0.3400E-01  0.3200E-01
     -0.974  0.0000E+00  0.0000E+00  0.3400E-01  0.3200E-01
     -0.941  0.0000E+00  0.3054E-01  0.3400E-01  0.3300E-01
     -0.908  0.0000E+00  0.0000E+00  0.3400E-01  0.3400E-01
     -0.876  0.0000E+00  0.0000E+00  0.3400E-01  0.3400E-01
     -0.843  0.0000E+00  0.0000E+00  0.3400E-01  0.3400E-01
     -0.810  0.0000E+00  0.0000E+00  0.3500E-01  0.3400E-01
     -0.777  0.0000E+00  0.0000E+00  0.3500E-01  0.3400E-01
     -0.745  0.0000E+00  0.0000E+00  0.3500E-01  0.3400E-01
     -0.712  0.0000E+00  0.0000E+00  0.3500E-01  0.3400E-01
     -0.679  0.0000E+00  0.0000E+00  0.3500E-01  0.3400E-01
     -0.646  0.0000E+00  0.0000E+00  0.3500E-01  0.3400E-01
     -0.614  0.0000E+00  0.0000E+00  0.3500E-01  0.3400E-01
     -0.581  0.0000E+00  0.0000E+00  0.3500E-01  0.3500E-01
     -0.548  0.0000E+00  0.0000E+00  0.3500E-01  0.3500E-01
     -0.515  0.0000E+00  0.0000E+00  0.3500E-01  0.3500E-01
     -0.483  0.0000E+00  0.0000E+00  0.3500E-01  0.3500E-01
     -0.450  0.0000E+00  0.0000E+00  0.3500E-01  0.3500E-01
     -0.417  0.0000E+00  0.0000E+00  0.3500E-01  0.3500E-01
     -0.384  0.0000E+00  0.0000E+00  0.3500E-01  0.3500E-01
     -0.352  0.0000E+00  0.0000E+00  0.3600E-01  0.3500E-01
     -0.319  0.0000E+00  0.0000E+00  0.3600E-01  0.3500E-01
     -0.286  0.0000E+00  0.0000E+00  0.3600E-01  0.3500E-01
     -0.253  0.0000E+00  0.0000E+00  0.3600E-01  0.3500E-01
     -0.221  0.0000E+00  0.0000E+00  0.3600E-01  0.3500E-01
     -0.188  0.0000E+00  0.0000E+00  0.3600E-01  0.3500E-01
     -0.155  0.0000E+00  0.0000E+00  0.3600E-01  0.3500E-01
     -0.122  0.0000E+00  0.0000E+00  0.3600E-01  0.3600E-01
     -0.090  0.0000E+00  0.0000E+00  0.3600E-01  0.3600E-01
     -0.057  0.0000E+00  0.0000E+00  0.3600E-01  0.3600E-01
     -0.024  0.0000E+00  0.0000E+00  0.3600E-01  0.3600E-01
      0.009  0.0000E+00  0.0000E+00  0.3600E-01  0.3600E-01
      0.041  0.0000E+00  0.0000E+00  0.3600E-01  0.3600E-01
      0.074  0.0000E+00  0.0000E+00  0.3600E-01  0.3600E-01
      0.107  0.0000E+00  0.0000E+00  0.3600E-01  0.3600E-01
      0.140  0.0000E+00  0.0000E+00  0.3600E-01  0.3600E-01
      0.172  0.0000E+00  0.0000E+00  0.3600E-01  0.3600E-01
      0.205  0.0000E+00  0.0000E+00  0.3600E-01  0.3600E-01
      0.238  0.0000E+00  0.0000E+00  0.3600E-01  0.3600E-01
      0.271  0.0000E+00  0.0000E+00  0.3600E-01  0.3600E-01
      0.303  0.0000E+00  0.0000E+00  0.3600E-01  0.3600E-01
