unknown system                          
           1
    19.637601    0.000000    0.000000
     0.000000   19.637601    0.000000
     0.000000    0.000000   19.637601
   Ag
   5
Direct configuration=     1
   0.71808529  0.54425365  0.65349892
   0.83982649  0.47393517  0.68357726
   0.40011938  0.77710940  0.50928632
   0.49570522  0.69237603  0.57181370
   0.60378874  0.61627764  0.61749197
Direct configuration=     2
   0.71825088  0.54416699  0.65352416
   0.83954248  0.47410248  0.68351219
   0.40032724  0.77692263  0.50942379
   0.49560648  0.69248222  0.57173005
   0.60379805  0.61627758  0.61747797
Direct configuration=     3
   0.71874764  0.54390701  0.65359987
   0.83869046  0.47460439  0.68331698
   0.40095080  0.77636231  0.50983620
   0.49531025  0.69280077  0.57147912
   0.60382599  0.61627741  0.61743599
Direct configuration=     4
   0.71974115  0.54338704  0.65375129
   0.83698640  0.47560823  0.68292656
   0.40219793  0.77524167  0.51066101
   0.49471780  0.69343789  0.57097727
   0.60388185  0.61627706  0.61735203
Direct configuration=     5
   0.72172819  0.54234711  0.65405413
   0.83357828  0.47761590  0.68214573
   0.40469218  0.77300040  0.51231064
   0.49353291  0.69471211  0.56997356
   0.60399358  0.61627637  0.61718411
Direct configuration=     6
   0.72092121  0.54276945  0.65393114
   0.83496239  0.47680054  0.68246284
   0.40367921  0.77391063  0.51164069
   0.49401412  0.69419462  0.57038119
   0.60394820  0.61627665  0.61725231
Direct configuration=     7
   0.72067691  0.54294542  0.65380025
   0.83455187  0.47703360  0.68236357
   0.40391443  0.77371401  0.51181108
   0.49437660  0.69398085  0.57051476
   0.60400531  0.61627801  0.61717850
Direct configuration=     8
   0.71994403  0.54347335  0.65340758
   0.83332032  0.47773277  0.68206576
   0.40462011  0.77312416  0.51232226
   0.49546405  0.69333955  0.57091550
   0.60417662  0.61628207  0.61695706
Direct configuration=     9
   0.71847826  0.54452920  0.65262224
   0.83085722  0.47913111  0.68147013
   0.40603146  0.77194446  0.51334463
   0.49763894  0.69205694  0.57171698
   0.60451925  0.61629018  0.61651419
Direct configuration=    10
   0.71554672  0.54664091  0.65105157
   0.82593102  0.48192779  0.68027887
   0.40885417  0.76958506  0.51538935
   0.50198871  0.68949173  0.57331993
   0.60520451  0.61630641  0.61562844
Direct configuration=    11
   0.71690759  0.54566062  0.65178070
   0.82821784  0.48062952  0.68083187
   0.40754382  0.77068033  0.51444016
   0.49996948  0.69068254  0.57257581
   0.60488640  0.61629888  0.61603962
Direct configuration=    12
   0.71564100  0.54653878  0.65125185
   0.82755973  0.48095705  0.68068503
   0.40898861  0.76955603  0.51530289
   0.49995745  0.69084420  0.57250710
   0.60537834  0.61605584  0.61592129
Direct configuration=    13
   0.71568006  0.54651170  0.65126815
   0.82758003  0.48094695  0.68068956
   0.40894406  0.76959069  0.51527629
   0.49995782  0.69083922  0.57250922
   0.60536317  0.61606333  0.61592494
Direct configuration=    14
   0.71571895  0.54654891  0.65125137
   0.82737778  0.48101116  0.68065241
   0.40943175  0.76930895  0.51544845
   0.49993412  0.69083127  0.57261857
   0.60506253  0.61625160  0.61569736
Direct configuration=    15
   0.71571394  0.54654411  0.65125354
   0.82740386  0.48100288  0.68065720
   0.40936886  0.76934528  0.51542625
   0.49993718  0.69083229  0.57260447
   0.60510129  0.61622732  0.61572670
