   7   7   0   0
  0.7280601E+03  0.1720898E-08  0.1720898E-08  0.1720898E-08  0.1000000E-15
  1.000000000000000E-004
  CAR 
 unknown system                          
      1.09071621     -9.61034081  301     -3.75151209      1.00000000
     -9.610  0.0000E+00  0.0000E+00  0.0000E+00  0.0000E+00
     -9.575  0.0000E+00  0.0000E+00  0.0000E+00  0.0000E+00
     -9.539  0.0000E+00  0.0000E+00  0.0000E+00  0.0000E+00
     -9.503  0.0000E+00  0.0000E+00  0.0000E+00  0.0000E+00
     -9.468  0.0000E+00  0.0000E+00  0.0000E+00  0.0000E+00
     -9.432  0.0000E+00  0.0000E+00  0.0000E+00  0.0000E+00
     -9.396  0.0000E+00  0.0000E+00  0.0000E+00  0.0000E+00
     -9.361  0.0000E+00  0.0000E+00  0.0000E+00  0.0000E+00
     -9.325  0.0000E+00  0.0000E+00  0.0000E+00  0.0000E+00
     -9.289  0.0000E+00  0.0000E+00  0.0000E+00  0.0000E+00
     -9.254  0.0000E+00  0.0000E+00  0.0000E+00  0.0000E+00
     -9.218  0.0000E+00  0.0000E+00  0.0000E+00  0.0000E+00
     -9.182  0.0000E+00  0.0000E+00  0.0000E+00  0.0000E+00
     -9.147  0.0000E+00  0.0000E+00  0.0000E+00  0.0000E+00
     -9.111  0.0000E+00  0.0000E+00  0.1000E-02  0.0000E+00
     -9.075  0.0000E+00  0.0000E+00  0.1000E-02  0.1000E-02
     -9.040  0.0000E+00  0.0000E+00  0.1000E-02  0.1000E-02
     -9.004  0.0000E+00  0.0000E+00  0.1000E-02  0.1000E-02
     -8.968  0.0000E+00  0.0000E+00  0.1000E-02  0.1000E-02
     -8.933  0.0000E+00  0.0000E+00  0.1000E-02  0.1000E-02
     -8.897  0.0000E+00  0.0000E+00  0.1000E-02  0.1000E-02
     -8.861  0.0000E+00  0.0000E+00  0.1000E-02  0.1000E-02
     -8.826  0.0000E+00  0.0000E+00  0.1000E-02  0.1000E-02
     -8.790  0.0000E+00  0.0000E+00  0.2000E-02  0.1000E-02
     -8.754  0.0000E+00  0.0000E+00  0.2000E-02  0.2000E-02
     -8.719  0.0000E+00  0.0000E+00  0.2000E-02  0.2000E-02
     -8.683  0.0000E+00  0.0000E+00  0.3000E-02  0.3000E-02
     -8.647  0.0000E+00  0.0000E+00  0.3000E-02  0.3000E-02
     -8.612  0.0000E+00  0.0000E+00  0.4000E-02  0.3000E-02
     -8.576  0.0000E+00  0.0000E+00  0.4000E-02  0.4000E-02
     -8.540  0.0000E+00  0.0000E+00  0.4000E-02  0.4000E-02
     -8.505  0.0000E+00  0.0000E+00  0.4000E-02  0.4000E-02
     -8.469  0.0000E+00  0.0000E+00  0.4000E-02  0.4000E-02
     -8.433  0.0000E+00  0.0000E+00  0.4000E-02  0.4000E-02
     -8.398  0.0000E+00  0.0000E+00  0.5000E-02  0.4000E-02
     -8.362  0.0000E+00  0.0000E+00  0.6000E-02  0.5000E-02
     -8.326  0.0000E+00  0.0000E+00  0.6000E-02  0.6000E-02
     -8.291  0.0000E+00  0.0000E+00  0.6000E-02  0.6000E-02
     -8.255  0.0000E+00  0.0000E+00  0.6000E-02  0.6000E-02
     -8.219  0.0000E+00  0.0000E+00  0.8000E-02  0.6000E-02
     -8.184  0.0000E+00  0.0000E+00  0.8000E-02  0.7000E-02
     -8.148  0.0000E+00  0.0000E+00  0.8000E-02  0.8000E-02
     -8.112  0.0000E+00  0.0000E+00  0.8000E-02  0.8000E-02
     -8.077  0.0000E+00  0.0000E+00  0.1000E-01  0.8000E-02
     -8.041  0.0000E+00  0.0000E+00  0.1000E-01  0.1000E-01
     -8.005  0.0000E+00  0.0000E+00  0.1000E-01  0.1000E-01
     -7.970  0.0000E+00  0.0000E+00  0.1000E-01  0.1000E-01
     -7.934  0.0000E+00  0.0000E+00  0.1100E-01  0.1000E-01
     -7.898  0.0000E+00  0.0000E+00  0.1100E-01  0.1000E-01
     -7.863  0.0000E+00  0.0000E+00  0.1100E-01  0.1100E-01
     -7.827  0.0000E+00  0.0000E+00  0.1100E-01  0.1100E-01
     -7.791  0.0000E+00  0.0000E+00  0.1100E-01  0.1100E-01
     -7.755  0.0000E+00  0.0000E+00  0.1100E-01  0.1100E-01
     -7.720  0.0000E+00  0.0000E+00  0.1100E-01  0.1100E-01
     -7.684  0.0000E+00  0.0000E+00  0.1200E-01  0.1100E-01
     -7.648  0.0000E+00  0.0000E+00  0.1200E-01  0.1200E-01
     -7.613  0.0000E+00  0.0000E+00  0.1300E-01  0.1200E-01
     -7.577  0.0000E+00  0.0000E+00  0.1300E-01  0.1300E-01
     -7.541  0.0000E+00  0.0000E+00  0.1300E-01  0.1300E-01
     -7.506  0.0000E+00  0.0000E+00  0.1400E-01  0.1300E-01
     -7.470  0.0000E+00  0.0000E+00  0.1600E-01  0.1400E-01
     -7.434  0.0000E+00  0.0000E+00  0.1600E-01  0.1600E-01
     -7.399  0.0000E+00  0.0000E+00  0.1600E-01  0.1600E-01
     -7.363  0.0000E+00  0.2794E-01  0.1700E-01  0.1700E-01
     -7.327  0.0000E+00  0.0000E+00  0.1700E-01  0.1700E-01
     -7.292  0.0000E+00  0.0000E+00  0.1700E-01  0.1700E-01
     -7.256  0.0000E+00  0.0000E+00  0.1800E-01  0.1700E-01
     -7.220  0.0000E+00  0.0000E+00  0.2000E-01  0.1800E-01
     -7.185  0.0000E+00  0.0000E+00  0.2100E-01  0.2000E-01
     -7.149  0.0000E+00  0.0000E+00  0.2200E-01  0.2100E-01
     -7.113  0.0000E+00  0.0000E+00  0.2300E-01  0.2100E-01
     -7.078  0.0000E+00  0.0000E+00  0.2400E-01  0.2300E-01
     -7.042  0.0000E+00  0.0000E+00  0.2400E-01  0.2300E-01
     -7.006  0.0000E+00  0.0000E+00  0.2400E-01  0.2400E-01
     -6.971  0.0000E+00  0.0000E+00  0.2500E-01  0.2400E-01
     -6.935  0.0000E+00  0.0000E+00  0.2600E-01  0.2400E-01
     -6.899  0.0000E+00  0.0000E+00  0.2600E-01  0.2600E-01
     -6.864  0.0000E+00  0.0000E+00  0.2800E-01  0.2600E-01
     -6.828  0.0000E+00  0.0000E+00  0.2900E-01  0.2800E-01
     -6.792  0.0000E+00  0.0000E+00  0.2900E-01  0.2900E-01
     -6.757  0.0000E+00  0.0000E+00  0.2900E-01  0.2900E-01
     -6.721  0.0000E+00  0.0000E+00  0.3000E-01  0.3000E-01
     -6.685  0.0000E+00  0.0000E+00  0.3100E-01  0.3000E-01
     -6.650  0.0000E+00  0.0000E+00  0.3300E-01  0.3100E-01
     -6.614  0.0000E+00  0.0000E+00  0.3400E-01  0.3300E-01
     -6.578  0.0000E+00  0.0000E+00  0.3400E-01  0.3400E-01
     -6.543  0.0000E+00  0.0000E+00  0.3400E-01  0.3400E-01
     -6.507  0.0000E+00  0.0000E+00  0.3400E-01  0.3400E-01
     -6.471  0.0000E+00  0.0000E+00  0.3500E-01  0.3400E-01
     -6.436  0.0000E+00  0.0000E+00  0.3500E-01  0.3500E-01
     -6.400  0.0000E+00  0.0000E+00  0.3600E-01  0.3600E-01
     -6.364  0.0000E+00  0.0000E+00  0.3600E-01  0.3600E-01
     -6.329  0.0000E+00  0.0000E+00  0.3600E-01  0.3600E-01
     -6.293  0.0000E+00  0.0000E+00  0.3600E-01  0.3600E-01
     -6.257  0.0000E+00  0.0000E+00  0.3600E-01  0.3600E-01
     -6.222  0.0000E+00  0.0000E+00  0.3600E-01  0.3600E-01
     -6.186  0.0000E+00  0.0000E+00  0.3600E-01  0.3600E-01
     -6.150  0.0000E+00  0.0000E+00  0.3600E-01  0.3600E-01
     -6.115  0.0000E+00  0.0000E+00  0.3600E-01  0.3600E-01
     -6.079  0.0000E+00  0.0000E+00  0.3600E-01  0.3600E-01
     -6.043  0.0000E+00  0.0000E+00  0.3600E-01  0.3600E-01
     -6.008  0.0000E+00  0.0000E+00  0.3600E-01  0.3600E-01
     -5.972  0.0000E+00  0.0000E+00  0.3600E-01  0.3600E-01
     -5.936  0.0000E+00  0.0000E+00  0.3600E-01  0.3600E-01
     -5.901  0.0000E+00  0.0000E+00  0.3600E-01  0.3600E-01
     -5.865  0.0000E+00  0.0000E+00  0.3600E-01  0.3600E-01
     -5.829  0.0000E+00  0.0000E+00  0.3600E-01  0.3600E-01
     -5.794  0.0000E+00  0.0000E+00  0.3600E-01  0.3600E-01
     -5.758  0.0000E+00  0.0000E+00  0.3600E-01  0.3600E-01
     -5.722  0.0000E+00  0.0000E+00  0.3600E-01  0.3600E-01
     -5.687  0.0000E+00  0.0000E+00  0.3600E-01  0.3600E-01
     -5.651  0.0000E+00  0.0000E+00  0.3600E-01  0.3600E-01
     -5.615  0.0000E+00  0.0000E+00  0.3600E-01  0.3600E-01
     -5.580  0.0000E+00  0.0000E+00  0.3600E-01  0.3600E-01
     -5.544  0.0000E+00  0.0000E+00  0.3600E-01  0.3600E-01
     -5.508  0.0000E+00  0.0000E+00  0.3600E-01  0.3600E-01
     -5.473  0.0000E+00  0.0000E+00  0.3600E-01  0.3600E-01
     -5.437  0.0000E+00  0.0000E+00  0.3600E-01  0.3600E-01
     -5.401  0.0000E+00  0.0000E+00  0.3600E-01  0.3600E-01
     -5.366  0.0000E+00  0.0000E+00  0.3600E-01  0.3600E-01
     -5.330  0.0000E+00  0.0000E+00  0.3600E-01  0.3600E-01
     -5.294  0.0000E+00  0.0000E+00  0.3600E-01  0.3600E-01
     -5.259  0.0000E+00  0.0000E+00  0.3600E-01  0.3600E-01
     -5.223  0.0000E+00  0.0000E+00  0.3600E-01  0.3600E-01
     -5.187  0.0000E+00  0.0000E+00  0.3600E-01  0.3600E-01
     -5.152  0.0000E+00  0.0000E+00  0.3600E-01  0.3600E-01
     -5.116  0.0000E+00  0.0000E+00  0.3600E-01  0.3600E-01
     -5.080  0.0000E+00  0.0000E+00  0.3700E-01  0.3600E-01
     -5.045  0.0000E+00  0.0000E+00  0.3700E-01  0.3600E-01
     -5.009  0.0000E+00  0.0000E+00  0.3700E-01  0.3700E-01
     -4.973  0.0000E+00  0.0000E+00  0.3700E-01  0.3700E-01
     -4.938  0.0000E+00  0.0000E+00  0.3700E-01  0.3700E-01
     -4.902  0.0000E+00  0.0000E+00  0.3700E-01  0.3700E-01
     -4.866  0.0000E+00  0.0000E+00  0.3700E-01  0.3700E-01
     -4.831  0.0000E+00  0.0000E+00  0.3700E-01  0.3700E-01
     -4.795  0.0000E+00  0.0000E+00  0.3800E-01  0.3700E-01
     -4.759  0.0000E+00  0.0000E+00  0.3800E-01  0.3800E-01
     -4.724  0.0000E+00  0.0000E+00  0.3800E-01  0.3800E-01
     -4.688  0.0000E+00  0.0000E+00  0.3800E-01  0.3800E-01
     -4.652  0.0000E+00  0.0000E+00  0.3800E-01  0.3800E-01
     -4.617  0.0000E+00  0.0000E+00  0.3800E-01  0.3800E-01
     -4.581  0.0000E+00  0.0000E+00  0.3800E-01  0.3800E-01
     -4.545  0.0000E+00  0.0000E+00  0.3800E-01  0.3800E-01
     -4.510  0.0000E+00  0.0000E+00  0.3800E-01  0.3800E-01
     -4.474  0.0000E+00  0.0000E+00  0.3800E-01  0.3800E-01
     -4.438  0.0000E+00  0.0000E+00  0.3800E-01  0.3800E-01
     -4.402  0.0000E+00  0.0000E+00  0.3800E-01  0.3800E-01
     -4.367  0.0000E+00  0.0000E+00  0.3800E-01  0.3800E-01
     -4.331  0.0000E+00  0.0000E+00  0.3800E-01  0.3800E-01
     -4.295  0.0000E+00  0.0000E+00  0.3800E-01  0.3800E-01
     -4.260  0.0000E+00  0.0000E+00  0.3800E-01  0.3800E-01
     -4.224  0.0000E+00  0.0000E+00  0.3800E-01  0.3800E-01
     -4.188  0.0000E+00  0.0000E+00  0.3800E-01  0.3800E-01
     -4.153  0.0000E+00  0.0000E+00  0.3800E-01  0.3800E-01
     -4.117  0.0000E+00  0.0000E+00  0.3800E-01  0.3800E-01
     -4.081  0.0000E+00  0.0000E+00  0.3800E-01  0.3800E-01
     -4.046  0.0000E+00  0.0000E+00  0.3800E-01  0.3800E-01
     -4.010  0.0000E+00  0.0000E+00  0.3800E-01  0.3800E-01
     -3.974  0.0000E+00  0.0000E+00  0.3800E-01  0.3800E-01
     -3.939  0.0000E+00  0.0000E+00  0.3800E-01  0.3800E-01
     -3.903  0.0000E+00  0.0000E+00  0.3800E-01  0.3800E-01
     -3.867  0.0000E+00  0.0000E+00  0.3800E-01  0.3800E-01
     -3.832  0.0000E+00  0.0000E+00  0.3800E-01  0.3800E-01
     -3.796  0.0000E+00  0.0000E+00  0.3800E-01  0.3800E-01
     -3.760  0.0000E+00  0.0000E+00  0.3900E-01  0.3800E-01
     -3.725  0.0000E+00  0.0000E+00  0.3900E-01  0.3800E-01
     -3.689  0.0000E+00  0.0000E+00  0.3900E-01  0.3800E-01
     -3.653  0.0000E+00  0.0000E+00  0.3900E-01  0.3800E-01
     -3.618  0.0000E+00  0.0000E+00  0.3900E-01  0.3800E-01
     -3.582  0.0000E+00  0.0000E+00  0.3900E-01  0.3800E-01
     -3.546  0.0000E+00  0.0000E+00  0.3900E-01  0.3800E-01
     -3.511  0.0000E+00  0.0000E+00  0.3900E-01  0.3800E-01
     -3.475  0.0000E+00  0.0000E+00  0.3900E-01  0.3800E-01
     -3.439  0.0000E+00  0.0000E+00  0.3900E-01  0.3800E-01
     -3.404  0.0000E+00  0.0000E+00  0.3900E-01  0.3900E-01
     -3.368  0.0000E+00  0.0000E+00  0.3900E-01  0.3900E-01
     -3.332  0.0000E+00  0.0000E+00  0.3900E-01  0.3900E-01
     -3.297  0.0000E+00  0.0000E+00  0.3900E-01  0.3900E-01
     -3.261  0.0000E+00  0.0000E+00  0.3900E-01  0.3900E-01
     -3.225  0.0000E+00  0.0000E+00  0.3900E-01  0.3900E-01
     -3.190  0.0000E+00  0.0000E+00  0.3900E-01  0.3900E-01
     -3.154  0.0000E+00  0.0000E+00  0.3900E-01  0.3900E-01
     -3.118  0.0000E+00  0.0000E+00  0.3900E-01  0.3900E-01
     -3.083  0.0000E+00  0.0000E+00  0.3900E-01  0.3900E-01
     -3.047  0.0000E+00  0.0000E+00  0.3900E-01  0.3900E-01
     -3.011  0.0000E+00  0.0000E+00  0.3900E-01  0.3900E-01
     -2.976  0.0000E+00  0.0000E+00  0.3900E-01  0.3900E-01
     -2.940  0.0000E+00  0.0000E+00  0.3900E-01  0.3900E-01
     -2.904  0.0000E+00  0.0000E+00  0.3900E-01  0.3900E-01
     -2.869  0.0000E+00  0.0000E+00  0.3900E-01  0.3900E-01
     -2.833  0.0000E+00  0.0000E+00  0.3900E-01  0.3900E-01
     -2.797  0.0000E+00  0.0000E+00  0.3900E-01  0.3900E-01
     -2.762  0.0000E+00  0.0000E+00  0.4000E-01  0.3900E-01
     -2.726  0.0000E+00  0.0000E+00  0.4000E-01  0.3900E-01
     -2.690  0.0000E+00  0.0000E+00  0.4000E-01  0.4000E-01
     -2.655  0.0000E+00  0.0000E+00  0.4000E-01  0.4000E-01
     -2.619  0.0000E+00  0.0000E+00  0.4000E-01  0.4000E-01
     -2.583  0.0000E+00  0.0000E+00  0.4100E-01  0.4000E-01
     -2.548  0.0000E+00  0.0000E+00  0.4100E-01  0.4000E-01
     -2.512  0.0000E+00  0.0000E+00  0.4100E-01  0.4100E-01
     -2.476  0.0000E+00  0.0000E+00  0.4100E-01  0.4100E-01
     -2.441  0.0000E+00  0.0000E+00  0.4100E-01  0.4100E-01
     -2.405  0.0000E+00  0.0000E+00  0.4100E-01  0.4100E-01
     -2.369  0.0000E+00  0.0000E+00  0.4200E-01  0.4100E-01
     -2.334  0.0000E+00  0.0000E+00  0.4200E-01  0.4100E-01
     -2.298  0.0000E+00  0.0000E+00  0.4200E-01  0.4100E-01
     -2.262  0.0000E+00  0.0000E+00  0.4200E-01  0.4200E-01
     -2.227  0.0000E+00  0.0000E+00  0.4200E-01  0.4200E-01
     -2.191  0.0000E+00  0.0000E+00  0.4200E-01  0.4200E-01
     -2.155  0.0000E+00  0.0000E+00  0.4200E-01  0.4200E-01
     -2.120  0.0000E+00  0.0000E+00  0.4200E-01  0.4200E-01
     -2.084  0.0000E+00  0.0000E+00  0.4200E-01  0.4200E-01
     -2.048  0.0000E+00  0.0000E+00  0.4200E-01  0.4200E-01
     -2.013  0.0000E+00  0.0000E+00  0.4200E-01  0.4200E-01
     -1.977  0.0000E+00  0.0000E+00  0.4200E-01  0.4200E-01
     -1.941  0.0000E+00  0.0000E+00  0.4200E-01  0.4200E-01
     -1.906  0.0000E+00  0.0000E+00  0.4200E-01  0.4200E-01
     -1.870  0.0000E+00  0.0000E+00  0.4200E-01  0.4200E-01
     -1.834  0.0000E+00  0.0000E+00  0.4200E-01  0.4200E-01
     -1.799  0.0000E+00  0.0000E+00  0.4200E-01  0.4200E-01
     -1.763  0.0000E+00  0.0000E+00  0.4200E-01  0.4200E-01
     -1.727  0.0000E+00  0.0000E+00  0.4200E-01  0.4200E-01
     -1.692  0.0000E+00  0.0000E+00  0.4200E-01  0.4200E-01
     -1.656  0.0000E+00  0.0000E+00  0.4200E-01  0.4200E-01
     -1.620  0.0000E+00  0.0000E+00  0.4200E-01  0.4200E-01
     -1.585  0.0000E+00  0.0000E+00  0.4200E-01  0.4200E-01
     -1.549  0.0000E+00  0.0000E+00  0.4200E-01  0.4200E-01
     -1.513  0.0000E+00  0.0000E+00  0.4200E-01  0.4200E-01
     -1.478  0.0000E+00  0.0000E+00  0.4200E-01  0.4200E-01
     -1.442  0.0000E+00  0.0000E+00  0.4200E-01  0.4200E-01
     -1.406  0.0000E+00  0.0000E+00  0.4200E-01  0.4200E-01
     -1.371  0.0000E+00  0.0000E+00  0.4200E-01  0.4200E-01
     -1.335  0.0000E+00  0.0000E+00  0.4200E-01  0.4200E-01
     -1.299  0.0000E+00  0.0000E+00  0.4200E-01  0.4200E-01
     -1.264  0.0000E+00  0.0000E+00  0.4200E-01  0.4200E-01
     -1.228  0.0000E+00  0.0000E+00  0.4300E-01  0.4200E-01
     -1.192  0.0000E+00  0.0000E+00  0.4300E-01  0.4200E-01
     -1.157  0.0000E+00  0.0000E+00  0.4300E-01  0.4200E-01
     -1.121  0.0000E+00  0.0000E+00  0.4400E-01  0.4200E-01
     -1.085  0.0000E+00  0.0000E+00  0.4400E-01  0.4300E-01
     -1.049  0.0000E+00  0.0000E+00  0.4400E-01  0.4300E-01
     -1.014  0.0000E+00  0.0000E+00  0.4400E-01  0.4300E-01
     -0.978  0.0000E+00  0.0000E+00  0.4500E-01  0.4300E-01
     -0.942  0.0000E+00  0.0000E+00  0.4500E-01  0.4400E-01
     -0.907  0.0000E+00  0.0000E+00  0.4500E-01  0.4400E-01
     -0.871  0.0000E+00  0.0000E+00  0.4500E-01  0.4400E-01
     -0.835  0.0000E+00  0.0000E+00  0.4600E-01  0.4400E-01
     -0.800  0.0000E+00  0.0000E+00  0.4600E-01  0.4500E-01
     -0.764  0.0000E+00  0.0000E+00  0.4600E-01  0.4500E-01
     -0.728  0.0000E+00  0.0000E+00  0.4600E-01  0.4500E-01
     -0.693  0.0000E+00  0.0000E+00  0.4600E-01  0.4500E-01
     -0.657  0.0000E+00  0.0000E+00  0.4700E-01  0.4500E-01
     -0.621  0.0000E+00  0.0000E+00  0.4700E-01  0.4600E-01
     -0.586  0.0000E+00  0.0000E+00  0.4700E-01  0.4700E-01
     -0.550  0.0000E+00  0.0000E+00  0.4700E-01  0.4700E-01
     -0.514  0.0000E+00  0.0000E+00  0.4700E-01  0.4700E-01
     -0.479  0.0000E+00  0.0000E+00  0.4700E-01  0.4700E-01
     -0.443  0.0000E+00  0.0000E+00  0.4700E-01  0.4700E-01
     -0.407  0.0000E+00  0.0000E+00  0.4700E-01  0.4700E-01
     -0.372  0.0000E+00  0.0000E+00  0.4700E-01  0.4700E-01
     -0.336  0.0000E+00  0.0000E+00  0.4700E-01  0.4700E-01
     -0.300  0.0000E+00  0.0000E+00  0.4700E-01  0.4700E-01
     -0.265  0.0000E+00  0.0000E+00  0.4700E-01  0.4700E-01
     -0.229  0.0000E+00  0.0000E+00  0.4800E-01  0.4700E-01
     -0.193  0.0000E+00  0.0000E+00  0.4800E-01  0.4700E-01
     -0.158  0.0000E+00  0.0000E+00  0.4800E-01  0.4700E-01
     -0.122  0.0000E+00  0.0000E+00  0.4800E-01  0.4700E-01
     -0.086  0.0000E+00  0.0000E+00  0.4800E-01  0.4800E-01
     -0.051  0.0000E+00  0.0000E+00  0.4800E-01  0.4800E-01
     -0.015  0.0000E+00  0.0000E+00  0.4800E-01  0.4800E-01
      0.021  0.0000E+00  0.0000E+00  0.4900E-01  0.4800E-01
      0.056  0.0000E+00  0.0000E+00  0.4900E-01  0.4900E-01
      0.092  0.0000E+00  0.0000E+00  0.4900E-01  0.4900E-01
      0.128  0.0000E+00  0.0000E+00  0.4900E-01  0.4900E-01
      0.163  0.0000E+00  0.0000E+00  0.4900E-01  0.4900E-01
      0.199  0.0000E+00  0.0000E+00  0.5000E-01  0.4900E-01
      0.235  0.0000E+00  0.2803E-01  0.5000E-01  0.5000E-01
      0.270  0.0000E+00  0.0000E+00  0.5000E-01  0.5000E-01
      0.306  0.0000E+00  0.0000E+00  0.5000E-01  0.5000E-01
      0.342  0.0000E+00  0.0000E+00  0.5000E-01  0.5000E-01
      0.377  0.0000E+00  0.0000E+00  0.5000E-01  0.5000E-01
      0.413  0.0000E+00  0.0000E+00  0.5100E-01  0.5000E-01
      0.449  0.0000E+00  0.0000E+00  0.5100E-01  0.5000E-01
      0.484  0.0000E+00  0.0000E+00  0.5100E-01  0.5000E-01
      0.520  0.0000E+00  0.0000E+00  0.5200E-01  0.5000E-01
      0.556  0.0000E+00  0.2803E-01  0.5200E-01  0.5100E-01
      0.591  0.0000E+00  0.0000E+00  0.5200E-01  0.5100E-01
      0.627  0.0000E+00  0.0000E+00  0.5200E-01  0.5200E-01
      0.663  0.0000E+00  0.0000E+00  0.5200E-01  0.5200E-01
      0.698  0.0000E+00  0.0000E+00  0.5200E-01  0.5200E-01
      0.734  0.0000E+00  0.0000E+00  0.5200E-01  0.5200E-01
      0.770  0.0000E+00  0.0000E+00  0.5200E-01  0.5200E-01
      0.805  0.0000E+00  0.0000E+00  0.5200E-01  0.5200E-01
      0.841  0.0000E+00  0.0000E+00  0.5200E-01  0.5200E-01
      0.877  0.0000E+00  0.0000E+00  0.5200E-01  0.5200E-01
      0.912  0.0000E+00  0.0000E+00  0.5200E-01  0.5200E-01
      0.948  0.0000E+00  0.0000E+00  0.5200E-01  0.5200E-01
      0.984  0.0000E+00  0.0000E+00  0.5200E-01  0.5200E-01
      1.019  0.0000E+00  0.0000E+00  0.5200E-01  0.5200E-01
      1.055  0.0000E+00  0.0000E+00  0.5200E-01  0.5200E-01
      1.091  0.0000E+00  0.0000E+00  0.5200E-01  0.5200E-01
