 vasp.5.3.5 31Mar14 (build Feb 01 2018 12:10:03) gamma-only                     
  
 executed on             LinuxIFC date 2019.03.23  14:27:26
 running on   32 total cores
 distrk:  each k-point on   32 cores,    1 groups
 distr:  one band on NCORES_PER_BAND=   8 cores,    4 groups


--------------------------------------------------------------------------------------------------------


 INCAR:
 POTCAR:    PAW_PBE Ag 02Apr2005                  
 POTCAR:    PAW_PBE Ag 02Apr2005                  
   VRHFIN =Ag : s1 d10                                                          
   LEXCH  = PE                                                                  
   EATOM  =  1037.2675 eV,   76.2370 Ry                                         
                                                                                
   TITEL  = PAW_PBE Ag 02Apr2005                                                
   LULTRA =        F    use ultrasoft PP ?                                      
   IUNSCR =        1    unscreen: 0-lin 1-nonlin 2-no                           
   RPACOR =    2.000    partial core radius                                     
   POMASS =  107.868; ZVAL   =   11.000    mass and valenz                      
   RCORE  =    2.500    outmost cutoff radius                                   
   RWIGS  =    2.840; RWIGS  =    1.503    wigner-seitz radius (au A)           
   ENMAX  =  249.844; ENMIN  =  187.383 eV                                      
   ICORE  =        3    local potential                                         
   LCOR   =        T    correct aug charges                                     
   LPAW   =        T    paw PP                                                  
   EAUG   =  412.496                                                            
   DEXC   =    0.000                                                            
   RMAX   =    2.560    core radius for proj-oper                               
   RAUG   =    1.300    factor for augmentation sphere                          
   RDEP   =    2.576    radius for radial grids                                 
   RDEPT  =    2.072    core radius for aug-charge                              
                                                                                
   Atomic configuration                                                         
   12 entries                                                                   
     n  l   j            E        occ.                                          
     1  0  0.50    -25324.9161   2.0000                                         
     2  0  0.50     -3728.5341   2.0000                                         
     2  1  1.50     -3344.0404   6.0000                                         
     3  0  0.50      -683.5581   2.0000                                         
     3  1  1.50      -557.3225   6.0000                                         
     3  2  2.50      -358.3853  10.0000                                         
     4  0  0.50       -95.0341   2.0000                                         
     4  1  1.50       -58.5511   6.0000                                         
     4  2  2.50        -7.4440  10.0000                                         
     5  0  0.50        -4.4045   1.0000                                         
     5  1  0.50        -1.3606   0.0000                                         
     4  3  2.50        -1.3606   0.0000                                         
   Description                                                                  
     l       E           TYP  RCUT    TYP  RCUT                                 
     2     -7.4439781     23  2.400                                             
     2     -8.8045607     23  2.400                                             
     0     -4.4044681     23  2.400                                             
     0      1.9520038     23  2.400                                             
     1     -1.3605826     23  2.500                                             
     1     27.2116520     23  2.500                                             
     3     -4.0817478     23  2.400                                             
  local pseudopotential read in
  partial core-charges read in
  partial kinetic energy density read in
  atomic valenz-charges read in
  non local Contribution for L=           2  read in
    real space projection operators read in
  non local Contribution for L=           2  read in
    real space projection operators read in
  non local Contribution for L=           0  read in
    real space projection operators read in
  non local Contribution for L=           0  read in
    real space projection operators read in
  non local Contribution for L=           1  read in
    real space projection operators read in
  non local Contribution for L=           1  read in
    real space projection operators read in
    PAW grid and wavefunctions read in
 
   number of l-projection  operators is LMAX  =           6
   number of lm-projection operators is LMMAX =          18
 
  PAW_PBE Ag 02Apr2005                  :
 energy of atom  1       EATOM=-1037.2675
 kinetic energy error for atom=    0.0689 (will be added to EATOM!!)
 
 
 POSCAR: Be7, -9.97768844 <s> Ag </s>            
  positions in direct lattice
  No initial velocities read in
 exchange correlation table for  LEXCH =        8
   RHO(1)=    0.500       N(1)  =     2000
   RHO(2)=  100.500       N(2)  =     4000
 


--------------------------------------------------------------------------------------------------------


 ion  position               nearest neighbor table
   1  0.796  0.458  0.661-   2 2.90
   2  0.689  0.585  0.633-   3 2.63   5 2.71   6 2.73   1 2.90   4 3.26
   3  0.647  0.686  0.525-   5 2.43   2 2.63   6 2.71   7 2.78
   4  0.540  0.481  0.685-   6 2.93   2 3.26
   5  0.651  0.736  0.657-   3 2.43   6 2.52   7 2.67   2 2.71
   6  0.541  0.643  0.634-   7 2.51   5 2.52   3 2.71   2 2.73   4 2.93
   7  0.524  0.777  0.578-   6 2.51   5 2.67   3 2.78
 
  LATTYP: Found a simple cubic cell.
 ALAT       =    17.2089787837
  
  Lattice vectors:
  
 A1 = (  17.2089787837,   0.0000000000,   0.0000000000)
 A2 = (   0.0000000000,  17.2089787837,   0.0000000000)
 A3 = (   0.0000000000,   0.0000000000,  17.2089787837)


Analysis of symmetry for initial positions (statically):
=====================================================================
 Subroutine PRICEL returns:
 Original cell was already a primitive cell.
 

 Routine SETGRP: Setting up the symmetry group for a 
 simple cubic supercell.


 Subroutine GETGRP returns: Found  1 space group operations
 (whereof  1 operations were pure point group operations)
 out of a pool of 48 trial point group operations.


The static configuration has the point symmetry C_1 .


Analysis of symmetry for dynamics (positions and initial velocities):
=====================================================================
 Subroutine PRICEL returns:
 Original cell was already a primitive cell.
 

 Routine SETGRP: Setting up the symmetry group for a 
 simple cubic supercell.


 Subroutine GETGRP returns: Found  1 space group operations
 (whereof  1 operations were pure point group operations)
 out of a pool of 48 trial point group operations.


The dynamic configuration has the point symmetry C_1 .


Analysis of magnetic symmetry:
=====================================================================
 Subroutine PRICEL returns:
 Original cell was already a primitive cell.
 

 Subroutine MAGSYM returns: Found  1 space group operations
 (whereof  1 operations were pure point group operations)
 out of a pool of  1 trial space group operations
 (whereof  1 operations were pure point group operations)
 and found also     1 'primitive' translations


The magnetic configuration has the point symmetry C_1 .
 
 
 KPOINTS: Gamma-point only                        
  k-points in reciprocal lattice
Space group operators:
 irot       det(A)        alpha          n_x          n_y          n_z        tau_x        tau_y        tau_z
    1     1.000000     0.000000     1.000000     0.000000     0.000000     0.000000     0.000000     0.000000


--------------------------------------------------------------------------------------------------------




 Dimension of arrays:
   k-points           NKPTS =      1   k-points in BZ     NKDIM =      1   number of bands    NBANDS=     52
   number of dos      NEDOS =    301   number of ions     NIONS =      7
   non local maximal  LDIM  =      6   non local SUM 2l+1 LMDIM =     18
   total plane-waves  NPLWV = 343000
   max r-space proj   IRMAX =      1   max aug-charges    IRDMAX=   3508
   dimension x,y,z NGX =    70 NGY =   70 NGZ =   70
   dimension x,y,z NGXF=   140 NGYF=  140 NGZF=  140
   support grid    NGXF=   140 NGYF=  140 NGZF=  140
   ions per type =               7
 NGX,Y,Z   is equivalent  to a cutoff of   6.76,  6.76,  6.76 a.u.
 NGXF,Y,Z  is equivalent  to a cutoff of  13.52, 13.52, 13.52 a.u.


 I would recommend the setting:
   dimension x,y,z NGX =    67 NGY =   67 NGZ =   67
 SYSTEM =  unknown system                          
 POSCAR =  Be7, -9.97768844 <s> Ag </s>            

 Startparameter for this run:
   NWRITE =      2    write-flag & timer
   PREC   = normal    normal or accurate (medium, high low for compatibility)
   ISTART =      0    job   : 0-new  1-cont  2-samecut
   ICHARG =      2    charge: 1-file 2-atom 10-const
   ISPIN  =      2    spin polarized calculation?
   LNONCOLLINEAR =      F non collinear calculations
   LSORBIT =      F    spin-orbit coupling
   INIWAV =      1    electr: 0-lowe 1-rand  2-diag
   LASPH  =      F    aspherical Exc in radial PAW
   METAGGA=      F    non-selfconsistent MetaGGA calc.

 Electronic Relaxation 1
   ENCUT  =  249.8 eV  18.36 Ry    4.29 a.u.  22.18 22.18 22.18*2*pi/ulx,y,z
   ENINI  =  249.8     initial cutoff
   ENAUG  =  412.5 eV  augmentation charge cutoff
   NELM   =     60;   NELMIN=  2; NELMDL= -5     # of ELM steps 
   EDIFF  = 0.1E-03   stopping-criterion for ELM
   LREAL  =      F    real-space projection
   NLSPLINE    = F    spline interpolate recip. space projectors
   LCOMPAT=      F    compatible to vasp.4.4
   GGA_COMPAT  = T    GGA compatible to vasp.4.4-vasp.4.6
   LMAXPAW     = -100 max onsite density
   LMAXMIX     =    2 max onsite mixed and CHGCAR
   VOSKOWN=      0    Vosko Wilk Nusair interpolation
   ROPT   =    0.00000
 Ionic relaxation
   EDIFFG = 0.1E-02   stopping-criterion for IOM
   NSW    =   1000    number of steps for IOM
   NBLOCK =      1;   KBLOCK =   1000    inner block; outer block 
   IBRION =      2    ionic relax: 0-MD 1-quasi-New 2-CG
   NFREE  =      1    steps in history (QN), initial steepest desc. (CG)
   ISIF   =      2    stress and relaxation
   IWAVPR =     11    prediction:  0-non 1-charg 2-wave 3-comb
   ISYM   =      2    0-nonsym 1-usesym 2-fastsym
   LCORR  =      T    Harris-Foulkes like correction to forces

   POTIM  = 0.1000    time-step for ionic-motion
   TEIN   =    0.0    initial temperature
   TEBEG  =    0.0;   TEEND  =   0.0 temperature during run
   SMASS  =  -3.00    Nose mass-parameter (am)
   estimated Nose-frequenzy (Omega)   =  0.10E-29 period in steps =****** mass=  -0.677E-26a.u.
   SCALEE = 1.0000    scale energy and forces
   NPACO  =    256;   APACO  = 16.0  distance and # of slots for P.C.
   PSTRESS=    0.0 pullay stress

  Mass of Ions in am
   POMASS = 107.87
  Ionic Valenz
   ZVAL   =  11.00
  Atomic Wigner-Seitz radii
   RWIGS  =  -1.00
  virtual crystal weights 
   VCA    =   1.00
   NELECT =      77.0000    total number of electrons
   NUPDOWN=      -1.0000    fix difference up-down

 DOS related values:
   EMIN   =  10.00;   EMAX   =-10.00  energy-range for DOS
   EFERMI =   0.00
   ISMEAR =     0;   SIGMA  =   0.00  broadening in eV -4-tet -1-fermi 0-gaus

 Electronic relaxation 2 (details)
   IALGO  =     38    algorithm
   LDIAG  =      T    sub-space diagonalisation (order eigenvalues)
   LSUBROT=      F    optimize rotation matrix (better conditioning)
   TURBO    =      0    0=normal 1=particle mesh
   IRESTART =      0    0=no restart 2=restart with 2 vectors
   NREBOOT  =      0    no. of reboots
   NMIN     =      0    reboot dimension
   EREF     =   0.00    reference energy to select bands
   IMIX   =      4    mixing-type and parameters
     AMIX     =   0.40;   BMIX     =  1.00
     AMIX_MAG =   1.60;   BMIX_MAG =  1.00
     AMIN     =   0.10
     WC   =   100.;   INIMIX=   1;  MIXPRE=   1;  MAXMIX= -45

 Intra band minimization:
   WEIMIN = 0.0010     energy-eigenvalue tresh-hold
   EBREAK =  0.48E-06  absolut break condition
   DEPER  =   0.30     relativ break condition  

   TIME   =   0.40     timestep for ELM

  volume/ion in A,a.u.               =     728.06      4913.19
  Fermi-wavevector in a.u.,A,eV,Ry     =   0.404716  0.764802  2.228563  0.163795
  Thomas-Fermi vector in A             =   1.356528
 
 Write flags
   LWAVE  =      F    write WAVECAR
   LCHARG =      F    write CHGCAR
   LVTOT  =      F    write LOCPOT, total local potential
   LVHAR  =      F    write LOCPOT, Hartree potential only
   LELF   =      F    write electronic localiz. function (ELF)
   LORBIT =      0    0 simple, 1 ext, 2 COOP (PROOUT)


 Dipole corrections
   LMONO  =      F    monopole corrections only (constant potential shift)
   LDIPOL =      F    correct potential (dipole corrections)
   IDIPOL =      0    1-x, 2-y, 3-z, 4-all directions 
   EPSILON=  1.0000000 bulk dielectric constant

 Exchange correlation treatment:
   GGA     =    PE    GGA type
   LEXCH   =     8    internal setting for exchange type
   VOSKOWN=      0    Vosko Wilk Nusair interpolation
   LHFCALC =     F    Hartree Fock is set to
   LHFONE  =     F    Hartree Fock one center treatment
   AEXX    =    0.0000 exact exchange contribution

 Linear response parameters
   LEPSILON=     F    determine dielectric tensor
   LRPA    =     F    only Hartree local field effects (RPA)
   LNABLA  =     F    use nabla operator in PAW spheres
   LVEL    =     F    velocity operator in full k-point grid
   LINTERFAST=   F  fast interpolation
   KINTER  =     0    interpolate to denser k-point grid
   CSHIFT  =0.1000    complex shift for real part using Kramers Kronig
   OMEGAMAX=  -1.0    maximum frequency
   DEG_THRESHOLD= 0.2000000E-02 threshold for treating states as degnerate
   RTIME   =    0.100 relaxation time in fs

 Orbital magnetization related:
   ORBITALMAG=     F  switch on orbital magnetization
   LCHIMAG   =     F  perturbation theory with respect to B field
   DQ        =  0.001000  dq finite difference perturbation B field



--------------------------------------------------------------------------------------------------------


 conjugate gradient relaxation of ions
 charge density and potential will be updated during run
 spin polarized calculation
 Variant of blocked Davidson
 Davidson routine will perform the subspace rotation
 perform sub-space diagonalisation
    after iterative eigenvector-optimisation
 modified Broyden-mixing scheme, WC =      100.0
 initial mixing is a Kerker type mixing with AMIX =  0.4000 and BMIX =      1.0000
 Hartree-type preconditioning will be used
 using additional bands           13
 reciprocal scheme for non local part
 use partial core corrections
 calculate Harris-corrections to forces 
   (improved forces if not selfconsistent)
 use gradient corrections 
 use of overlap-Matrix (Vanderbilt PP)
 Gauss-broadening in eV      SIGMA  =   0.00


--------------------------------------------------------------------------------------------------------


  energy-cutoff  :      249.84
  volume of cell :     5096.42
      direct lattice vectors                 reciprocal lattice vectors
    17.208978784  0.000000000  0.000000000     0.058109201  0.000000000  0.000000000
     0.000000000 17.208978784  0.000000000     0.000000000  0.058109201  0.000000000
     0.000000000  0.000000000 17.208978784     0.000000000  0.000000000  0.058109201

  length of vectors
    17.208978784 17.208978784 17.208978784     0.058109201  0.058109201  0.058109201


 
 k-points in units of 2pi/SCALE and weight: Gamma-point only                        
   0.00000000  0.00000000  0.00000000       1.000
 
 k-points in reciprocal lattice and weights: Gamma-point only                        
   0.00000000  0.00000000  0.00000000       1.000
 
 position of ions in fractional coordinates (direct lattice) 
   0.79595161  0.45837067  0.66053220
   0.68895069  0.58548340  0.63335157
   0.64695358  0.68552670  0.52536978
   0.54023892  0.48054833  0.68546922
   0.65146044  0.73630162  0.65718858
   0.54112632  0.64275250  0.63363936
   0.52438412  0.77654299  0.57761226
 
 position of ions in cartesian coordinates  (Angst):
  13.69751440  7.88809110 11.36708457
  11.85613772 10.07557148 10.89933374
  11.13341037 11.79721451  9.04107744
   9.29696009  8.26974609 11.79622533
  11.21096885 12.67099888 11.30954431
   9.31223130 11.06111406 10.90428624
   9.02411516 13.36351185  9.94011711
 


--------------------------------------------------------------------------------------------------------


 use parallel FFT for wavefunctions z direction half grid
 k-point  1 :   0.0000 0.0000 0.0000  plane waves:   22885

 maximum and minimum number of plane-waves per node :      2869     2848

 maximum number of plane-waves:     22885
 maximum index in each direction: 
   IXMAX=   22   IYMAX=   22   IZMAX=   22
   IXMIN=  -22   IYMIN=  -22   IZMIN=    0

 WARNING: aliasing errors must be expected set NGX to  90 to avoid them
 WARNING: aliasing errors must be expected set NGY to  90 to avoid them
 WARNING: aliasing errors must be expected set NGZ to  90 to avoid them
 aliasing errors are usually negligible using standard VASP settings
 and one can safely disregard these warnings

 parallel 3D FFT for wavefunctions:
    minimum data exchange during FFTs selected (reduces bandwidth)
 parallel 3D FFT for charge:
    minimum data exchange during FFTs selected (reduces bandwidth)


 total amount of memory used by VASP on root node    46832. kBytes
========================================================================

   base      :      30000. kBytes
   nonl-proj :        735. kBytes
   fftplans  :       4202. kBytes
   grid      :      10682. kBytes
   one-center:         15. kBytes
   wavefun   :       1198. kBytes
 
     INWAV:  cpu time    0.00: real time    0.00
 Broyden mixing: mesh for mixing (old mesh)
   NGX = 45   NGY = 45   NGZ = 45
  (NGX  =140   NGY  =140   NGZ  =140)
  gives a total of  91125 points

 initial charge density was supplied:
 charge density of overlapping atoms calculated
 number of electron      77.0000000 magnetization       7.0000000
 keeping initial charge density in first step


--------------------------------------------------------------------------------------------------------


 Maximum index for augmentation-charges          264 (set IRDMAX)


--------------------------------------------------------------------------------------------------------


 First call to EWALD:  gamma=   0.103
 Maximum number of real-space cells 3x 3x 3
 Maximum number of reciprocal cells 3x 3x 3

 FEWALD executed in parallel
    FEWALD:  cpu time    0.00: real time    0.00


----------------------------------------- Iteration    1(   1)  ---------------------------------------


    POTLOK:  cpu time    0.16: real time    0.16
    SETDIJ:  cpu time    0.00: real time    0.01
     EDDAV:  cpu time    0.30: real time    0.30
       DOS:  cpu time    0.00: real time    0.00
    --------------------------------------------
      LOOP:  cpu time    0.46: real time    0.77

 eigenvalue-minimisations  :   208
 total energy-change (2. order) : 0.6522068E+03  (-0.1117727E+04)
 number of electron      77.0000000 magnetization       7.0000000
 augmentation part       77.0000000 magnetization       7.0000000

 Free energy of the ion-electron system (eV)
  ---------------------------------------------------
  alpha Z        PSCENC =         8.17795965
  Ewald energy   TEWEN  =      3947.03072244
  -Hartree energ DENC   =    -10889.42332721
  -exchange      EXHF   =         0.00000000
  -V(xc)+E(xc)   XCENC  =       -79.46841049
  PAW double counting   =      7023.60524649    -6700.85226215
  entropy T*S    EENTRO =         0.00000000
  eigenvalues    EBANDS =        82.74647451
  atomic energy  EATOM  =      7260.39041060
  ---------------------------------------------------
  free energy    TOTEN  =       652.20681384 eV

  energy without entropy =      652.20681384  energy(sigma->0) =      652.20681384


--------------------------------------------------------------------------------------------------------




----------------------------------------- Iteration    1(   2)  ---------------------------------------


     EDDAV:  cpu time    0.48: real time    0.48
       DOS:  cpu time    0.00: real time    0.00
    --------------------------------------------
      LOOP:  cpu time    0.48: real time    0.55

 eigenvalue-minimisations  :   384
 total energy-change (2. order) :-0.4010465E+03  (-0.3501257E+03)
 number of electron      77.0000000 magnetization       7.0000000
 augmentation part       77.0000000 magnetization       7.0000000

 Free energy of the ion-electron system (eV)
  ---------------------------------------------------
  alpha Z        PSCENC =         8.17795965
  Ewald energy   TEWEN  =      3947.03072244
  -Hartree energ DENC   =    -10889.42332721
  -exchange      EXHF   =         0.00000000
  -V(xc)+E(xc)   XCENC  =       -79.46841049
  PAW double counting   =      7023.60524649    -6700.85226215
  entropy T*S    EENTRO =         0.00000000
  eigenvalues    EBANDS =      -318.30005620
  atomic energy  EATOM  =      7260.39041060
  ---------------------------------------------------
  free energy    TOTEN  =       251.16028312 eV

  energy without entropy =      251.16028312  energy(sigma->0) =      251.16028312


--------------------------------------------------------------------------------------------------------




----------------------------------------- Iteration    1(   3)  ---------------------------------------


     EDDAV:  cpu time    0.41: real time    0.41
       DOS:  cpu time    0.00: real time    0.00
    --------------------------------------------
      LOOP:  cpu time    0.41: real time    0.51

 eigenvalue-minimisations  :   320
 total energy-change (2. order) :-0.2396406E+03  (-0.2243584E+03)
 number of electron      77.0000000 magnetization       7.0000000
 augmentation part       77.0000000 magnetization       7.0000000

 Free energy of the ion-electron system (eV)
  ---------------------------------------------------
  alpha Z        PSCENC =         8.17795965
  Ewald energy   TEWEN  =      3947.03072244
  -Hartree energ DENC   =    -10889.42332721
  -exchange      EXHF   =         0.00000000
  -V(xc)+E(xc)   XCENC  =       -79.46841049
  PAW double counting   =      7023.60524649    -6700.85226215
  entropy T*S    EENTRO =         0.00000000
  eigenvalues    EBANDS =      -557.94066043
  atomic energy  EATOM  =      7260.39041060
  ---------------------------------------------------
  free energy    TOTEN  =        11.51967890 eV

  energy without entropy =       11.51967890  energy(sigma->0) =       11.51967890


--------------------------------------------------------------------------------------------------------




----------------------------------------- Iteration    1(   4)  ---------------------------------------


     EDDAV:  cpu time    0.33: real time    0.32
       DOS:  cpu time    0.00: real time    0.00
    --------------------------------------------
      LOOP:  cpu time    0.33: real time    0.45

 eigenvalue-minimisations  :   240
 total energy-change (2. order) :-0.2048040E+02  (-0.1763089E+02)
 number of electron      77.0000000 magnetization       7.0000000
 augmentation part       77.0000000 magnetization       7.0000000

 Free energy of the ion-electron system (eV)
  ---------------------------------------------------
  alpha Z        PSCENC =         8.17795965
  Ewald energy   TEWEN  =      3947.03072244
  -Hartree energ DENC   =    -10889.42332721
  -exchange      EXHF   =         0.00000000
  -V(xc)+E(xc)   XCENC  =       -79.46841049
  PAW double counting   =      7023.60524649    -6700.85226215
  entropy T*S    EENTRO =         0.00000000
  eigenvalues    EBANDS =      -578.42106393
  atomic energy  EATOM  =      7260.39041060
  ---------------------------------------------------
  free energy    TOTEN  =        -8.96072460 eV

  energy without entropy =       -8.96072460  energy(sigma->0) =       -8.96072460


--------------------------------------------------------------------------------------------------------




----------------------------------------- Iteration    1(   5)  ---------------------------------------


     EDDAV:  cpu time    0.31: real time    0.31
       DOS:  cpu time    0.00: real time    0.00
    CHARGE:  cpu time    0.03: real time    0.03
    MIXING:  cpu time    0.00: real time    0.00
    --------------------------------------------
      LOOP:  cpu time    0.34: real time    0.35

 eigenvalue-minimisations  :   228
 total energy-change (2. order) :-0.3916039E+00  (-0.3907953E+00)
 number of electron      76.9999987 magnetization       5.8707929
 augmentation part       36.6239448 magnetization       5.0042951

 Broyden mixing:
  rms(total) = 0.15012E+01    rms(broyden)= 0.15010E+01
  rms(prec ) = 0.15379E+01
  weight for this iteration     100.00

 Free energy of the ion-electron system (eV)
  ---------------------------------------------------
  alpha Z        PSCENC =         8.17795965
  Ewald energy   TEWEN  =      3947.03072244
  -Hartree energ DENC   =    -10889.42332721
  -exchange      EXHF   =         0.00000000
  -V(xc)+E(xc)   XCENC  =       -79.46841049
  PAW double counting   =      7023.60524649    -6700.85226215
  entropy T*S    EENTRO =         0.00000000
  eigenvalues    EBANDS =      -578.81266780
  atomic energy  EATOM  =      7260.39041060
  ---------------------------------------------------
  free energy    TOTEN  =        -9.35232847 eV

  energy without entropy =       -9.35232847  energy(sigma->0) =       -9.35232847


--------------------------------------------------------------------------------------------------------




----------------------------------------- Iteration    1(   6)  ---------------------------------------


    POTLOK:  cpu time    0.15: real time    0.15
    SETDIJ:  cpu time    0.00: real time    0.01
     EDDAV:  cpu time    0.31: real time    0.31
       DOS:  cpu time    0.00: real time    0.00
    CHARGE:  cpu time    0.03: real time    0.03
    MIXING:  cpu time    0.00: real time    0.00
    --------------------------------------------
      LOOP:  cpu time    0.50: real time    0.57

 eigenvalue-minimisations  :   228
 total energy-change (2. order) : 0.8662013E+01  (-0.2539765E+01)
 number of electron      76.9999986 magnetization       5.3733428
 augmentation part       37.2119226 magnetization       1.8645064

 Broyden mixing:
  rms(total) = 0.72587E+00    rms(broyden)= 0.72580E+00
  rms(prec ) = 0.74621E+00
  weight for this iteration     100.00

 eigenvalues of (default mixing * dielectric matrix)
  average eigenvalue GAMMA=   0.8460
  0.8460

 Free energy of the ion-electron system (eV)
  ---------------------------------------------------
  alpha Z        PSCENC =         8.17795965
  Ewald energy   TEWEN  =      3947.03072244
  -Hartree energ DENC   =    -10871.06428703
  -exchange      EXHF   =         0.00000000
  -V(xc)+E(xc)   XCENC  =       -74.54529892
  PAW double counting   =      7236.58137674    -6917.97997608
  entropy T*S    EENTRO =         0.00000000
  eigenvalues    EBANDS =      -589.28122322
  atomic energy  EATOM  =      7260.39041060
  ---------------------------------------------------
  free energy    TOTEN  =        -0.69031582 eV

  energy without entropy =       -0.69031582  energy(sigma->0) =       -0.69031582


--------------------------------------------------------------------------------------------------------




----------------------------------------- Iteration    1(   7)  ---------------------------------------


    POTLOK:  cpu time    0.15: real time    0.15
    SETDIJ:  cpu time    0.01: real time    0.01
     EDDAV:  cpu time    0.31: real time    0.31
       DOS:  cpu time    0.00: real time    0.00
    CHARGE:  cpu time    0.03: real time    0.03
    MIXING:  cpu time    0.00: real time    0.00
    --------------------------------------------
      LOOP:  cpu time    0.50: real time    0.51

 eigenvalue-minimisations  :   228
 total energy-change (2. order) :-0.7297041E+00  (-0.1600987E+00)
 number of electron      76.9999986 magnetization       4.7454887
 augmentation part       37.1405429 magnetization       1.3327979

 Broyden mixing:
  rms(total) = 0.34935E+00    rms(broyden)= 0.34934E+00
  rms(prec ) = 0.35963E+00
  weight for this iteration     100.00

 eigenvalues of (default mixing * dielectric matrix)
  average eigenvalue GAMMA=   0.9619
  0.7473  1.1765

 Free energy of the ion-electron system (eV)
  ---------------------------------------------------
  alpha Z        PSCENC =         8.17795965
  Ewald energy   TEWEN  =      3947.03072244
  -Hartree energ DENC   =    -10883.48868083
  -exchange      EXHF   =         0.00000000
  -V(xc)+E(xc)   XCENC  =       -74.93733144
  PAW double counting   =      7356.43190838    -7040.23022977
  entropy T*S    EENTRO =         0.00000000
  eigenvalues    EBANDS =      -574.79477899
  atomic energy  EATOM  =      7260.39041060
  ---------------------------------------------------
  free energy    TOTEN  =        -1.42001994 eV

  energy without entropy =       -1.42001994  energy(sigma->0) =       -1.42001994


--------------------------------------------------------------------------------------------------------




----------------------------------------- Iteration    1(   8)  ---------------------------------------


    POTLOK:  cpu time    0.15: real time    0.15
    SETDIJ:  cpu time    0.00: real time    0.01
     EDDAV:  cpu time    0.33: real time    0.33
       DOS:  cpu time    0.00: real time    0.00
    CHARGE:  cpu time    0.03: real time    0.03
    MIXING:  cpu time    0.00: real time    0.00
    --------------------------------------------
      LOOP:  cpu time    0.52: real time    0.53

 eigenvalue-minimisations  :   244
 total energy-change (2. order) :-0.2184247E+01  (-0.1295180E+00)
 number of electron      76.9999988 magnetization       4.3396750
 augmentation part       37.0516818 magnetization       3.0388474

 Broyden mixing:
  rms(total) = 0.30254E+00    rms(broyden)= 0.30247E+00
  rms(prec ) = 0.36600E+00
  weight for this iteration     100.00

 eigenvalues of (default mixing * dielectric matrix)
  average eigenvalue GAMMA=   0.9726
  1.5686  0.8126  0.5366

 Free energy of the ion-electron system (eV)
  ---------------------------------------------------
  alpha Z        PSCENC =         8.17795965
  Ewald energy   TEWEN  =      3947.03072244
  -Hartree energ DENC   =    -10891.27896002
  -exchange      EXHF   =         0.00000000
  -V(xc)+E(xc)   XCENC  =       -76.41884840
  PAW double counting   =      7471.14549314    -7157.02544444
  entropy T*S    EENTRO =         0.00000000
  eigenvalues    EBANDS =      -565.62560021
  atomic energy  EATOM  =      7260.39041060
  ---------------------------------------------------
  free energy    TOTEN  =        -3.60426724 eV

  energy without entropy =       -3.60426724  energy(sigma->0) =       -3.60426724


--------------------------------------------------------------------------------------------------------




----------------------------------------- Iteration    1(   9)  ---------------------------------------


    POTLOK:  cpu time    0.15: real time    0.15
    SETDIJ:  cpu time    0.00: real time    0.01
     EDDAV:  cpu time    0.32: real time    0.32
       DOS:  cpu time    0.00: real time    0.00
    CHARGE:  cpu time    0.03: real time    0.03
    MIXING:  cpu time    0.00: real time    0.00
    --------------------------------------------
      LOOP:  cpu time    0.50: real time    0.51

 eigenvalue-minimisations  :   232
 total energy-change (2. order) : 0.9694321E+00  (-0.3753592E-01)
 number of electron      76.9999988 magnetization       3.8037065
 augmentation part       37.0645280 magnetization       2.5253607

 Broyden mixing:
  rms(total) = 0.21111E+00    rms(broyden)= 0.21110E+00
  rms(prec ) = 0.26011E+00
  weight for this iteration     100.00

 eigenvalues of (default mixing * dielectric matrix)
  average eigenvalue GAMMA=   1.0252
  1.9501  0.7130  0.7130  0.7250

 Free energy of the ion-electron system (eV)
  ---------------------------------------------------
  alpha Z        PSCENC =         8.17795965
  Ewald energy   TEWEN  =      3947.03072244
  -Hartree energ DENC   =    -10892.10178129
  -exchange      EXHF   =         0.00000000
  -V(xc)+E(xc)   XCENC  =       -75.66394154
  PAW double counting   =      7501.82864188    -7188.35078397
  entropy T*S    EENTRO =        -0.00000000
  eigenvalues    EBANDS =      -563.94606294
  atomic energy  EATOM  =      7260.39041060
  ---------------------------------------------------
  free energy    TOTEN  =        -2.63483516 eV

  energy without entropy =       -2.63483516  energy(sigma->0) =       -2.63483516


--------------------------------------------------------------------------------------------------------




----------------------------------------- Iteration    1(  10)  ---------------------------------------


    POTLOK:  cpu time    0.15: real time    0.15
    SETDIJ:  cpu time    0.01: real time    0.01
     EDDAV:  cpu time    0.30: real time    0.30
       DOS:  cpu time    0.00: real time    0.00
    CHARGE:  cpu time    0.03: real time    0.03
    MIXING:  cpu time    0.00: real time    0.00
    --------------------------------------------
      LOOP:  cpu time    0.49: real time    0.50

 eigenvalue-minimisations  :   216
 total energy-change (2. order) :-0.8231828E+00  (-0.3907612E-01)
 number of electron      76.9999986 magnetization       3.6946321
 augmentation part       37.0905727 magnetization       0.4300910

 Broyden mixing:
  rms(total) = 0.14252E+00    rms(broyden)= 0.14236E+00
  rms(prec ) = 0.17541E+00
  weight for this iteration     100.00

 eigenvalues of (default mixing * dielectric matrix)
  average eigenvalue GAMMA=   0.9474
  2.0140  0.9478  0.6284  0.5734  0.5734

 Free energy of the ion-electron system (eV)
  ---------------------------------------------------
  alpha Z        PSCENC =         8.17795965
  Ewald energy   TEWEN  =      3947.03072244
  -Hartree energ DENC   =    -10894.60391182
  -exchange      EXHF   =         0.00000000
  -V(xc)+E(xc)   XCENC  =       -76.23923694
  PAW double counting   =      7531.51337092    -7218.63332324
  entropy T*S    EENTRO =        -0.00000000
  eigenvalues    EBANDS =      -561.09400952
  atomic energy  EATOM  =      7260.39041060
  ---------------------------------------------------
  free energy    TOTEN  =        -3.45801791 eV

  energy without entropy =       -3.45801791  energy(sigma->0) =       -3.45801791


--------------------------------------------------------------------------------------------------------




----------------------------------------- Iteration    1(  11)  ---------------------------------------


    POTLOK:  cpu time    0.15: real time    0.15
    SETDIJ:  cpu time    0.00: real time    0.01
     EDDAV:  cpu time    0.30: real time    0.29
       DOS:  cpu time    0.00: real time    0.00
    CHARGE:  cpu time    0.02: real time    0.03
    MIXING:  cpu time    0.01: real time    0.00
    --------------------------------------------
      LOOP:  cpu time    0.49: real time    0.49

 eigenvalue-minimisations  :   208
 total energy-change (2. order) :-0.2311601E+01  (-0.4620486E-01)
 number of electron      76.9999988 magnetization       3.2381852
 augmentation part       37.0615180 magnetization       2.0150525

 Broyden mixing:
  rms(total) = 0.17439E+00    rms(broyden)= 0.17430E+00
  rms(prec ) = 0.21474E+00
  weight for this iteration     100.00

 eigenvalues of (default mixing * dielectric matrix)
  average eigenvalue GAMMA=   0.9611
  2.2085  1.1955  0.6368  0.6368  0.5443  0.5443

 Free energy of the ion-electron system (eV)
  ---------------------------------------------------
  alpha Z        PSCENC =         8.17795965
  Ewald energy   TEWEN  =      3947.03072244
  -Hartree energ DENC   =    -10892.84121444
  -exchange      EXHF   =         0.00000000
  -V(xc)+E(xc)   XCENC  =       -78.05797971
  PAW double counting   =      7532.65087228    -7219.79960774
  entropy T*S    EENTRO =         0.00000000
  eigenvalues    EBANDS =      -563.32078237
  atomic energy  EATOM  =      7260.39041060
  ---------------------------------------------------
  free energy    TOTEN  =        -5.76961928 eV

  energy without entropy =       -5.76961928  energy(sigma->0) =       -5.76961928


--------------------------------------------------------------------------------------------------------




----------------------------------------- Iteration    1(  12)  ---------------------------------------


    POTLOK:  cpu time    0.15: real time    0.15
    SETDIJ:  cpu time    0.00: real time    0.01
     EDDAV:  cpu time    0.30: real time    0.30
       DOS:  cpu time    0.00: real time    0.00
    CHARGE:  cpu time    0.03: real time    0.03
    MIXING:  cpu time    0.00: real time    0.01
    --------------------------------------------
      LOOP:  cpu time    0.49: real time    0.50

 eigenvalue-minimisations  :   216
 total energy-change (2. order) :-0.9769386E+00  (-0.2738939E-01)
 number of electron      76.9999988 magnetization       2.7509744
 augmentation part       37.0763953 magnetization       1.5645599

 Broyden mixing:
  rms(total) = 0.13634E+00    rms(broyden)= 0.13633E+00
  rms(prec ) = 0.17299E+00
  weight for this iteration     100.00

 eigenvalues of (default mixing * dielectric matrix)
  average eigenvalue GAMMA=   1.0476
  2.6827  1.5505  0.7781  0.7781  0.6208  0.4615  0.4615

 Free energy of the ion-electron system (eV)
  ---------------------------------------------------
  alpha Z        PSCENC =         8.17795965
  Ewald energy   TEWEN  =      3947.03072244
  -Hartree energ DENC   =    -10891.87595161
  -exchange      EXHF   =         0.00000000
  -V(xc)+E(xc)   XCENC  =       -78.86934650
  PAW double counting   =      7537.06055438    -7224.34451118
  entropy T*S    EENTRO =         0.00000000
  eigenvalues    EBANDS =      -564.31639570
  atomic energy  EATOM  =      7260.39041060
  ---------------------------------------------------
  free energy    TOTEN  =        -6.74655792 eV

  energy without entropy =       -6.74655792  energy(sigma->0) =       -6.74655792


--------------------------------------------------------------------------------------------------------




----------------------------------------- Iteration    1(  13)  ---------------------------------------


    POTLOK:  cpu time    0.15: real time    0.15
    SETDIJ:  cpu time    0.01: real time    0.01
     EDDAV:  cpu time    0.30: real time    0.30
       DOS:  cpu time    0.00: real time    0.00
    CHARGE:  cpu time    0.03: real time    0.03
    MIXING:  cpu time    0.00: real time    0.01
    --------------------------------------------
      LOOP:  cpu time    0.49: real time    1.22

 eigenvalue-minimisations  :   216
 total energy-change (2. order) :-0.8725190E+00  (-0.2537875E-01)
 number of electron      76.9999988 magnetization       2.3147684
 augmentation part       37.0891675 magnetization       1.1593217

 Broyden mixing:
  rms(total) = 0.10809E+00    rms(broyden)= 0.10808E+00
  rms(prec ) = 0.13573E+00
  weight for this iteration     100.00

 eigenvalues of (default mixing * dielectric matrix)
  average eigenvalue GAMMA=   1.0977
  2.9335  1.6010  1.0326  1.0326  0.4982  0.4982  0.6243  0.5611

 Free energy of the ion-electron system (eV)
  ---------------------------------------------------
  alpha Z        PSCENC =         8.17795965
  Ewald energy   TEWEN  =      3947.03072244
  -Hartree energ DENC   =    -10890.97350173
  -exchange      EXHF   =         0.00000000
  -V(xc)+E(xc)   XCENC  =       -79.61823260
  PAW double counting   =      7536.99352801    -7224.33479793
  entropy T*S    EENTRO =         0.00000000
  eigenvalues    EBANDS =      -565.28516531
  atomic energy  EATOM  =      7260.39041060
  ---------------------------------------------------
  free energy    TOTEN  =        -7.61907687 eV

  energy without entropy =       -7.61907687  energy(sigma->0) =       -7.61907687


--------------------------------------------------------------------------------------------------------




----------------------------------------- Iteration    1(  14)  ---------------------------------------


    POTLOK:  cpu time    0.15: real time    0.15
    SETDIJ:  cpu time    0.00: real time    0.01
     EDDAV:  cpu time    0.30: real time    0.31
       DOS:  cpu time    0.00: real time    0.00
    CHARGE:  cpu time    0.02: real time    0.03
    MIXING:  cpu time    0.01: real time    0.01
    --------------------------------------------
      LOOP:  cpu time    0.50: real time    0.50

 eigenvalue-minimisations  :   220
 total energy-change (2. order) :-0.5671253E+00  (-0.1188265E-01)
 number of electron      76.9999988 magnetization       1.6368903
 augmentation part       37.0875337 magnetization       0.5020694

 Broyden mixing:
  rms(total) = 0.80100E-01    rms(broyden)= 0.80098E-01
  rms(prec ) = 0.10084E+00
  weight for this iteration     100.00

 eigenvalues of (default mixing * dielectric matrix)
  average eigenvalue GAMMA=   1.3486
  4.3225  2.5091  1.3481  0.9673  0.4926  0.4926  0.6906  0.6906  0.6244

 Free energy of the ion-electron system (eV)
  ---------------------------------------------------
  alpha Z        PSCENC =         8.17795965
  Ewald energy   TEWEN  =      3947.03072244
  -Hartree energ DENC   =    -10890.57525933
  -exchange      EXHF   =         0.00000000
  -V(xc)+E(xc)   XCENC  =       -80.12614044
  PAW double counting   =      7530.42212187    -7217.70005234
  entropy T*S    EENTRO =         0.00000000
  eigenvalues    EBANDS =      -565.80596466
  atomic energy  EATOM  =      7260.39041060
  ---------------------------------------------------
  free energy    TOTEN  =        -8.18620221 eV

  energy without entropy =       -8.18620221  energy(sigma->0) =       -8.18620221


--------------------------------------------------------------------------------------------------------




----------------------------------------- Iteration    1(  15)  ---------------------------------------


    POTLOK:  cpu time    0.15: real time    0.15
    SETDIJ:  cpu time    0.00: real time    0.01
     EDDAV:  cpu time    0.30: real time    0.30
       DOS:  cpu time    0.00: real time    0.00
    CHARGE:  cpu time    0.02: real time    0.03
    MIXING:  cpu time    0.00: real time    0.01
    --------------------------------------------
      LOOP:  cpu time    0.49: real time    0.50

 eigenvalue-minimisations  :   212
 total energy-change (2. order) :-0.6157555E+00  (-0.1538370E-01)
 number of electron      76.9999988 magnetization       1.3045001
 augmentation part       37.0986008 magnetization       0.1981642

 Broyden mixing:
  rms(total) = 0.37186E-01    rms(broyden)= 0.37178E-01
  rms(prec ) = 0.47566E-01
  weight for this iteration     100.00

 eigenvalues of (default mixing * dielectric matrix)
  average eigenvalue GAMMA=   1.4192
  5.1567  2.4473  1.3610  1.3610  0.4919  0.4919  0.9125  0.6832  0.6832  0.6036

 Free energy of the ion-electron system (eV)
  ---------------------------------------------------
  alpha Z        PSCENC =         8.17795965
  Ewald energy   TEWEN  =      3947.03072244
  -Hartree energ DENC   =    -10889.09506458
  -exchange      EXHF   =         0.00000000
  -V(xc)+E(xc)   XCENC  =       -80.73392836
  PAW double counting   =      7518.45448859    -7205.58853821
  entropy T*S    EENTRO =         0.00000000
  eigenvalues    EBANDS =      -567.43800789
  atomic energy  EATOM  =      7260.39041060
  ---------------------------------------------------
  free energy    TOTEN  =        -8.80195774 eV

  energy without entropy =       -8.80195774  energy(sigma->0) =       -8.80195774


--------------------------------------------------------------------------------------------------------




----------------------------------------- Iteration    1(  16)  ---------------------------------------


    POTLOK:  cpu time    0.15: real time    0.15
    SETDIJ:  cpu time    0.01: real time    0.01
     EDDAV:  cpu time    0.30: real time    0.30
       DOS:  cpu time    0.00: real time    0.00
    CHARGE:  cpu time    0.03: real time    0.03
    MIXING:  cpu time    0.00: real time    0.01
    --------------------------------------------
      LOOP:  cpu time    0.50: real time    0.56

 eigenvalue-minimisations  :   220
 total energy-change (2. order) :-0.2342483E+00  (-0.4109107E-02)
 number of electron      76.9999988 magnetization       1.1853232
 augmentation part       37.1000546 magnetization       0.0937357

 Broyden mixing:
  rms(total) = 0.20682E-01    rms(broyden)= 0.20676E-01
  rms(prec ) = 0.25326E-01
  weight for this iteration     100.00

 eigenvalues of (default mixing * dielectric matrix)
  average eigenvalue GAMMA=   1.4254
  5.4547  2.5274  1.6222  1.6222  0.4922  0.4922  0.8858  0.7082  0.7082  0.5832
  0.5832

 Free energy of the ion-electron system (eV)
  ---------------------------------------------------
  alpha Z        PSCENC =         8.17795965
  Ewald energy   TEWEN  =      3947.03072244
  -Hartree energ DENC   =    -10888.79125188
  -exchange      EXHF   =         0.00000000
  -V(xc)+E(xc)   XCENC  =       -80.95653318
  PAW double counting   =      7520.58471062    -7207.77205270
  entropy T*S    EENTRO =         0.00000000
  eigenvalues    EBANDS =      -567.70017159
  atomic energy  EATOM  =      7260.39041060
  ---------------------------------------------------
  free energy    TOTEN  =        -9.03620603 eV

  energy without entropy =       -9.03620603  energy(sigma->0) =       -9.03620603


--------------------------------------------------------------------------------------------------------




----------------------------------------- Iteration    1(  17)  ---------------------------------------


    POTLOK:  cpu time    0.15: real time    0.15
    SETDIJ:  cpu time    0.01: real time    0.01
     EDDAV:  cpu time    0.31: real time    0.31
       DOS:  cpu time    0.00: real time    0.00
    CHARGE:  cpu time    0.02: real time    0.03
    MIXING:  cpu time    0.01: real time    0.01
    --------------------------------------------
      LOOP:  cpu time    0.50: real time    0.51

 eigenvalue-minimisations  :   228
 total energy-change (2. order) :-0.6530575E-01  (-0.4471038E-03)
 number of electron      76.9999987 magnetization       0.9854455
 augmentation part       37.0983136 magnetization      -0.1024257

 Broyden mixing:
  rms(total) = 0.12697E-01    rms(broyden)= 0.12695E-01
  rms(prec ) = 0.15687E-01
  weight for this iteration     100.00

 eigenvalues of (default mixing * dielectric matrix)
  average eigenvalue GAMMA=   1.6280
  7.2029  3.0391  1.8424  1.8424  0.4920  0.4920  1.0325  0.8163  0.8163  0.6107
  0.6655  0.6837

 Free energy of the ion-electron system (eV)
  ---------------------------------------------------
  alpha Z        PSCENC =         8.17795965
  Ewald energy   TEWEN  =      3947.03072244
  -Hartree energ DENC   =    -10888.70418133
  -exchange      EXHF   =         0.00000000
  -V(xc)+E(xc)   XCENC  =       -81.01541037
  PAW double counting   =      7521.63933229    -7208.84655605
  entropy T*S    EENTRO =         0.00000000
  eigenvalues    EBANDS =      -567.77378902
  atomic energy  EATOM  =      7260.39041060
  ---------------------------------------------------
  free energy    TOTEN  =        -9.10151179 eV

  energy without entropy =       -9.10151179  energy(sigma->0) =       -9.10151179


--------------------------------------------------------------------------------------------------------




----------------------------------------- Iteration    1(  18)  ---------------------------------------


    POTLOK:  cpu time    0.15: real time    0.15
    SETDIJ:  cpu time    0.00: real time    0.01
     EDDAV:  cpu time    0.32: real time    0.32
       DOS:  cpu time    0.00: real time    0.00
    CHARGE:  cpu time    0.02: real time    0.03
    MIXING:  cpu time    0.01: real time    0.01
    --------------------------------------------
      LOOP:  cpu time    0.51: real time    0.51

 eigenvalue-minimisations  :   232
 total energy-change (2. order) :-0.6557943E-01  (-0.9097621E-03)
 number of electron      76.9999987 magnetization       0.9732208
 augmentation part       37.0998114 magnetization      -0.1084189

 Broyden mixing:
  rms(total) = 0.61593E-02    rms(broyden)= 0.61557E-02
  rms(prec ) = 0.84016E-02
  weight for this iteration     100.00

 eigenvalues of (default mixing * dielectric matrix)
  average eigenvalue GAMMA=   1.6025
  7.5074  2.8668  1.9745  1.9745  1.0295  1.0295  0.4921  0.4921  0.8506  0.7041
  0.7041  0.6036  0.6036

 Free energy of the ion-electron system (eV)
  ---------------------------------------------------
  alpha Z        PSCENC =         8.17795965
  Ewald energy   TEWEN  =      3947.03072244
  -Hartree energ DENC   =    -10888.17802875
  -exchange      EXHF   =         0.00000000
  -V(xc)+E(xc)   XCENC  =       -81.08291680
  PAW double counting   =      7519.91119341    -7207.10512997
  entropy T*S    EENTRO =         0.00000000
  eigenvalues    EBANDS =      -568.31130181
  atomic energy  EATOM  =      7260.39041060
  ---------------------------------------------------
  free energy    TOTEN  =        -9.16709121 eV

  energy without entropy =       -9.16709121  energy(sigma->0) =       -9.16709121


--------------------------------------------------------------------------------------------------------




----------------------------------------- Iteration    1(  19)  ---------------------------------------


    POTLOK:  cpu time    0.15: real time    0.15
    SETDIJ:  cpu time    0.00: real time    0.01
     EDDAV:  cpu time    0.27: real time    0.27
       DOS:  cpu time    0.00: real time    0.00
    CHARGE:  cpu time    0.03: real time    0.03
    MIXING:  cpu time    0.00: real time    0.01
    --------------------------------------------
      LOOP:  cpu time    0.46: real time    0.47

 eigenvalue-minimisations  :   188
 total energy-change (2. order) :-0.5345413E-02  (-0.9710558E-04)
 number of electron      76.9999987 magnetization       0.9798673
 augmentation part       37.1004851 magnetization      -0.1012865

 Broyden mixing:
  rms(total) = 0.52872E-02    rms(broyden)= 0.52868E-02
  rms(prec ) = 0.71282E-02
  weight for this iteration     100.00

 eigenvalues of (default mixing * dielectric matrix)
  average eigenvalue GAMMA=   1.5800
  7.4397  3.1571  2.2739  1.5885  1.4117  1.1539  0.4921  0.4921  0.9016  0.6872
  0.6872  0.6163  0.6091  0.6091

 Free energy of the ion-electron system (eV)
  ---------------------------------------------------
  alpha Z        PSCENC =         8.17795965
  Ewald energy   TEWEN  =      3947.03072244
  -Hartree energ DENC   =    -10888.03184401
  -exchange      EXHF   =         0.00000000
  -V(xc)+E(xc)   XCENC  =       -81.08840671
  PAW double counting   =      7520.18610110    -7207.39471105
  entropy T*S    EENTRO =         0.00000000
  eigenvalues    EBANDS =      -568.44266866
  atomic energy  EATOM  =      7260.39041060
  ---------------------------------------------------
  free energy    TOTEN  =        -9.17243663 eV

  energy without entropy =       -9.17243663  energy(sigma->0) =       -9.17243663


--------------------------------------------------------------------------------------------------------




----------------------------------------- Iteration    1(  20)  ---------------------------------------


    POTLOK:  cpu time    0.15: real time    0.15
    SETDIJ:  cpu time    0.00: real time    0.01
     EDDAV:  cpu time    0.25: real time    0.25
       DOS:  cpu time    0.00: real time    0.00
    CHARGE:  cpu time    0.02: real time    0.03
    MIXING:  cpu time    0.01: real time    0.01
    --------------------------------------------
      LOOP:  cpu time    0.44: real time    0.44

 eigenvalue-minimisations  :   160
 total energy-change (2. order) :-0.4408353E-02  (-0.5746971E-04)
 number of electron      76.9999987 magnetization       0.9918634
 augmentation part       37.0999424 magnetization      -0.0899805

 Broyden mixing:
  rms(total) = 0.32630E-02    rms(broyden)= 0.32629E-02
  rms(prec ) = 0.45820E-02
  weight for this iteration     100.00

 eigenvalues of (default mixing * dielectric matrix)
  average eigenvalue GAMMA=   1.5924
  7.2340  3.7196  2.0726  1.8608  1.8608  0.4921  0.4921  1.0712  0.8178  0.8178
  0.8580  0.5993  0.5993  0.6952  0.6952

 Free energy of the ion-electron system (eV)
  ---------------------------------------------------
  alpha Z        PSCENC =         8.17795965
  Ewald energy   TEWEN  =      3947.03072244
  -Hartree energ DENC   =    -10887.86785273
  -exchange      EXHF   =         0.00000000
  -V(xc)+E(xc)   XCENC  =       -81.09109643
  PAW double counting   =      7519.69000414    -7206.90158664
  entropy T*S    EENTRO =         0.00000000
  eigenvalues    EBANDS =      -568.60540602
  atomic energy  EATOM  =      7260.39041060
  ---------------------------------------------------
  free energy    TOTEN  =        -9.17684498 eV

  energy without entropy =       -9.17684498  energy(sigma->0) =       -9.17684498


--------------------------------------------------------------------------------------------------------




----------------------------------------- Iteration    1(  21)  ---------------------------------------


    POTLOK:  cpu time    0.15: real time    0.15
    SETDIJ:  cpu time    0.01: real time    0.01
     EDDAV:  cpu time    0.25: real time    0.25
       DOS:  cpu time    0.00: real time    0.00
    CHARGE:  cpu time    0.03: real time    0.03
    MIXING:  cpu time    0.01: real time    0.01
    --------------------------------------------
      LOOP:  cpu time    0.45: real time    0.45

 eigenvalue-minimisations  :   168
 total energy-change (2. order) :-0.2350400E-02  (-0.3819763E-04)
 number of electron      76.9999987 magnetization       1.0045602
 augmentation part       37.1003761 magnetization      -0.0783077

 Broyden mixing:
  rms(total) = 0.19019E-02    rms(broyden)= 0.19016E-02
  rms(prec ) = 0.25868E-02
  weight for this iteration     100.00

 eigenvalues of (default mixing * dielectric matrix)
  average eigenvalue GAMMA=   1.6149
  7.0042  4.1566  2.5253  1.9700  1.9700  1.1773  1.1189  0.4921  0.4921  0.8918
  0.7310  0.7310  0.7355  0.6059  0.6059  0.6312

 Free energy of the ion-electron system (eV)
  ---------------------------------------------------
  alpha Z        PSCENC =         8.17795965
  Ewald energy   TEWEN  =      3947.03072244
  -Hartree energ DENC   =    -10887.59976601
  -exchange      EXHF   =         0.00000000
  -V(xc)+E(xc)   XCENC  =       -81.09582620
  PAW double counting   =      7518.76486013    -7205.96710613
  entropy T*S    EENTRO =         0.00000000
  eigenvalues    EBANDS =      -568.88044987
  atomic energy  EATOM  =      7260.39041060
  ---------------------------------------------------
  free energy    TOTEN  =        -9.17919538 eV

  energy without entropy =       -9.17919538  energy(sigma->0) =       -9.17919538


--------------------------------------------------------------------------------------------------------




----------------------------------------- Iteration    1(  22)  ---------------------------------------


    POTLOK:  cpu time    0.15: real time    0.15
    SETDIJ:  cpu time    0.00: real time    0.01
     EDDAV:  cpu time    0.25: real time    0.25
       DOS:  cpu time    0.00: real time    0.00
    CHARGE:  cpu time    0.03: real time    0.03
    MIXING:  cpu time    0.01: real time    0.01
    --------------------------------------------
      LOOP:  cpu time    0.44: real time    0.45

 eigenvalue-minimisations  :   164
 total energy-change (2. order) :-0.9450071E-03  (-0.1651577E-04)
 number of electron      76.9999987 magnetization       1.0140931
 augmentation part       37.1007412 magnetization      -0.0692761

 Broyden mixing:
  rms(total) = 0.12504E-02    rms(broyden)= 0.12501E-02
  rms(prec ) = 0.17878E-02
  weight for this iteration     100.00

 eigenvalues of (default mixing * dielectric matrix)
  average eigenvalue GAMMA=   1.6078
  6.7507  4.4582  2.7595  2.0829  2.0829  1.2866  0.4921  0.4921  1.0402  1.0402
  0.8273  0.7340  0.7340  0.7059  0.6467  0.5995  0.5995

 Free energy of the ion-electron system (eV)
  ---------------------------------------------------
  alpha Z        PSCENC =         8.17795965
  Ewald energy   TEWEN  =      3947.03072244
  -Hartree energ DENC   =    -10887.40079456
  -exchange      EXHF   =         0.00000000
  -V(xc)+E(xc)   XCENC  =       -81.09977118
  PAW double counting   =      7518.47365182    -7205.67104048
  entropy T*S    EENTRO =         0.00000000
  eigenvalues    EBANDS =      -569.08127868
  atomic energy  EATOM  =      7260.39041060
  ---------------------------------------------------
  free energy    TOTEN  =        -9.18014039 eV

  energy without entropy =       -9.18014039  energy(sigma->0) =       -9.18014039


--------------------------------------------------------------------------------------------------------




----------------------------------------- Iteration    1(  23)  ---------------------------------------


    POTLOK:  cpu time    0.15: real time    0.15
    SETDIJ:  cpu time    0.00: real time    0.01
     EDDAV:  cpu time    0.26: real time    0.26
       DOS:  cpu time    0.00: real time    0.00
    CHARGE:  cpu time    0.03: real time    0.03
    MIXING:  cpu time    0.01: real time    0.01
    --------------------------------------------
      LOOP:  cpu time    0.46: real time    1.26

 eigenvalue-minimisations  :   176
 total energy-change (2. order) :-0.2778596E-03  (-0.6867982E-05)
 number of electron      76.9999987 magnetization       1.0147074
 augmentation part       37.1007217 magnetization      -0.0690963

 Broyden mixing:
  rms(total) = 0.16123E-02    rms(broyden)= 0.16122E-02
  rms(prec ) = 0.22001E-02
  weight for this iteration     100.00

 eigenvalues of (default mixing * dielectric matrix)
  average eigenvalue GAMMA=   1.6615
  5.9708  5.9708  2.6048  2.6048  2.2147  1.4406  1.4406  0.4921  0.4921  0.9445
  0.9445  0.7399  0.7399  0.8007  0.5997  0.5997  0.6530  0.6530

 Free energy of the ion-electron system (eV)
  ---------------------------------------------------
  alpha Z        PSCENC =         8.17795965
  Ewald energy   TEWEN  =      3947.03072244
  -Hartree energ DENC   =    -10887.25687397
  -exchange      EXHF   =         0.00000000
  -V(xc)+E(xc)   XCENC  =       -81.10240029
  PAW double counting   =      7518.34771097    -7205.53972535
  entropy T*S    EENTRO =         0.00000000
  eigenvalues    EBANDS =      -569.22822230
  atomic energy  EATOM  =      7260.39041060
  ---------------------------------------------------
  free energy    TOTEN  =        -9.18041825 eV

  energy without entropy =       -9.18041825  energy(sigma->0) =       -9.18041825


--------------------------------------------------------------------------------------------------------




----------------------------------------- Iteration    1(  24)  ---------------------------------------


    POTLOK:  cpu time    0.15: real time    0.15
    SETDIJ:  cpu time    0.00: real time    0.01
     EDDAV:  cpu time    0.25: real time    0.25
       DOS:  cpu time    0.00: real time    0.00
    CHARGE:  cpu time    0.03: real time    0.03
    MIXING:  cpu time    0.01: real time    0.01
    --------------------------------------------
      LOOP:  cpu time    0.44: real time    0.44

 eigenvalue-minimisations  :   160
 total energy-change (2. order) :-0.3283478E-03  (-0.3151145E-05)
 number of electron      76.9999987 magnetization       1.0083942
 augmentation part       37.1008679 magnetization      -0.0754405

 Broyden mixing:
  rms(total) = 0.16473E-02    rms(broyden)= 0.16473E-02
  rms(prec ) = 0.21624E-02
  weight for this iteration     100.00

 eigenvalues of (default mixing * dielectric matrix)
  average eigenvalue GAMMA=   1.7295
  6.4621  6.4621  3.2812  2.4232  2.4232  1.6611  1.3962  1.2101  0.4921  0.4921
  0.9795  0.9052  0.7449  0.7449  0.6948  0.6667  0.5975  0.5975  0.6265

 Free energy of the ion-electron system (eV)
  ---------------------------------------------------
  alpha Z        PSCENC =         8.17795965
  Ewald energy   TEWEN  =      3947.03072244
  -Hartree energ DENC   =    -10887.13627996
  -exchange      EXHF   =         0.00000000
  -V(xc)+E(xc)   XCENC  =       -81.10470943
  PAW double counting   =      7518.37134567    -7205.56065303
  entropy T*S    EENTRO =         0.00000000
  eigenvalues    EBANDS =      -569.34954254
  atomic energy  EATOM  =      7260.39041060
  ---------------------------------------------------
  free energy    TOTEN  =        -9.18074659 eV

  energy without entropy =       -9.18074659  energy(sigma->0) =       -9.18074659


--------------------------------------------------------------------------------------------------------




----------------------------------------- Iteration    1(  25)  ---------------------------------------


    POTLOK:  cpu time    0.15: real time    0.15
    SETDIJ:  cpu time    0.00: real time    0.01
     EDDAV:  cpu time    0.24: real time    0.25
       DOS:  cpu time    0.00: real time    0.00
    CHARGE:  cpu time    0.02: real time    0.03
    MIXING:  cpu time    0.01: real time    0.01
    --------------------------------------------
      LOOP:  cpu time    0.44: real time    0.45

 eigenvalue-minimisations  :   160
 total energy-change (2. order) :-0.2356623E-03  (-0.2041188E-05)
 number of electron      76.9999987 magnetization       1.0053217
 augmentation part       37.1010666 magnetization      -0.0782670

 Broyden mixing:
  rms(total) = 0.11042E-02    rms(broyden)= 0.11042E-02
  rms(prec ) = 0.14501E-02
  weight for this iteration     100.00

 eigenvalues of (default mixing * dielectric matrix)
  average eigenvalue GAMMA=   1.7399
  6.6754  6.6754  3.3903  2.5922  2.5922  1.6158  1.6158  1.1424  1.1424  0.4921
  0.4921  0.7622  0.7622  0.8263  0.7807  0.7807  0.6299  0.6299  0.6001  0.6001

 Free energy of the ion-electron system (eV)
  ---------------------------------------------------
  alpha Z        PSCENC =         8.17795965
  Ewald energy   TEWEN  =      3947.03072244
  -Hartree energ DENC   =    -10887.06994452
  -exchange      EXHF   =         0.00000000
  -V(xc)+E(xc)   XCENC  =       -81.10609306
  PAW double counting   =      7518.53182137    -7205.72242577
  entropy T*S    EENTRO =         0.00000000
  eigenvalues    EBANDS =      -569.41343297
  atomic energy  EATOM  =      7260.39041060
  ---------------------------------------------------
  free energy    TOTEN  =        -9.18098226 eV

  energy without entropy =       -9.18098226  energy(sigma->0) =       -9.18098226


--------------------------------------------------------------------------------------------------------




----------------------------------------- Iteration    1(  26)  ---------------------------------------


    POTLOK:  cpu time    0.15: real time    0.15
    SETDIJ:  cpu time    0.00: real time    0.01
     EDDAV:  cpu time    0.24: real time    0.24
       DOS:  cpu time    0.00: real time    0.00
    --------------------------------------------
      LOOP:  cpu time    0.40: real time    0.40

 eigenvalue-minimisations  :   152
 total energy-change (2. order) :-0.8539987E-04  (-0.7832886E-06)
 number of electron      76.9999987 magnetization       1.0053217
 augmentation part       37.1010666 magnetization      -0.0782670

 Free energy of the ion-electron system (eV)
  ---------------------------------------------------
  alpha Z        PSCENC =         8.17795965
  Ewald energy   TEWEN  =      3947.03072244
  -Hartree energ DENC   =    -10887.08055006
  -exchange      EXHF   =         0.00000000
  -V(xc)+E(xc)   XCENC  =       -81.10562929
  PAW double counting   =      7518.70539122    -7205.89890670
  entropy T*S    EENTRO =         0.00000000
  eigenvalues    EBANDS =      -569.40046553
  atomic energy  EATOM  =      7260.39041060
  ---------------------------------------------------
  free energy    TOTEN  =        -9.18106766 eV

  energy without entropy =       -9.18106766  energy(sigma->0) =       -9.18106766


--------------------------------------------------------------------------------------------------------




 average (electrostatic) potential at core
  the test charge radii are     1.1249
  (the norm of the test charge is              1.0000)
       1 -81.5915       2 -82.2434       3 -82.9022       4 -81.6180       5 -83.0433
       6 -82.5985       7 -82.5426
 
 
 
 E-fermi :  -3.8929     XC(G=0):  -0.7441     alpha+bet : -0.3153


 spin component 1

 k-point     1 :       0.0000    0.0000    0.0000
  band No.  band energies     occupation 
      1     -10.2207      1.00000
      2      -9.8413      1.00000
      3      -9.4466      1.00000
      4      -9.0445      1.00000
      5      -8.9217      1.00000
      6      -8.8162      1.00000
      7      -8.6732      1.00000
      8      -8.6380      1.00000
      9      -8.5217      1.00000
     10      -8.0426      1.00000
     11      -7.9770      1.00000
     12      -7.8505      1.00000
     13      -7.5956      1.00000
     14      -7.5812      1.00000
     15      -7.5278      1.00000
     16      -7.4096      1.00000
     17      -7.3961      1.00000
     18      -7.3265      1.00000
     19      -7.2981      1.00000
     20      -7.2237      1.00000
     21      -7.2034      1.00000
     22      -7.1779      1.00000
     23      -7.0649      1.00000
     24      -6.9427      1.00000
     25      -6.8788      1.00000
     26      -6.8687      1.00000
     27      -6.7958      1.00000
     28      -6.7738      1.00000
     29      -6.7731      1.00000
     30      -6.7227      1.00000
     31      -6.7073      1.00000
     32      -6.6800      1.00000
     33      -6.6033      1.00000
     34      -6.5590      1.00000
     35      -6.5334      1.00000
     36      -6.4819      1.00000
     37      -5.1363      1.00000
     38      -4.2279      1.00000
     39      -3.9030      1.00000
     40      -3.6374      0.00000
     41      -2.7665      0.00000
     42      -1.9721      0.00000
     43      -1.3232      0.00000
     44      -1.1219      0.00000
     45      -0.8964      0.00000
     46      -0.7672      0.00000
     47      -0.6529      0.00000
     48      -0.5173      0.00000
     49      -0.1534      0.00000
     50      -0.0788      0.00000
     51       0.2313      0.00000
     52       0.3460      0.00000

 spin component 2

 k-point     1 :       0.0000    0.0000    0.0000
  band No.  band energies     occupation 
      1     -10.2002      1.00000
      2      -9.7981      1.00000
      3      -9.4339      1.00000
      4      -9.0157      1.00000
      5      -8.9006      1.00000
      6      -8.7822      1.00000
      7      -8.6413      1.00000
      8      -8.6044      1.00000
      9      -8.4949      1.00000
     10      -8.0114      1.00000
     11      -7.9384      1.00000
     12      -7.8217      1.00000
     13      -7.5808      1.00000
     14      -7.5604      1.00000
     15      -7.4883      1.00000
     16      -7.3819      1.00000
     17      -7.3734      1.00000
     18      -7.3056      1.00000
     19      -7.2451      1.00000
     20      -7.1995      1.00000
     21      -7.1633      1.00000
     22      -7.1426      1.00000
     23      -7.0233      1.00000
     24      -6.9255      1.00000
     25      -6.8403      1.00000
     26      -6.8090      1.00000
     27      -6.7449      1.00000
     28      -6.7235      1.00000
     29      -6.6994      1.00000
     30      -6.6714      1.00000
     31      -6.6575      1.00000
     32      -6.6573      1.00000
     33      -6.5549      1.00000
     34      -6.5225      1.00000
     35      -6.4990      1.00000
     36      -6.4503      1.00000
     37      -4.9990      1.00000
     38      -4.1522      1.00000
     39      -3.5921      0.00000
     40      -3.5870      0.00000
     41      -2.7274      0.00000
     42      -1.7170      0.00000
     43      -1.2296      0.00000
     44      -1.0055      0.00000
     45      -0.8499      0.00000
     46      -0.7086      0.00000
     47      -0.5812      0.00000
     48      -0.2573      0.00000
     49       0.0594      0.00000
     50       0.1855      0.00000
     51       0.2430      0.00000
     52       0.3758      0.00000


--------------------------------------------------------------------------------------------------------


 soft charge-density along one line, spin component           1
         0         1         2         3         4         5         6         7         8         9
 total charge-density along one line
 
 soft charge-density along one line, spin component           2
         0         1         2         3         4         5         6         7         8         9
 total charge-density along one line
 
 pseudopotential strength for first ion, spin component:           1
-10.003  -0.003  -0.011   0.002  -0.001  -9.991  -0.003  -0.010
 -0.003  -9.996   0.000   0.008  -0.001  -0.003  -9.984   0.000
 -0.011   0.000  -9.993  -0.001  -0.002  -0.010   0.000  -9.982
  0.002   0.008  -0.001  -9.993  -0.002   0.002   0.008  -0.001
 -0.001  -0.001  -0.002  -0.002  -9.999  -0.001  -0.001  -0.002
 -9.991  -0.003  -0.010   0.002  -0.001  -9.955  -0.002  -0.010
 -0.003  -9.984   0.000   0.008  -0.001  -0.002  -9.948   0.000
 -0.010   0.000  -9.982  -0.001  -0.002  -0.010   0.000  -9.945
  0.002   0.008  -0.001  -9.981  -0.002   0.002   0.007  -0.001
 -0.001  -0.001  -0.002  -0.002  -9.987  -0.001  -0.001  -0.002
 -0.005  -0.001  -0.003   0.001  -0.001  -0.005  -0.001  -0.003
 -0.009  -0.002  -0.004   0.002  -0.002  -0.008  -0.002  -0.004
  0.016   0.005   0.011  -0.000   0.020   0.015   0.005   0.011
 -0.000  -0.020   0.005   0.016  -0.000  -0.000  -0.019   0.005
 -0.020  -0.000  -0.009   0.005   0.016  -0.019  -0.000  -0.009
  0.020   0.006   0.014  -0.000   0.025   0.019   0.006   0.014
 -0.000  -0.024   0.007   0.020  -0.000  -0.000  -0.024   0.006
 -0.024  -0.000  -0.011   0.006   0.020  -0.024  -0.000  -0.011
 pseudopotential strength for first ion, spin component:           2
-10.015  -0.003  -0.011   0.002  -0.001 -10.003  -0.003  -0.010
 -0.003 -10.008   0.000   0.008  -0.001  -0.003  -9.996   0.000
 -0.011   0.000 -10.005  -0.001  -0.002  -0.010   0.000  -9.993
  0.002   0.008  -0.001 -10.005  -0.002   0.002   0.008  -0.001
 -0.001  -0.001  -0.002  -0.002 -10.011  -0.001  -0.001  -0.002
-10.003  -0.003  -0.010   0.002  -0.001  -9.966  -0.003  -0.010
 -0.003  -9.996   0.000   0.008  -0.001  -0.003  -9.959   0.000
 -0.010   0.000  -9.993  -0.001  -0.002  -0.010   0.000  -9.957
  0.002   0.008  -0.001  -9.993  -0.002   0.002   0.007  -0.001
 -0.001  -0.001  -0.002  -0.002  -9.999  -0.001  -0.001  -0.002
 -0.005  -0.001  -0.002   0.001  -0.001  -0.005  -0.001  -0.002
 -0.008  -0.002  -0.004   0.002  -0.002  -0.008  -0.002  -0.004
  0.015   0.005   0.011   0.000   0.020   0.015   0.004   0.011
  0.000  -0.019   0.005   0.016  -0.000   0.000  -0.019   0.005
 -0.019   0.000  -0.009   0.004   0.016  -0.019   0.000  -0.009
  0.019   0.006   0.014   0.000   0.024   0.019   0.006   0.013
  0.000  -0.024   0.007   0.020  -0.000   0.000  -0.023   0.006
 -0.024   0.000  -0.011   0.006   0.020  -0.023   0.000  -0.011
 total augmentation occupancy for first ion, spin component:           1
  2.125   0.017   0.030  -0.014   0.004  -0.179  -0.032  -0.078   0.028  -0.014   0.406  -0.053   0.030  -0.007  -0.026   0.007
  0.017   2.068   0.010   0.006   0.016  -0.031  -0.065  -0.013   0.018  -0.019   0.110  -0.011   0.010   0.002  -0.005   0.002
  0.030   0.010   2.106  -0.010  -0.001  -0.078  -0.013  -0.095   0.012  -0.008   0.225  -0.028   0.016  -0.006  -0.017   0.005
 -0.014   0.006  -0.010   2.068  -0.012   0.027   0.018   0.012  -0.057   0.007  -0.093   0.012  -0.008  -0.002   0.004   0.001
  0.004   0.016  -0.001  -0.012   2.113  -0.014  -0.019  -0.008   0.007  -0.108   0.079  -0.005   0.006  -0.005   0.000   0.011
 -0.179  -0.031  -0.078   0.027  -0.014   0.215   0.044   0.118  -0.039   0.023  -0.342   0.040  -0.051   0.009   0.046   0.004
 -0.032  -0.065  -0.013   0.018  -0.019   0.044   0.054   0.016  -0.038   0.021  -0.092   0.010  -0.014   0.011   0.008   0.001
 -0.078  -0.013  -0.095   0.012  -0.008   0.118   0.016   0.077  -0.013   0.015  -0.191   0.023  -0.029   0.003   0.027   0.002
  0.028   0.018   0.012  -0.057   0.007  -0.039  -0.038  -0.013   0.040  -0.003   0.076  -0.008   0.010  -0.009  -0.009  -0.001
 -0.014  -0.019  -0.008   0.007  -0.108   0.023   0.021   0.015  -0.003   0.095  -0.068   0.004  -0.019   0.004  -0.006   0.001
  0.406   0.110   0.225  -0.093   0.079  -0.342  -0.092  -0.191   0.076  -0.068   1.330  -0.072   0.089  -0.020  -0.075  -0.008
 -0.053  -0.011  -0.028   0.012  -0.005   0.040   0.010   0.023  -0.008   0.004  -0.072   0.009  -0.010   0.002   0.009   0.001
  0.030   0.010   0.016  -0.008   0.006  -0.051  -0.014  -0.029   0.010  -0.019   0.089  -0.010   0.015  -0.003  -0.010  -0.001
 -0.007   0.002  -0.006  -0.002  -0.005   0.009   0.011   0.003  -0.009   0.004  -0.020   0.002  -0.003   0.003   0.002   0.000
 -0.026  -0.005  -0.017   0.004   0.000   0.046   0.008   0.027  -0.009  -0.006  -0.075   0.009  -0.010   0.002   0.013   0.001
  0.007   0.002   0.005   0.001   0.011   0.004   0.001   0.002  -0.001   0.001  -0.008   0.001  -0.001   0.000   0.001   0.000
  0.001  -0.011   0.004   0.009   0.000  -0.001  -0.001  -0.000   0.001  -0.000   0.002  -0.000   0.000  -0.000  -0.000  -0.000
 -0.009   0.001  -0.004   0.002   0.009  -0.004  -0.001  -0.002   0.001   0.000   0.006  -0.001   0.001  -0.000  -0.001  -0.000
 total augmentation occupancy for first ion, spin component:           2
 -0.171  -0.001   0.005   0.000  -0.002   0.085   0.001  -0.003  -0.000   0.002   0.029  -0.001  -0.001   0.001  -0.001  -0.000
 -0.001  -0.175  -0.002  -0.005   0.000   0.001   0.086   0.001   0.003   0.000  -0.000  -0.001  -0.000  -0.002   0.001  -0.000
  0.005  -0.002  -0.179   0.001  -0.001  -0.003   0.001   0.089  -0.001   0.001   0.015  -0.001  -0.000   0.001  -0.000  -0.000
  0.000  -0.005   0.001  -0.175   0.002  -0.000   0.003  -0.001   0.087  -0.001  -0.004   0.000   0.001   0.001   0.000  -0.000
 -0.002   0.000  -0.001   0.002  -0.171   0.002   0.000   0.001  -0.001   0.084  -0.009  -0.001   0.002   0.000   0.002  -0.000
  0.085   0.001  -0.003  -0.000   0.002  -0.002  -0.001   0.001   0.001  -0.002  -0.018   0.002   0.001  -0.001  -0.000   0.000
  0.001   0.086   0.001   0.003   0.000  -0.001  -0.001  -0.001  -0.002  -0.000   0.001   0.001   0.000   0.001  -0.000   0.000
 -0.003   0.001   0.089  -0.001   0.001   0.001  -0.001  -0.003   0.001  -0.001  -0.009   0.001   0.001  -0.001   0.000   0.000
 -0.000   0.003  -0.001   0.087  -0.001   0.001  -0.002   0.001  -0.001   0.001   0.003  -0.000  -0.000  -0.001   0.000   0.000
  0.002   0.000   0.001  -0.001   0.084  -0.002  -0.000  -0.001   0.001   0.000   0.007   0.000  -0.000  -0.000  -0.001   0.000
  0.029  -0.000   0.015  -0.004  -0.009  -0.018   0.001  -0.009   0.003   0.007   0.605  -0.012  -0.007   0.003   0.000  -0.001
 -0.001  -0.001  -0.001   0.000  -0.001   0.002   0.001   0.001  -0.000   0.000  -0.012   0.001  -0.001   0.000   0.001   0.000
 -0.001  -0.000  -0.000   0.001   0.002   0.001   0.000   0.001  -0.000  -0.000  -0.007  -0.001  -0.000   0.000   0.000   0.000
  0.001  -0.002   0.001   0.001   0.000  -0.001   0.001  -0.001  -0.001  -0.000   0.003   0.000   0.000   0.000  -0.000  -0.000
 -0.001   0.001  -0.000   0.000   0.002  -0.000  -0.000   0.000   0.000  -0.001   0.000   0.001   0.000  -0.000   0.000  -0.000
 -0.000  -0.000  -0.000  -0.000  -0.000   0.000   0.000   0.000   0.000   0.000  -0.001   0.000   0.000  -0.000  -0.000   0.000
 -0.000   0.000  -0.000  -0.000  -0.000   0.000  -0.001   0.000   0.000   0.000   0.000  -0.000  -0.000   0.000   0.000  -0.000
  0.001  -0.000   0.000  -0.000  -0.000  -0.001   0.000  -0.000   0.000   0.000   0.001  -0.000  -0.000   0.000   0.000  -0.000


------------------------ aborting loop because EDIFF is reached ----------------------------------------


    CHARGE:  cpu time    0.02: real time    0.03
    FORLOC:  cpu time    0.00: real time    0.00
    FORNL :  cpu time    0.09: real time    0.09
    STRESS:  cpu time    0.10: real time    0.10
    FORCOR:  cpu time    0.15: real time    0.15
    FORHAR:  cpu time    0.02: real time    0.02
    MIXING:  cpu time    0.01: real time    0.01
    OFIELD:  cpu time    0.00: real time    0.00

  FORCE on cell =-STRESS in cart. coord.  units (eV):
  Direction    XX          YY          ZZ          XY          YZ          ZX
  --------------------------------------------------------------------------------------
  Alpha Z     8.17796     8.17796     8.17796
  Ewald    1564.26151  2770.34984  -387.58396  -949.41341  -973.84985    49.31568
  Hartree  3879.09840  4885.80229  2122.18487  -793.79118  -831.84135    23.91854
  E(xc)    -405.88157  -405.21928  -406.52820    -0.53571    -0.48539     0.08844
  Local   -6575.83205 -8778.33965 -2859.89671  1740.51028  1804.85076   -70.33515
  n-local   -77.25991   -79.82176   -79.36562     0.13751     0.09528    -0.19308
  augment   642.86574   640.65168   641.93930     0.96125     0.40676    -0.69274
  Kinetic   965.60047   958.75140   963.96171     2.72548     1.71313    -1.46153
  Fock        0.00000     0.00000     0.00000     0.00000     0.00000     0.00000
  -------------------------------------------------------------------------------------
  Total       1.03055     0.35249     2.88934     0.59422     0.88935     0.64016
  in kB       0.32398     0.11081     0.90833     0.18681     0.27959     0.20125
  external pressure =        0.45 kB  Pullay stress =        0.00 kB


 VOLUME and BASIS-vectors are now :
 -----------------------------------------------------------------------------
  energy-cutoff  :      249.84
  volume of cell :     5096.42
      direct lattice vectors                 reciprocal lattice vectors
    17.208978784  0.000000000  0.000000000     0.058109201  0.000000000  0.000000000
     0.000000000 17.208978784  0.000000000     0.000000000  0.058109201  0.000000000
     0.000000000  0.000000000 17.208978784     0.000000000  0.000000000  0.058109201

  length of vectors
    17.208978784 17.208978784 17.208978784     0.058109201  0.058109201  0.058109201


 FORCES acting on ions
    electron-ion (+dipol)            ewald-force                    non-local-force                 convergence-correction
 -----------------------------------------------------------------------------------------------
   -.323E+03 0.300E+03 -.623E+02   0.320E+03 -.296E+03 0.615E+02   0.244E+01 -.301E+01 0.661E+00   0.339E-02 -.617E-02 0.187E-02
   -.387E+03 0.289E+03 -.803E+02   0.387E+03 -.288E+03 0.795E+02   0.573E+00 -.209E+01 0.123E+01   -.122E-01 0.247E-01 -.500E-02
[...]




----------------------------------------- Iteration   86(   2)  ---------------------------------------


    POTLOK:  cpu time    0.15: real time    0.15
    SETDIJ:  cpu time    0.01: real time    0.01
     EDDAV:  cpu time    0.22: real time    0.23
       DOS:  cpu time    0.00: real time    0.00
    --------------------------------------------
      LOOP:  cpu time    0.39: real time    0.39

 eigenvalue-minimisations  :   136
 total energy-change (2. order) :-0.5447457E-05  (-0.2520416E-05)
 number of electron      77.0000016 magnetization       0.9999998
 augmentation part       37.0959899 magnetization      -0.0564384

 Free energy of the ion-electron system (eV)
  ---------------------------------------------------
  alpha Z        PSCENC =         8.17795965
  Ewald energy   TEWEN  =      4279.61395232
  -Hartree energ DENC   =    -11231.05466743
  -exchange      EXHF   =         0.00000000
  -V(xc)+E(xc)   XCENC  =       -81.25755563
  PAW double counting   =      7438.62098448    -7125.05757252
  entropy T*S    EENTRO =         0.00000000
  eigenvalues    EBANDS =      -560.60548310
  atomic energy  EATOM  =      7260.39041060
  ---------------------------------------------------
  free energy    TOTEN  =       -11.17197162 eV

  energy without entropy =      -11.17197162  energy(sigma->0) =      -11.17197162


--------------------------------------------------------------------------------------------------------




 average (electrostatic) potential at core
  the test charge radii are     1.1249
  (the norm of the test charge is              1.0000)
       1 -82.0225       2 -82.2897       3 -82.3839       4 -82.0256       5 -82.2082
       6 -82.3740       7 -82.4261
 
 
 
 E-fermi :  -3.7515     XC(G=0):  -0.7081     alpha+bet : -0.3153


 spin component 1

 k-point     1 :       0.0000    0.0000    0.0000
  band No.  band energies     occupation 
      1      -9.1239      1.00000
      2      -8.8024      1.00000
      3      -8.7167      1.00000
      4      -8.6245      1.00000
      5      -8.4073      1.00000
      6      -8.3948      1.00000
      7      -8.2423      1.00000
      8      -8.2313      1.00000
      9      -8.0996      1.00000
     10      -8.0832      1.00000
     11      -7.9491      1.00000
     12      -7.7132      1.00000
     13      -7.6309      1.00000
     14      -7.5091      1.00000
     15      -7.4817      1.00000
     16      -7.4722      1.00000
     17      -7.3902      1.00000
     18      -7.2902      1.00000
     19      -7.2549      1.00000
     20      -7.2382      1.00000
     21      -7.2068      1.00000
     22      -7.1615      1.00000
     23      -7.1355      1.00000
     24      -7.0807      1.00000
     25      -7.0016      1.00000
     26      -6.9540      1.00000
     27      -6.8929      1.00000
     28      -6.8774      1.00000
     29      -6.8375      1.00000
     30      -6.7479      1.00000
     31      -6.7064      1.00000
     32      -6.6839      1.00000
     33      -6.6786      1.00000
     34      -6.6470      1.00000
     35      -6.4764      1.00000
     36      -6.4329      1.00000
     37      -5.1098      1.00000
     38      -4.8245      1.00000
     39      -3.7676      1.00000
     40      -2.7919      0.00000
     41      -2.6128      0.00000
     42      -2.3812      0.00000
     43      -1.2550      0.00000
     44      -1.1258      0.00000
     45      -1.0095      0.00000
     46      -0.8649      0.00000
     47      -0.6755      0.00000
     48      -0.2395      0.00000
     49      -0.0019      0.00000
     50       0.1879      0.00000
     51       0.3918      0.00000
     52       0.4868      0.00000

 spin component 2

 k-point     1 :       0.0000    0.0000    0.0000
  band No.  band energies     occupation 
      1      -9.0909      1.00000
      2      -8.7652      1.00000
      3      -8.7002      1.00000
      4      -8.5983      1.00000
      5      -8.3760      1.00000
      6      -8.3606      1.00000
      7      -8.2066      1.00000
      8      -8.1811      1.00000
      9      -8.0689      1.00000
     10      -8.0505      1.00000
     11      -7.8769      1.00000
     12      -7.6786      1.00000
     13      -7.6067      1.00000
     14      -7.4896      1.00000
     15      -7.4615      1.00000
     16      -7.4445      1.00000
     17      -7.3633      1.00000
     18      -7.2516      1.00000
     19      -7.2181      1.00000
     20      -7.2123      1.00000
     21      -7.1832      1.00000
     22      -7.0985      1.00000
     23      -7.0908      1.00000
     24      -7.0258      1.00000
     25      -6.9331      1.00000
     26      -6.9250      1.00000
     27      -6.8579      1.00000
     28      -6.8517      1.00000
     29      -6.8106      1.00000
     30      -6.7254      1.00000
     31      -6.6727      1.00000
     32      -6.6469      1.00000
     33      -6.6431      1.00000
     34      -6.6061      1.00000
     35      -6.4427      1.00000
     36      -6.4112      1.00000
     37      -5.0389      1.00000
     38      -4.7616      1.00000
     39      -3.4344      0.00000
     40      -2.7205      0.00000
     41      -2.5318      0.00000
     42      -2.2641      0.00000
     43      -1.1104      0.00000
     44      -0.9679      0.00000
     45      -0.8219      0.00000
     46      -0.6478      0.00000
     47      -0.6091      0.00000
     48      -0.1114      0.00000
     49       0.0476      0.00000
     50       0.2342      0.00000
     51       0.5552      0.00000
     52       0.6043      0.00000


--------------------------------------------------------------------------------------------------------


 soft charge-density along one line, spin component           1
         0         1         2         3         4         5         6         7         8         9
 total charge-density along one line
 
 soft charge-density along one line, spin component           2
         0         1         2         3         4         5         6         7         8         9
 total charge-density along one line
 
 pseudopotential strength for first ion, spin component:           1
-10.230   0.005  -0.023   0.007  -0.000 -10.208   0.005  -0.022
  0.005 -10.221   0.001   0.020  -0.006   0.005 -10.200   0.001
 -0.023   0.001 -10.226   0.009   0.003  -0.022   0.001 -10.204
  0.007   0.020   0.009 -10.233   0.009   0.007   0.019   0.008
 -0.000  -0.006   0.003   0.009 -10.225  -0.000  -0.005   0.003
-10.208   0.005  -0.022   0.007  -0.000 -10.162   0.005  -0.021
  0.005 -10.200   0.001   0.019  -0.005   0.005 -10.154   0.001
 -0.022   0.001 -10.204   0.008   0.003  -0.021   0.001 -10.159
  0.007   0.019   0.008 -10.212   0.009   0.007   0.019   0.008
 -0.000  -0.005   0.003   0.009 -10.204  -0.000  -0.005   0.003
 -0.010  -0.002  -0.000  -0.004   0.002  -0.010  -0.002  -0.001
 -0.016  -0.004  -0.001  -0.007   0.004  -0.016  -0.004  -0.001
  0.030  -0.009   0.013   0.000   0.023   0.029  -0.008   0.012
  0.000  -0.022  -0.009   0.030   0.000   0.000  -0.021  -0.009
 -0.021   0.000  -0.018  -0.008   0.031  -0.020   0.000  -0.017
  0.036  -0.010   0.015   0.000   0.028   0.035  -0.010   0.015
  0.000  -0.027  -0.011   0.037   0.000  -0.000  -0.026  -0.011
 -0.026   0.000  -0.021  -0.010   0.037  -0.025  -0.000  -0.021
 pseudopotential strength for first ion, spin component:           2
-10.229   0.005  -0.023   0.008   0.000 -10.208   0.004  -0.022
  0.005 -10.219   0.001   0.019  -0.006   0.004 -10.198   0.001
 -0.023   0.001 -10.225   0.008   0.003  -0.022   0.001 -10.204
  0.008   0.019   0.008 -10.232   0.010   0.007   0.018   0.008
  0.000  -0.006   0.003   0.010 -10.224   0.000  -0.006   0.003
-10.208   0.004  -0.022   0.007   0.000 -10.162   0.004  -0.022
  0.004 -10.198   0.001   0.018  -0.006   0.004 -10.153   0.001
 -0.022   0.001 -10.204   0.008   0.003  -0.022   0.001 -10.158
  0.007   0.018   0.008 -10.210   0.009   0.007   0.017   0.008
  0.000  -0.006   0.003   0.009 -10.203   0.000  -0.006   0.002
 -0.010  -0.002  -0.000  -0.004   0.002  -0.010  -0.002  -0.001
 -0.016  -0.004  -0.001  -0.007   0.003  -0.016  -0.004  -0.001
  0.030  -0.009   0.012   0.000   0.023   0.029  -0.008   0.012
  0.000  -0.023  -0.009   0.030   0.000   0.000  -0.022  -0.009
 -0.021   0.000  -0.018  -0.008   0.031  -0.020   0.000  -0.017
  0.037  -0.011   0.015   0.000   0.028   0.035  -0.010   0.015
  0.000  -0.028  -0.011   0.037   0.001   0.000  -0.027  -0.011
 -0.026   0.000  -0.021  -0.009   0.038  -0.025   0.000  -0.021
 total augmentation occupancy for first ion, spin component:           1
  2.463  -0.032   0.069   0.112  -0.049  -0.518   0.020  -0.150  -0.073   0.044   0.745  -0.128   0.076   0.020  -0.086   0.012
 -0.032   2.257  -0.010  -0.042  -0.016   0.020  -0.243  -0.014   0.107  -0.000   0.105  -0.008  -0.006  -0.021   0.000  -0.005
  0.069  -0.010   2.263   0.028  -0.034  -0.150  -0.014  -0.274   0.037   0.027   0.092  -0.022   0.021  -0.010  -0.026   0.005
  0.112  -0.042   0.028   2.335  -0.053  -0.073   0.107   0.037  -0.408   0.098   0.320  -0.066   0.019   0.056  -0.051  -0.001
 -0.049  -0.016  -0.034  -0.053   2.328   0.044  -0.000   0.027   0.098  -0.323  -0.184   0.039  -0.001  -0.015   0.042   0.015
 -0.518   0.020  -0.150  -0.073   0.044   0.553  -0.010   0.219   0.041  -0.041  -0.616   0.090  -0.110  -0.011   0.113   0.009
  0.020  -0.243  -0.014   0.107  -0.000  -0.010   0.216   0.035  -0.163   0.014  -0.078  -0.003   0.005   0.043   0.003   0.000
 -0.150  -0.014  -0.274   0.037   0.027   0.219   0.035   0.267  -0.092  -0.022  -0.082   0.020  -0.038   0.032   0.039   0.003
 -0.073   0.107   0.037  -0.408   0.098   0.041  -0.163  -0.092   0.457  -0.136  -0.270   0.051  -0.010  -0.096   0.059   0.001
  0.044  -0.000   0.027   0.098  -0.323  -0.041   0.014  -0.022  -0.136   0.304   0.158  -0.031  -0.016   0.022  -0.065   0.000
  0.745   0.105   0.092   0.320  -0.184  -0.616  -0.078  -0.082  -0.270   0.158   1.707  -0.152   0.139   0.063  -0.201  -0.011
 -0.128  -0.008  -0.022  -0.066   0.039   0.090  -0.003   0.020   0.051  -0.031  -0.152   0.024  -0.018  -0.011   0.027   0.001
  0.076  -0.006   0.021   0.019  -0.001  -0.110   0.005  -0.038  -0.010  -0.016   0.139  -0.018   0.027   0.003  -0.020  -0.002
  0.020  -0.021  -0.010   0.056  -0.015  -0.011   0.043   0.032  -0.096   0.022   0.063  -0.011   0.003   0.025  -0.011  -0.000
 -0.086   0.000  -0.026  -0.051   0.042   0.113   0.003   0.039   0.059  -0.065  -0.201   0.027  -0.020  -0.011   0.040   0.002
  0.012  -0.005   0.005  -0.001   0.015   0.009   0.000   0.003   0.001   0.000  -0.011   0.001  -0.002  -0.000   0.002   0.001
 -0.001  -0.012  -0.005   0.014   0.002   0.001  -0.003  -0.002   0.007  -0.002  -0.005   0.001  -0.000  -0.002   0.001   0.000
 -0.005  -0.000  -0.008  -0.001   0.015  -0.010  -0.000  -0.003  -0.005   0.005   0.016  -0.002   0.002   0.001  -0.004  -0.000
 total augmentation occupancy for first ion, spin component:           2
 -0.005  -0.007  -0.005   0.005   0.004   0.002   0.005   0.004  -0.004  -0.003  -0.004  -0.002   0.001   0.002  -0.001  -0.000
 -0.007   0.020   0.008  -0.027  -0.014   0.005  -0.018  -0.007   0.021   0.011   0.026   0.004  -0.006  -0.012  -0.002  -0.000
 -0.005   0.008  -0.009  -0.008  -0.007   0.004  -0.007   0.004   0.006   0.005   0.008   0.001  -0.002  -0.005  -0.000  -0.000
  0.005  -0.027  -0.008   0.011   0.018  -0.004   0.021   0.006  -0.011  -0.013  -0.029  -0.003   0.004   0.008   0.001   0.000
  0.004  -0.014  -0.007   0.018   0.002  -0.003   0.011   0.005  -0.013  -0.003  -0.015  -0.002   0.003   0.006   0.001   0.000
  0.002   0.005   0.004  -0.004  -0.003   0.001  -0.004  -0.003   0.003   0.002   0.004   0.001  -0.001  -0.001   0.000   0.000
  0.005  -0.018  -0.007   0.021   0.011  -0.004   0.017   0.005  -0.016  -0.009  -0.021  -0.002   0.004   0.008   0.002  -0.000
  0.004  -0.007   0.004   0.006   0.005  -0.003   0.005   0.000  -0.005  -0.004  -0.006  -0.001   0.002   0.002   0.000   0.000
 -0.004   0.021   0.006  -0.011  -0.013   0.003  -0.016  -0.005   0.012   0.010   0.023   0.001  -0.003  -0.006  -0.002  -0.000
 -0.003   0.011   0.005  -0.013  -0.003   0.002  -0.009  -0.004   0.010   0.005   0.012   0.001  -0.002  -0.005  -0.001   0.000
 -0.004   0.026   0.008  -0.029  -0.015   0.004  -0.021  -0.006   0.023   0.012   0.020  -0.000  -0.005  -0.013  -0.003   0.000
 -0.002   0.004   0.001  -0.003  -0.002   0.001  -0.002  -0.001   0.001   0.001  -0.000   0.000  -0.000  -0.000   0.000  -0.000
  0.001  -0.006  -0.002   0.004   0.003  -0.001   0.004   0.002  -0.003  -0.002  -0.005  -0.000   0.001   0.001   0.000   0.000
  0.002  -0.012  -0.005   0.008   0.006  -0.001   0.008   0.002  -0.006  -0.005  -0.013  -0.000   0.001   0.003   0.001   0.000
 -0.001  -0.002  -0.000   0.001   0.001   0.000   0.002   0.000  -0.002  -0.001  -0.003   0.000   0.000   0.001   0.000   0.000
 -0.000  -0.000  -0.000   0.000   0.000   0.000  -0.000   0.000  -0.000   0.000   0.000  -0.000   0.000   0.000   0.000   0.000
  0.000   0.000  -0.000  -0.000  -0.000   0.000  -0.000  -0.000   0.000   0.000   0.000  -0.000  -0.000  -0.000  -0.000   0.000
 -0.000   0.000   0.000  -0.000  -0.000  -0.000  -0.000  -0.000   0.000   0.000   0.000  -0.000  -0.000  -0.000  -0.000  -0.000


------------------------ aborting loop because EDIFF is reached ----------------------------------------


    CHARGE:  cpu time    0.03: real time    0.03
    FORLOC:  cpu time    0.00: real time    0.00
    FORNL :  cpu time    0.08: real time    0.09
    STRESS:  cpu time    0.10: real time    0.10
    FORCOR:  cpu time    0.15: real time    0.15
    FORHAR:  cpu time    0.02: real time    0.02
    MIXING:  cpu time    0.00: real time    0.00
    OFIELD:  cpu time    0.00: real time    0.00

  FORCE on cell =-STRESS in cart. coord.  units (eV):
  Direction    XX          YY          ZZ          XY          YZ          ZX
  --------------------------------------------------------------------------------------
  Alpha Z     8.17796     8.17796     8.17796
  Ewald    1734.43016  1678.67336   866.50725  -675.77541 -1094.82330  -488.40298
  Hartree  4011.68041  3962.90008  3256.46411  -540.27020  -879.31872  -420.73865
  E(xc)    -405.38240  -405.41101  -405.64261    -0.43566    -0.67514    -0.15009
  Local   -6871.78910 -6767.18523 -5250.82967  1211.39503  1967.06018   907.98822
  n-local   -82.22207   -82.04600   -82.18695     0.55189     0.85248    -0.15229
  augment   642.01457   641.95257   642.68191     1.25300     1.89856     0.40965
  Kinetic   960.69064   960.51008   962.48963     3.27143     4.92059     0.98453
  Fock        0.00000     0.00000     0.00000     0.00000     0.00000     0.00000
  -------------------------------------------------------------------------------------
  Total      -2.39985    -2.42818    -2.33838    -0.00991    -0.08534    -0.06161
  in kB      -0.75445    -0.76335    -0.73512    -0.00312    -0.02683    -0.01937
  external pressure =       -0.75 kB  Pullay stress =        0.00 kB


 VOLUME and BASIS-vectors are now :
 -----------------------------------------------------------------------------
  energy-cutoff  :      249.84
  volume of cell :     5096.42
      direct lattice vectors                 reciprocal lattice vectors
    17.208978784  0.000000000  0.000000000     0.058109201  0.000000000  0.000000000
     0.000000000 17.208978784  0.000000000     0.000000000  0.058109201  0.000000000
     0.000000000  0.000000000 17.208978784     0.000000000  0.000000000  0.058109201

  length of vectors
    17.208978784 17.208978784 17.208978784     0.058109201  0.058109201  0.058109201


 FORCES acting on ions
    electron-ion (+dipol)            ewald-force                    non-local-force                 convergence-correction
 -----------------------------------------------------------------------------------------------
   -.534E+03 0.323E+03 0.199E+03   0.528E+03 -.319E+03 -.197E+03   0.590E+01 -.421E+01 -.164E+01   0.485E-02 0.194E-01 0.113E-01
   -.321E+03 0.309E+03 -.420E+03   0.319E+03 -.308E+03 0.418E+03   0.184E+01 -.113E+01 0.264E+01   -.167E-01 -.263E-01 -.143E-01
   -.271E+03 -.964E+02 0.567E+03   0.271E+03 0.951E+02 -.564E+03   0.849E-01 0.134E+01 -.298E+01   -.603E-02 0.145E-01 -.140E-01
   0.327E+03 0.431E+03 -.381E+03   -.324E+03 -.426E+03 0.376E+03   -.297E+01 -.485E+01 0.462E+01   -.622E-02 -.298E-02 0.178E-01
   -.143E+03 -.566E+03 -.457E+03   0.143E+03 0.563E+03 0.454E+03   0.747E+00 0.286E+01 0.298E+01   -.432E-02 -.165E-01 -.101E-01
   0.619E+03 0.120E+03 0.103E+03   -.617E+03 -.121E+03 -.101E+03   -.255E+01 0.119E+00 -.182E+01   -.666E-02 -.180E-02 0.626E-02
   0.323E+03 -.522E+03 0.388E+03   -.320E+03 0.516E+03 -.385E+03   -.306E+01 0.585E+01 -.329E+01   0.854E-02 0.925E-02 -.255E-03
 -----------------------------------------------------------------------------------------------
   0.421E-01 0.431E-01 -.484E+00   0.114E-12 0.114E-12 0.568E-13   -.208E-01 -.181E-01 0.507E+00   -.266E-01 -.448E-02 -.325E-02
 
 
 POSITION                                       TOTAL-FORCE (eV/Angst)
 -----------------------------------------------------------------------------------
     13.45202      9.30785      9.83001         0.022009      0.027645      0.001039
     11.60995      9.78729     11.77890        -0.045824     -0.019088     -0.011480
     11.60524     11.15980      9.33562         0.005721     -0.002584     -0.005816
      9.21496      8.75952     12.57611         0.001086      0.005866      0.008164
     10.96565     12.53005     11.71804         0.004121     -0.020034      0.001100
      9.13356     10.63522     10.69513         0.006919     -0.002901      0.012223
      9.54996     12.94652      9.32386         0.005967      0.011096     -0.005229
 -----------------------------------------------------------------------------------
    total drift:                               -0.005336      0.020564      0.020134


--------------------------------------------------------------------------------------------------------



  FREE ENERGIE OF THE ION-ELECTRON SYSTEM (eV)
  ---------------------------------------------------
  free  energy   TOTEN  =       -11.17197162 eV

  energy  without entropy=      -11.17197162  energy(sigma->0) =      -11.17197162
 
 d Force = 0.1965802E-04[ 0.315E-04, 0.778E-05]  d Energy = 0.7470304E-05 0.122E-04
 d Force = 0.1009248E-01[ 0.101E-01, 0.101E-01]  d Ewald  = 0.1009248E-01 0.159E-08


--------------------------------------------------------------------------------------------------------


    POTLOK:  cpu time    0.16: real time    0.16


--------------------------------------------------------------------------------------------------------




--------------------------------------------------------------------------------------------------------


  
 reached required accuracy - stopping structural energy minimisation
     LOOP+:  cpu time    1.47: real time    1.52
    4ORBIT:  cpu time    0.00: real time    0.00

 total amount of memory used by VASP on root node    46832. kBytes
========================================================================

   base      :      30000. kBytes
   nonl-proj :        735. kBytes
   fftplans  :       4202. kBytes
   grid      :      10682. kBytes
   one-center:         15. kBytes
   wavefun   :       1198. kBytes
 
  
  
 General timing and accounting informations for this job:
 ========================================================
  
                  Total CPU time used (sec):      355.542
                            User time (sec):      345.562
                          System time (sec):        9.981
                         Elapsed time (sec):      430.554
  
                   Maximum memory used (kb):       51540.
                   Average memory used (kb):           0.
  
                          Minor page faults:      1692596
                          Major page faults:            0
                 Voluntary context switches:        15097
