12
Energy = -62.3299361 eV
Co 8.202305118249713 11.399046547529052 9.20540248958544
Co 8.17793779470777 6.6776773101535865 9.231470839838646
Co 8.148886093972628 9.00696888231225 9.359780115489244
Co 10.061747746525313 7.847499066782562 8.61236049637881
Co 10.040112587689839 10.237757801754068 8.600941567112145
Co 6.868454547392332 7.85287629840413 7.7179346174032535
Co 6.957853316740941 10.284188249113445 7.726136651273469
Co 9.563511683435909 7.908429266730816 10.8568975646409
Co 9.539219102735835 10.230448399997321 10.85941207983045
Co 8.724245544323816 9.056879676225497 7.047960305941894
Co 8.701735877801752 6.7354340740696825 7.0010747820974695
Co 11.372258586423905 9.121062426927464 10.138896490407896
