19
Energy = -103.33634985 eV
Co 9.266784679204735 7.103291324209942 11.422995361242451
Co 9.84765718235769 6.044498051335159 9.471518461086811
Co 11.13928901932244 8.40014760084635 11.025438623289304
Co 9.29376124755403 7.039793187394565 7.379390982399117
Co 9.36157204241082 9.82437904066198 11.463715772918338
Co 7.695582550335957 6.893326696281672 9.170983441616201
Co 11.46517004468176 7.529630341237195 8.8336129674372
Co 7.433221947233165 8.495762905735678 10.852801060017145
Co 9.449749089736475 8.446081640050464 9.558614664319624
Co 6.045537159258895 8.703665922894272 8.910863840185483
Co 10.276737596649559 10.610436948777185 9.401134163444459
Co 7.950419284151421 10.404028451110568 9.592695167272469
Co 8.001164794238125 8.918744209660609 7.776709080702955
Co 6.666096224167625 7.198819359611092 7.1105720431667825
Co 10.441772305195098 9.135861357419142 7.516171672785703
Co 6.520411032697838 10.709981745330737 7.76876656391774
Co 8.925468612378125 10.961295661889533 7.406950976473661
Co 8.980330916710619 9.12267548200602 5.747583541921306
Co 6.64052652061043 9.240814999095738 5.966123542694439
