12
Energy = -59.86411012 eV
Co 9.959518085616574 8.35092753 9.959518085616574
Co 9.959518085616574 9.959518085616574 8.35092753
Co 8.35092753 9.959518085616574 6.7423369743834245
Co 6.7423369743834245 8.35092753 6.7423369743834245
Co 8.35092753 6.7423369743834245 9.959518085616574
Co 6.7423369743834245 6.7423369743834245 8.35092753
Co 6.7423369743834245 9.959518085616574 8.35092753
Co 8.35092753 9.959518085616574 9.959518085616574
Co 6.7423369743834245 8.35092753 9.959518085616574
Co 8.35092753 6.7423369743834245 6.7423369743834245
Co 9.959518085616574 6.7423369743834245 8.35092753
Co 9.959518085616574 8.35092753 6.7423369743834245
