12
Energy = -61.70829321 eV
Co 8.695001723575341 6.374930655065998 8.680817881030388
Co 7.639095618725498 9.807059351395422 10.670037897466061
Co 7.426955650777597 7.758716186930153 7.303398051926054
Co 6.809440490933862 9.844609665308335 8.51829756114643
Co 10.816206637552115 7.558126375987821 9.312745060676997
Co 9.91561220272414 7.645083230060162 7.19090226731133
Co 10.16894649172883 9.702918704447049 10.526062439153971
Co 8.752038016881967 9.717205183823758 7.151670581346433
Co 8.871710129577396 11.02289482004445 9.125680059171444
Co 10.820696708274445 9.64293387449575 8.298186178659336
Co 6.7242141854338415 7.770484960387657 9.521959826402583
Co 8.796812639991986 8.58568653465582 9.135310863561852
