18
Energy = -97.16158993 eV
Co 12.50929902509852 7.798613160750338 10.323486496675073
Co 11.669640525909745 7.722071500837037 8.150004334836586
Co 9.251312593330095 12.856617112792083 10.794509662104817
Co 8.030646032602613 8.812575084938638 6.718607495106363
Co 8.413060480001342 12.958043514144578 8.680518254405634
Co 8.407949410528232 10.880095658847441 7.586727817768061
Co 8.62909426681753 8.930030218936626 8.970708318591488
Co 10.208581202212258 10.824957063429567 11.249939701558665
Co 11.13174289965865 9.500903922677121 9.55536335515344
Co 8.717854167866705 8.964747402658638 11.331230735598856
Co 9.587172260723822 9.757977158129718 13.282869089534048
Co 10.27375338097599 9.446388457903833 7.358235557180212
Co 10.947421973916654 8.589725223270309 11.764632111275843
Co 9.505060245787742 7.2455613644555985 7.630166399005077
Co 10.149809047987091 7.376994701949418 9.895170504923662
Co 10.19787440139748 11.558393564426627 8.863812291075176
Co 8.158003954130065 11.207730631155258 12.25589411230112
Co 8.164590132123282 10.98880724371381 9.978324981004574
