16
Energy = -85.19651155 eV
Co 7.042845613290849 8.091034794589415 5.564764551480963
Co 9.00697312769618 9.324616659677362 5.694088217317972
Co 7.023147535206485 10.313787331817233 6.290446494441865
Co 5.906037519943913 8.566234980852393 7.4769913579692275
Co 8.842378394872275 7.210129086190881 6.733102094270098
Co 6.658940555539198 6.2954615770424365 7.16259206260939
Co 8.980410681368985 11.220095533626626 7.0812170495892275
Co 8.556926583047215 5.16992232399845 7.920905808989456
Co 7.507810014502378 10.094185334125534 8.49314004509577
Co 6.540616214433984 4.7364649073052325 8.957913401999686
Co 9.559946274330832 9.197917645200096 7.936680942810475
Co 9.912714227535524 6.846406725353304 8.85579857965967
Co 7.665428227165516 7.785742716936307 8.668291898261884
Co 8.076065765974594 6.041908406732669 10.018762322312664
Co 5.716989262651521 6.788818083175144 9.22274341024503
Co 9.20730438713032 8.5218082780673 10.127096147636399
