15
Energy = -79.65518045 eV
Co 7.028359150432347 7.257220385042752 4.935872255089215
Co 7.072513505674752 9.595625824117327 4.961336659697094
Co 8.61901457724469 8.383505608312765 6.138507530310904
Co 6.125006640026884 8.564400575250918 6.74844881347122
Co 9.050954321381035 6.139714675840193 5.803157326887298
Co 7.222885283556648 6.491934310249834 7.1866596504254385
Co 7.582477696497217 10.272465341730324 7.1522438538860325
Co 9.9647927708243 7.180516453325548 7.685032898788226
Co 8.94228207258956 5.169529163679111 7.9883513949475615
Co 6.964345904503578 5.559561204884515 9.293527209375819
Co 8.062298338355536 8.316683259597816 8.46189669318094
Co 6.80787657957423 7.647444825177868 10.280100696856115
Co 5.400918950359129 7.210310470195894 8.555445890599218
Co 6.058297857002818 9.434119927862172 8.885431418100346
Co 8.959937249081255 6.638928871836076 9.785948605488397
