20
Energy = -109.39605012 eV
Co 9.580833175490671 9.03150972684594 12.716119262993903
Co 7.919926849241274 11.886238041661855 10.28330144549936
Co 10.904678503087359 8.15341289120571 7.143713898255277
Co 11.60286514557477 9.414820256577178 10.744450584917804
Co 9.017429115696956 9.553756590858333 6.750775556384614
Co 12.465286749832249 9.229150295511499 8.533394552373489
Co 7.031575989176289 8.896108537029413 7.78908514588227
Co 7.887516964411063 11.008679779033024 8.186949137792906
Co 11.239323183388612 7.453702475491838 9.399816571551975
Co 11.35003762563248 7.4995613293878485 11.794300375183369
Co 9.890960103014113 11.86361212545639 8.923579197487735
Co 10.112700481884866 9.578203277839666 8.898007473998177
Co 9.326912983471855 11.887382646003172 6.615083832441413
Co 9.422697922445684 7.976359402531791 10.723843526370253
Co 7.543843574962589 8.172806033975291 11.9403059891109
Co 11.08795162739806 10.577217209619254 7.134415434048816
Co 7.739245120065721 9.466043388440395 9.985413609870971
Co 9.619300896099613 10.545029695772683 11.008159241606968
Co 7.6564856426982875 10.405257693095843 12.154224544040737
Co 8.878333337879605 7.727786714501827 8.443290401334725
