21
Energy = -115.29534232 eV
Co 6.331740907911666 7.818756952647833 8.967607694667516
Co 6.519512051157509 9.857893403474547 10.077090346241642
Co 6.865332749888533 7.7514193605532435 11.186831176425638
Co 8.084982838940132 11.423370564009746 11.028260413185336
Co 8.19156713624788 9.22951667021931 8.441867665777744
Co 7.811491645430813 7.13898600468779 7.338864167296951
Co 7.549429984856226 11.510538151364937 8.805016348283903
Co 6.812894345814254 9.862137669949254 12.28751049252655
Co 8.990914331344092 8.872034793046303 6.250434835185342
Co 9.097511425459649 11.047263545508379 7.170075260203241
Co 9.104064508739004 5.3634653246069135 8.176474563357305
Co 8.499361686539812 7.116011292265149 9.600644405850877
Co 8.632216392383262 9.195178943034824 10.940132398196736
Co 10.890313933877191 9.542063288054454 7.47626855548977
Co 11.209103831094142 11.764377114985848 7.902014821800806
Co 9.722619618996479 10.828169237020719 9.440848134418172
Co 10.157444176132847 7.299167860943488 7.564600799483991
Co 10.436086786425095 8.535137290977701 9.657490830223164
Co 10.782312834892686 6.250402810607226 9.499894405803003
Co 12.060591834499657 10.15996043022278 9.34595795600012
Co 12.260780324844067 7.895545480750118 8.470019556818748
