24
Energy = -133.82575821 eV
Co 12.305726071543086 12.238573541896182 8.16149146216694
Co 12.889760031825345 9.528181608863685 11.708774869190545
Co 11.109700999362977 10.321719682253654 7.840569010928149
Co 9.443809320581831 9.651829166697755 9.379731559009146
Co 9.701664290768349 7.908354600428819 12.724259155701386
Co 8.014316066407833 7.837083879324911 8.954911214130542
Co 12.01978537818289 11.628324048726215 11.850943663016569
Co 11.722923921084819 7.510718590325365 11.574698858119845
Co 9.766241404508516 7.515793574915986 10.42236542976075
Co 8.163798348313993 9.013132647402886 11.281077901938065
Co 7.298132012388183 11.118805028469865 11.603348268308325
Co 13.106216620361495 10.8622296284724 9.808195249438358
Co 9.54787498509525 11.912181561393067 11.863505733672524
Co 9.388215625160498 8.676324363240985 7.243391919575255
Co 11.785257434413156 9.002416026085484 9.731377518829557
Co 9.973507541004414 12.559234399924312 8.070818179597572
Co 10.890165915926085 11.535619346022573 9.918478372988925
Co 8.768952131267104 10.170684244829284 13.158872093458259
Co 10.576509380110815 9.779228082296516 11.70682825362094
Co 8.516363207418339 11.806134542945129 9.784709023494619
Co 10.822091721889986 7.443647562162757 8.440206792658703
Co 7.1069908684202705 9.07316151659212 7.205775921647245
Co 8.602168838072084 10.822197347139335 7.58140487248035
Co 7.130778340070404 9.989513422011193 9.355984562353278
