28
Energy = -157.55775313 eV
Co 11.826605958622796 8.131141115029813 7.523022654553851
Co 12.853767836292587 7.377130971814343 9.609388590495287
Co 10.568447985552602 7.547032787565208 9.3479913580455
Co 7.789628040760622 8.23103683883386 12.860692992983303
Co 11.25414354196982 7.081072688823347 11.484286491717603
Co 13.071807377218233 9.548048075310316 8.757181004591741
Co 8.897217111557426 7.221574624592678 11.085361463349766
Co 8.300565860260525 7.609698796803378 8.707135396227503
Co 9.836376042196491 9.305091302236926 7.751066653240295
Co 11.861017021606674 10.365882233960535 6.826118886626278
Co 8.146182956127394 8.5485731975066 6.379441941238252
Co 11.724979873039981 9.19191808381767 10.63158608252224
Co 9.230321910319685 9.393235026211283 10.099158325955333
Co 9.69947069491243 6.893084812878889 13.261908076920022
Co 10.083201630292137 9.71289420967137 5.487806272708792
Co 7.064982881069239 8.671729511022846 10.590151888463918
Co 8.413118463755538 10.860376310432015 6.546006065344241
Co 10.008816977683045 8.959981386823666 12.328895561846895
Co 7.3929636626756405 9.645594077854508 8.293895724285981
Co 6.511166857981791 12.010251185033953 12.119174485602342
Co 6.773023374416918 10.983204736666565 10.134538618538514
Co 10.250160319458017 11.198218462356664 11.186337155749994
Co 10.308818296231607 11.964648495405825 7.22415981833261
Co 8.077540247198206 10.351392762230297 11.977391631947889
Co 11.197408996972044 10.858712200087703 9.065929626131206
Co 8.763460047795533 11.483074885147078 8.931119224532505
Co 10.383579517607902 12.972566022518478 9.553726821754141
Co 8.390759566018499 12.562368248956794 10.916060235887366
