24
Energy = -133.61061454 eV
Co 7.401202760243419 12.848602206669568 9.704290258374554
Co 9.208294984509916 11.275617152601836 13.114576122002502
Co 12.722206294142953 12.02115565088235 10.992215494527104
Co 10.63078061572642 9.364446707708092 13.279614234104892
Co 14.605849094496827 10.930100444615494 10.35867282322755
Co 11.087187432127402 13.227960578002891 9.988083515718252
Co 9.683247117174126 9.744648670104091 9.01601503376213
Co 9.378835799223179 12.04232377665862 9.000011099519904
Co 13.506281586364135 12.400999479891704 8.910280995464664
Co 9.117032721190233 14.37030942971768 9.67105731369942
Co 10.519478182618188 8.38384542833678 10.847504770989405
Co 8.266480386088281 8.367336868494442 10.034039251073159
Co 13.618441876069653 10.089101871943013 8.490920802401975
Co 12.355799744755535 8.243175779962757 12.302630107564832
Co 9.148888910306217 12.75334816543103 11.287621440168213
Co 12.510588727579453 10.6023097444766 12.833627405829708
Co 11.071443772115087 11.249896240527992 14.521985039054394
Co 8.085790306191365 10.752465161465372 10.497667890215117
Co 12.699242772812005 9.648260559394751 10.570866054687619
Co 8.703440745128852 9.200717472883126 12.097661565880657
Co 10.507581987724762 10.713999557053077 11.236469242966779
Co 11.130968851908715 12.551990699505 12.59989601971274
Co 11.646702623415015 11.108770734441347 8.995762568665862
Co 11.626001058089216 8.669416629079723 8.75889224652019
