24
Energy = -134.42464908 eV
Co 8.806679358172296 10.513476661516192 10.504687647343784
Co 10.201619944218749 9.174895175464416 11.715137780433723
Co 8.108666502623034 8.236356594743441 10.99555427858227
Co 9.203822256189191 11.544825692912449 8.385062613527888
Co 6.515955456936548 9.850181784885075 10.783886602262479
Co 10.969302359575167 10.294288129730674 9.649354059337137
Co 10.051802863983516 6.852485134717275 11.25931489822344
Co 7.03922173636675 11.647796284222489 9.321367656313406
Co 7.848475467406811 9.501526371455903 8.598115651769152
Co 11.857992081948657 8.10143777921144 10.534152152872867
Co 6.437478087353444 7.782787494699772 9.431210248914235
Co 9.364073868415995 11.23659295538438 6.044057628511038
Co 9.78113008318841 8.265883007283515 9.325206329871179
Co 7.295976891578549 11.004531261404068 7.01004153950503
Co 11.919641815189399 8.295724058878765 8.27804568115214
Co 8.405030399550812 6.25621964697821 9.68297271298971
Co 10.333809532282334 9.73783094553465 7.482274020633444
Co 10.722641850031382 6.240381071711859 9.019652629558411
Co 5.504438851605373 10.023558617546149 8.72839095974161
Co 8.475275182717432 9.090855106190846 6.235634490556122
Co 7.863333931690007 7.262784206129774 7.667523762893259
Co 9.129210398328741 5.353087247933977 7.623841547331313
Co 6.248130865665625 8.743969636686018 7.012223422663833
Co 10.104337232871238 7.384344806234112 7.031057287474986
