20
Energy = -108.01446546 eV
Co 6.98139617387443 11.48743088381204 11.088198734712805
Co 12.895350089097228 9.558314725091728 7.819810606781973
Co 11.053839527013425 10.77172772952789 8.55199360537153
Co 7.655237267575395 13.153806096392373 9.567105685936184
Co 13.413297885450504 7.326531631258631 10.923890134781525
Co 11.195763390935454 7.278393097631024 10.450147463066264
Co 8.582337547015989 12.846561253600012 11.787734095650142
Co 10.214447793340913 9.403513459425355 10.443087001699386
Co 7.15668425382526 10.995578328482821 8.823370910674385
Co 8.811039997722462 10.360585271375339 12.049332511320062
Co 12.510665375920917 9.25586709587611 10.013377965116474
Co 9.001190812502122 9.715984378630719 8.282638488163546
Co 7.663303957993002 9.247171281998344 10.371251002512231
Co 8.975485714252894 7.564849769827449 9.368752070609174
Co 9.21841094392759 11.529795242395366 10.068806843903952
Co 11.009397294303477 8.345347498119928 8.365637633131737
Co 9.155395607589771 12.06640820647221 7.892963954701478
Co 7.013241376451025 8.563293692680126 8.343769602049031
Co 13.050879860091623 7.3292766396939655 8.762105322912609
Co 9.063389763748276 7.820318350340179 11.646780999537409
