38
Energy = -219.67618543 eV
Co 8.018290114241523 7.278451786031116 3.424159079815588
Co 8.938760297827532 5.580068703729249 4.872361462451395
Co 10.173185469696465 8.015857008769093 5.02864005518778
Co 6.401124706105104 5.922112191028994 4.815594370123993
Co 8.233145537631822 9.54388751027206 4.660139632088811
Co 6.077013581140778 8.329622322090426 4.579743939607164
Co 7.981270577242523 7.427783299545441 5.645733829601995
Co 10.58587712189339 10.322948730111921 5.748782779446094
Co 6.1952835777887705 10.653820780666543 4.9576233510549255
Co 4.124252775491585 6.657248567441487 5.480937937690328
Co 9.830225175836382 6.529873826853515 6.93786836668184
Co 7.6099861679176595 5.393817390160706 6.931953497145909
Co 11.343332347167932 8.44548112625429 7.241745514123027
Co 9.130532095194978 9.049572603368697 6.833886126095311
Co 5.8912127625351065 7.178073995648143 6.727712087951958
Co 6.7253590369257354 9.506964459556727 6.777790362157934
Co 4.976575114931412 5.151180089355754 7.46348223888619
Co 8.392016099625737 11.143121490730845 6.544502917100581
Co 4.505113868579584 9.002539250245027 6.194129485966544
Co 7.746158994246618 7.574450619545214 8.014692267828378
Co 3.8862138522278635 7.317764854106861 7.784906624472553
Co 10.280442401719684 10.315514752883356 8.420446984333227
Co 5.67114531995676 8.643572233617688 8.760637329398119
Co 7.903126483561465 9.913999404606551 8.829476991132895
Co 6.193173333167465 6.26048379363381 9.042643680720536
Co 11.30097928281619 6.494019169932755 8.93846879500215
Co 9.740154719435708 8.115383518752616 8.906115051760862
Co 7.250154921842734 4.160436416717948 8.842266172023646
Co 8.966730879150486 5.775719353855622 9.09996038316562
Co 11.622909015223156 8.719701998697877 9.950125656360786
Co 3.9518814265784816 6.073104656748536 9.68172622960684
Co 7.80391930398412 7.765994117405072 10.41274150479661
Co 6.548905454893692 9.604392526110768 10.713112870038442
Co 5.53781165007757 7.3497713387515695 10.907885665072088
Co 9.420527895913914 9.522824280278956 10.665786191044988
Co 10.007495653401039 7.0953620072236205 10.914840627909161
Co 7.389189398222405 5.524543621001513 10.867095754678276
Co 5.367710584582615 4.3617232030459645 10.101471186252908
