32
Energy = -182.0465085 eV
Co 13.666690076726528 10.76760042448961 15.189078318860993
Co 9.964380014784183 10.588057383782857 13.763793586226287
Co 11.800600635923155 12.642067280339113 11.105506248114857
Co 11.532897754092804 12.265845902023079 15.029446167989732
Co 12.143059456927533 10.13296085773819 9.546115279721933
Co 12.402960910173503 11.26590156692683 13.211026333399225
Co 11.39747250440655 8.784365949680613 12.843836871564537
Co 13.657135789530331 9.227875774315672 13.2674584652554
Co 7.884316020211821 9.905541876722378 8.048360461714239
Co 8.655419610096462 11.487989041939478 11.745804323433799
Co 9.331447267792022 13.613423264751884 8.451785390771038
Co 10.244227467575202 12.680093120290195 12.971839407349202
Co 11.734930535114177 11.555709353682488 7.740046497212971
Co 13.450318104996887 12.160048754328598 9.559107825764533
Co 13.614951442231485 10.55798976684374 11.299043370481744
Co 10.216225561980576 9.525115970367645 8.318618171859402
Co 9.356946593026546 11.514458485966669 7.393905014913211
Co 12.943903353676818 8.386949067526198 11.133168643195884
Co 9.55200648494585 13.445710142664568 10.8304702207385
Co 14.01936342553488 12.895671975932459 11.822302932478618
Co 14.323675191593338 14.736260845635401 13.09812822823994
Co 10.23407895183545 11.634144340834828 9.503057991163349
Co 11.574398389121253 13.505456437067858 8.98058644100891
Co 12.196810109648206 13.847690705176882 13.109087319618906
Co 9.083586107757391 8.990018628443513 12.317857479276054
Co 7.968210048415932 11.851634190699196 9.380410486325175
Co 8.77159331452061 9.788353116140307 10.151440489036496
Co 11.697209438545803 9.737129413897193 14.994153366755572
Co 13.850025882965925 12.915839959770288 14.3372001955532
Co 10.711271538232138 8.445238494158838 10.46739404509031
Co 14.903144090356587 11.17956225291095 13.204141279536161
Co 10.78879805183726 10.545476441521075 11.528535633020118
