30
Energy = -170.52751943 eV
Co 8.197677294418083 8.695780506938299 7.076828000005787
Co 8.976724362778006 10.927056231429887 7.053540317562454
Co 11.143899912260263 11.562527983096311 7.014606326833349
Co 10.678000408903003 9.179206519979704 7.179142915758212
Co 6.63566283973652 10.315561716670725 7.208955175744918
Co 8.84335964181491 7.211735498943041 8.69695910012411
Co 11.510163443781689 10.520833864952424 8.989859097429923
Co 12.842240179993672 8.701509122683524 8.29883228189439
Co 9.138583677325297 12.92553182558259 8.214200026086361
Co 9.237660066578872 9.608670215111736 8.965024099671506
Co 7.5470868666878035 11.300587140982636 8.99450423265449
Co 7.065262947372555 8.96919853127873 9.209300112055747
Co 11.262089875247469 12.79081260108495 8.98366132885303
Co 10.95155465285715 7.983860899153793 9.262564464475709
Co 8.823630747800523 7.911293851470887 10.839149786672946
Co 10.352595872898613 6.019459400071837 10.215969515189903
Co 12.77650912935666 6.917683238077814 10.15426975712915
Co 7.638108888274484 13.276116367291745 10.090326596643422
Co 9.55216860137296 11.920189581372368 10.341281536422022
Co 6.211368412519402 11.496277139773891 10.788685809597759
Co 11.833090597896744 11.504459184243835 11.129871261580632
Co 12.726246982455006 9.236116419318975 10.646111875105651
Co 8.033562431938437 10.111962869123952 11.183243670898442
Co 10.417430086340353 9.707369955526774 11.002688465933181
Co 9.491462503368039 8.958556209898314 12.94703820681518
Co 11.130296212734718 7.560424552211678 11.731604132669272
Co 7.938575428828716 12.226811068394563 12.10377704641468
Co 9.973356338975174 11.21913826174343 12.648312473463518
Co 11.818348715706492 9.568275915594764 12.869861114468518
Co 13.349214748705169 7.768925196924673 12.255763140774208
