36
Energy = -207.58482397 eV
Co 11.060556067543315 9.330726161877248 13.706837105214223
Co 13.002099928480927 10.070950250045103 12.502449828768372
Co 12.112462845822268 7.895782598945781 12.095968397525057
Co 7.771084635725709 7.2737782192626605 10.715028017699678
Co 9.770214073719881 8.475894715764655 11.99834708558578
Co 10.42715071165991 6.850498268706754 10.414303611622215
Co 11.412657355460313 11.622414930707839 13.76592373371817
Co 9.0963080858742 10.57643797414545 13.059450661335406
Co 8.99835387869693 6.650362836554925 8.552425135835714
Co 7.1309759976608476 8.028633425244243 8.468109684240643
Co 10.926233924071948 10.670912365754578 11.666299168047042
Co 7.7057835223210205 9.504337964888906 11.496899767267433
Co 13.857909366931958 8.759598468061542 10.722642369883932
Co 12.665160755465068 7.009532600887137 9.740658560724604
Co 12.440572252902996 12.468104294403444 11.857062802734127
Co 9.156045304513125 8.702521573401041 9.68839935719994
Co 11.53904109114301 8.986834153444654 10.177642735655011
Co 10.066789519268626 12.7598341644039 12.171531724871691
Co 12.957611519393911 10.889937987611239 10.253799517905293
Co 5.974346295912087 9.021761340136464 10.152453457212042
Co 6.5158391674224845 11.425033922018148 10.325007532878407
Co 8.81887981347327 11.383859603642364 10.765100878739986
Co 13.02978964601818 9.082234397583358 8.396266092618609
Co 10.973840595661668 7.9930781076901996 8.159346720476039
Co 9.006965679737567 8.781280775644333 7.204481290904151
Co 12.429187768502366 11.272046775814367 8.081325613726293
Co 10.293272262154483 10.549935565264187 8.745995462293843
Co 11.014667146760342 12.428092992290116 9.91855190119947
Co 7.709783086226471 10.29134896931707 8.798508493750186
Co 6.901839682283792 9.730615085480725 6.682448085249623
Co 11.118510663493852 9.872000851890963 6.703095944155867
Co 5.405050389521395 10.354344627872173 8.388519414363758
Co 8.762395806976677 12.50476535452919 8.804557160774015
Co 10.650297883876545 12.55105237814798 7.4587610786370355
Co 8.902462041275745 11.08347687804776 6.862003863013697
Co 6.77668156819505 12.047628310478814 7.6255386402222065
