3
Energy = -11.18249534 eV
Co 7.291939503693366 6.609075315010746 7.5767509180295995
Co 8.780210052408583 7.957087204824707 7.025977333405018
Co 6.6656564023354745 8.433676280011719 8.268058340934575
