48
Energy = -283.52333517 eV
Co 10.443212624840603 5.691410677910719 10.502644051162214
Co 12.064174038522129 7.31675143329028 9.375995786158256
Co 10.528036302088616 6.282787860289206 8.108734179871067
Co 12.551656716941189 6.544177265362153 11.612138592737175
Co 11.462121907631918 8.373638727869105 7.2922327596501795
Co 10.563724311603936 6.174533998483993 12.873613951212258
Co 8.531241237929637 6.83711111145484 11.77723342540956
Co 9.001435954239282 7.345060516809426 9.537373142279721
Co 10.684144101237843 7.817370001856189 11.23983724077785
Co 12.777873942518562 8.975194812674498 11.089126347420864
Co 13.149299852547959 9.368566369602915 8.835768565169053
Co 9.117159287338914 8.039486886905236 7.389186857572273
Co 9.50016585715774 8.436110459300542 13.280985275701733
Co 10.63871744786708 9.272314511119532 9.235281998393182
Co 11.89873094497773 8.298304086619599 13.236632848564247
Co 13.749348261859442 11.709295295557485 8.49998536676247
Co 11.853348170596842 10.809798883786382 7.499678969249082
Co 10.826329953597574 10.094911241284082 11.987331703901688
Co 10.80911944368297 10.32071334791659 14.252535473011061
Co 7.335259726635056 9.45818785814896 6.824889498237822
Co 6.997533983491309 8.544520413823939 12.381619315845523
Co 6.819716975353447 8.496856391560895 10.019424714793699
Co 8.765420078738092 9.108912876610017 11.080029798668871
Co 9.699524037647043 10.157867536615102 6.762156782524576
Co 11.913848702294688 11.141551721249215 9.885316138546644
Co 12.838690319293448 10.583380412624217 12.929930662762308
Co 9.419916127968678 11.370182799366438 10.800006656310284
Co 9.881613267042455 11.663954080363778 8.545520085290377
Co 8.35985289183372 10.485594802148702 12.934845871177986
Co 8.331605296633672 9.872707745842057 8.851527968411384
Co 10.472246260756549 12.457671682078619 6.446043262786737
Co 7.044622428655987 10.69711459751858 10.941727359165801
Co 14.059675100028517 10.866730126406082 10.77577152369894
Co 6.199797312062311 10.575148795598452 8.655237114273866
Co 13.899627678279435 12.59410657007587 12.454559387313935
Co 7.932365298807598 11.663374457548876 7.168677166790439
Co 11.536590100029029 12.522043897863808 11.697257392705605
Co 9.808754323751264 12.18511382407643 13.233762302596968
Co 11.659785098169298 13.15470414179883 8.498900371359902
Co 9.673463792542059 13.604088561986888 10.105537296983222
Co 13.382234456521026 13.115053548452217 10.261745913993844
Co 8.08646182554051 12.905461647045488 11.76132146920582
Co 9.077875216872316 13.689028554954499 7.850138488687312
Co 11.982609876841888 12.47504296220797 14.023450699956989
Co 7.669333359184009 12.36765596894148 9.401132227815449
Co 12.493833822048398 14.441228481755454 12.565438579389983
Co 10.0861944325656 14.284274634883035 12.322916014731357
Co 11.698703761692661 14.629040473903041 10.424539241558248
