40
Energy = -233.87232236 eV
Co 12.573088408852014 14.351737705894427 9.7386714167718
Co 10.608748629403804 15.248793231765202 10.377924130360856
Co 11.22493232376848 13.88074055586257 7.959658790506528
Co 13.122537604042167 12.554718387563431 11.020116927787882
Co 12.5298360522917 12.09805973933588 8.706548391301544
Co 9.19989316017078 14.220614005060096 8.959305716510112
Co 11.596659853592943 14.047367533071359 12.148920165333099
Co 10.73485576573079 12.79969597993069 10.30374536927831
Co 11.605385601147113 11.839306597533385 6.588967162445657
Co 9.084854663178614 13.948277958750934 11.595811665428565
Co 14.16776948226503 10.780408480648559 12.265836803870549
Co 12.62140870664398 9.957778910578707 7.673871743471812
Co 13.436280407051731 10.355356658236033 10.000652258978535
Co 9.854365575258951 11.999205790907023 8.102626097814394
Co 12.588263683342632 12.30008716701345 13.34881836281965
Co 8.296142954458636 12.381021577803454 9.938560190198976
Co 10.195690306152187 12.285453599671795 12.839804911398035
Co 11.57846045886893 7.875950763022308 7.351593898345755
Co 11.028621379005513 10.344675694991572 9.413731914194695
Co 11.788391369810345 10.788261913428117 11.727940820247397
Co 9.330162146888846 10.702918914256678 11.175628858521272
Co 11.088744476891176 11.386585589773718 14.834204320893255
Co 10.357629296216084 9.873178908720611 7.16379911793336
Co 8.61669319319933 11.309910185467567 14.274045011609052
Co 7.8058910535246655 12.120691312120881 12.27908189587626
Co 12.342842839352741 8.297816780497365 9.476955176921724
Co 8.602099018092765 10.183100923009881 8.913146248374069
Co 13.076884033810787 8.763149594393102 11.758013029933213
Co 12.51625762811733 9.88625897508471 13.80275545015171
Co 6.951246723818118 10.523132179385248 10.65256015157438
Co 10.677978473649116 8.663492964672537 11.23631553757923
Co 10.16458101064515 9.835534167595178 13.378259165753088
Co 7.859045619087637 9.716914612737817 12.766083690164034
Co 9.942887825629908 8.213213856305261 8.937346998743578
Co 8.287551252927392 8.596718318214727 10.689036158423702
Co 11.976248482700017 6.691507997229679 11.197611783591462
Co 11.493103046466127 7.800629351703504 13.22078230039792
Co 9.158620377733026 7.718698306300945 12.697803665089225
Co 9.654483277750076 6.611714889589205 10.673661082550273
Co 10.462237687467795 5.754985825500729 12.646223508347243
