40
Energy = -233.2552444 eV
Co 11.604729293666223 13.672874072493713 9.204269898645558
Co 11.012656133022634 9.278640638847516 9.0066633545655
Co 9.320558714881615 11.403340270182868 12.944361776936564
Co 12.262860185223815 9.40411089266464 11.147049403360397
Co 10.896590833407174 11.709644969442817 6.340355782207448
Co 9.433513594750705 8.178088893020977 10.738529048970245
Co 8.752559644404311 8.060151812384808 8.349998384792613
Co 13.291188272627625 9.923492284254143 9.047006091346043
Co 10.195224596192306 10.588545328226305 10.906148242869762
Co 6.885461728877932 8.70441558917158 9.99935585717551
Co 8.526494670780266 10.312225674752508 9.2675199060172
Co 10.447443698730302 11.698699086513596 8.721929114766956
Co 7.263808110819731 9.771029718050567 7.398186232705999
Co 12.293747687969157 11.635762454575541 10.301480387547748
Co 6.739004646760692 11.75174894426882 8.822957570184467
Co 5.383628894555302 9.843090669639757 8.707616471612178
Co 12.074762135952195 9.79652187768955 6.972284935074236
Co 10.395549039936027 12.876517104979927 11.031560936861675
Co 9.454399102733905 5.863058426385892 8.421271727913616
Co 10.441577470125614 9.226388383418918 12.779711772878626
Co 8.813615997671954 13.378849053210095 9.223132249797665
Co 11.156868326465029 6.9506216429018055 9.441149121549428
Co 8.424615429394644 8.941170053059068 13.848690922605451
Co 7.45793987974713 7.5440303138107625 12.00206826966896
Co 10.716093086747827 7.737473130120049 7.1611161472431615
Co 8.136974207967153 12.018929423973185 10.923297109120808
Co 8.51142509187709 11.98565449250358 7.372694606767077
Co 11.652685745273763 11.3478088999003 12.558571770704228
Co 11.49121378489409 7.269871218795028 11.728358735104866
Co 13.374465270525464 7.62234483975422 10.27732392282016
Co 9.507987472228285 7.072650203939074 12.92405997068838
Co 12.84190963198756 7.855641603452516 8.07433886546705
Co 9.641745977939845 9.89806358202941 7.077472228685003
Co 6.522698115074276 7.599708146910864 8.035687359239912
Co 12.630353548059247 11.959925096875308 7.9407967970492495
Co 9.703348241381793 5.8292650821289325 10.919481759778085
Co 10.228417961342704 13.63326815318861 7.333369264487938
Co 8.042588163113155 9.813231509052873 11.820326069831978
Co 6.151104240803724 10.734218100448638 10.807426115684178
Co 7.753401376995516 6.544138367888231 9.857591822181224
