40
Energy = -230.41621747 eV
Co 14.001365235547969 8.948158081444204 10.063824055048071
Co 10.110524240531008 10.112163680408672 5.944575745592131
Co 12.840996487426228 10.24446258932025 8.538725062813013
Co 7.065063879023747 11.368714840409494 10.356179014486498
Co 7.586115781240368 7.549767594803183 12.677050078162944
Co 10.743150509441566 7.007899687176714 10.135586575637971
Co 9.656969124501014 13.462863639126462 10.87844374191883
Co 10.983660439834122 11.932202428915952 11.964086025557268
Co 13.886756770138925 13.037546218769133 11.783809063863908
Co 10.737398361879633 13.717546417046764 8.52007630910574
Co 13.000374536668453 11.311936844706139 10.649373801117658
Co 9.66967669184344 7.016098162368925 8.071576591275207
Co 7.071349894151513 9.170129334009511 9.080664383841654
Co 9.337793878734232 10.882403989639364 10.521976740190413
Co 7.7212033113070095 9.43180329012928 11.416957210802979
Co 13.255858516396684 9.568573012919803 12.10828809578304
Co 11.975099916208233 13.59310564843749 10.508008464890635
Co 8.01915786307522 7.317196389275944 10.239291946671445
Co 7.049676507742759 11.28740385797117 8.033262449819196
Co 12.587620939685921 7.706273906716214 8.749706800743404
Co 11.03791695350116 9.049147041336308 7.676797040623322
Co 8.54329222202192 8.802677972494273 7.246396458281547
Co 8.59794997075623 11.677966024733971 12.515808589074604
Co 11.595365256710846 9.25240238451246 10.269915590523189
Co 9.369837345362908 8.89721323280915 9.433531671184008
Co 8.604626802962885 12.739668605728887 9.074056813766736
Co 9.337643486531611 10.905699571330842 7.889117355058359
Co 7.247420588034927 7.07087544934972 8.129522645476003
Co 9.624846012324861 7.859191534145785 11.916694763411579
Co 10.59866076652079 11.264637633920799 14.1301978610223
Co 12.849865201504775 11.615473088333724 13.341388608560392
Co 11.05514074892177 11.64306116005929 9.39021901278095
Co 11.44373243614372 11.777811647679021 7.179054898602207
Co 11.956705397961814 7.652696876704401 12.019304586663472
Co 7.456737500021367 13.364342772601814 11.350832559389513
Co 13.075199553794834 12.621494171943088 8.558979309706192
Co 8.746230075901734 9.611730908240059 13.5056057126071
Co 12.243427797703314 9.65287123198458 14.222748984213672
Co 11.992937473529532 13.711474951452589 12.887141985596866
Co 10.818660627674063 9.659323230307798 12.517232499398864
