49
Energy = -289.21800303 eV
Co 8.767749404620222 6.499010388331376 11.148765754023927
Co 8.314089621592071 5.808383978437723 8.968146846775978
Co 8.744331549446075 8.108181966841695 9.08796460195304
Co 8.254167698544906 12.455514967793654 12.820605496231677
Co 8.807929843193673 12.289921165914691 10.348579036275472
Co 12.598399741422007 7.107162307470993 8.343913557826315
Co 14.219351686819188 10.420308745068697 11.076599740366763
Co 8.972542251329179 9.131778344452202 6.93326149452741
Co 6.598896918824614 11.92558426427977 11.299304741279538
Co 9.207009806179816 10.567730329954577 14.194894093887257
Co 10.969525590491628 9.057392017005418 13.291705556372007
Co 11.238882283603495 12.370508308164402 10.711837879815365
Co 12.911849102048047 6.444960454809527 10.58713641505167
Co 10.599879803162358 6.4963537565305005 9.630704990668049
Co 13.147151769947428 12.306091413409433 12.230434635513607
Co 6.667299843607061 11.79607923299704 9.035917748379083
Co 10.23523284665762 10.306445466128029 9.572057989282598
Co 7.3883124282214405 10.167490556317032 12.660404719101571
Co 9.876599974610627 13.856346612285824 12.03058595806866
Co 12.14185540314353 14.293285080469465 11.567333194301845
Co 8.660062081073988 11.137878443297026 8.027280494975516
Co 11.806367231494304 8.425990932927323 10.22602555136526
Co 7.560199639938449 14.083927808109507 10.881844671426176
Co 9.70720910097575 8.613615921168677 11.202773168350266
Co 9.608953469462273 10.754383323064895 11.970655133286487
Co 13.62486622685239 12.584532541039453 9.988796828745578
Co 7.9502895556804 10.146770795871136 10.24598040353008
Co 7.267880786884356 8.204230226640474 11.443528728021523
Co 10.96987722968482 8.624140927897894 8.001751747381483
Co 12.130794055065866 14.096949615128924 9.155022195616892
Co 11.112328144645264 7.004103399731638 12.036001347764417
Co 6.901970125440729 9.460055480435772 8.269512478054732
Co 13.247115030407524 8.408280266941805 12.012225667586007
Co 9.817438686216043 6.741198065980882 7.4071554759568015
Co 7.482762109006564 7.275239879000734 7.271325672782657
Co 5.7507845441114425 9.723856075601951 10.397118391847222
Co 10.975309540095495 12.112831362635065 13.182626154068366
Co 14.710111534584648 10.86561260551898 8.683126937573244
Co 12.527365802859217 10.58717842401253 9.39998310601968
Co 9.965822705325513 14.436717873212803 9.87745132597918
Co 6.488709702828955 7.485337480245665 9.428942492474059
Co 11.9742065168237 10.347712343167277 11.753499478786267
Co 13.995803025880418 8.670354736001713 9.52377062542053
Co 12.774719387538513 12.177382582332568 7.7729781290684565
Co 13.083622720128522 9.456152886508965 7.475659049836794
Co 8.203436067249244 13.578054670218261 8.570267327362872
Co 8.790727726565484 8.326007412048122 13.29262565397845
Co 10.485544633231541 12.584158928450876 8.473248519794339
Co 10.923676467895804 10.729800045739767 7.1751136240895015
