54
Energy = -320.61363217 eV
Co 7.913534080951723 8.851045534107161 14.081075813162357
Co 8.977435104639415 8.595829589048936 11.993380729582494
Co 10.333005347857354 7.702237783676024 13.828182543947946
Co 6.779153575516986 8.863444262283851 11.440608392336594
Co 8.423180540009602 10.067116090484745 10.141237554075117
Co 9.701437230521197 9.263543500373261 15.724225799546053
Co 10.414740086429665 8.801282563306977 9.996067940026675
Co 8.296842503686488 11.018822620991092 14.963598927325265
Co 10.836442966036243 8.408140088978108 6.961267357050178
Co 9.84974480199849 10.02307478809923 13.583408745073664
Co 6.287420982037286 10.973041951981703 10.234874835630528
Co 11.466596024953239 8.912924771695026 12.079372859051281
Co 11.63957895064794 13.548097193098759 13.160828996184206
Co 11.882031454265066 9.26333302398465 14.521485191449184
Co 12.934719971602993 10.516115123142482 11.109525933326925
Co 9.519936344757276 12.335118395479222 13.230433868891215
Co 7.356224123838242 10.481487123894354 8.09543014981276
Co 12.29397406635118 10.396142986357944 7.158189669611817
Co 10.656265351975037 11.482464550936959 15.165501440843808
Co 15.250895991561878 10.366466825338662 11.362646081811922
Co 9.912607476489896 10.257664965626423 7.982113465689114
Co 6.636558891580097 8.584515963187675 9.172610443007423
Co 13.691289467715464 9.358523217436005 12.978255938327793
Co 7.240975037667409 12.698994878410199 8.850437750289672
Co 8.478515299192166 7.3097106232772315 10.183660905350324
Co 10.034430274360277 13.56936508785469 11.371063881450398
Co 7.766952771689396 10.653134021347977 12.525914212843555
Co 12.6365132518485 7.213324417788673 12.939181740011183
Co 8.662992893865555 14.45141312217064 9.775130587194456
Co 10.27142433855004 11.058422739134548 11.319411022824909
Co 10.295477071337196 6.744506952570554 11.624216841028808
Co 9.471053271786566 12.239449001814732 9.270904618753617
Co 8.433354566528145 9.524001925204704 6.229126494816307
Co 8.740709502247755 8.281297575567695 8.150722427787626
Co 7.9872992187499 12.39617189407858 11.077765079634682
Co 9.276341638108558 14.001560445472826 7.616896097936742
Co 11.761028134961906 15.116077651912123 11.208263248216523
Co 11.628734500973234 11.005873628687597 9.325730409043949
Co 13.9357162536572 8.474424923760752 10.753793944808834
Co 13.953250680202839 11.96950066022519 12.662774239572585
Co 12.202776337318053 12.7810905918749 10.984570392216874
Co 8.688889150073194 11.92055420127653 6.876934020388924
Co 11.117157550767034 13.954966546644737 9.145352747192542
Co 11.878805613611554 11.254916960935399 13.18192854869893
Co 10.56579615858197 6.855725447412913 8.8017824273019
Co 13.793480603764566 14.190058643738405 11.988955032537788
Co 12.183517142884577 7.092514160304708 10.5265039370599
Co 10.400579555525793 10.602191645484703 5.719750037557238
Co 12.37145113969898 8.644085899588049 8.756877011130744
Co 11.010435859976399 12.376773182514766 7.321152328503787
Co 13.09475386798765 12.535474222205808 8.415578116180775
Co 13.980389866226567 10.354129823820164 9.02746630669133
Co 13.412476732099401 14.445957976782543 9.696079883235605
Co 14.439834218761456 12.301542609585827 10.3757704919488
