unknown system                          
           1
    26.851651    0.000000    0.000000
     0.000000   26.851651    0.000000
     0.000000    0.000000   26.851651
   Ag
  54
Direct configuration=     1
   0.66631414  0.41522373  0.46175555
   0.69445989  0.54349823  0.33229607
   0.52172769  0.36798086  0.36529955
   0.30518369  0.62030703  0.49804433
   0.50419532  0.55307450  0.50908145
   0.55668496  0.63009401  0.56214506
   0.40245310  0.58356930  0.50547049
   0.49589339  0.71053818  0.52142783
   0.54888435  0.43562914  0.28737749
   0.51904583  0.57968479  0.64528161
   0.38939940  0.46542067  0.38892487
   0.43809803  0.42209157  0.62340646
   0.63847206  0.60884648  0.39421101
   0.24325153  0.56477882  0.43142626
   0.64256834  0.46171951  0.63110032
   0.43710827  0.52644391  0.58797154
   0.41862381  0.38115030  0.52764472
   0.60177830  0.40604650  0.54884270
   0.34155180  0.54646660  0.43336244
   0.51099805  0.47852638  0.37494900
   0.59305345  0.52794384  0.33408767
   0.46704411  0.50012151  0.68929653
   0.34302218  0.42970532  0.30701362
   0.54378108  0.57334725  0.41200478
   0.57050599  0.50300354  0.69582066
   0.45479115  0.63585846  0.58321179
   0.66962092  0.51609626  0.42982484
   0.60916317  0.42763945  0.37349492
   0.47049861  0.64120399  0.45142766
   0.71162251  0.44538902  0.36850320
   0.57224783  0.66307196  0.46145943
   0.39224142  0.68412019  0.51138661
   0.49035236  0.31683103  0.47693268
   0.28749258  0.49090752  0.36900035
   0.65089979  0.46037452  0.28201300
   0.44658402  0.41846143  0.31593880
   0.54296270  0.42891551  0.63345917
   0.57316711  0.47870578  0.46690464
   0.39614348  0.42678397  0.71964659
   0.49743749  0.40834443  0.72230742
   0.61640582  0.57556477  0.49583830
   0.57287470  0.37126769  0.45386477
   0.58212811  0.30055178  0.52746926
   0.49853475  0.45128688  0.53881173
   0.35209439  0.59789253  0.59249818
   0.44497265  0.54698743  0.41692282
   0.40879101  0.48133945  0.49322282
   0.41878327  0.59132385  0.67178263
   0.50803894  0.35253983  0.57455003
   0.30296886  0.46232834  0.72726093
   0.36318823  0.50202751  0.65547713
   0.46608403  0.41153408  0.44009455
   0.66406653  0.49010068  0.53305130
   0.57488946  0.52049269  0.57990967
