  45  45   0   0
  0.2508934E+03  0.2243368E-08  0.2243368E-08  0.2243368E-08  0.1000000E-15
  1.000000000000000E-004
  CAR 
 unknown system                          
      2.11157560    -10.22365943  301     -3.26453100      1.00000000
    -10.224  0.0000E+00  0.0000E+00  0.0000E+00  0.0000E+00
    -10.183  0.0000E+00  0.0000E+00  0.0000E+00  0.0000E+00
    -10.141  0.0000E+00  0.0000E+00  0.0000E+00  0.0000E+00
    -10.100  0.0000E+00  0.0000E+00  0.0000E+00  0.0000E+00
    -10.059  0.0000E+00  0.0000E+00  0.0000E+00  0.0000E+00
    -10.018  0.0000E+00  0.0000E+00  0.0000E+00  0.0000E+00
     -9.977  0.0000E+00  0.0000E+00  0.0000E+00  0.0000E+00
     -9.936  0.0000E+00  0.0000E+00  0.0000E+00  0.0000E+00
     -9.895  0.0000E+00  0.0000E+00  0.0000E+00  0.0000E+00
     -9.854  0.0000E+00  0.0000E+00  0.0000E+00  0.0000E+00
     -9.812  0.0000E+00  0.0000E+00  0.0000E+00  0.0000E+00
     -9.771  0.0000E+00  0.0000E+00  0.0000E+00  0.0000E+00
     -9.730  0.0000E+00  0.0000E+00  0.0000E+00  0.0000E+00
     -9.689  0.0000E+00  0.0000E+00  0.0000E+00  0.0000E+00
     -9.648  0.0000E+00  0.0000E+00  0.1000E-02  0.0000E+00
     -9.607  0.0000E+00  0.0000E+00  0.1000E-02  0.1000E-02
     -9.566  0.0000E+00  0.0000E+00  0.1000E-02  0.1000E-02
     -9.525  0.0000E+00  0.0000E+00  0.1000E-02  0.1000E-02
     -9.484  0.0000E+00  0.0000E+00  0.1000E-02  0.1000E-02
     -9.442  0.0000E+00  0.0000E+00  0.1000E-02  0.1000E-02
     -9.401  0.0000E+00  0.0000E+00  0.1000E-02  0.1000E-02
     -9.360  0.0000E+00  0.0000E+00  0.1000E-02  0.1000E-02
     -9.319  0.0000E+00  0.0000E+00  0.1000E-02  0.1000E-02
     -9.278  0.0000E+00  0.0000E+00  0.1000E-02  0.1000E-02
     -9.237  0.0000E+00  0.0000E+00  0.1000E-02  0.1000E-02
     -9.196  0.0000E+00  0.0000E+00  0.1000E-02  0.1000E-02
     -9.155  0.0000E+00  0.0000E+00  0.1000E-02  0.1000E-02
     -9.113  0.0000E+00  0.0000E+00  0.2000E-02  0.2000E-02
     -9.072  0.0000E+00  0.0000E+00  0.2000E-02  0.2000E-02
     -9.031  0.0000E+00  0.0000E+00  0.3000E-02  0.2000E-02
     -8.990  0.0000E+00  0.0000E+00  0.4000E-02  0.4000E-02
     -8.949  0.0000E+00  0.0000E+00  0.6000E-02  0.6000E-02
     -8.908  0.0000E+00  0.0000E+00  0.8000E-02  0.7000E-02
     -8.867  0.0000E+00  0.0000E+00  0.1100E-01  0.1100E-01
     -8.826  0.0000E+00  0.0000E+00  0.1300E-01  0.1300E-01
     -8.785  0.0000E+00  0.0000E+00  0.1500E-01  0.1400E-01
     -8.743  0.0000E+00  0.0000E+00  0.1700E-01  0.1700E-01
     -8.702  0.0000E+00  0.0000E+00  0.1900E-01  0.1900E-01
     -8.661  0.2432E-01  0.0000E+00  0.2100E-01  0.2000E-01
     -8.620  0.0000E+00  0.0000E+00  0.2400E-01  0.2400E-01
     -8.579  0.0000E+00  0.0000E+00  0.2700E-01  0.2700E-01
     -8.538  0.0000E+00  0.0000E+00  0.2900E-01  0.2900E-01
     -8.497  0.0000E+00  0.0000E+00  0.3200E-01  0.3100E-01
     -8.456  0.0000E+00  0.0000E+00  0.3400E-01  0.3400E-01
     -8.414  0.0000E+00  0.0000E+00  0.3800E-01  0.3700E-01
     -8.373  0.0000E+00  0.0000E+00  0.4100E-01  0.4000E-01
     -8.332  0.0000E+00  0.0000E+00  0.4400E-01  0.4400E-01
     -8.291  0.3589E-08  0.0000E+00  0.4700E-01  0.4700E-01
     -8.250  0.0000E+00  0.0000E+00  0.5000E-01  0.5000E-01
     -8.209  0.0000E+00  0.0000E+00  0.5300E-01  0.5200E-01
     -8.168  0.0000E+00  0.0000E+00  0.5600E-01  0.5500E-01
     -8.127  0.0000E+00  0.0000E+00  0.5800E-01  0.5700E-01
     -8.086  0.0000E+00  0.0000E+00  0.6200E-01  0.6200E-01
     -8.044  0.0000E+00  0.0000E+00  0.6400E-01  0.6400E-01
     -8.003  0.0000E+00  0.0000E+00  0.6700E-01  0.6700E-01
     -7.962  0.0000E+00  0.0000E+00  0.7000E-01  0.7000E-01
     -7.921  0.0000E+00  0.0000E+00  0.7400E-01  0.7300E-01
     -7.880  0.0000E+00  0.0000E+00  0.7600E-01  0.7600E-01
     -7.839  0.0000E+00  0.0000E+00  0.7900E-01  0.7900E-01
     -7.798  0.0000E+00  0.0000E+00  0.8200E-01  0.8100E-01
     -7.757  0.0000E+00  0.0000E+00  0.8500E-01  0.8400E-01
     -7.715  0.0000E+00  0.0000E+00  0.8700E-01  0.8700E-01
     -7.674  0.0000E+00  0.0000E+00  0.9100E-01  0.9100E-01
     -7.633  0.0000E+00  0.0000E+00  0.9200E-01  0.9100E-01
     -7.592  0.0000E+00  0.0000E+00  0.9600E-01  0.9500E-01
     -7.551  0.0000E+00  0.0000E+00  0.9900E-01  0.9800E-01
     -7.510  0.0000E+00  0.0000E+00  0.1010E+00  0.1010E+00
     -7.469  0.0000E+00  0.2432E-01  0.1050E+00  0.1050E+00
     -7.428  0.0000E+00  0.0000E+00  0.1080E+00  0.1080E+00
     -7.387  0.0000E+00  0.0000E+00  0.1110E+00  0.1100E+00
     -7.345  0.0000E+00  0.0000E+00  0.1140E+00  0.1140E+00
     -7.304  0.0000E+00  0.0000E+00  0.1170E+00  0.1160E+00
     -7.263  0.0000E+00  0.0000E+00  0.1200E+00  0.1190E+00
     -7.222  0.0000E+00  0.0000E+00  0.1230E+00  0.1220E+00
     -7.181  0.0000E+00  0.0000E+00  0.1260E+00  0.1260E+00
     -7.140  0.0000E+00  0.0000E+00  0.1300E+00  0.1280E+00
     -7.099  0.0000E+00  0.0000E+00  0.1320E+00  0.1310E+00
     -7.058  0.0000E+00  0.0000E+00  0.1340E+00  0.1340E+00
     -7.016  0.0000E+00  0.0000E+00  0.1380E+00  0.1370E+00
     -6.975  0.0000E+00  0.0000E+00  0.1410E+00  0.1400E+00
     -6.934  0.0000E+00  0.0000E+00  0.1450E+00  0.1450E+00
     -6.893  0.0000E+00  0.0000E+00  0.1490E+00  0.1480E+00
     -6.852  0.1114E-01  0.0000E+00  0.1535E+00  0.1530E+00
     -6.811  0.0000E+00  0.0000E+00  0.1580E+00  0.1570E+00
     -6.770  0.0000E+00  0.0000E+00  0.1610E+00  0.1610E+00
     -6.729  0.0000E+00  0.8730E-09  0.1660E+00  0.1640E+00
     -6.688  0.2432E-01  0.0000E+00  0.1700E+00  0.1680E+00
     -6.646  0.0000E+00  0.0000E+00  0.1750E+00  0.1740E+00
     -6.605  0.0000E+00  0.0000E+00  0.1780E+00  0.1780E+00
     -6.564  0.2432E-01  0.0000E+00  0.1850E+00  0.1840E+00
     -6.523  0.0000E+00  0.0000E+00  0.1890E+00  0.1880E+00
     -6.482  0.0000E+00  0.2432E-01  0.1940E+00  0.1930E+00
     -6.441  0.0000E+00  0.0000E+00  0.1980E+00  0.1970E+00
     -6.400  0.0000E+00  0.7452E-04  0.2030E+00  0.2010E+00
     -6.359  0.0000E+00  0.1755E-01  0.2070E+00  0.2067E+00
     -6.318  0.2432E-01  0.0000E+00  0.2110E+00  0.2100E+00
     -6.276  0.0000E+00  0.0000E+00  0.2140E+00  0.2130E+00
     -6.235  0.0000E+00  0.0000E+00  0.2170E+00  0.2170E+00
     -6.194  0.0000E+00  0.0000E+00  0.2210E+00  0.2210E+00
     -6.153  0.0000E+00  0.0000E+00  0.2240E+00  0.2230E+00
     -6.112  0.2432E-01  0.0000E+00  0.2270E+00  0.2260E+00
     -6.071  0.0000E+00  0.0000E+00  0.2290E+00  0.2290E+00
     -6.030  0.0000E+00  0.0000E+00  0.2310E+00  0.2310E+00
     -5.989  0.0000E+00  0.0000E+00  0.2310E+00  0.2310E+00
     -5.947  0.0000E+00  0.0000E+00  0.2310E+00  0.2310E+00
     -5.906  0.0000E+00  0.0000E+00  0.2310E+00  0.2310E+00
     -5.865  0.0000E+00  0.0000E+00  0.2310E+00  0.2310E+00
     -5.824  0.0000E+00  0.0000E+00  0.2310E+00  0.2310E+00
     -5.783  0.0000E+00  0.0000E+00  0.2330E+00  0.2330E+00
     -5.742  0.0000E+00  0.0000E+00  0.2330E+00  0.2330E+00
     -5.701  0.0000E+00  0.0000E+00  0.2340E+00  0.2340E+00
     -5.660  0.0000E+00  0.0000E+00  0.2340E+00  0.2340E+00
     -5.619  0.0000E+00  0.0000E+00  0.2340E+00  0.2340E+00
     -5.577  0.0000E+00  0.0000E+00  0.2340E+00  0.2340E+00
     -5.536  0.0000E+00  0.0000E+00  0.2340E+00  0.2340E+00
     -5.495  0.0000E+00  0.0000E+00  0.2340E+00  0.2340E+00
     -5.454  0.0000E+00  0.0000E+00  0.2340E+00  0.2340E+00
     -5.413  0.0000E+00  0.0000E+00  0.2340E+00  0.2340E+00
     -5.372  0.0000E+00  0.0000E+00  0.2340E+00  0.2340E+00
     -5.331  0.0000E+00  0.0000E+00  0.2350E+00  0.2340E+00
     -5.290  0.0000E+00  0.0000E+00  0.2350E+00  0.2350E+00
     -5.248  0.0000E+00  0.0000E+00  0.2350E+00  0.2350E+00
     -5.207  0.0000E+00  0.0000E+00  0.2350E+00  0.2350E+00
     -5.166  0.0000E+00  0.0000E+00  0.2350E+00  0.2350E+00
     -5.125  0.0000E+00  0.0000E+00  0.2350E+00  0.2350E+00
     -5.084  0.0000E+00  0.0000E+00  0.2360E+00  0.2360E+00
     -5.043  0.0000E+00  0.0000E+00  0.2360E+00  0.2360E+00
     -5.002  0.0000E+00  0.0000E+00  0.2370E+00  0.2370E+00
     -4.961  0.0000E+00  0.0000E+00  0.2370E+00  0.2370E+00
     -4.920  0.0000E+00  0.0000E+00  0.2370E+00  0.2370E+00
     -4.878  0.0000E+00  0.0000E+00  0.2370E+00  0.2370E+00
     -4.837  0.0000E+00  0.0000E+00  0.2370E+00  0.2370E+00
     -4.796  0.1172E-09  0.0000E+00  0.2370E+00  0.2370E+00
     -4.755  0.0000E+00  0.0000E+00  0.2390E+00  0.2380E+00
     -4.714  0.0000E+00  0.0000E+00  0.2390E+00  0.2390E+00
     -4.673  0.0000E+00  0.0000E+00  0.2390E+00  0.2390E+00
     -4.632  0.0000E+00  0.0000E+00  0.2390E+00  0.2390E+00
     -4.591  0.0000E+00  0.0000E+00  0.2390E+00  0.2390E+00
     -4.549  0.0000E+00  0.0000E+00  0.2400E+00  0.2390E+00
     -4.508  0.0000E+00  0.0000E+00  0.2410E+00  0.2400E+00
     -4.467  0.0000E+00  0.0000E+00  0.2410E+00  0.2410E+00
     -4.426  0.0000E+00  0.0000E+00  0.2410E+00  0.2410E+00
     -4.385  0.0000E+00  0.0000E+00  0.2410E+00  0.2410E+00
     -4.344  0.0000E+00  0.0000E+00  0.2410E+00  0.2410E+00
     -4.303  0.0000E+00  0.0000E+00  0.2410E+00  0.2410E+00
     -4.262  0.0000E+00  0.0000E+00  0.2410E+00  0.2410E+00
     -4.221  0.0000E+00  0.0000E+00  0.2410E+00  0.2410E+00
     -4.179  0.0000E+00  0.0000E+00  0.2410E+00  0.2410E+00
     -4.138  0.0000E+00  0.0000E+00  0.2420E+00  0.2420E+00
     -4.097  0.0000E+00  0.0000E+00  0.2420E+00  0.2420E+00
     -4.056  0.0000E+00  0.0000E+00  0.2420E+00  0.2420E+00
     -4.015  0.0000E+00  0.0000E+00  0.2420E+00  0.2420E+00
     -3.974  0.0000E+00  0.0000E+00  0.2420E+00  0.2420E+00
     -3.933  0.0000E+00  0.0000E+00  0.2420E+00  0.2420E+00
     -3.892  0.0000E+00  0.0000E+00  0.2420E+00  0.2420E+00
     -3.850  0.0000E+00  0.0000E+00  0.2430E+00  0.2430E+00
     -3.809  0.0000E+00  0.0000E+00  0.2430E+00  0.2430E+00
     -3.768  0.0000E+00  0.0000E+00  0.2440E+00  0.2430E+00
     -3.727  0.0000E+00  0.0000E+00  0.2440E+00  0.2440E+00
     -3.686  0.0000E+00  0.0000E+00  0.2440E+00  0.2440E+00
     -3.645  0.0000E+00  0.0000E+00  0.2440E+00  0.2440E+00
     -3.604  0.0000E+00  0.0000E+00  0.2440E+00  0.2440E+00
     -3.563  0.0000E+00  0.0000E+00  0.2450E+00  0.2440E+00
     -3.522  0.0000E+00  0.0000E+00  0.2460E+00  0.2460E+00
     -3.480  0.0000E+00  0.0000E+00  0.2460E+00  0.2460E+00
     -3.439  0.0000E+00  0.0000E+00  0.2460E+00  0.2460E+00
     -3.398  0.0000E+00  0.0000E+00  0.2460E+00  0.2460E+00
     -3.357  0.0000E+00  0.0000E+00  0.2470E+00  0.2470E+00
     -3.316  0.0000E+00  0.0000E+00  0.2470E+00  0.2470E+00
     -3.275  0.0000E+00  0.0000E+00  0.2480E+00  0.2470E+00
     -3.234  0.0000E+00  0.0000E+00  0.2480E+00  0.2470E+00
     -3.193  0.0000E+00  0.0000E+00  0.2480E+00  0.2480E+00
     -3.151  0.0000E+00  0.0000E+00  0.2480E+00  0.2480E+00
     -3.110  0.0000E+00  0.0000E+00  0.2480E+00  0.2480E+00
     -3.069  0.0000E+00  0.0000E+00  0.2480E+00  0.2480E+00
     -3.028  0.0000E+00  0.0000E+00  0.2500E+00  0.2490E+00
     -2.987  0.0000E+00  0.0000E+00  0.2500E+00  0.2500E+00
     -2.946  0.0000E+00  0.0000E+00  0.2500E+00  0.2500E+00
     -2.905  0.4121E-07  0.0000E+00  0.2500E+00  0.2500E+00
     -2.864  0.0000E+00  0.0000E+00  0.2510E+00  0.2510E+00
     -2.823  0.0000E+00  0.0000E+00  0.2520E+00  0.2510E+00
     -2.781  0.0000E+00  0.0000E+00  0.2520E+00  0.2520E+00
     -2.740  0.0000E+00  0.0000E+00  0.2520E+00  0.2520E+00
     -2.699  0.0000E+00  0.0000E+00  0.2530E+00  0.2520E+00
     -2.658  0.0000E+00  0.0000E+00  0.2530E+00  0.2530E+00
     -2.617  0.0000E+00  0.0000E+00  0.2540E+00  0.2540E+00
     -2.576  0.0000E+00  0.0000E+00  0.2540E+00  0.2540E+00
     -2.535  0.0000E+00  0.0000E+00  0.2540E+00  0.2540E+00
     -2.494  0.0000E+00  0.0000E+00  0.2540E+00  0.2540E+00
     -2.452  0.0000E+00  0.0000E+00  0.2540E+00  0.2540E+00
     -2.411  0.0000E+00  0.1665E-02  0.2550E+00  0.2541E+00
     -2.370  0.0000E+00  0.0000E+00  0.2550E+00  0.2550E+00
     -2.329  0.0000E+00  0.0000E+00  0.2550E+00  0.2550E+00
     -2.288  0.0000E+00  0.0000E+00  0.2560E+00  0.2550E+00
     -2.247  0.0000E+00  0.0000E+00  0.2560E+00  0.2560E+00
     -2.206  0.0000E+00  0.0000E+00  0.2560E+00  0.2560E+00
     -2.165  0.0000E+00  0.0000E+00  0.2560E+00  0.2560E+00
     -2.124  0.0000E+00  0.0000E+00  0.2570E+00  0.2560E+00
     -2.082  0.0000E+00  0.0000E+00  0.2580E+00  0.2570E+00
     -2.041  0.0000E+00  0.0000E+00  0.2580E+00  0.2580E+00
     -2.000  0.0000E+00  0.0000E+00  0.2590E+00  0.2590E+00
     -1.959  0.0000E+00  0.0000E+00  0.2590E+00  0.2590E+00
     -1.918  0.0000E+00  0.0000E+00  0.2590E+00  0.2590E+00
     -1.877  0.0000E+00  0.0000E+00  0.2590E+00  0.2590E+00
     -1.836  0.0000E+00  0.0000E+00  0.2610E+00  0.2600E+00
     -1.795  0.0000E+00  0.0000E+00  0.2620E+00  0.2610E+00
     -1.753  0.0000E+00  0.0000E+00  0.2620E+00  0.2620E+00
     -1.712  0.0000E+00  0.0000E+00  0.2620E+00  0.2620E+00
     -1.671  0.0000E+00  0.0000E+00  0.2620E+00  0.2620E+00
     -1.630  0.0000E+00  0.0000E+00  0.2620E+00  0.2620E+00
     -1.589  0.0000E+00  0.0000E+00  0.2630E+00  0.2620E+00
     -1.548  0.0000E+00  0.0000E+00  0.2640E+00  0.2630E+00
     -1.507  0.0000E+00  0.0000E+00  0.2640E+00  0.2640E+00
     -1.466  0.0000E+00  0.0000E+00  0.2640E+00  0.2640E+00
     -1.425  0.0000E+00  0.0000E+00  0.2640E+00  0.2640E+00
     -1.383  0.0000E+00  0.0000E+00  0.2650E+00  0.2640E+00
     -1.342  0.0000E+00  0.0000E+00  0.2650E+00  0.2650E+00
     -1.301  0.0000E+00  0.0000E+00  0.2660E+00  0.2660E+00
     -1.260  0.0000E+00  0.0000E+00  0.2670E+00  0.2660E+00
     -1.219  0.0000E+00  0.0000E+00  0.2670E+00  0.2670E+00
     -1.178  0.2432E-01  0.0000E+00  0.2680E+00  0.2670E+00
     -1.137  0.0000E+00  0.0000E+00  0.2680E+00  0.2680E+00
     -1.096  0.0000E+00  0.0000E+00  0.2690E+00  0.2680E+00
     -1.054  0.0000E+00  0.0000E+00  0.2690E+00  0.2690E+00
     -1.013  0.0000E+00  0.0000E+00  0.2690E+00  0.2690E+00
     -0.972  0.0000E+00  0.0000E+00  0.2700E+00  0.2700E+00
     -0.931  0.0000E+00  0.0000E+00  0.2700E+00  0.2700E+00
     -0.890  0.0000E+00  0.0000E+00  0.2710E+00  0.2700E+00
     -0.849  0.0000E+00  0.0000E+00  0.2720E+00  0.2710E+00
     -0.808  0.0000E+00  0.0000E+00  0.2720E+00  0.2720E+00
     -0.767  0.0000E+00  0.0000E+00  0.2720E+00  0.2720E+00
     -0.726  0.0000E+00  0.0000E+00  0.2730E+00  0.2720E+00
     -0.684  0.0000E+00  0.0000E+00  0.2730E+00  0.2730E+00
     -0.643  0.0000E+00  0.0000E+00  0.2730E+00  0.2730E+00
     -0.602  0.0000E+00  0.0000E+00  0.2750E+00  0.2730E+00
     -0.561  0.0000E+00  0.0000E+00  0.2750E+00  0.2750E+00
     -0.520  0.0000E+00  0.0000E+00  0.2760E+00  0.2750E+00
     -0.479  0.0000E+00  0.0000E+00  0.2760E+00  0.2760E+00
     -0.438  0.0000E+00  0.0000E+00  0.2760E+00  0.2760E+00
     -0.397  0.0000E+00  0.0000E+00  0.2770E+00  0.2770E+00
     -0.355  0.0000E+00  0.0000E+00  0.2770E+00  0.2770E+00
     -0.314  0.0000E+00  0.0000E+00  0.2770E+00  0.2770E+00
     -0.273  0.0000E+00  0.0000E+00  0.2770E+00  0.2770E+00
     -0.232  0.0000E+00  0.0000E+00  0.2780E+00  0.2780E+00
     -0.191  0.0000E+00  0.0000E+00  0.2790E+00  0.2780E+00
     -0.150  0.0000E+00  0.0000E+00  0.2790E+00  0.2790E+00
     -0.109  0.0000E+00  0.0000E+00  0.2790E+00  0.2790E+00
     -0.068  0.0000E+00  0.0000E+00  0.2790E+00  0.2790E+00
     -0.027  0.0000E+00  0.0000E+00  0.2790E+00  0.2790E+00
      0.015  0.0000E+00  0.0000E+00  0.2800E+00  0.2790E+00
      0.056  0.0000E+00  0.0000E+00  0.2810E+00  0.2800E+00
      0.097  0.0000E+00  0.0000E+00  0.2810E+00  0.2810E+00
      0.138  0.0000E+00  0.0000E+00  0.2810E+00  0.2810E+00
      0.179  0.0000E+00  0.0000E+00  0.2820E+00  0.2820E+00
      0.220  0.0000E+00  0.0000E+00  0.2830E+00  0.2820E+00
      0.261  0.0000E+00  0.0000E+00  0.2830E+00  0.2830E+00
      0.302  0.0000E+00  0.0000E+00  0.2850E+00  0.2840E+00
      0.344  0.0000E+00  0.0000E+00  0.2860E+00  0.2850E+00
      0.385  0.0000E+00  0.0000E+00  0.2860E+00  0.2860E+00
      0.426  0.0000E+00  0.0000E+00  0.2860E+00  0.2860E+00
      0.467  0.0000E+00  0.0000E+00  0.2860E+00  0.2860E+00
      0.508  0.0000E+00  0.0000E+00  0.2880E+00  0.2870E+00
      0.549  0.0000E+00  0.0000E+00  0.2890E+00  0.2880E+00
      0.590  0.0000E+00  0.0000E+00  0.2890E+00  0.2890E+00
      0.631  0.0000E+00  0.0000E+00  0.2900E+00  0.2900E+00
      0.672  0.0000E+00  0.0000E+00  0.2900E+00  0.2900E+00
      0.714  0.0000E+00  0.1898E-01  0.2910E+00  0.2908E+00
      0.755  0.0000E+00  0.0000E+00  0.2920E+00  0.2920E+00
      0.796  0.0000E+00  0.0000E+00  0.2920E+00  0.2920E+00
      0.837  0.2432E-01  0.0000E+00  0.2950E+00  0.2930E+00
      0.878  0.0000E+00  0.0000E+00  0.2950E+00  0.2950E+00
      0.919  0.0000E+00  0.0000E+00  0.2970E+00  0.2960E+00
      0.960  0.0000E+00  0.0000E+00  0.2970E+00  0.2970E+00
      1.001  0.0000E+00  0.0000E+00  0.2980E+00  0.2980E+00
      1.043  0.0000E+00  0.0000E+00  0.3000E+00  0.2990E+00
      1.084  0.0000E+00  0.2432E-01  0.3010E+00  0.3010E+00
      1.125  0.0000E+00  0.0000E+00  0.3020E+00  0.3020E+00
      1.166  0.0000E+00  0.2115E-01  0.3040E+00  0.3039E+00
      1.207  0.0000E+00  0.0000E+00  0.3060E+00  0.3060E+00
      1.248  0.0000E+00  0.0000E+00  0.3090E+00  0.3080E+00
      1.289  0.0000E+00  0.0000E+00  0.3100E+00  0.3100E+00
      1.330  0.0000E+00  0.0000E+00  0.3120E+00  0.3120E+00
      1.371  0.0000E+00  0.0000E+00  0.3130E+00  0.3130E+00
      1.413  0.0000E+00  0.8295E-06  0.3150E+00  0.3140E+00
      1.454  0.0000E+00  0.0000E+00  0.3160E+00  0.3150E+00
      1.495  0.0000E+00  0.0000E+00  0.3180E+00  0.3170E+00
      1.536  0.0000E+00  0.0000E+00  0.3190E+00  0.3190E+00
      1.577  0.0000E+00  0.0000E+00  0.3200E+00  0.3200E+00
      1.618  0.0000E+00  0.0000E+00  0.3200E+00  0.3200E+00
      1.659  0.0000E+00  0.0000E+00  0.3200E+00  0.3200E+00
      1.700  0.0000E+00  0.0000E+00  0.3200E+00  0.3200E+00
      1.742  0.0000E+00  0.0000E+00  0.3200E+00  0.3200E+00
      1.783  0.0000E+00  0.0000E+00  0.3200E+00  0.3200E+00
      1.824  0.0000E+00  0.0000E+00  0.3200E+00  0.3200E+00
      1.865  0.0000E+00  0.0000E+00  0.3200E+00  0.3200E+00
      1.906  0.0000E+00  0.0000E+00  0.3200E+00  0.3200E+00
      1.947  0.0000E+00  0.0000E+00  0.3200E+00  0.3200E+00
      1.988  0.0000E+00  0.0000E+00  0.3200E+00  0.3200E+00
      2.029  0.0000E+00  0.0000E+00  0.3200E+00  0.3200E+00
      2.070  0.0000E+00  0.0000E+00  0.3200E+00  0.3200E+00
      2.112  0.0000E+00  0.0000E+00  0.3200E+00  0.3200E+00
