  41  41   0   0
  0.3242332E+03  0.2368902E-08  0.2368902E-08  0.2368902E-08  0.1000000E-15
  1.000000000000000E-004
  CAR 
 unknown system                          
      1.81351466    -10.32258904  301     -3.50614413      1.00000000
    -10.323  0.0000E+00  0.0000E+00  0.0000E+00  0.0000E+00
    -10.282  0.0000E+00  0.0000E+00  0.0000E+00  0.0000E+00
    -10.242  0.0000E+00  0.0000E+00  0.0000E+00  0.0000E+00
    -10.201  0.0000E+00  0.0000E+00  0.0000E+00  0.0000E+00
    -10.161  0.0000E+00  0.0000E+00  0.0000E+00  0.0000E+00
    -10.120  0.0000E+00  0.0000E+00  0.0000E+00  0.0000E+00
    -10.080  0.0000E+00  0.0000E+00  0.0000E+00  0.0000E+00
    -10.039  0.0000E+00  0.0000E+00  0.0000E+00  0.0000E+00
     -9.999  0.0000E+00  0.0000E+00  0.0000E+00  0.0000E+00
     -9.959  0.0000E+00  0.0000E+00  0.0000E+00  0.0000E+00
     -9.918  0.0000E+00  0.0000E+00  0.0000E+00  0.0000E+00
     -9.878  0.0000E+00  0.0000E+00  0.0000E+00  0.0000E+00
     -9.837  0.0000E+00  0.0000E+00  0.0000E+00  0.0000E+00
     -9.797  0.0000E+00  0.0000E+00  0.0000E+00  0.0000E+00
     -9.756  0.0000E+00  0.0000E+00  0.1000E-02  0.1000E-02
     -9.716  0.0000E+00  0.0000E+00  0.1000E-02  0.1000E-02
     -9.675  0.0000E+00  0.0000E+00  0.1000E-02  0.1000E-02
     -9.635  0.0000E+00  0.0000E+00  0.1000E-02  0.1000E-02
     -9.594  0.0000E+00  0.0000E+00  0.1000E-02  0.1000E-02
     -9.554  0.0000E+00  0.0000E+00  0.1000E-02  0.1000E-02
     -9.514  0.0000E+00  0.0000E+00  0.1000E-02  0.1000E-02
     -9.473  0.0000E+00  0.0000E+00  0.1000E-02  0.1000E-02
     -9.433  0.0000E+00  0.0000E+00  0.1000E-02  0.1000E-02
     -9.392  0.0000E+00  0.0000E+00  0.1000E-02  0.1000E-02
     -9.352  0.0000E+00  0.0000E+00  0.1000E-02  0.1000E-02
     -9.311  0.0000E+00  0.0000E+00  0.1000E-02  0.1000E-02
     -9.271  0.0000E+00  0.0000E+00  0.2000E-02  0.2000E-02
     -9.230  0.0000E+00  0.0000E+00  0.2000E-02  0.2000E-02
     -9.190  0.0000E+00  0.0000E+00  0.3000E-02  0.2000E-02
     -9.149  0.0000E+00  0.0000E+00  0.4000E-02  0.4000E-02
     -9.109  0.0000E+00  0.0000E+00  0.5000E-02  0.4000E-02
     -9.069  0.0000E+00  0.0000E+00  0.7000E-02  0.7000E-02
     -9.028  0.0000E+00  0.2472E-01  0.9000E-02  0.9000E-02
     -8.988  0.0000E+00  0.0000E+00  0.1100E-01  0.1100E-01
     -8.947  0.0000E+00  0.0000E+00  0.1300E-01  0.1300E-01
     -8.907  0.0000E+00  0.0000E+00  0.1600E-01  0.1600E-01
     -8.866  0.4959E-02  0.0000E+00  0.1720E-01  0.1600E-01
     -8.826  0.0000E+00  0.0000E+00  0.2000E-01  0.1900E-01
     -8.785  0.0000E+00  0.0000E+00  0.2100E-01  0.2000E-01
     -8.745  0.0000E+00  0.0000E+00  0.2300E-01  0.2300E-01
     -8.704  0.0000E+00  0.0000E+00  0.2600E-01  0.2500E-01
     -8.664  0.0000E+00  0.0000E+00  0.2800E-01  0.2800E-01
     -8.624  0.0000E+00  0.0000E+00  0.3000E-01  0.3000E-01
     -8.583  0.0000E+00  0.0000E+00  0.3200E-01  0.3100E-01
     -8.543  0.0000E+00  0.0000E+00  0.3400E-01  0.3400E-01
     -8.502  0.2472E-01  0.0000E+00  0.3700E-01  0.3600E-01
     -8.462  0.0000E+00  0.0000E+00  0.4000E-01  0.3800E-01
     -8.421  0.0000E+00  0.2472E-01  0.4100E-01  0.4100E-01
     -8.381  0.0000E+00  0.0000E+00  0.4400E-01  0.4400E-01
     -8.340  0.0000E+00  0.0000E+00  0.4800E-01  0.4700E-01
     -8.300  0.0000E+00  0.0000E+00  0.4900E-01  0.4800E-01
     -8.259  0.0000E+00  0.2472E-01  0.5200E-01  0.5100E-01
     -8.219  0.0000E+00  0.2472E-01  0.5400E-01  0.5400E-01
     -8.179  0.0000E+00  0.0000E+00  0.5700E-01  0.5600E-01
     -8.138  0.2472E-01  0.0000E+00  0.6000E-01  0.5900E-01
     -8.098  0.0000E+00  0.0000E+00  0.6300E-01  0.6300E-01
     -8.057  0.0000E+00  0.0000E+00  0.6600E-01  0.6500E-01
     -8.017  0.0000E+00  0.0000E+00  0.6800E-01  0.6700E-01
     -7.976  0.0000E+00  0.0000E+00  0.7000E-01  0.7000E-01
     -7.936  0.0000E+00  0.0000E+00  0.7400E-01  0.7400E-01
     -7.895  0.0000E+00  0.0000E+00  0.7400E-01  0.7400E-01
     -7.855  0.0000E+00  0.0000E+00  0.7700E-01  0.7700E-01
     -7.814  0.0000E+00  0.0000E+00  0.8200E-01  0.8100E-01
     -7.774  0.0000E+00  0.1136E-10  0.8400E-01  0.8300E-01
     -7.734  0.0000E+00  0.0000E+00  0.8600E-01  0.8600E-01
     -7.693  0.0000E+00  0.0000E+00  0.8900E-01  0.8900E-01
     -7.653  0.2472E-01  0.0000E+00  0.9300E-01  0.9100E-01
     -7.612  0.0000E+00  0.0000E+00  0.9500E-01  0.9500E-01
     -7.572  0.0000E+00  0.0000E+00  0.9700E-01  0.9600E-01
     -7.531  0.0000E+00  0.0000E+00  0.1010E+00  0.1010E+00
     -7.491  0.0000E+00  0.0000E+00  0.1030E+00  0.1020E+00
     -7.450  0.0000E+00  0.0000E+00  0.1060E+00  0.1050E+00
     -7.410  0.0000E+00  0.5529E-08  0.1080E+00  0.1070E+00
     -7.369  0.2472E-01  0.0000E+00  0.1110E+00  0.1100E+00
     -7.329  0.0000E+00  0.0000E+00  0.1130E+00  0.1120E+00
     -7.289  0.0000E+00  0.0000E+00  0.1160E+00  0.1140E+00
     -7.248  0.0000E+00  0.0000E+00  0.1180E+00  0.1170E+00
     -7.208  0.0000E+00  0.0000E+00  0.1190E+00  0.1190E+00
     -7.167  0.0000E+00  0.2460E-01  0.1230E+00  0.1220E+00
     -7.127  0.0000E+00  0.0000E+00  0.1270E+00  0.1270E+00
     -7.086  0.0000E+00  0.0000E+00  0.1300E+00  0.1300E+00
     -7.046  0.0000E+00  0.0000E+00  0.1340E+00  0.1330E+00
     -7.005  0.0000E+00  0.0000E+00  0.1370E+00  0.1360E+00
     -6.965  0.0000E+00  0.0000E+00  0.1400E+00  0.1400E+00
     -6.924  0.0000E+00  0.0000E+00  0.1450E+00  0.1450E+00
     -6.884  0.0000E+00  0.0000E+00  0.1490E+00  0.1490E+00
     -6.844  0.0000E+00  0.0000E+00  0.1540E+00  0.1540E+00
     -6.803  0.0000E+00  0.0000E+00  0.1580E+00  0.1580E+00
     -6.763  0.0000E+00  0.0000E+00  0.1620E+00  0.1620E+00
     -6.722  0.0000E+00  0.0000E+00  0.1670E+00  0.1660E+00
     -6.682  0.0000E+00  0.0000E+00  0.1700E+00  0.1700E+00
     -6.641  0.1195E-02  0.0000E+00  0.1750E+00  0.1750E+00
     -6.601  0.0000E+00  0.0000E+00  0.1780E+00  0.1780E+00
     -6.560  0.0000E+00  0.0000E+00  0.1820E+00  0.1810E+00
     -6.520  0.0000E+00  0.0000E+00  0.1860E+00  0.1850E+00
     -6.479  0.0000E+00  0.0000E+00  0.1890E+00  0.1880E+00
     -6.439  0.0000E+00  0.0000E+00  0.1920E+00  0.1920E+00
     -6.399  0.0000E+00  0.0000E+00  0.1960E+00  0.1960E+00
     -6.358  0.0000E+00  0.0000E+00  0.2000E+00  0.2000E+00
     -6.318  0.0000E+00  0.0000E+00  0.2010E+00  0.2010E+00
     -6.277  0.0000E+00  0.0000E+00  0.2050E+00  0.2040E+00
     -6.237  0.0000E+00  0.0000E+00  0.2060E+00  0.2060E+00
     -6.196  0.0000E+00  0.0000E+00  0.2080E+00  0.2070E+00
     -6.156  0.0000E+00  0.1334E-02  0.2090E+00  0.2081E+00
     -6.115  0.0000E+00  0.0000E+00  0.2090E+00  0.2090E+00
     -6.075  0.0000E+00  0.0000E+00  0.2100E+00  0.2100E+00
     -6.034  0.0000E+00  0.0000E+00  0.2110E+00  0.2110E+00
     -5.994  0.0000E+00  0.0000E+00  0.2120E+00  0.2110E+00
     -5.954  0.0000E+00  0.0000E+00  0.2120E+00  0.2120E+00
     -5.913  0.0000E+00  0.0000E+00  0.2120E+00  0.2120E+00
     -5.873  0.0000E+00  0.0000E+00  0.2120E+00  0.2120E+00
     -5.832  0.0000E+00  0.0000E+00  0.2120E+00  0.2120E+00
     -5.792  0.0000E+00  0.0000E+00  0.2130E+00  0.2130E+00
     -5.751  0.0000E+00  0.0000E+00  0.2130E+00  0.2130E+00
     -5.711  0.0000E+00  0.0000E+00  0.2130E+00  0.2130E+00
     -5.670  0.0000E+00  0.0000E+00  0.2130E+00  0.2130E+00
     -5.630  0.0000E+00  0.0000E+00  0.2130E+00  0.2130E+00
     -5.590  0.0000E+00  0.0000E+00  0.2140E+00  0.2140E+00
     -5.549  0.0000E+00  0.0000E+00  0.2150E+00  0.2150E+00
     -5.509  0.0000E+00  0.0000E+00  0.2150E+00  0.2150E+00
     -5.468  0.0000E+00  0.0000E+00  0.2150E+00  0.2150E+00
     -5.428  0.0000E+00  0.0000E+00  0.2150E+00  0.2150E+00
     -5.387  0.0000E+00  0.0000E+00  0.2150E+00  0.2150E+00
     -5.347  0.0000E+00  0.0000E+00  0.2150E+00  0.2150E+00
     -5.306  0.0000E+00  0.0000E+00  0.2150E+00  0.2150E+00
     -5.266  0.0000E+00  0.0000E+00  0.2150E+00  0.2150E+00
     -5.225  0.0000E+00  0.0000E+00  0.2150E+00  0.2150E+00
     -5.185  0.0000E+00  0.0000E+00  0.2150E+00  0.2150E+00
     -5.145  0.0000E+00  0.0000E+00  0.2150E+00  0.2150E+00
     -5.104  0.0000E+00  0.0000E+00  0.2150E+00  0.2150E+00
     -5.064  0.0000E+00  0.0000E+00  0.2160E+00  0.2150E+00
     -5.023  0.0000E+00  0.0000E+00  0.2160E+00  0.2160E+00
     -4.983  0.0000E+00  0.0000E+00  0.2170E+00  0.2160E+00
     -4.942  0.0000E+00  0.0000E+00  0.2170E+00  0.2170E+00
     -4.902  0.0000E+00  0.0000E+00  0.2170E+00  0.2170E+00
     -4.861  0.0000E+00  0.0000E+00  0.2170E+00  0.2170E+00
     -4.821  0.0000E+00  0.0000E+00  0.2170E+00  0.2170E+00
     -4.780  0.0000E+00  0.0000E+00  0.2170E+00  0.2170E+00
     -4.740  0.0000E+00  0.0000E+00  0.2170E+00  0.2170E+00
     -4.700  0.0000E+00  0.0000E+00  0.2170E+00  0.2170E+00
     -4.659  0.0000E+00  0.0000E+00  0.2170E+00  0.2170E+00
     -4.619  0.0000E+00  0.0000E+00  0.2170E+00  0.2170E+00
     -4.578  0.0000E+00  0.0000E+00  0.2180E+00  0.2180E+00
     -4.538  0.0000E+00  0.0000E+00  0.2180E+00  0.2180E+00
     -4.497  0.0000E+00  0.0000E+00  0.2180E+00  0.2180E+00
     -4.457  0.0000E+00  0.0000E+00  0.2190E+00  0.2190E+00
     -4.416  0.0000E+00  0.0000E+00  0.2190E+00  0.2190E+00
     -4.376  0.0000E+00  0.0000E+00  0.2190E+00  0.2190E+00
     -4.335  0.0000E+00  0.0000E+00  0.2190E+00  0.2190E+00
     -4.295  0.0000E+00  0.0000E+00  0.2200E+00  0.2190E+00
     -4.255  0.0000E+00  0.0000E+00  0.2210E+00  0.2200E+00
     -4.214  0.0000E+00  0.0000E+00  0.2210E+00  0.2210E+00
     -4.174  0.0000E+00  0.0000E+00  0.2210E+00  0.2210E+00
     -4.133  0.0000E+00  0.0000E+00  0.2210E+00  0.2210E+00
     -4.093  0.0000E+00  0.0000E+00  0.2210E+00  0.2210E+00
     -4.052  0.0000E+00  0.0000E+00  0.2220E+00  0.2210E+00
     -4.012  0.0000E+00  0.0000E+00  0.2220E+00  0.2220E+00
     -3.971  0.0000E+00  0.0000E+00  0.2220E+00  0.2220E+00
     -3.931  0.0000E+00  0.0000E+00  0.2230E+00  0.2230E+00
     -3.890  0.0000E+00  0.0000E+00  0.2230E+00  0.2230E+00
     -3.850  0.0000E+00  0.0000E+00  0.2230E+00  0.2230E+00
     -3.810  0.0000E+00  0.1268E-02  0.2240E+00  0.2231E+00
     -3.769  0.0000E+00  0.0000E+00  0.2240E+00  0.2240E+00
     -3.729  0.0000E+00  0.0000E+00  0.2240E+00  0.2240E+00
     -3.688  0.0000E+00  0.0000E+00  0.2240E+00  0.2240E+00
     -3.648  0.0000E+00  0.0000E+00  0.2240E+00  0.2240E+00
     -3.607  0.0000E+00  0.0000E+00  0.2250E+00  0.2240E+00
     -3.567  0.0000E+00  0.0000E+00  0.2250E+00  0.2250E+00
     -3.526  0.0000E+00  0.0000E+00  0.2250E+00  0.2250E+00
     -3.486  0.0000E+00  0.0000E+00  0.2260E+00  0.2250E+00
     -3.445  0.0000E+00  0.0000E+00  0.2260E+00  0.2250E+00
     -3.405  0.0000E+00  0.0000E+00  0.2260E+00  0.2260E+00
     -3.365  0.0000E+00  0.0000E+00  0.2260E+00  0.2260E+00
     -3.324  0.0000E+00  0.0000E+00  0.2270E+00  0.2260E+00
     -3.284  0.0000E+00  0.0000E+00  0.2270E+00  0.2270E+00
     -3.243  0.0000E+00  0.0000E+00  0.2270E+00  0.2270E+00
     -3.203  0.0000E+00  0.0000E+00  0.2270E+00  0.2270E+00
     -3.162  0.0000E+00  0.0000E+00  0.2270E+00  0.2270E+00
     -3.122  0.0000E+00  0.0000E+00  0.2280E+00  0.2270E+00
     -3.081  0.0000E+00  0.0000E+00  0.2280E+00  0.2280E+00
     -3.041  0.0000E+00  0.0000E+00  0.2280E+00  0.2280E+00
     -3.000  0.0000E+00  0.0000E+00  0.2280E+00  0.2280E+00
     -2.960  0.0000E+00  0.0000E+00  0.2280E+00  0.2280E+00
     -2.920  0.0000E+00  0.0000E+00  0.2280E+00  0.2280E+00
     -2.879  0.0000E+00  0.0000E+00  0.2290E+00  0.2280E+00
     -2.839  0.0000E+00  0.0000E+00  0.2290E+00  0.2290E+00
     -2.798  0.0000E+00  0.0000E+00  0.2290E+00  0.2290E+00
     -2.758  0.0000E+00  0.0000E+00  0.2290E+00  0.2290E+00
     -2.717  0.0000E+00  0.0000E+00  0.2290E+00  0.2290E+00
     -2.677  0.2472E-01  0.0000E+00  0.2300E+00  0.2290E+00
     -2.636  0.0000E+00  0.0000E+00  0.2300E+00  0.2300E+00
     -2.596  0.0000E+00  0.0000E+00  0.2310E+00  0.2300E+00
     -2.555  0.0000E+00  0.0000E+00  0.2320E+00  0.2320E+00
     -2.515  0.0000E+00  0.0000E+00  0.2320E+00  0.2320E+00
     -2.475  0.0000E+00  0.0000E+00  0.2320E+00  0.2320E+00
     -2.434  0.0000E+00  0.0000E+00  0.2330E+00  0.2320E+00
     -2.394  0.0000E+00  0.0000E+00  0.2340E+00  0.2330E+00
     -2.353  0.0000E+00  0.0000E+00  0.2340E+00  0.2340E+00
     -2.313  0.0000E+00  0.0000E+00  0.2340E+00  0.2340E+00
     -2.272  0.0000E+00  0.0000E+00  0.2350E+00  0.2350E+00
     -2.232  0.0000E+00  0.0000E+00  0.2360E+00  0.2360E+00
     -2.191  0.0000E+00  0.0000E+00  0.2370E+00  0.2360E+00
     -2.151  0.0000E+00  0.0000E+00  0.2370E+00  0.2370E+00
     -2.110  0.0000E+00  0.0000E+00  0.2380E+00  0.2380E+00
     -2.070  0.0000E+00  0.0000E+00  0.2380E+00  0.2380E+00
     -2.030  0.0000E+00  0.0000E+00  0.2380E+00  0.2380E+00
     -1.989  0.0000E+00  0.0000E+00  0.2390E+00  0.2380E+00
     -1.949  0.0000E+00  0.0000E+00  0.2390E+00  0.2390E+00
     -1.908  0.0000E+00  0.0000E+00  0.2390E+00  0.2390E+00
     -1.868  0.0000E+00  0.2472E-01  0.2400E+00  0.2400E+00
     -1.827  0.0000E+00  0.0000E+00  0.2400E+00  0.2400E+00
     -1.787  0.0000E+00  0.0000E+00  0.2400E+00  0.2400E+00
     -1.746  0.0000E+00  0.0000E+00  0.2410E+00  0.2400E+00
     -1.706  0.0000E+00  0.0000E+00  0.2410E+00  0.2400E+00
     -1.666  0.0000E+00  0.0000E+00  0.2410E+00  0.2410E+00
     -1.625  0.0000E+00  0.0000E+00  0.2410E+00  0.2410E+00
     -1.585  0.0000E+00  0.0000E+00  0.2420E+00  0.2410E+00
     -1.544  0.0000E+00  0.0000E+00  0.2420E+00  0.2420E+00
     -1.504  0.0000E+00  0.0000E+00  0.2420E+00  0.2420E+00
     -1.463  0.0000E+00  0.0000E+00  0.2430E+00  0.2420E+00
     -1.423  0.0000E+00  0.0000E+00  0.2430E+00  0.2430E+00
     -1.382  0.0000E+00  0.0000E+00  0.2430E+00  0.2430E+00
     -1.342  0.0000E+00  0.0000E+00  0.2430E+00  0.2430E+00
     -1.301  0.0000E+00  0.0000E+00  0.2430E+00  0.2430E+00
     -1.261  0.0000E+00  0.0000E+00  0.2440E+00  0.2430E+00
     -1.221  0.0000E+00  0.0000E+00  0.2450E+00  0.2440E+00
     -1.180  0.0000E+00  0.0000E+00  0.2450E+00  0.2450E+00
     -1.140  0.0000E+00  0.0000E+00  0.2450E+00  0.2450E+00
     -1.099  0.0000E+00  0.0000E+00  0.2450E+00  0.2450E+00
     -1.059  0.0000E+00  0.0000E+00  0.2450E+00  0.2450E+00
     -1.018  0.0000E+00  0.0000E+00  0.2460E+00  0.2450E+00
     -0.978  0.0000E+00  0.0000E+00  0.2460E+00  0.2460E+00
     -0.937  0.0000E+00  0.0000E+00  0.2460E+00  0.2460E+00
     -0.897  0.0000E+00  0.1826E-01  0.2470E+00  0.2467E+00
     -0.856  0.0000E+00  0.0000E+00  0.2470E+00  0.2470E+00
     -0.816  0.0000E+00  0.0000E+00  0.2480E+00  0.2470E+00
     -0.776  0.0000E+00  0.0000E+00  0.2500E+00  0.2480E+00
     -0.735  0.0000E+00  0.0000E+00  0.2500E+00  0.2500E+00
     -0.695  0.0000E+00  0.0000E+00  0.2510E+00  0.2510E+00
     -0.654  0.0000E+00  0.0000E+00  0.2520E+00  0.2510E+00
     -0.614  0.0000E+00  0.0000E+00  0.2530E+00  0.2520E+00
     -0.573  0.0000E+00  0.0000E+00  0.2530E+00  0.2530E+00
     -0.533  0.0000E+00  0.0000E+00  0.2530E+00  0.2530E+00
     -0.492  0.0000E+00  0.0000E+00  0.2540E+00  0.2530E+00
     -0.452  0.0000E+00  0.0000E+00  0.2550E+00  0.2540E+00
     -0.411  0.0000E+00  0.0000E+00  0.2550E+00  0.2550E+00
     -0.371  0.0000E+00  0.0000E+00  0.2560E+00  0.2560E+00
     -0.331  0.0000E+00  0.0000E+00  0.2560E+00  0.2560E+00
     -0.290  0.0000E+00  0.0000E+00  0.2570E+00  0.2560E+00
     -0.250  0.0000E+00  0.0000E+00  0.2580E+00  0.2570E+00
     -0.209  0.0000E+00  0.0000E+00  0.2590E+00  0.2580E+00
     -0.169  0.0000E+00  0.0000E+00  0.2590E+00  0.2590E+00
     -0.128  0.0000E+00  0.0000E+00  0.2590E+00  0.2590E+00
     -0.088  0.0000E+00  0.0000E+00  0.2590E+00  0.2590E+00
     -0.047  0.0000E+00  0.0000E+00  0.2600E+00  0.2600E+00
     -0.007  0.0000E+00  0.0000E+00  0.2600E+00  0.2600E+00
      0.034  0.0000E+00  0.0000E+00  0.2600E+00  0.2600E+00
      0.074  0.0000E+00  0.0000E+00  0.2620E+00  0.2610E+00
      0.114  0.0000E+00  0.0000E+00  0.2620E+00  0.2620E+00
      0.155  0.0000E+00  0.0000E+00  0.2620E+00  0.2620E+00
      0.195  0.0000E+00  0.0000E+00  0.2630E+00  0.2620E+00
      0.236  0.0000E+00  0.0000E+00  0.2630E+00  0.2630E+00
      0.276  0.0000E+00  0.0000E+00  0.2630E+00  0.2630E+00
      0.317  0.0000E+00  0.0000E+00  0.2640E+00  0.2640E+00
      0.357  0.0000E+00  0.0000E+00  0.2640E+00  0.2640E+00
      0.398  0.0000E+00  0.0000E+00  0.2640E+00  0.2640E+00
      0.438  0.0000E+00  0.0000E+00  0.2640E+00  0.2640E+00
      0.479  0.0000E+00  0.0000E+00  0.2650E+00  0.2650E+00
      0.519  0.0000E+00  0.0000E+00  0.2660E+00  0.2650E+00
      0.559  0.0000E+00  0.0000E+00  0.2670E+00  0.2670E+00
      0.600  0.0000E+00  0.0000E+00  0.2680E+00  0.2680E+00
      0.640  0.0000E+00  0.0000E+00  0.2680E+00  0.2680E+00
      0.681  0.0000E+00  0.0000E+00  0.2690E+00  0.2690E+00
      0.721  0.0000E+00  0.0000E+00  0.2690E+00  0.2690E+00
      0.762  0.0000E+00  0.0000E+00  0.2700E+00  0.2700E+00
      0.802  0.0000E+00  0.0000E+00  0.2720E+00  0.2710E+00
      0.843  0.0000E+00  0.0000E+00  0.2720E+00  0.2720E+00
      0.883  0.0000E+00  0.0000E+00  0.2740E+00  0.2740E+00
      0.924  0.0000E+00  0.0000E+00  0.2750E+00  0.2750E+00
      0.964  0.0000E+00  0.0000E+00  0.2780E+00  0.2770E+00
      1.004  0.0000E+00  0.0000E+00  0.2800E+00  0.2800E+00
      1.045  0.4570E-02  0.0000E+00  0.2822E+00  0.2820E+00
      1.085  0.0000E+00  0.0000E+00  0.2840E+00  0.2830E+00
      1.126  0.0000E+00  0.0000E+00  0.2850E+00  0.2850E+00
      1.166  0.0000E+00  0.0000E+00  0.2870E+00  0.2860E+00
      1.207  0.0000E+00  0.0000E+00  0.2890E+00  0.2880E+00
      1.247  0.0000E+00  0.0000E+00  0.2910E+00  0.2900E+00
      1.288  0.0000E+00  0.0000E+00  0.2920E+00  0.2920E+00
      1.328  0.0000E+00  0.0000E+00  0.2920E+00  0.2920E+00
      1.369  0.0000E+00  0.0000E+00  0.2920E+00  0.2920E+00
      1.409  0.0000E+00  0.0000E+00  0.2920E+00  0.2920E+00
      1.449  0.0000E+00  0.0000E+00  0.2920E+00  0.2920E+00
      1.490  0.0000E+00  0.0000E+00  0.2920E+00  0.2920E+00
      1.530  0.0000E+00  0.0000E+00  0.2920E+00  0.2920E+00
      1.571  0.0000E+00  0.0000E+00  0.2920E+00  0.2920E+00
      1.611  0.0000E+00  0.0000E+00  0.2920E+00  0.2920E+00
      1.652  0.0000E+00  0.0000E+00  0.2920E+00  0.2920E+00
      1.692  0.0000E+00  0.0000E+00  0.2920E+00  0.2920E+00
      1.733  0.0000E+00  0.0000E+00  0.2920E+00  0.2920E+00
      1.773  0.0000E+00  0.0000E+00  0.2920E+00  0.2920E+00
      1.814  0.0000E+00  0.0000E+00  0.2920E+00  0.2920E+00
