11
Energy = -72.51325229 eV
Ru 8.219291717547422 9.75448524019367 7.335522800546612
Ru 10.407564912549935 9.073444486435232 7.595053882826241
Ru 8.977875614113115 10.211060763983767 9.408732750273956
Ru 11.469390466617128 10.729877497551788 9.259181237893232
Ru 9.70752719489215 12.55096363045688 9.850946760044456
Ru 10.757382508290574 8.520324100768642 10.110918722382582
Ru 12.702948978020851 9.694966819738667 11.17236804708413
Ru 8.835838189223992 11.096263997368313 11.594224559269488
Ru 8.47769310817587 8.70124089678821 11.332523482325884
Ru 11.28702492493224 11.670380576768807 11.436861412525014
Ru 10.561262474907709 9.400792079217135 12.307466434099645
