5
Energy = -26.70125916 eV
Ru 10.902063984209724 9.981913355629004 11.053232092577867
Ru 11.252018511007138 12.0303632297429 11.253065961292387
Ru 10.449832523417026 8.613232921862604 8.916478446043204
Ru 8.681638106839339 9.888863945248707 9.639040073775991
Ru 7.681144380419447 8.387196502093639 8.127156776772402
