5
Energy = -24.37259956 eV
Ru 12.433695816662459 8.58046587601673 11.876407801480989
Ru 12.924672070378119 8.618837596201846 9.493502286742697
Ru 11.023429442608663 9.419474260928972 10.35585995137857
Ru 10.507297647091441 14.25628415694347 13.046346747812299
Ru 10.431551878779592 16.23271368451667 12.531561795506752
