6
Energy = -35.29114573 eV
Ru 8.78600671686391 7.045070751490173 7.68918383450688
Ru 6.665001831597659 7.198259182551589 9.0689493407864
Ru 6.539489431486437 8.811229975121385 5.692952937082887
Ru 8.745972587916352 8.43687810309971 6.021609499356153
Ru 5.578935378559448 7.413949694981012 7.049983440225612
Ru 7.109190999213085 5.472168946441014 7.61539855462135
