9
Energy = -57.67867693 eV
Ru 11.499843023678876 8.868515760683218 9.429680011459057
Ru 10.187799393797278 8.05651836141137 11.075245268681254
Ru 9.616627457930223 9.857879604257528 8.404250312833728
Ru 9.554155414651984 7.361733784025995 8.683273623109894
Ru 8.207351411760417 6.311126952619049 7.094225373841821
Ru 8.295639073220205 9.045381164004153 10.061839895891929
Ru 7.631025141149015 8.482771299879097 7.706200138980839
Ru 7.772261503197012 11.041987191445028 7.52545267637209
Ru 6.461096132363599 10.237620207548316 9.177901538821256
