<?xml version="1.0" encoding="ISO-8859-1"?>
<modeling>
 <generator>
  <i name="program" type="string">vasp </i>
  <i name="version" type="string">5.3.5  </i>
  <i name="subversion" type="string">31Mar14 (build Feb 01 2018 12:10:03) gamma-only                       parallel </i>
  <i name="platform" type="string">LinuxIFC </i>
  <i name="date" type="string">2019 03 21 </i>
  <i name="time" type="string">22:04:52 </i>
 </generator>
 <incar>
  <i type="string" name="PREC">normal</i>
  <i type="int" name="ISPIN">     2</i>
  <i type="int" name="IBRION">     2</i>
  <i type="int" name="NSW">  1000</i>
  <i type="int" name="ISIF">     2</i>
  <i name="POTIM">      0.10000000</i>
  <i type="logical" name="LPLANE"> T  </i>
  <i type="int" name="ISMEAR">     0</i>
  <i name="SIGMA">      0.00010000</i>
  <i type="logical" name="LWAVE"> F  </i>
  <i type="logical" name="LCHARG"> F  </i>
  <i type="logical" name="LVTOT"> F  </i>
  <i type="string" name="GGA"> PE</i>
 </incar>
 <kpoints>
  <varray name="kpointlist" >
   <v>       0.00000000       0.00000000       0.00000000 </v>
  </varray>
  <varray name="weights" >
   <v>       1.00000000 </v>
  </varray>
 </kpoints>
 <parameters>
  <separator name="general" >
   <i type="string" name="SYSTEM">unknown system</i>
   <i type="logical" name="LCOMPAT"> F  </i>
  </separator>
  <separator name="electronic" >
   <i type="string" name="PREC">normal</i>
   <i name="ENMAX">    249.84400000</i>
   <i name="ENAUG">    412.49600000</i>
   <i name="EDIFF">      0.00010000</i>
   <i type="int" name="IALGO">    38</i>
   <i type="int" name="IWAVPR">    11</i>
   <i type="int" name="NBANDS">   156</i>
   <i name="NELECT">    242.00000000</i>
   <i type="int" name="TURBO">     0</i>
   <i type="int" name="IRESTART">     0</i>
   <i type="int" name="NREBOOT">     0</i>
   <i type="int" name="NMIN">     0</i>
   <i name="EREF">      0.00000000</i>
   <separator name="electronic smearing" >
    <i type="int" name="ISMEAR">     0</i>
    <i name="SIGMA">      0.00010000</i>
    <i name="KSPACING">      0.50000000</i>
    <i type="logical" name="KGAMMA"> T  </i>
   </separator>
   <separator name="electronic projectors" >
    <i type="logical" name="LREAL"> F  </i>
    <v name="ROPT">      0.00000000</v>
    <i type="int" name="LMAXPAW">  -100</i>
    <i type="int" name="LMAXMIX">     2</i>
    <i type="logical" name="NLSPLINE"> F  </i>
   </separator>
   <separator name="electronic startup" >
    <i type="int" name="ISTART">     0</i>
    <i type="int" name="ICHARG">     2</i>
    <i type="int" name="INIWAV">     1</i>
   </separator>
   <separator name="electronic spin" >
    <i type="int" name="ISPIN">     2</i>
    <i type="logical" name="LNONCOLLINEAR"> F  </i>
    <v name="MAGMOM">      1.00000000      1.00000000      1.00000000      1.00000000      1.00000000      1.00000000      1.00000000      1.00000000      1.00000000      1.00000000      1.00000000      1.00000000      1.00000000      1.00000000      1.00000000      1.00000000      1.00000000      1.00000000      1.00000000      1.00000000
      1.00000000      1.00000000</v>
    <i name="NUPDOWN">     -1.00000000</i>
    <i type="logical" name="LSORBIT"> F  </i>
    <v name="SAXIS">      0.00000000      0.00000000      1.00000000</v>
    <i type="logical" name="LSPIRAL"> F  </i>
    <v name="QSPIRAL">      0.00000000      0.00000000      0.00000000</v>
    <i type="logical" name="LZEROZ"> F  </i>
   </separator>
   <separator name="electronic exchange-correlation" >
    <i type="logical" name="LASPH"> F  </i>
    <i type="logical" name="LMETAGGA"> F  </i>
   </separator>
   <separator name="electronic convergence" >
    <i type="int" name="NELM">    60</i>
    <i type="int" name="NELMDL">    -5</i>
    <i type="int" name="NELMIN">     2</i>
    <i name="ENINI">    249.84400000</i>
    <separator name="electronic convergence detail" >
     <i type="logical" name="LDIAG"> T  </i>
     <i type="logical" name="LSUBROT"> F  </i>
     <i name="WEIMIN">      0.00100000</i>
     <i name="EBREAK">      0.00000016</i>
     <i name="DEPER">      0.30000000</i>
     <i type="int" name="NRMM">     4</i>
     <i name="TIME">      0.40000000</i>
    </separator>
   </separator>
   <separator name="electronic mixer" >
    <i name="AMIX">      0.40000000</i>
    <i name="BMIX">      1.00000000</i>
    <i name="AMIN">      0.10000000</i>
    <i name="AMIX_MAG">      1.60000000</i>
    <i name="BMIX_MAG">      1.00000000</i>
    <separator name="electronic mixer details" >
     <i type="int" name="IMIX">     4</i>
     <i type="int" name="MAXMIX">   -45</i>
     <i name="WC">    100.00000000</i>
     <i type="int" name="INIMIX">     1</i>
     <i type="int" name="MIXPRE">     1</i>
     <i type="int" name="MREMOVE">     5</i>
    </separator>
   </separator>
   <separator name="electronic dipolcorrection" >
    <i type="logical" name="LDIPOL"> F  </i>
    <i type="logical" name="LMONO"> F  </i>
    <i type="int" name="IDIPOL">     0</i>
    <i name="EPSILON">      1.00000000</i>
    <v name="DIPOL">   -100.00000000   -100.00000000   -100.00000000</v>
    <i name="EFIELD">      0.00000000</i>
   </separator>
  </separator>
  <separator name="grids" >
   <i type="int" name="NGX">    84</i>
   <i type="int" name="NGY">    84</i>
   <i type="int" name="NGZ">    84</i>
   <i type="int" name="NGXF">   168</i>
   <i type="int" name="NGYF">   168</i>
   <i type="int" name="NGZF">   168</i>
   <i type="logical" name="ADDGRID"> F  </i>
  </separator>
  <separator name="ionic" >
   <i type="int" name="NSW">  1000</i>
   <i type="int" name="IBRION">     2</i>
   <i type="int" name="ISIF">     2</i>
   <i name="PSTRESS">      0.00000000</i>
   <i name="EDIFFG">      0.00100000</i>
   <i type="int" name="NFREE">     1</i>
   <i name="POTIM">      0.10000000</i>
   <i name="SMASS">     -3.00000000</i>
   <i name="SCALEE">      1.00000000</i>
  </separator>
  <separator name="ionic md" >
   <i name="TEBEG">      0.00010000</i>
   <i name="TEEND">      0.00010000</i>
   <i type="int" name="NBLOCK">     1</i>
   <i type="int" name="KBLOCK">  1000</i>
   <i type="int" name="NPACO">   256</i>
   <i name="APACO">     16.00000000</i>
  </separator>
  <separator name="symmetry" >
   <i type="int" name="ISYM">     2</i>
   <i name="SYMPREC">      0.00001000</i>
  </separator>
  <separator name="dos" >
   <i type="logical" name="LORBIT"> F  </i>
   <v name="RWIGS">     -1.00000000</v>
   <i type="int" name="NEDOS">   301</i>
   <i name="EMIN">     10.00000000</i>
   <i name="EMAX">    -10.00000000</i>
   <i name="EFERMI">      0.00000000</i>
  </separator>
  <separator name="writing" >
   <i type="int" name="NWRITE">     2</i>
   <i type="logical" name="LWAVE"> F  </i>
   <i type="logical" name="LCHARG"> F  </i>
   <i type="logical" name="LPARD"> F  </i>
   <i type="logical" name="LVTOT"> F  </i>
   <i type="logical" name="LVHAR"> F  </i>
   <i type="logical" name="LELF"> F  </i>
   <i type="logical" name="LOPTICS"> F  </i>
   <v name="STM">      0.00000000      0.00000000      0.00000000      0.00000000      0.00000000      0.00000000      0.00000000</v>
  </separator>
  <separator name="performance" >
   <i type="int" name="NPAR">     4</i>
   <i type="int" name="NSIM">     4</i>
   <i type="int" name="NBLK">    -1</i>
   <i type="logical" name="LPLANE"> T  </i>
   <i type="logical" name="LSCALAPACK"> T  </i>
   <i type="logical" name="LSCAAWARE"> F  </i>
   <i type="logical" name="LSCALU"> F  </i>
   <i type="logical" name="LASYNC"> F  </i>
   <i type="logical" name="LORBITALREAL"> F  </i>
  </separator>
  <separator name="miscellaneous" >
   <i type="int" name="IDIOT">     3</i>
   <i type="logical" name="LMUSIC"> F  </i>
   <v name="POMASS">    107.86800000</v>
   <v name="DARWINR">      0.00000000</v>
   <v name="DARWINV">      1.00000000</v>
   <i type="logical" name="LCORR"> T  </i>
  </separator>
  <i type="logical" name="GGA_COMPAT"> T  </i>
  <i type="logical" name="LBERRY"> F  </i>
  <i type="int" name="ICORELEVEL">     0</i>
  <i type="logical" name="LDAU"> F  </i>
  <i type="int" name="I_CONSTRAINED_M">     0</i>
  <separator name="electronic exchange-correlation" >
   <i type="string" name="GGA">PE</i>
   <i type="int" name="VOSKOWN">     0</i>
   <i type="logical" name="LHFCALC"> F  </i>
   <i type="string" name="PRECFOCK"></i>
   <i type="logical" name="LSYMGRAD"> F  </i>
   <i type="logical" name="LHFONE"> F  </i>
   <i type="logical" name="LRHFCALC"> F  </i>
   <i type="logical" name="LTHOMAS"> F  </i>
   <i type="logical" name="LMODELHF"> F  </i>
   <i name="ENCUT4O">     -1.00000000</i>
   <i type="int" name="EXXOEP">     0</i>
   <i type="int" name="FOURORBIT">     0</i>
   <i name="AEXX">      0.00000000</i>
   <i name="HFALPHA">      0.00000000</i>
   <i name="MCALPHA">      0.00000000</i>
   <i name="ALDAX">      1.00000000</i>
   <i name="AGGAX">      1.00000000</i>
   <i name="ALDAC">      1.00000000</i>
   <i name="AGGAC">      1.00000000</i>
   <i type="int" name="NKREDX">     1</i>
   <i type="int" name="NKREDY">     1</i>
   <i type="int" name="NKREDZ">     1</i>
   <i type="logical" name="SHIFTRED"> F  </i>
   <i type="logical" name="ODDONLY"> F  </i>
   <i type="logical" name="EVENONLY"> F  </i>
   <i type="int" name="LMAXFOCK">     0</i>
   <i type="int" name="NMAXFOCKAE">     0</i>
   <i type="logical" name="LFOCKAEDFT"> F  </i>
   <i name="HFSCREEN">      0.00000000</i>
   <i name="HFSCREENC">      0.00000000</i>
   <i type="int" name="NBANDSGWLOW">     0</i>
  </separator>
  <separator name="vdW DFT" >
   <i type="logical" name="LUSE_VDW"> F  </i>
   <i name="Zab_VDW">     -0.84910000</i>
   <i name="PARAM1">      0.12340000</i>
   <i name="PARAM2">      1.00000000</i>
   <i name="PARAM3">      0.00000000</i>
  </separator>
  <separator name="model GW" >
   <i type="int" name="MODEL_GW">     0</i>
   <i name="MODEL_EPS0">    265.40980026</i>
   <i name="MODEL_ALPHA">      1.00000000</i>
  </separator>
  <separator name="linear response parameters" >
   <i type="logical" name="LEPSILON"> F  </i>
   <i type="logical" name="LRPA"> F  </i>
   <i type="logical" name="LNABLA"> F  </i>
   <i type="logical" name="LVEL"> F  </i>
   <i type="int" name="KINTER">     0</i>
   <i name="CSHIFT">      0.10000000</i>
   <i name="OMEGAMAX">     -1.00000000</i>
   <i name="DEG_THRESHOLD">      0.00200000</i>
  </separator>
  <separator name="orbital magnetization" >
   <i type="logical" name="NUCIND"> F  </i>
   <v name="MAGPOS">      0.00000000      0.00000000      0.00000000</v>
   <i type="logical" name="LNICSALL"> T  </i>
   <i type="logical" name="ORBITALMAG"> F  </i>
   <i type="logical" name="LMAGBLOCH"> F  </i>
   <i type="logical" name="LCHIMAG"> F  </i>
   <i type="logical" name="LGAUGE"> T  </i>
   <i type="int" name="MAGATOM">     0</i>
   <v name="MAGDIPOL">      0.00000000      0.00000000      0.00000000</v>
   <v name="AVECCONST">      0.00000000      0.00000000      0.00000000</v>
  </separator>
  <separator name="response functions" >
   <i type="logical" name="LADDER"> F  </i>
   <i type="logical" name="LFXC"> F  </i>
   <i type="logical" name="LHARTREE"> T  </i>
   <i type="int" name="IBSE">     0</i>
   <i type="logical" name="LTCTE"> F  </i>
   <i type="logical" name="LTETE"> F  </i>
   <i type="logical" name="LTRIPLET"> F  </i>
   <i type="logical" name="LFXCEPS"> F  </i>
   <i type="logical" name="LFXHEG"> F  </i>
   <i type="logical" name="L2ORDER"> F  </i>
   <i type="logical" name="LUSEW"> F  </i>
   <i name="ENCUTGW">     -2.00000000</i>
   <i name="ENCUTGWSOFT">     -2.00000000</i>
   <i name="ENCUTLF">     -1.00000000</i>
   <i type="int" name="LMAXMP2">    -1</i>
   <i name="SCISSOR">      0.00000000</i>
   <i type="int" name="NOMEGA">     0</i>
   <i type="int" name="NOMEGAR">     0</i>
   <i type="int" name="NBANDSGW">    -1</i>
   <i type="int" name="NBANDSO">    -1</i>
   <i type="int" name="NBANDSV">    -1</i>
   <i type="int" name="NELM">     1</i>
   <i type="int" name="DIM">     3</i>
   <i type="int" name="ANTIRES">     0</i>
   <i name="OMEGAMAX">    -30.00000000</i>
   <i name="OMEGAMIN">    -30.00000000</i>
   <i name="OMEGATL">   -200.00000000</i>
   <i type="int" name="OMEGAGRID">     0</i>
   <i name="CSHIFT">     -0.10000000</i>
   <i type="logical" name="SELFENERGY"> F  </i>
   <i type="logical" name="LSPECTRAL"> F  </i>
   <i type="logical" name="ODDONLYGW"> F  </i>
   <i type="logical" name="EVENONLYGW"> F  </i>
   <i type="int" name="NKREDLFX">     1</i>
   <i type="int" name="NKREDLFY">     1</i>
   <i type="int" name="NKREDLFZ">     1</i>
   <i type="int" name="MAXMEM">  1800</i>
   <i type="int" name="TELESCOPE">     0</i>
   <i type="int" name="TAUPAR">     1</i>
  </separator>
  <separator name="External order field" >
   <i name="OFIELD_KAPPA">      0.00000000</i>
   <v name="OFIELD_K">      0.00000000      0.00000000      0.00000000</v>
   <i name="OFIELD_Q6_NEAR">      0.00000000</i>
   <i name="OFIELD_Q6_FAR">      0.00000000</i>
   <i name="OFIELD_A">      0.00000000</i>
  </separator>
 </parameters>
 <atominfo>
  <atoms>      22 </atoms>
  <types>       1 </types>
  <array name="atoms" >
   <dimension dim="1">ion</dimension>
   <field type="string">element</field>
   <field type="int">atomtype</field>
   <set>
    <rc><c>Ag</c><c>   1</c></rc>
    <rc><c>Ag</c><c>   1</c></rc>
    <rc><c>Ag</c><c>   1</c></rc>
    <rc><c>Ag</c><c>   1</c></rc>
    <rc><c>Ag</c><c>   1</c></rc>
    <rc><c>Ag</c><c>   1</c></rc>
    <rc><c>Ag</c><c>   1</c></rc>
    <rc><c>Ag</c><c>   1</c></rc>
    <rc><c>Ag</c><c>   1</c></rc>
    <rc><c>Ag</c><c>   1</c></rc>
    <rc><c>Ag</c><c>   1</c></rc>
    <rc><c>Ag</c><c>   1</c></rc>
    <rc><c>Ag</c><c>   1</c></rc>
    <rc><c>Ag</c><c>   1</c></rc>
    <rc><c>Ag</c><c>   1</c></rc>
    <rc><c>Ag</c><c>   1</c></rc>
    <rc><c>Ag</c><c>   1</c></rc>
    <rc><c>Ag</c><c>   1</c></rc>
    <rc><c>Ag</c><c>   1</c></rc>
    <rc><c>Ag</c><c>   1</c></rc>
    <rc><c>Ag</c><c>   1</c></rc>
    <rc><c>Ag</c><c>   1</c></rc>
   </set>
  </array>
  <array name="atomtypes" >
   <dimension dim="1">type</dimension>
   <field type="int">atomspertype</field>
   <field type="string">element</field>
   <field>mass</field>
   <field>valence</field>
   <field type="string">pseudopotential</field>
   <set>
    <rc><c>  22</c><c>Ag</c><c>    107.86800000</c><c>     11.00000000</c><c>  PAW_PBE Ag 02Apr2005                  </c></rc>
   </set>
  </array>
 </atominfo>
 <structure name="initialpos" >
  <crystal>
   <varray name="basis" >
    <v>      21.34991393       0.00000000       0.00000000 </v>
    <v>       0.00000000      21.34991393       0.00000000 </v>
    <v>       0.00000000       0.00000000      21.34991393 </v>
   </varray>
   <i name="volume">   9731.69267602 </i>
   <varray name="rec_basis" >
    <v>       0.04683860       0.00000000       0.00000000 </v>
    <v>       0.00000000       0.04683860       0.00000000 </v>
    <v>       0.00000000       0.00000000       0.04683860 </v>
   </varray>
  </crystal>
  <varray name="positions" >
   <v>       0.37793193       0.40398797       0.58146748 </v>
   <v>       0.36636249       0.53400350       0.58493115 </v>
   <v>       0.42369025       0.46929983       0.48169103 </v>
   <v>       0.40892384       0.45192034       0.35623846 </v>
   <v>       0.48565565       0.36259840       0.53253924 </v>
   <v>       0.48458047       0.47952026       0.59443334 </v>
   <v>       0.43209158       0.60139066       0.50062758 </v>
   <v>       0.48039572       0.54570087       0.39469766 </v>
   <v>       0.52028937       0.42619542       0.40938865 </v>
   <v>       0.59505642       0.33198365       0.48182250 </v>
   <v>       0.46692406       0.59860609       0.62905101 </v>
   <v>       0.59364894       0.40822955       0.58535366 </v>
   <v>       0.62556267       0.37198650       0.36671242 </v>
   <v>       0.48203168       0.70254229       0.56032822 </v>
   <v>       0.58292791       0.49570568       0.67810761 </v>
   <v>       0.51147062       0.66745710       0.43062510 </v>
   <v>       0.62994797       0.45513916       0.46131736 </v>
   <v>       0.60193051       0.53337473       0.55786196 </v>
   <v>       0.59592236       0.57270527       0.43901940 </v>
   <v>       0.58710882       0.62045255       0.65524055 </v>
   <v>       0.59745513       0.66028249       0.52828036 </v>
   <v>       0.58381202       0.74063812       0.62398569 </v>
  </varray>
 </structure>
 <calculation>
  <scstep>
   <time name="dav">    2.48    2.48</time>
   <time name="total">    2.78    2.80</time>
   <energy>
    <i name="alphaZ">     42.30299898 </i>
    <i name="ewald">  39672.87269470 </i>
    <i name="hartreedc"> -61513.47170291 </i>
    <i name="XCdc">   -242.05079607 </i>
    <i name="pawpsdc">  22074.18791753 </i>
    <i name="pawaedc"> -21059.82139533 </i>
    <i name="eentropy">     -0.00000000 </i>
    <i name="bandstr">    366.61192682 </i>
    <i name="atom">  22818.36986190 </i>
    <i name="e_fr_energy">   2159.00150562 </i>
    <i name="e_wo_entrp">   2159.00150562 </i>
    <i name="e_0_energy">   2159.00150562 </i>
   </energy>
  </scstep>
  <scstep>
   <time name="dav">    3.97    3.97</time>
   <time name="total">    3.97    4.43</time>
   <energy>
    <i name="e_fr_energy">    594.87995469 </i>
    <i name="e_wo_entrp">    594.87995469 </i>
    <i name="e_0_energy">    594.87995469 </i>
   </energy>
  </scstep>
  <scstep>
   <time name="dav">    3.16    3.16</time>
   <time name="total">    3.16    3.83</time>
   <energy>
    <i name="e_fr_energy">     -0.14098948 </i>
    <i name="e_wo_entrp">     -0.14098948 </i>
    <i name="e_0_energy">     -0.14098948 </i>
   </energy>
  </scstep>
  <scstep>
   <time name="dav">    2.69    2.69</time>
   <time name="total">    2.69    2.71</time>
   <energy>
    <i name="e_fr_energy">    -42.09905553 </i>
    <i name="e_wo_entrp">    -42.09905553 </i>
    <i name="e_0_energy">    -42.09905553 </i>
   </energy>
  </scstep>
  <scstep>
   <time name="dav">    2.67    2.68</time>
   <time name="total">    2.80    2.80</time>
   <energy>
    <i name="e_fr_energy">    -42.71457000 </i>
    <i name="e_wo_entrp">    -42.71457000 </i>
    <i name="e_0_energy">    -42.71457000 </i>
   </energy>
  </scstep>
  <scstep>
   <time name="dav">    2.51    2.51</time>
   <time name="total">    2.93    3.00</time>
   <energy>
    <i name="e_fr_energy">    -14.21270350 </i>
    <i name="e_wo_entrp">    -14.21270350 </i>
    <i name="e_0_energy">    -14.21270350 </i>
   </energy>
  </scstep>
  <scstep>
   <time name="dav">    2.63    2.63</time>
   <time name="total">    3.05    3.05</time>
   <energy>
    <i name="e_fr_energy">    -10.26173294 </i>
    <i name="e_wo_entrp">    -10.26173294 </i>
    <i name="e_0_energy">    -10.26173294 </i>
   </energy>
  </scstep>
  <scstep>
   <time name="dav">    2.68    2.68</time>
   <time name="total">    3.09    3.10</time>
   <energy>
    <i name="e_fr_energy">    -12.97195971 </i>
    <i name="e_wo_entrp">    -12.97195971 </i>
    <i name="e_0_energy">    -12.97195971 </i>
   </energy>
  </scstep>
  <scstep>
   <time name="dav">    2.73    2.73</time>
   <time name="total">    3.15    3.15</time>
   <energy>
    <i name="e_fr_energy">    -16.68425509 </i>
    <i name="e_wo_entrp">    -16.68425509 </i>
    <i name="e_0_energy">    -16.68425509 </i>
   </energy>
  </scstep>
  <scstep>
   <time name="dav">    2.61    2.61</time>
   <time name="total">    3.03    3.03</time>
   <energy>
    <i name="e_fr_energy">    -24.48093885 </i>
    <i name="e_wo_entrp">    -24.48093885 </i>
    <i name="e_0_energy">    -24.48093885 </i>
   </energy>
  </scstep>
  <scstep>
   <time name="dav">    2.75    2.75</time>
   <time name="total">    3.17    3.17</time>
   <energy>
    <i name="e_fr_energy">    -25.33445659 </i>
    <i name="e_wo_entrp">    -25.33445659 </i>
    <i name="e_0_energy">    -25.33445659 </i>
   </energy>
  </scstep>
  <scstep>
   <time name="dav">    2.53    2.53</time>
   <time name="total">    2.96    3.02</time>
   <energy>
    <i name="e_fr_energy">    -30.33485949 </i>
    <i name="e_wo_entrp">    -30.33485949 </i>
    <i name="e_0_energy">    -30.33485949 </i>
   </energy>
  </scstep>
  <scstep>
   <time name="dav">    2.58    2.59</time>
   <time name="total">    3.00    3.02</time>
   <energy>
    <i name="e_fr_energy">    -35.46032533 </i>
    <i name="e_wo_entrp">    -35.46032533 </i>
    <i name="e_0_energy">    -35.46032533 </i>
   </energy>
  </scstep>
  <scstep>
   <time name="dav">    2.85    2.85</time>
   <time name="total">    3.28    5.11</time>
   <energy>
    <i name="e_fr_energy">    -35.61661660 </i>
    <i name="e_wo_entrp">    -35.61661660 </i>
    <i name="e_0_energy">    -35.61661660 </i>
   </energy>
  </scstep>
  <scstep>
   <time name="dav">    2.56    2.56</time>
   <time name="total">    2.98    3.00</time>
   <energy>
    <i name="e_fr_energy">    -36.75625927 </i>
    <i name="e_wo_entrp">    -36.75625927 </i>
    <i name="e_0_energy">    -36.75625927 </i>
   </energy>
  </scstep>
  <scstep>
   <time name="dav">    2.55    2.55</time>
   <time name="total">    2.97    2.99</time>
   <energy>
    <i name="e_fr_energy">    -38.74326468 </i>
    <i name="e_wo_entrp">    -38.74326468 </i>
    <i name="e_0_energy">    -38.74326468 </i>
   </energy>
  </scstep>
  <scstep>
   <time name="dav">    2.52    2.52</time>
   <time name="total">    2.94    2.94</time>
   <energy>
    <i name="e_fr_energy">    -40.14529068 </i>
    <i name="e_wo_entrp">    -40.14529068 </i>
    <i name="e_0_energy">    -40.14529068 </i>
   </energy>
  </scstep>
  <scstep>
   <time name="dav">    2.68    2.69</time>
   <time name="total">    3.11    3.13</time>
   <energy>
    <i name="e_fr_energy">    -40.59898381 </i>
    <i name="e_wo_entrp">    -40.59898381 </i>
    <i name="e_0_energy">    -40.59898381 </i>
   </energy>
  </scstep>
  <scstep>
   <time name="dav">    2.56    2.56</time>
   <time name="total">    2.98    3.01</time>
   <energy>
    <i name="e_fr_energy">    -41.30886797 </i>
    <i name="e_wo_entrp">    -41.30886797 </i>
    <i name="e_0_energy">    -41.30886797 </i>
   </energy>
  </scstep>
  <scstep>
   <time name="dav">    2.62    2.61</time>
   <time name="total">    3.04    3.05</time>
   <energy>
    <i name="e_fr_energy">    -41.69373984 </i>
    <i name="e_wo_entrp">    -41.69373984 </i>
    <i name="e_0_energy">    -41.69373984 </i>
   </energy>
  </scstep>
  <scstep>
   <time name="dav">    2.66    2.67</time>
   <time name="total">    3.10    3.11</time>
   <energy>
    <i name="e_fr_energy">    -41.82030791 </i>
    <i name="e_wo_entrp">    -41.82030791 </i>
    <i name="e_0_energy">    -41.82030791 </i>
   </energy>
  </scstep>
  <scstep>
   <time name="dav">    2.64    2.64</time>
   <time name="total">    3.07    3.07</time>
   <energy>
    <i name="e_fr_energy">    -41.93314574 </i>
    <i name="e_wo_entrp">    -41.93313195 </i>
    <i name="e_0_energy">    -41.93313884 </i>
   </energy>
  </scstep>
  <scstep>
   <time name="dav">    2.08    2.08</time>
   <time name="total">    2.50    2.51</time>
   <energy>
    <i name="e_fr_energy">    -41.93935392 </i>
    <i name="e_wo_entrp">    -41.93935392 </i>
    <i name="e_0_energy">    -41.93935392 </i>
   </energy>
  </scstep>
  <scstep>
   <time name="dav">    2.03    2.03</time>
   <time name="total">    2.46    2.48</time>
   <energy>
    <i name="e_fr_energy">    -41.94550369 </i>
    <i name="e_wo_entrp">    -41.94550369 </i>
    <i name="e_0_energy">    -41.94550369 </i>
   </energy>
  </scstep>
  <scstep>
   <time name="dav">    2.03    2.03</time>
   <time name="total">    2.46    2.48</time>
   <energy>
    <i name="e_fr_energy">    -41.94752275 </i>
    <i name="e_wo_entrp">    -41.94752275 </i>
    <i name="e_0_energy">    -41.94752275 </i>
   </energy>
  </scstep>
  <scstep>
   <time name="dav">    2.07    2.07</time>
   <time name="total">    2.50    3.04</time>
   <energy>
    <i name="e_fr_energy">    -41.95056489 </i>
    <i name="e_wo_entrp">    -41.95056489 </i>
    <i name="e_0_energy">    -41.95056489 </i>
   </energy>
  </scstep>
  <scstep>
   <time name="dav">    2.31    2.31</time>
   <time name="total">    2.74    2.75</time>
   <energy>
    <i name="e_fr_energy">    -41.95193894 </i>
    <i name="e_wo_entrp">    -41.95193894 </i>
    <i name="e_0_energy">    -41.95193894 </i>
   </energy>
  </scstep>
  <scstep>
   <time name="dav">    2.01    2.01</time>
   <time name="total">    2.31    2.34</time>
   <energy>
    <i name="alphaZ">     42.30299898 </i>
    <i name="ewald">  39672.87269470 </i>
    <i name="hartreedc"> -61499.92573927 </i>
    <i name="XCdc">   -249.70613147 </i>
    <i name="pawpsdc">  23969.80489337 </i>
    <i name="pawaedc"> -22997.92014562 </i>
    <i name="eentropy">     -0.00000000 </i>
    <i name="bandstr">  -1797.75045173 </i>
    <i name="atom">  22818.36986190 </i>
    <i name="e_fr_energy">    -41.95201913 </i>
    <i name="e_wo_entrp">    -41.95201913 </i>
    <i name="e_0_energy">    -41.95201913 </i>
   </energy>
  </scstep>
  <structure>
   <crystal>
    <varray name="basis" >
     <v>      21.34991393       0.00000000       0.00000000 </v>
     <v>       0.00000000      21.34991393       0.00000000 </v>
     <v>       0.00000000       0.00000000      21.34991393 </v>
    </varray>
    <i name="volume">   9731.69267602 </i>
    <varray name="rec_basis" >
     <v>       0.04683860       0.00000000       0.00000000 </v>
     <v>       0.00000000       0.04683860       0.00000000 </v>
     <v>       0.00000000       0.00000000       0.04683860 </v>
    </varray>
   </crystal>
   <varray name="positions" >
    <v>       0.37793193       0.40398797       0.58146748 </v>
    <v>       0.36636249       0.53400350       0.58493115 </v>
    <v>       0.42369025       0.46929983       0.48169103 </v>
    <v>       0.40892384       0.45192034       0.35623846 </v>
    <v>       0.48565565       0.36259840       0.53253924 </v>
    <v>       0.48458047       0.47952026       0.59443334 </v>
    <v>       0.43209158       0.60139066       0.50062758 </v>
    <v>       0.48039572       0.54570087       0.39469766 </v>
    <v>       0.52028937       0.42619542       0.40938865 </v>
    <v>       0.59505642       0.33198365       0.48182250 </v>
    <v>       0.46692406       0.59860609       0.62905101 </v>
    <v>       0.59364894       0.40822955       0.58535366 </v>
    <v>       0.62556267       0.37198650       0.36671242 </v>
    <v>       0.48203168       0.70254229       0.56032822 </v>
    <v>       0.58292791       0.49570568       0.67810761 </v>
    <v>       0.51147062       0.66745710       0.43062510 </v>
    <v>       0.62994797       0.45513916       0.46131736 </v>
    <v>       0.60193051       0.53337473       0.55786196 </v>
    <v>       0.59592236       0.57270527       0.43901940 </v>
    <v>       0.58710882       0.62045255       0.65524055 </v>
    <v>       0.59745513       0.66028249       0.52828036 </v>
    <v>       0.58381202       0.74063812       0.62398569 </v>
   </varray>
  </structure>
  <varray name="forces" >
   <v>      -0.37868800       0.10044289       0.34054409 </v>
   <v>      -0.42615192      -0.31178508      -0.25034102 </v>
   <v>      -0.61164221       0.07003297       0.02115683 </v>
   <v>      -0.41215765      -0.08244806      -0.12135046 </v>
   <v>      -0.09361999      -0.14251881      -0.21486316 </v>
   <v>       0.19342276      -0.39560927       0.32466246 </v>
   <v>      -0.38271863      -0.21106545       0.10564922 </v>
   <v>       0.06935921       0.56039370      -0.22130105 </v>
   <v>       0.13450225      -0.42750630       0.10307943 </v>
   <v>       0.16242008      -0.37357201      -0.21569285 </v>
   <v>      -0.02810493       0.08495882       0.28886892 </v>
   <v>       0.35118589      -0.22824822       0.06717979 </v>
   <v>       0.30342780      -0.20577717      -0.44213699 </v>
   <v>      -0.19066521       0.50215663      -0.05431011 </v>
   <v>      -0.14323194      -0.01209353       0.30817178 </v>
   <v>      -0.00930246       0.51670267      -0.43115954 </v>
   <v>       0.49705711      -0.09395066       0.31906916 </v>
   <v>       0.22909157       0.24579786       0.30045540 </v>
   <v>       0.15157551      -0.13427496      -0.42934726 </v>
   <v>       0.29875250      -0.15282347      -0.09095323 </v>
   <v>       0.26821028      -0.09344614       0.15828242 </v>
   <v>       0.01727797       0.78463358       0.13433617 </v>
  </varray>
  <varray name="stress" >
   <v>       0.53705286       0.18857434       0.31324681 </v>
   <v>       0.18857434       0.22491693       0.31129499 </v>
   <v>       0.31324680       0.31129498       0.17291277 </v>
  </varray>
  <energy>
   <i name="e_fr_energy">    -41.95201913 </i>
   <i name="e_wo_entrp">    -41.95201913 </i>
   <i name="e_0_energy">     -0.00000000 </i>
  </energy>
  <time name="totalsc">   86.63   90.56</time>
 </calculation>
 <calculation>
  <scstep>
   <time name="dav">    2.60    2.60</time>
   <time name="total">    3.02    3.03</time>
   <energy>
    <i name="alphaZ">     42.30299898 </i>
    <i name="ewald">  39586.87408014 </i>
    <i name="hartreedc"> -61414.50902872 </i>
    <i name="XCdc">   -249.83528962 </i>
    <i name="pawpsdc">  23969.77202378 </i>
    <i name="pawaedc"> -22997.88777814 </i>
    <i name="eentropy">     -0.00000000 </i>
    <i name="bandstr">  -1797.09059468 </i>
    <i name="atom">  22818.36986190 </i>
    <i name="e_fr_energy">    -42.00372636 </i>
    <i name="e_wo_entrp">    -42.00372636 </i>
    <i name="e_0_energy">    -42.00372636 </i>
   </energy>
  </scstep>
  <scstep>
   <time name="dav">    2.57    2.57</time>
   <time name="total">    2.99    3.00</time>
   <energy>
    <i name="e_fr_energy">    -41.64196914 </i>
    <i name="e_wo_entrp">    -41.64196914 </i>
    <i name="e_0_energy">    -41.64196914 </i>
   </energy>
  </scstep>
  <scstep>
   <time name="dav">    2.64    2.65</time>
   <time name="total">    3.06    3.07</time>
   <energy>
    <i name="e_fr_energy">    -41.82383952 </i>
    <i name="e_wo_entrp">    -41.82383952 </i>
    <i name="e_0_energy">    -41.82383952 </i>
   </energy>
  </scstep>
  <scstep>
   <time name="dav">    2.64    2.65</time>
   <time name="total">    3.07    3.40</time>
   <energy>
    <i name="e_fr_energy">    -41.90907834 </i>
    <i name="e_wo_entrp">    -41.90907834 </i>
    <i name="e_0_energy">    -41.90907834 </i>
   </energy>
  </scstep>
  <scstep>
   <time name="dav">    2.67    2.67</time>
   <time name="total">    3.09    3.74</time>
   <energy>
    <i name="e_fr_energy">    -41.94579097 </i>
    <i name="e_wo_entrp">    -41.94579097 </i>
    <i name="e_0_energy">    -41.94579097 </i>
   </energy>
  </scstep>
  <scstep>
   <time name="dav">    2.64    2.64</time>
   <time name="total">    3.06    3.08</time>
   <energy>
    <i name="e_fr_energy">    -41.98302710 </i>
    <i name="e_wo_entrp">    -41.98302710 </i>
    <i name="e_0_energy">    -41.98302710 </i>
   </energy>
  </scstep>
  <scstep>
   <time name="dav">    2.59    2.60</time>
   <time name="total">    3.02    3.02</time>
   <energy>
    <i name="e_fr_energy">    -41.96997204 </i>
    <i name="e_wo_entrp">    -41.96997204 </i>
    <i name="e_0_energy">    -41.96997204 </i>
   </energy>
  </scstep>
  <scstep>
   <time name="dav">    2.11    2.11</time>
   <time name="total">    2.53    3.00</time>
   <energy>
    <i name="e_fr_energy">    -41.96656488 </i>
    <i name="e_wo_entrp">    -41.96656488 </i>
    <i name="e_0_energy">    -41.96656488 </i>
   </energy>
  </scstep>
  <scstep>
   <time name="dav">    1.86    1.87</time>
   <time name="total">    2.30    2.32</time>
   <energy>
    <i name="e_fr_energy">    -41.96535320 </i>
    <i name="e_wo_entrp">    -41.96535320 </i>
    <i name="e_0_energy">    -41.96535320 </i>
   </energy>
  </scstep>
  <scstep>
   <time name="dav">    2.64    2.65</time>
   <time name="total">    3.07    3.07</time>
   <energy>
    <i name="e_fr_energy">    -41.96225814 </i>
    <i name="e_wo_entrp">    -41.96225814 </i>
    <i name="e_0_energy">    -41.96225814 </i>
   </energy>
  </scstep>
  <scstep>
   <time name="dav">    2.72    2.72</time>
   <time name="total">    3.14    3.17</time>
   <energy>
    <i name="e_fr_energy">    -41.95930396 </i>
    <i name="e_wo_entrp">    -41.95930396 </i>
    <i name="e_0_energy">    -41.95930396 </i>
   </energy>
  </scstep>
  <scstep>
   <time name="dav">    2.63    2.63</time>
   <time name="total">    2.93    2.96</time>
   <energy>
    <i name="alphaZ">     42.30299898 </i>
    <i name="ewald">  39586.87408014 </i>
    <i name="hartreedc"> -61417.10963831 </i>
    <i name="XCdc">   -249.80552781 </i>
    <i name="pawpsdc">  23951.05095911 </i>
    <i name="pawaedc"> -22978.88193769 </i>
    <i name="eentropy">     -0.00000000 </i>
    <i name="bandstr">  -1794.76012151 </i>
    <i name="atom">  22818.36986190 </i>
    <i name="e_fr_energy">    -41.95932518 </i>
    <i name="e_wo_entrp">    -41.95932518 </i>
    <i name="e_0_energy">    -41.95932518 </i>
   </energy>
  </scstep>
  <structure>
   <crystal>
    <varray name="basis" >
     <v>      21.34991393       0.00000000       0.00000000 </v>
     <v>       0.00000000      21.34991393       0.00000000 </v>
     <v>       0.00000000       0.00000000      21.34991393 </v>
    </varray>
    <i name="volume">   9731.69267602 </i>
    <varray name="rec_basis" >
     <v>       0.04683860       0.00000000       0.00000000 </v>
     <v>       0.00000000       0.04683860       0.00000000 </v>
     <v>       0.00000000       0.00000000       0.04683860 </v>
    </varray>
   </crystal>
   <varray name="positions" >
    <v>       0.37776079       0.40403336       0.58162138 </v>
    <v>       0.36616990       0.53386260       0.58481802 </v>
    <v>       0.42341383       0.46933148       0.48170060 </v>
    <v>       0.40873758       0.45188308       0.35618362 </v>
    <v>       0.48561335       0.36253399       0.53244214 </v>
    <v>       0.48466789       0.47934147       0.59458006 </v>
    <v>       0.43191862       0.60129527       0.50067532 </v>
    <v>       0.48042707       0.54595412       0.39459765 </v>
    <v>       0.52035015       0.42600222       0.40943524 </v>
    <v>       0.59512982       0.33181482       0.48172502 </v>
    <v>       0.46691136       0.59864448       0.62918155 </v>
    <v>       0.59380765       0.40812640       0.58538402 </v>
    <v>       0.62569980       0.37189351       0.36651260 </v>
    <v>       0.48194551       0.70276923       0.56030367 </v>
    <v>       0.58286318       0.49570021       0.67824688 </v>
    <v>       0.51146641       0.66769061       0.43043025 </v>
    <v>       0.63017260       0.45509670       0.46146156 </v>
    <v>       0.60203404       0.53348581       0.55799774 </v>
    <v>       0.59599086       0.57264458       0.43882537 </v>
    <v>       0.58724384       0.62038349       0.65519944 </v>
    <v>       0.59757634       0.66024026       0.52835189 </v>
    <v>       0.58381983       0.74099272       0.62404640 </v>
   </varray>
  </structure>
  <varray name="forces" >
   <v>      -0.34846580       0.09357853       0.33490374 </v>
   <v>      -0.39164411      -0.30124415      -0.23418520 </v>
   <v>      -0.58741201       0.05437727       0.00375153 </v>
   <v>      -0.38250000      -0.06745854      -0.09777742 </v>
   <v>      -0.10047666      -0.11638102      -0.22225958 </v>
   <v>       0.17748526      -0.38352309       0.31191759 </v>
   <v>      -0.34235765      -0.16501082       0.09514087 </v>
   <v>       0.06391538       0.49723291      -0.23090210 </v>
   <v>       0.11241869      -0.38468309       0.11334805 </v>
   <v>       0.15665954      -0.34284011      -0.22775765 </v>
   <v>      -0.03078424       0.07025056       0.25726773 </v>
   <v>       0.33946181      -0.20786808       0.05677763 </v>
   <v>       0.29475926      -0.19089721      -0.40549232 </v>
   <v>      -0.17920734       0.46401539      -0.04196479 </v>
   <v>      -0.14485539      -0.00922664       0.30671786 </v>
   <v>      -0.01643227       0.46478144      -0.39336603 </v>
   <v>       0.46496547      -0.10541482       0.30752517 </v>
   <v>       0.21685918       0.22518581       0.26706852 </v>
   <v>       0.13493811      -0.12250976      -0.39725631 </v>
   <v>       0.30116748      -0.11398285      -0.09698408 </v>
   <v>       0.25114075      -0.09763888       0.15779871 </v>
   <v>       0.01036454       0.73925714       0.13572810 </v>
  </varray>
  <varray name="stress" >
   <v>       0.38369077       0.10439623       0.17913367 </v>
   <v>       0.10439623       0.22791225       0.25179389 </v>
   <v>       0.17913367       0.25179390      -0.02090072 </v>
  </varray>
  <energy>
   <i name="e_fr_energy">    -41.95932518 </i>
   <i name="e_wo_entrp">    -41.95932518 </i>
   <i name="e_0_energy">     -0.00000000 </i>
  </energy>
  <time name="totalsc">   39.71   41.31</time>
 </calculation>
 <calculation>
  <scstep>
   <time name="dav">    2.57    2.57</time>
   <time name="total">    3.00    3.01</time>
   <energy>
    <i name="alphaZ">     42.30299898 </i>
    <i name="ewald">  39330.12043793 </i>
    <i name="hartreedc"> -61163.11977169 </i>
    <i name="XCdc">   -250.20975736 </i>
    <i name="pawpsdc">  23948.50270709 </i>
    <i name="pawaedc"> -22976.30501171 </i>
    <i name="eentropy">      0.00000000 </i>
    <i name="bandstr">  -1791.75778623 </i>
    <i name="atom">  22818.36986190 </i>
    <i name="e_fr_energy">    -42.09632108 </i>
    <i name="e_wo_entrp">    -42.09632108 </i>
    <i name="e_0_energy">    -42.09632108 </i>
   </energy>
  </scstep>
  <scstep>
   <time name="dav">    2.54    2.54</time>
   <time name="total">    2.96    3.00</time>
   <energy>
    <i name="e_fr_energy">    -42.03364924 </i>
    <i name="e_wo_entrp">    -42.03361245 </i>
    <i name="e_0_energy">    -42.03363084 </i>
   </energy>
  </scstep>
  <scstep>
   <time name="dav">    2.54    2.54</time>
   <time name="total">    2.96    3.59</time>
   <energy>
    <i name="e_fr_energy">    -42.08670158 </i>
    <i name="e_wo_entrp">    -42.08670158 </i>
    <i name="e_0_energy">    -42.08670158 </i>
   </energy>
  </scstep>
  <scstep>
   <time name="dav">    2.55    2.55</time>
   <time name="total">    2.98    2.98</time>
   <energy>
    <i name="e_fr_energy">    -42.06276216 </i>
    <i name="e_wo_entrp">    -42.06276216 </i>
    <i name="e_0_energy">    -42.06276216 </i>
   </energy>
  </scstep>
  <scstep>
   <time name="dav">    2.62    2.62</time>
   <time name="total">    3.05    3.05</time>
   <energy>
    <i name="e_fr_energy">    -42.02416791 </i>
    <i name="e_wo_entrp">    -42.02416791 </i>
    <i name="e_0_energy">    -42.02416791 </i>
   </energy>
  </scstep>
  <scstep>
   <time name="dav">    2.62    2.62</time>
   <time name="total">    3.05    3.38</time>
   <energy>
    <i name="e_fr_energy">    -42.02668057 </i>
    <i name="e_wo_entrp">    -42.02668057 </i>
    <i name="e_0_energy">    -42.02668057 </i>
   </energy>
  </scstep>
  <scstep>
   <time name="dav">    2.57    2.57</time>
   <time name="total">    3.00    3.01</time>
   <energy>
    <i name="e_fr_energy">    -42.03276546 </i>
    <i name="e_wo_entrp">    -42.03276546 </i>
    <i name="e_0_energy">    -42.03276546 </i>
   </energy>
  </scstep>
  <scstep>
   <time name="dav">    2.63    2.63</time>
   <time name="total">    3.06    3.08</time>
   <energy>
    <i name="e_fr_energy">    -42.04882125 </i>
    <i name="e_wo_entrp">    -42.04882125 </i>
    <i name="e_0_energy">    -42.04882125 </i>
   </energy>
  </scstep>
  <scstep>
   <time name="dav">    2.66    2.66</time>
   <time name="total">    3.08    3.11</time>
   <energy>
    <i name="e_fr_energy">    -42.06756651 </i>
    <i name="e_wo_entrp">    -42.06756651 </i>
    <i name="e_0_energy">    -42.06756651 </i>
   </energy>
  </scstep>
  <scstep>
   <time name="dav">    2.26    2.26</time>
   <time name="total">    2.68    2.71</time>
   <energy>
    <i name="e_fr_energy">    -42.09405024 </i>
    <i name="e_wo_entrp">    -42.09405024 </i>
    <i name="e_0_energy">    -42.09405024 </i>
   </energy>
  </scstep>
  <scstep>
   <time name="dav">    2.16    2.17</time>
   <time name="total">    2.59    2.62</time>
   <energy>
    <i name="e_fr_energy">    -42.12052112 </i>
    <i name="e_wo_entrp">    -42.12052112 </i>
    <i name="e_0_energy">    -42.12052112 </i>
   </energy>
  </scstep>
  <scstep>
   <time name="dav">    2.09    2.09</time>
   <time name="total">    2.52    2.52</time>
   <energy>
    <i name="e_fr_energy">    -42.14272502 </i>
    <i name="e_wo_entrp">    -42.14272502 </i>
    <i name="e_0_energy">    -42.14272502 </i>
   </energy>
  </scstep>
  <scstep>
   <time name="dav">    2.06    2.06</time>
   <time name="total">    2.48    2.49</time>
   <energy>
    <i name="e_fr_energy">    -42.15621433 </i>
    <i name="e_wo_entrp">    -42.15621433 </i>
    <i name="e_0_energy">    -42.15621433 </i>
   </energy>
  </scstep>
  <scstep>
   <time name="dav">    2.01    2.01</time>
   <time name="total">    2.44    2.50</time>
   <energy>
    <i name="e_fr_energy">    -42.16314808 </i>
    <i name="e_wo_entrp">    -42.16314808 </i>
    <i name="e_0_energy">    -42.16314808 </i>
   </energy>
  </scstep>
  <scstep>
   <time name="dav">    2.01    2.01</time>
   <time name="total">    2.44    2.45</time>
   <energy>
    <i name="e_fr_energy">    -42.16705854 </i>
    <i name="e_wo_entrp">    -42.16705854 </i>
    <i name="e_0_energy">    -42.16705854 </i>
   </energy>
  </scstep>
  <scstep>
   <time name="dav">    2.03    2.03</time>
   <time name="total">    2.47    2.49</time>
   <energy>
    <i name="e_fr_energy">    -42.16865062 </i>
    <i name="e_wo_entrp">    -42.16865062 </i>
    <i name="e_0_energy">    -42.16865062 </i>
   </energy>
  </scstep>
  <scstep>
   <time name="dav">    1.94    1.94</time>
   <time name="total">    2.37    2.39</time>
   <energy>
    <i name="e_fr_energy">    -42.16949601 </i>
    <i name="e_wo_entrp">    -42.16949601 </i>
    <i name="e_0_energy">    -42.16949601 </i>
   </energy>
  </scstep>
  <scstep>
   <time name="dav">    1.99    1.99</time>
   <time name="total">    2.42    2.88</time>
   <energy>
    <i name="e_fr_energy">    -42.16970176 </i>
    <i name="e_wo_entrp">    -42.16970176 </i>
    <i name="e_0_energy">    -42.16970176 </i>
   </energy>
  </scstep>
  <scstep>
   <time name="dav">    1.97    1.97</time>
   <time name="total">    2.27    2.42</time>
   <energy>
    <i name="alphaZ">     42.30299898 </i>
    <i name="ewald">  39330.12043793 </i>
    <i name="hartreedc"> -61165.26948408 </i>
    <i name="XCdc">   -250.19364464 </i>
    <i name="pawpsdc">  23892.32722510 </i>
    <i name="pawaedc"> -22919.20512506 </i>
    <i name="eentropy">      0.00000000 </i>
    <i name="bandstr">  -1790.62205217 </i>
    <i name="atom">  22818.36986190 </i>
    <i name="e_fr_energy">    -42.16978204 </i>
    <i name="e_wo_entrp">    -42.16978204 </i>
    <i name="e_0_energy">    -42.16978204 </i>
   </energy>
  </scstep>
  <structure>
   <crystal>
    <varray name="basis" >
     <v>      21.34991393       0.00000000       0.00000000 </v>
     <v>       0.00000000      21.34991393       0.00000000 </v>
     <v>       0.00000000       0.00000000      21.34991393 </v>
    </varray>
    <i name="volume">   9731.69267602 </i>
    <varray name="rec_basis" >
     <v>       0.04683860       0.00000000       0.00000000 </v>
     <v>       0.00000000       0.04683860       0.00000000 </v>
     <v>       0.00000000       0.00000000       0.04683860 </v>
    </varray>
   </crystal>
   <varray name="positions" >
    <v>       0.37724738       0.40416954       0.58208308 </v>
    <v>       0.36559214       0.53343989       0.58447861 </v>
    <v>       0.42258458       0.46942643       0.48172928 </v>
    <v>       0.40817879       0.45177130       0.35601910 </v>
    <v>       0.48548642       0.36234077       0.53215084 </v>
    <v>       0.48493012       0.47880512       0.59502023 </v>
    <v>       0.43139975       0.60100911       0.50081856 </v>
    <v>       0.48052110       0.54671389       0.39429762 </v>
    <v>       0.52053251       0.42542262       0.40957499 </v>
    <v>       0.59535003       0.33130834       0.48143259 </v>
    <v>       0.46687325       0.59875967       0.62957319 </v>
    <v>       0.59428378       0.40781695       0.58547510 </v>
    <v>       0.62611118       0.37161452       0.36591317 </v>
    <v>       0.48168701       0.70345003       0.56023004 </v>
    <v>       0.58266899       0.49568382       0.67866469 </v>
    <v>       0.51145380       0.66839114       0.42984569 </v>
    <v>       0.63084650       0.45496932       0.46189414 </v>
    <v>       0.60234464       0.53381906       0.55840509 </v>
    <v>       0.59619636       0.57246254       0.43824327 </v>
    <v>       0.58764888       0.62017629       0.65507613 </v>
    <v>       0.59793997       0.66011357       0.52856649 </v>
    <v>       0.58384326       0.74205650       0.62422853 </v>
   </varray>
  </structure>
  <varray name="forces" >
   <v>      -0.27958098       0.06495943       0.29438300 </v>
   <v>      -0.31622791      -0.25822404      -0.17979759 </v>
   <v>      -0.49630188       0.02917896      -0.05117801 </v>
   <v>      -0.29734951      -0.05817555      -0.05033409 </v>
   <v>      -0.11560856      -0.05205934      -0.20788176 </v>
   <v>       0.11874644      -0.32886140       0.24656353 </v>
   <v>      -0.21372949      -0.04617793       0.06063736 </v>
   <v>       0.00741567       0.32946409      -0.22860568 </v>
   <v>       0.03079955      -0.27247325       0.11703895 </v>
   <v>       0.15904257      -0.24795841      -0.23518731 </v>
   <v>      -0.04037110       0.04214310       0.17411859 </v>
   <v>       0.30891635      -0.15782752       0.01406712 </v>
   <v>       0.26739370      -0.15366961      -0.30960760 </v>
   <v>      -0.14077468       0.34025783      -0.05460644 </v>
   <v>      -0.13078000      -0.00922785       0.30456548 </v>
   <v>      -0.02894758       0.32897734      -0.25595047 </v>
   <v>       0.38134566      -0.13095382       0.29002958 </v>
   <v>       0.19943400       0.12800346       0.16857095 </v>
   <v>       0.09013588      -0.07675006      -0.31385337 </v>
   <v>       0.28698613       0.02906492      -0.06475278 </v>
   <v>       0.19290635      -0.05236093       0.12864312 </v>
   <v>       0.01654939       0.55267056       0.15313740 </v>
  </varray>
  <varray name="stress" >
   <v>       0.02934040      -0.00885688      -0.00501476 </v>
   <v>      -0.00885689       0.09496706       0.17512522 </v>
   <v>      -0.00501475       0.17512523      -0.41353448 </v>
  </varray>
  <energy>
   <i name="e_fr_energy">    -42.16978204 </i>
   <i name="e_wo_entrp">    -42.16978204 </i>
   <i name="e_0_energy">      0.00000000 </i>
  </energy>
  <time name="totalsc">   56.23   58.60</time>
 </calculation>
 <calculation>
  <scstep>
   <time name="dav">    2.53    2.53</time>
   <time name="total">    2.96    2.97</time>
   <energy>
    <i name="alphaZ">     42.30299898 </i>
    <i name="ewald">  38822.15932756 </i>
    <i name="hartreedc"> -60660.83865893 </i>
    <i name="XCdc">   -250.91517950 </i>
    <i name="pawpsdc">  23892.34112582 </i>
    <i name="pawaedc"> -22919.21903968 </i>
    <i name="eentropy">      0.00000000 </i>
    <i name="bandstr">  -1786.48725954 </i>
    <i name="atom">  22818.36986190 </i>
    <i name="e_fr_energy">    -42.28682338 </i>
    <i name="e_wo_entrp">    -42.28682338 </i>
    <i name="e_0_energy">    -42.28682338 </i>
   </energy>
  </scstep>
  <scstep>
   <time name="dav">    2.66    2.67</time>
   <time name="total">    3.09    3.10</time>
   <energy>
    <i name="e_fr_energy">    -42.34801038 </i>
    <i name="e_wo_entrp">    -42.34801038 </i>
    <i name="e_0_energy">    -42.34801038 </i>
   </energy>
  </scstep>
  <scstep>
   <time name="dav">    2.71    2.71</time>
   <time name="total">    3.14    3.16</time>
   <energy>
    <i name="e_fr_energy">    -42.34636515 </i>
    <i name="e_wo_entrp">    -42.34636515 </i>
    <i name="e_0_energy">    -42.34636515 </i>
   </energy>
  </scstep>
  <scstep>
   <time name="dav">    2.65    2.65</time>
   <time name="total">    3.07    3.08</time>
   <energy>
    <i name="e_fr_energy">    -42.34392319 </i>
    <i name="e_wo_entrp">    -42.34392319 </i>
    <i name="e_0_energy">    -42.34392319 </i>
   </energy>
  </scstep>
  <scstep>
   <time name="dav">    2.04    2.04</time>
   <time name="total">    2.46    2.48</time>
   <energy>
    <i name="e_fr_energy">    -42.34415132 </i>
    <i name="e_wo_entrp">    -42.34415132 </i>
    <i name="e_0_energy">    -42.34415132 </i>
   </energy>
  </scstep>
  <scstep>
   <time name="dav">    2.04    2.04</time>
   <time name="total">    2.46    2.48</time>
   <energy>
    <i name="e_fr_energy">    -42.34458168 </i>
    <i name="e_wo_entrp">    -42.34458168 </i>
    <i name="e_0_energy">    -42.34458168 </i>
   </energy>
  </scstep>
  <scstep>
   <time name="dav">    2.02    2.02</time>
   <time name="total">    2.44    3.28</time>
   <energy>
    <i name="e_fr_energy">    -42.34506745 </i>
    <i name="e_wo_entrp">    -42.34506745 </i>
    <i name="e_0_energy">    -42.34506745 </i>
   </energy>
  </scstep>
  <scstep>
   <time name="dav">    2.04    2.04</time>
   <time name="total">    2.46    2.48</time>
   <energy>
    <i name="e_fr_energy">    -42.34556963 </i>
    <i name="e_wo_entrp">    -42.34556963 </i>
    <i name="e_0_energy">    -42.34556963 </i>
   </energy>
  </scstep>
  <scstep>
   <time name="dav">    2.04    2.04</time>
   <time name="total">    2.46    2.47</time>
   <energy>
    <i name="e_fr_energy">    -42.34587019 </i>
    <i name="e_wo_entrp">    -42.34587019 </i>
    <i name="e_0_energy">    -42.34587019 </i>
   </energy>
  </scstep>
  <scstep>
   <time name="dav">    1.95    1.95</time>
   <time name="total">    2.38    2.41</time>
   <energy>
    <i name="e_fr_energy">    -42.34618553 </i>
    <i name="e_wo_entrp">    -42.34618553 </i>
    <i name="e_0_energy">    -42.34618553 </i>
   </energy>
  </scstep>
  <scstep>
   <time name="dav">    2.01    2.01</time>
   <time name="total">    2.44    2.44</time>
   <energy>
    <i name="e_fr_energy">    -42.34658039 </i>
    <i name="e_wo_entrp">    -42.34658039 </i>
    <i name="e_0_energy">    -42.34658039 </i>
   </energy>
  </scstep>
  <scstep>
   <time name="dav">    2.02    2.02</time>
   <time name="total">    2.44    2.71</time>
   <energy>
    <i name="e_fr_energy">    -42.34669599 </i>
    <i name="e_wo_entrp">    -42.34669599 </i>
    <i name="e_0_energy">    -42.34669599 </i>
   </energy>
  </scstep>
  <scstep>
   <time name="dav">    1.94    1.94</time>
   <time name="total">    2.25    2.27</time>
   <energy>
    <i name="alphaZ">     42.30299898 </i>
    <i name="ewald">  38822.15932756 </i>
    <i name="hartreedc"> -60666.68045743 </i>
    <i name="XCdc">   -250.78066763 </i>
    <i name="pawpsdc">  23792.47974639 </i>
    <i name="pawaedc"> -22817.68340088 </i>
    <i name="eentropy">      0.00000000 </i>
    <i name="bandstr">  -1782.51418946 </i>
    <i name="atom">  22818.36986190 </i>
    <i name="e_fr_energy">    -42.34678056 </i>
    <i name="e_wo_entrp">    -42.34678056 </i>
    <i name="e_0_energy">    -42.34678056 </i>
   </energy>
  </scstep>
  <structure>
   <crystal>
    <varray name="basis" >
     <v>      21.34991393       0.00000000       0.00000000 </v>
     <v>       0.00000000      21.34991393       0.00000000 </v>
     <v>       0.00000000       0.00000000      21.34991393 </v>
    </varray>
    <i name="volume">   9731.69267602 </i>
    <varray name="rec_basis" >
     <v>       0.04683860       0.00000000       0.00000000 </v>
     <v>       0.00000000       0.04683860       0.00000000 </v>
     <v>       0.00000000       0.00000000       0.04683860 </v>
    </varray>
   </crystal>
   <varray name="positions" >
    <v>       0.37622055       0.40444189       0.58300648 </v>
    <v>       0.36443661       0.53259447       0.58379980 </v>
    <v>       0.42092609       0.46961633       0.48178665 </v>
    <v>       0.40706120       0.45154774       0.35569005 </v>
    <v>       0.48523256       0.36195432       0.53156823 </v>
    <v>       0.48545460       0.47773241       0.59590056 </v>
    <v>       0.43036199       0.60043680       0.50110503 </v>
    <v>       0.48070917       0.54823342       0.39369755 </v>
    <v>       0.52089722       0.42426342       0.40985449 </v>
    <v>       0.59579044       0.33029539       0.48084773 </v>
    <v>       0.46679704       0.59899004       0.63035647 </v>
    <v>       0.59523604       0.40719805       0.58565726 </v>
    <v>       0.62693393       0.37105655       0.36471430 </v>
    <v>       0.48117002       0.70481165       0.56008278 </v>
    <v>       0.58228061       0.49565102       0.67950031 </v>
    <v>       0.51142858       0.66979220       0.42867658 </v>
    <v>       0.63219429       0.45471457       0.46275931 </v>
    <v>       0.60296583       0.53448555       0.55921979 </v>
    <v>       0.59660737       0.57209845       0.43707908 </v>
    <v>       0.58845896       0.61976191       0.65482951 </v>
    <v>       0.59866723       0.65986019       0.52899568 </v>
    <v>       0.58389011       0.74418407       0.62459279 </v>
   </varray>
  </structure>
  <varray name="forces" >
   <v>      -0.14636778       0.00970695       0.23517388 </v>
   <v>      -0.19950981      -0.17818966      -0.08367483 </v>
   <v>      -0.32333151      -0.01265157      -0.12564664 </v>
   <v>      -0.06591179       0.07116144       0.09176502 </v>
   <v>      -0.09977319       0.01633212      -0.18650092 </v>
   <v>       0.00417917      -0.24086455       0.16473576 </v>
   <v>      -0.03448306       0.12200423       0.01021629 </v>
   <v>      -0.10132008       0.02266779      -0.17531691 </v>
   <v>      -0.05642013      -0.07660323       0.14144066 </v>
   <v>       0.10718621      -0.14943084      -0.24545718 </v>
   <v>      -0.05770894      -0.01962480       0.01803177 </v>
   <v>       0.22889770      -0.09313797      -0.01975616 </v>
   <v>       0.20847813      -0.06649136      -0.13473357 </v>
   <v>      -0.03561227       0.17477386      -0.03550686 </v>
   <v>      -0.10971366      -0.04692667       0.24240500 </v>
   <v>      -0.02750357       0.15695062      -0.06268701 </v>
   <v>       0.24487522      -0.17406589       0.19233151 </v>
   <v>       0.17079146      -0.01719617       0.01980016 </v>
   <v>       0.06659845      -0.04355285      -0.13495321 </v>
   <v>       0.24997525       0.20817784      -0.06000617 </v>
   <v>       0.03593559       0.00330850       0.10538162 </v>
   <v>      -0.05926140       0.33365221       0.04295778 </v>
  </varray>
  <varray name="stress" >
   <v>      -0.45716384      -0.03415744      -0.04595888 </v>
   <v>      -0.03415744      -0.41151555       0.10459252 </v>
   <v>      -0.04595888       0.10459251      -0.86084752 </v>
  </varray>
  <energy>
   <i name="e_fr_energy">    -42.34678056 </i>
   <i name="e_wo_entrp">    -42.34678056 </i>
   <i name="e_0_energy">      0.00000000 </i>
  </energy>
  <time name="totalsc">   38.47   39.81</time>
 </calculation>
 <calculation>
  <scstep>
   <time name="dav">    2.53    2.53</time>
   <time name="total">    2.95    2.97</time>
   <energy>
    <i name="alphaZ">     42.30299898 </i>
    <i name="ewald">  37828.05848002 </i>
    <i name="hartreedc"> -59678.71210235 </i>
    <i name="XCdc">   -252.08804929 </i>
    <i name="pawpsdc">  23792.49265078 </i>
    <i name="pawaedc"> -22817.69639279 </i>
    <i name="eentropy">      0.00000000 </i>
    <i name="bandstr">  -1774.87457244 </i>
    <i name="atom">  22818.36986190 </i>
    <i name="e_fr_energy">    -42.14712519 </i>
    <i name="e_wo_entrp">    -42.14712519 </i>
    <i name="e_0_energy">    -42.14712519 </i>
   </energy>
  </scstep>
  <scstep>
   <time name="dav">    2.63    2.63</time>
   <time name="total">    3.06    3.06</time>
   <energy>
    <i name="e_fr_energy">    -42.40001799 </i>
    <i name="e_wo_entrp">    -42.40001799 </i>
    <i name="e_0_energy">    -42.40001799 </i>
   </energy>
  </scstep>
  <scstep>
   <time name="dav">    2.70    2.70</time>
   <time name="total">    3.12    3.14</time>
   <energy>
    <i name="e_fr_energy">    -42.39858092 </i>
    <i name="e_wo_entrp">    -42.39858092 </i>
    <i name="e_0_energy">    -42.39858092 </i>
   </energy>
  </scstep>
  <scstep>
   <time name="dav">    2.66    2.66</time>
   <time name="total">    3.09    3.11</time>
   <energy>
    <i name="e_fr_energy">    -42.39027486 </i>
    <i name="e_wo_entrp">    -42.39027486 </i>
    <i name="e_0_energy">    -42.39027486 </i>
   </energy>
  </scstep>
  <scstep>
   <time name="dav">    2.73    2.73</time>
   <time name="total">    3.15    3.22</time>
   <energy>
    <i name="e_fr_energy">    -42.38949588 </i>
    <i name="e_wo_entrp">    -42.38949588 </i>
    <i name="e_0_energy">    -42.38949588 </i>
   </energy>
  </scstep>
  <scstep>
   <time name="dav">    2.51    2.51</time>
   <time name="total">    2.94    2.96</time>
   <energy>
    <i name="e_fr_energy">    -42.38998192 </i>
    <i name="e_wo_entrp">    -42.38998192 </i>
    <i name="e_0_energy">    -42.38998192 </i>
   </energy>
  </scstep>
  <scstep>
   <time name="dav">    1.99    1.99</time>
   <time name="total">    2.41    2.43</time>
   <energy>
    <i name="e_fr_energy">    -42.39076090 </i>
    <i name="e_wo_entrp">    -42.39076090 </i>
    <i name="e_0_energy">    -42.39076090 </i>
   </energy>
  </scstep>
  <scstep>
   <time name="dav">    2.00    2.00</time>
   <time name="total">    2.42    2.45</time>
   <energy>
    <i name="e_fr_energy">    -42.39168043 </i>
    <i name="e_wo_entrp">    -42.39168043 </i>
    <i name="e_0_energy">    -42.39168043 </i>
   </energy>
  </scstep>
  <scstep>
   <time name="dav">    2.04    2.04</time>
   <time name="total">    2.46    2.47</time>
   <energy>
    <i name="e_fr_energy">    -42.39248121 </i>
    <i name="e_wo_entrp">    -42.39248121 </i>
    <i name="e_0_energy">    -42.39248121 </i>
   </energy>
  </scstep>
  <scstep>
   <time name="dav">    2.02    2.01</time>
   <time name="total">    2.44    2.50</time>
   <energy>
    <i name="e_fr_energy">    -42.39347252 </i>
    <i name="e_wo_entrp">    -42.39347252 </i>
    <i name="e_0_energy">    -42.39347252 </i>
   </energy>
  </scstep>
  <scstep>
   <time name="dav">    2.06    2.06</time>
   <time name="total">    2.49    2.49</time>
   <energy>
    <i name="e_fr_energy">    -42.39448543 </i>
    <i name="e_wo_entrp">    -42.39448543 </i>
    <i name="e_0_energy">    -42.39448543 </i>
   </energy>
  </scstep>
  <scstep>
   <time name="dav">    2.02    2.02</time>
   <time name="total">    2.44    2.44</time>
   <energy>
    <i name="e_fr_energy">    -42.39503507 </i>
    <i name="e_wo_entrp">    -42.39503507 </i>
    <i name="e_0_energy">    -42.39503507 </i>
   </energy>
  </scstep>
  <scstep>
   <time name="dav">    2.02    2.01</time>
   <time name="total">    2.44    2.44</time>
   <energy>
    <i name="e_fr_energy">    -42.39537892 </i>
    <i name="e_wo_entrp">    -42.39537892 </i>
    <i name="e_0_energy">    -42.39537892 </i>
   </energy>
  </scstep>
  <scstep>
   <time name="dav">    1.98    1.98</time>
   <time name="total">    2.41    2.44</time>
   <energy>
    <i name="e_fr_energy">    -42.39575702 </i>
    <i name="e_wo_entrp">    -42.39575702 </i>
    <i name="e_0_energy">    -42.39575702 </i>
   </energy>
  </scstep>
  <scstep>
   <time name="dav">    1.96    1.97</time>
   <time name="total">    2.39    2.40</time>
   <energy>
    <i name="e_fr_energy">    -42.39593441 </i>
    <i name="e_wo_entrp">    -42.39593441 </i>
    <i name="e_0_energy">    -42.39593441 </i>
   </energy>
  </scstep>
  <scstep>
   <time name="dav">    1.98    1.98</time>
   <time name="total">    2.41    2.41</time>
   <energy>
    <i name="e_fr_energy">    -42.39607546 </i>
    <i name="e_wo_entrp">    -42.39607546 </i>
    <i name="e_0_energy">    -42.39607546 </i>
   </energy>
  </scstep>
  <scstep>
   <time name="dav">    1.96    1.96</time>
   <time name="total">    2.38    2.39</time>
   <energy>
    <i name="e_fr_energy">    -42.39617861 </i>
    <i name="e_wo_entrp">    -42.39617861 </i>
    <i name="e_0_energy">    -42.39617861 </i>
   </energy>
  </scstep>
  <scstep>
   <time name="dav">    2.00    1.99</time>
   <time name="total">    2.30    2.30</time>
   <energy>
    <i name="alphaZ">     42.30299898 </i>
    <i name="ewald">  37828.05848002 </i>
    <i name="hartreedc"> -59689.51106504 </i>
    <i name="XCdc">   -251.82813314 </i>
    <i name="pawpsdc">  23626.86926498 </i>
    <i name="pawaedc"> -22649.12591428 </i>
    <i name="eentropy">      0.00000000 </i>
    <i name="bandstr">  -1767.53172562 </i>
    <i name="atom">  22818.36986190 </i>
    <i name="e_fr_energy">    -42.39623219 </i>
    <i name="e_wo_entrp">    -42.39623219 </i>
    <i name="e_0_energy">    -42.39623219 </i>
   </energy>
  </scstep>
  <structure>
   <crystal>
    <varray name="basis" >
     <v>      21.34991393       0.00000000       0.00000000 </v>
     <v>       0.00000000      21.34991393       0.00000000 </v>
     <v>       0.00000000       0.00000000      21.34991393 </v>
    </varray>
    <i name="volume">   9731.69267602 </i>
    <varray name="rec_basis" >
     <v>       0.04683860       0.00000000       0.00000000 </v>
     <v>       0.00000000       0.04683860       0.00000000 </v>
     <v>       0.00000000       0.00000000       0.04683860 </v>
    </varray>
   </crystal>
   <varray name="positions" >
    <v>       0.37416689       0.40498660       0.58485327 </v>
    <v>       0.36212555       0.53090363       0.58244218 </v>
    <v>       0.41760910       0.46999612       0.48190138 </v>
    <v>       0.40482604       0.45110062       0.35503196 </v>
    <v>       0.48472485       0.36118143       0.53040301 </v>
    <v>       0.48650354       0.47558699       0.59766123 </v>
    <v>       0.42828647       0.59929218       0.50167798 </v>
    <v>       0.48108531       0.55127248       0.39249742 </v>
    <v>       0.52162663       0.42194501       0.41041350 </v>
    <v>       0.59667126       0.32826948       0.47967801 </v>
    <v>       0.46664463       0.59945078       0.63192303 </v>
    <v>       0.59714055       0.40596024       0.58602158 </v>
    <v>       0.62857945       0.36994060       0.36231655 </v>
    <v>       0.48013602       0.70753489       0.55978825 </v>
    <v>       0.58150385       0.49558544       0.68117155 </v>
    <v>       0.51137813       0.67259433       0.42633837 </v>
    <v>       0.63488987       0.45420507       0.46448965 </v>
    <v>       0.60420821       0.53581853       0.56084918 </v>
    <v>       0.59742937       0.57137026       0.43475070 </v>
    <v>       0.59007912       0.61893313       0.65433626 </v>
    <v>       0.60012176       0.65935342       0.52985406 </v>
    <v>       0.58398381       0.74843920       0.62532131 </v>
   </varray>
  </structure>
  <varray name="forces" >
   <v>       0.04296783      -0.11143344       0.13581793 </v>
   <v>      -0.08747624      -0.00915244       0.11247508 </v>
   <v>       0.01654766      -0.12210227      -0.25766901 </v>
   <v>       0.29011228       0.26544323       0.31244581 </v>
   <v>      -0.06294701       0.12850793      -0.15703117 </v>
   <v>      -0.18936840      -0.11533857       0.01286255 </v>
   <v>       0.24096103       0.40409840      -0.06188525 </v>
   <v>      -0.29468714      -0.40647580      -0.08388293 </v>
   <v>      -0.15672689       0.14639930       0.17510692 </v>
   <v>       0.01786715       0.02265155      -0.24222432 </v>
   <v>      -0.06396550      -0.10999523      -0.23015459 </v>
   <v>       0.10176889       0.02106293      -0.07777861 </v>
   <v>       0.08633177       0.06979527       0.10619860 </v>
   <v>       0.15854320      -0.06701795       0.01213436 </v>
   <v>      -0.05935261      -0.10485057       0.14157781 </v>
   <v>      -0.00428540      -0.06630547       0.22354207 </v>
   <v>      -0.00447656      -0.20973438       0.04192416 </v>
   <v>       0.12690999      -0.34261447      -0.26393143 </v>
   <v>       0.04132693      -0.00503729       0.14156927 </v>
   <v>       0.18545127       0.50055005       0.03424271 </v>
   <v>      -0.19392755       0.13852307       0.05577080 </v>
   <v>      -0.19157469      -0.02697384      -0.13111077 </v>
  </varray>
  <varray name="stress" >
   <v>      -1.25210878      -0.07020328      -0.11616840 </v>
   <v>      -0.07020328      -1.18254118      -0.00852764 </v>
   <v>      -0.11616840      -0.00852763      -1.56944591 </v>
  </varray>
  <energy>
   <i name="e_fr_energy">    -42.39623219 </i>
   <i name="e_wo_entrp">    -42.39623219 </i>
   <i name="e_0_energy">      0.00000000 </i>
  </energy>
  <time name="totalsc">   51.72   52.10</time>
 </calculation>
 <calculation>
  <scstep>
   <time name="dav">    2.53    2.53</time>
   <time name="total">    2.96    2.97</time>
   <energy>
    <i name="alphaZ">     42.30299898 </i>
    <i name="ewald">  38162.57859323 </i>
    <i name="hartreedc"> -60022.38573194 </i>
    <i name="XCdc">   -251.39306869 </i>
    <i name="pawpsdc">  23626.88088381 </i>
    <i name="pawaedc"> -22649.13751223 </i>
    <i name="eentropy">      0.00000000 </i>
    <i name="bandstr">  -1769.60638544 </i>
    <i name="atom">  22818.36986190 </i>
    <i name="e_fr_energy">    -42.39036037 </i>
    <i name="e_wo_entrp">    -42.39036037 </i>
    <i name="e_0_energy">    -42.39036037 </i>
   </energy>
  </scstep>
  <scstep>
   <time name="dav">    2.63    2.63</time>
   <time name="total">    3.04    4.82</time>
   <energy>
    <i name="e_fr_energy">    -42.42040648 </i>
    <i name="e_wo_entrp">    -42.42040648 </i>
    <i name="e_0_energy">    -42.42040648 </i>
   </energy>
  </scstep>
  <scstep>
   <time name="dav">    2.64    2.64</time>
   <time name="total">    3.06    3.18</time>
   <energy>
    <i name="e_fr_energy">    -42.41995454 </i>
    <i name="e_wo_entrp">    -42.41995454 </i>
    <i name="e_0_energy">    -42.41995454 </i>
   </energy>
  </scstep>
  <scstep>
   <time name="dav">    2.68    2.68</time>
   <time name="total">    3.11    3.12</time>
   <energy>
    <i name="e_fr_energy">    -42.41976541 </i>
    <i name="e_wo_entrp">    -42.41976541 </i>
    <i name="e_0_energy">    -42.41976541 </i>
   </energy>
  </scstep>
  <scstep>
   <time name="dav">    1.92    1.92</time>
   <time name="total">    2.22    2.22</time>
   <energy>
    <i name="alphaZ">     42.30299898 </i>
    <i name="ewald">  38162.57859323 </i>
    <i name="hartreedc"> -60018.94363816 </i>
    <i name="XCdc">   -251.49117432 </i>
    <i name="pawpsdc">  23679.60948201 </i>
    <i name="pawaedc"> -22702.81447461 </i>
    <i name="eentropy">      0.00000000 </i>
    <i name="bandstr">  -1772.03139668 </i>
    <i name="atom">  22818.36986190 </i>
    <i name="e_fr_energy">    -42.41974764 </i>
    <i name="e_wo_entrp">    -42.41974764 </i>
    <i name="e_0_energy">    -42.41974764 </i>
   </energy>
  </scstep>
  <structure>
   <crystal>
    <varray name="basis" >
     <v>      21.34991393       0.00000000       0.00000000 </v>
     <v>       0.00000000      21.34991393       0.00000000 </v>
     <v>       0.00000000       0.00000000      21.34991393 </v>
    </varray>
    <i name="volume">   9731.69267602 </i>
    <varray name="rec_basis" >
     <v>       0.04683860       0.00000000       0.00000000 </v>
     <v>       0.00000000       0.04683860       0.00000000 </v>
     <v>       0.00000000       0.00000000       0.04683860 </v>
    </varray>
   </crystal>
   <varray name="positions" >
    <v>       0.37486463       0.40480154       0.58422582 </v>
    <v>       0.36291074       0.53147810       0.58290344 </v>
    <v>       0.41873606       0.46986709       0.48186240 </v>
    <v>       0.40558544       0.45125253       0.35525554 </v>
    <v>       0.48489735       0.36144402       0.53079889 </v>
    <v>       0.48614716       0.47631590       0.59706304 </v>
    <v>       0.42899163       0.59968106       0.50148332 </v>
    <v>       0.48095752       0.55023996       0.39290516 </v>
    <v>       0.52137881       0.42273270       0.41022358 </v>
    <v>       0.59637200       0.32895778       0.48007542 </v>
    <v>       0.46669641       0.59929424       0.63139079 </v>
    <v>       0.59649348       0.40638078       0.58589780 </v>
    <v>       0.62802038       0.37031974       0.36313119 </v>
    <v>       0.48048732       0.70660967       0.55988832 </v>
    <v>       0.58176776       0.49560772       0.68060374 </v>
    <v>       0.51139527       0.67164230       0.42713278 </v>
    <v>       0.63397404       0.45437817       0.46390176 </v>
    <v>       0.60378611       0.53536565       0.56029559 </v>
    <v>       0.59715010       0.57161766       0.43554177 </v>
    <v>       0.58952866       0.61921471       0.65450384 </v>
    <v>       0.59962758       0.65952560       0.52956242 </v>
    <v>       0.58395197       0.74699351       0.62507379 </v>
   </varray>
  </structure>
  <varray name="forces" >
   <v>      -0.01300763      -0.06652313       0.17196415 </v>
   <v>      -0.10966250      -0.06881755       0.04556567 </v>
   <v>      -0.09402128      -0.08486905      -0.21168788 </v>
   <v>       0.19351045       0.21860486       0.25128827 </v>
   <v>      -0.07516287       0.09310436      -0.16982343 </v>
   <v>      -0.12694058      -0.15341672       0.06588801 </v>
   <v>       0.15737813       0.31638511      -0.03905238 </v>
   <v>      -0.22898218      -0.29255251      -0.11582485 </v>
   <v>      -0.12633186       0.09692868       0.16861909 </v>
   <v>       0.04104077      -0.02897769      -0.24907982 </v>
   <v>      -0.06425652      -0.08627035      -0.15704785 </v>
   <v>       0.13898767      -0.01343512      -0.05856384 </v>
   <v>       0.12548780       0.03286855       0.03735673 </v>
   <v>       0.09963005      -0.00092398       0.00455969 </v>
   <v>      -0.07870324      -0.08779353       0.16889969 </v>
   <v>      -0.01258760      -0.01791955       0.13470764 </v>
   <v>       0.07150835      -0.20172061       0.08153014 </v>
   <v>       0.13491755      -0.22156022      -0.16782879 </v>
   <v>       0.04786078      -0.01634682       0.06351690 </v>
   <v>       0.20977335       0.40247761      -0.01794938 </v>
   <v>      -0.13328799       0.08300452       0.07448146 </v>
   <v>      -0.15715063       0.09775313      -0.08151923 </v>
  </varray>
  <varray name="stress" >
   <v>      -1.00830333      -0.06541902      -0.10435558 </v>
   <v>      -0.06541902      -0.94479641       0.01976019 </v>
   <v>      -0.10435558       0.01976020      -1.35688314 </v>
  </varray>
  <energy>
   <i name="e_fr_energy">    -42.41974764 </i>
   <i name="e_wo_entrp">    -42.41974764 </i>
   <i name="e_0_energy">      0.00000000 </i>
  </energy>
  <time name="totalsc">   18.80   20.77</time>
 </calculation>
 <calculation>
  <scstep>
   <time name="dav">    2.53    2.53</time>
   <time name="total">    2.95    2.98</time>
   <energy>
    <i name="alphaZ">     42.30299898 </i>
    <i name="ewald">  38053.24132162 </i>
    <i name="hartreedc"> -59910.44479474 </i>
    <i name="XCdc">   -251.62477202 </i>
    <i name="pawpsdc">  23678.94216375 </i>
    <i name="pawaedc"> -22702.14191999 </i>
    <i name="eentropy">      0.00000000 </i>
    <i name="bandstr">  -1771.10277600 </i>
    <i name="atom">  22818.36986190 </i>
    <i name="e_fr_energy">    -42.45791650 </i>
    <i name="e_wo_entrp">    -42.45791650 </i>
    <i name="e_0_energy">    -42.45791650 </i>
   </energy>
  </scstep>
  <scstep>
   <time name="dav">    2.61    2.61</time>
   <time name="total">    3.04    3.04</time>
   <energy>
    <i name="e_fr_energy">    -42.46759031 </i>
    <i name="e_wo_entrp">    -42.46759031 </i>
    <i name="e_0_energy">    -42.46759031 </i>
   </energy>
  </scstep>
  <scstep>
   <time name="dav">    2.67    2.67</time>
   <time name="total">    3.10    3.18</time>
   <energy>
    <i name="e_fr_energy">    -42.46744837 </i>
    <i name="e_wo_entrp">    -42.46744837 </i>
    <i name="e_0_energy">    -42.46744837 </i>
   </energy>
  </scstep>
  <scstep>
   <time name="dav">    2.58    2.59</time>
   <time name="total">    3.01    3.02</time>
   <energy>
    <i name="e_fr_energy">    -42.46730043 </i>
    <i name="e_wo_entrp">    -42.46730043 </i>
    <i name="e_0_energy">    -42.46730043 </i>
   </energy>
  </scstep>
  <scstep>
   <time name="dav">    1.87    1.87</time>
   <time name="total">    2.17    2.19</time>
   <energy>
    <i name="alphaZ">     42.30299898 </i>
    <i name="ewald">  38053.24132162 </i>
    <i name="hartreedc"> -59911.32718865 </i>
    <i name="XCdc">   -251.60131733 </i>
    <i name="pawpsdc">  23659.46646034 </i>
    <i name="pawaedc"> -22682.34715064 </i>
    <i name="eentropy">      0.00000000 </i>
    <i name="bandstr">  -1770.57229372 </i>
    <i name="atom">  22818.36986190 </i>
    <i name="e_fr_energy">    -42.46730749 </i>
    <i name="e_wo_entrp">    -42.46730749 </i>
    <i name="e_0_energy">    -42.46730749 </i>
   </energy>
  </scstep>
  <structure>
   <crystal>
    <varray name="basis" >
     <v>      21.34991393       0.00000000       0.00000000 </v>
     <v>       0.00000000      21.34991393       0.00000000 </v>
     <v>       0.00000000       0.00000000      21.34991393 </v>
    </varray>
    <i name="volume">   9731.69267602 </i>
    <varray name="rec_basis" >
     <v>       0.04683860       0.00000000       0.00000000 </v>
     <v>       0.00000000       0.04683860       0.00000000 </v>
     <v>       0.00000000       0.00000000       0.04683860 </v>
    </varray>
   </crystal>
   <varray name="positions" >
    <v>       0.37464674       0.40472068       0.58473933 </v>
    <v>       0.36247725       0.53118356       0.58286672 </v>
    <v>       0.41823946       0.46973445       0.48145367 </v>
    <v>       0.40575979       0.45164387       0.35569191 </v>
    <v>       0.48470092       0.36155621       0.53035338 </v>
    <v>       0.48599376       0.47581120       0.59735831 </v>
    <v>       0.42910932       0.60020091       0.50145953 </v>
    <v>       0.48053898       0.54994456       0.39256339 </v>
    <v>       0.52119672       0.42270788       0.41060999 </v>
    <v>       0.59653572       0.32871084       0.47947245 </v>
    <v>       0.46655483       0.59916639       0.63122615 </v>
    <v>       0.59694705       0.40623837       0.58581584 </v>
    <v>       0.62842297       0.37028048       0.36298091 </v>
    <v>       0.48058801       0.70686259       0.55986980 </v>
    <v>       0.58153914       0.49542762       0.68109476 </v>
    <v>       0.51136561       0.67186892       0.42718097 </v>
    <v>       0.63436790       0.45393080       0.46422518 </v>
    <v>       0.60416967       0.53505132       0.56011547 </v>
    <v>       0.59732183       0.57151715       0.43544981 </v>
    <v>       0.59009589       0.61993469       0.65442213 </v>
    <v>       0.59949954       0.65964266       0.52979031 </v>
    <v>       0.58364934       0.74758527       0.62498041 </v>
   </varray>
  </structure>
  <varray name="forces" >
   <v>       0.00575194      -0.06364366       0.13720783 </v>
   <v>      -0.06161323      -0.03370423       0.00329239 </v>
   <v>      -0.09109599      -0.06071489      -0.08873345 </v>
   <v>       0.13897751       0.16802633       0.16632620 </v>
   <v>      -0.04540305       0.09004232      -0.16597479 </v>
   <v>      -0.11150830      -0.13391690       0.05574866 </v>
   <v>       0.12238599       0.24315501      -0.01718268 </v>
   <v>      -0.15203030      -0.19005999      -0.06183569 </v>
   <v>      -0.05277088       0.07667565       0.16075733 </v>
   <v>       0.01046141      -0.02549048      -0.20134390 </v>
   <v>      -0.01175184      -0.09323281      -0.15928493 </v>
   <v>       0.10228789      -0.01469197      -0.05821589 </v>
   <v>       0.09253616       0.05558395       0.03524354 </v>
   <v>       0.08196022      -0.00200074       0.00981310 </v>
   <v>      -0.07937794      -0.01537477       0.09109350 </v>
   <v>      -0.00228923      -0.05537929       0.12375961 </v>
   <v>       0.05297530      -0.17341183       0.04583272 </v>
   <v>       0.10243068      -0.17149033      -0.08162488 </v>
   <v>       0.00079835      -0.03227512       0.06724871 </v>
   <v>       0.17215687       0.28097394      -0.03457534 </v>
   <v>      -0.12923720       0.04882937       0.05640973 </v>
   <v>      -0.14564437       0.10210041      -0.08396177 </v>
  </varray>
  <varray name="stress" >
   <v>      -1.11976063      -0.05423876      -0.09031401 </v>
   <v>      -0.05423876      -1.06623952       0.01634654 </v>
   <v>      -0.09031402       0.01634652      -1.41438477 </v>
  </varray>
  <energy>
   <i name="e_fr_energy">    -42.46730749 </i>
   <i name="e_wo_entrp">    -42.46730749 </i>
   <i name="e_0_energy">      0.00000000 </i>
  </energy>
  <time name="totalsc">   18.68   18.88</time>
 </calculation>
 <calculation>
  <scstep>
   <time name="dav">    2.54    2.53</time>
   <time name="total">    2.96    2.97</time>
   <energy>
    <i name="alphaZ">     42.30299898 </i>
    <i name="ewald">  37746.00737992 </i>
    <i name="hartreedc"> -59605.96253989 </i>
    <i name="XCdc">   -251.94491475 </i>
    <i name="pawpsdc">  23659.71508188 </i>
    <i name="pawaedc"> -22682.59754766 </i>
    <i name="eentropy">      0.00000000 </i>
    <i name="bandstr">  -1768.33682583 </i>
    <i name="atom">  22818.36986190 </i>
    <i name="e_fr_energy">    -42.44650544 </i>
    <i name="e_wo_entrp">    -42.44650544 </i>
    <i name="e_0_energy">    -42.44650544 </i>
   </energy>
  </scstep>
  <scstep>
   <time name="dav">    2.60    2.60</time>
   <time name="total">    3.03    3.03</time>
   <energy>
    <i name="e_fr_energy">    -42.52510129 </i>
    <i name="e_wo_entrp">    -42.52510129 </i>
    <i name="e_0_energy">    -42.52510129 </i>
   </energy>
  </scstep>
  <scstep>
   <time name="dav">    2.65    2.65</time>
   <time name="total">    3.07    3.09</time>
   <energy>
    <i name="e_fr_energy">    -42.52427960 </i>
    <i name="e_wo_entrp">    -42.52427960 </i>
    <i name="e_0_energy">    -42.52427960 </i>
   </energy>
  </scstep>
  <scstep>
   <time name="dav">    2.63    2.63</time>
   <time name="total">    3.05    3.07</time>
   <energy>
    <i name="e_fr_energy">    -42.52285818 </i>
    <i name="e_wo_entrp">    -42.52285818 </i>
    <i name="e_0_energy">    -42.52285818 </i>
   </energy>
  </scstep>
  <scstep>
   <time name="dav">    2.10    2.11</time>
   <time name="total">    2.40    2.43</time>
   <energy>
    <i name="alphaZ">     42.30299898 </i>
    <i name="ewald">  37746.00737992 </i>
    <i name="hartreedc"> -59608.53011012 </i>
    <i name="XCdc">   -251.88015078 </i>
    <i name="pawpsdc">  23616.02824486 </i>
    <i name="pawaedc"> -22638.11461023 </i>
    <i name="eentropy">      0.00000000 </i>
    <i name="bandstr">  -1766.70654268 </i>
    <i name="atom">  22818.36986190 </i>
    <i name="e_fr_energy">    -42.52292814 </i>
    <i name="e_wo_entrp">    -42.52292814 </i>
    <i name="e_0_energy">    -42.52292814 </i>
   </energy>
  </scstep>
  <structure>
   <crystal>
    <varray name="basis" >
     <v>      21.34991393       0.00000000       0.00000000 </v>
     <v>       0.00000000      21.34991393       0.00000000 </v>
     <v>       0.00000000       0.00000000      21.34991393 </v>
    </varray>
    <i name="volume">   9731.69267602 </i>
    <varray name="rec_basis" >
     <v>       0.04683860       0.00000000       0.00000000 </v>
[...]
       <r>    -1.0198     0.0000   134.0000 </r>
       <r>    -0.9823     0.0000   134.0000 </r>
       <r>    -0.9448    26.5733   134.9969 </r>
       <r>    -0.9073     0.0000   135.0000 </r>
       <r>    -0.8698     0.0000   135.0000 </r>
       <r>    -0.8323     0.0000   136.0000 </r>
       <r>    -0.7947     0.0000   136.0000 </r>
       <r>    -0.7572     0.0000   136.0000 </r>
       <r>    -0.7197     0.0000   137.0000 </r>
       <r>    -0.6822     0.0000   137.0000 </r>
       <r>    -0.6447     0.0000   137.0000 </r>
       <r>    -0.6072     0.0000   138.0000 </r>
       <r>    -0.5697     0.0000   138.0000 </r>
       <r>    -0.5321     0.0000   138.0000 </r>
       <r>    -0.4946     0.0000   139.0000 </r>
       <r>    -0.4571     0.0000   139.0000 </r>
       <r>    -0.4196     0.0000   139.0000 </r>
       <r>    -0.3821     0.0000   139.0000 </r>
       <r>    -0.3446     0.0000   140.0000 </r>
       <r>    -0.3071     0.0000   140.0000 </r>
       <r>    -0.2695     0.0000   141.0000 </r>
       <r>    -0.2320     0.0467   141.0018 </r>
       <r>    -0.1945     0.0000   143.0000 </r>
       <r>    -0.1570     0.0000   143.0000 </r>
       <r>    -0.1195     0.0000   143.0000 </r>
       <r>    -0.0820     0.0000   144.0000 </r>
       <r>    -0.0444     0.0000   144.0000 </r>
       <r>    -0.0069     0.0000   144.0000 </r>
       <r>     0.0306     0.0000   144.0000 </r>
       <r>     0.0681     0.0000   144.0000 </r>
       <r>     0.1056     0.0000   145.0000 </r>
       <r>     0.1431     0.0000   145.0000 </r>
       <r>     0.1806     0.0000   145.0000 </r>
       <r>     0.2182     0.0000   145.0000 </r>
       <r>     0.2557     0.0000   145.0000 </r>
       <r>     0.2932     0.0000   145.0000 </r>
       <r>     0.3307     0.0000   145.0000 </r>
       <r>     0.3682     0.0000   146.0000 </r>
       <r>     0.4057     0.0000   146.0000 </r>
       <r>     0.4432     0.0000   147.0000 </r>
       <r>     0.4808     0.0000   148.0000 </r>
       <r>     0.5183     0.0000   148.0000 </r>
       <r>     0.5558     0.0000   148.0000 </r>
       <r>     0.5933     0.0000   150.0000 </r>
       <r>     0.6308     0.0000   150.0000 </r>
       <r>     0.6683     0.0000   151.0000 </r>
       <r>     0.7059     0.0000   153.0000 </r>
       <r>     0.7434     0.0000   154.0000 </r>
       <r>     0.7809     0.0000   155.0000 </r>
       <r>     0.8184     0.0000   156.0000 </r>
       <r>     0.8559     0.0000   156.0000 </r>
       <r>     0.8934     0.0000   156.0000 </r>
       <r>     0.9309     0.0000   156.0000 </r>
       <r>     0.9685     0.0000   156.0000 </r>
       <r>     1.0060     0.0000   156.0000 </r>
       <r>     1.0435     0.0000   156.0000 </r>
       <r>     1.0810     0.0000   156.0000 </r>
       <r>     1.1185     0.0000   156.0000 </r>
       <r>     1.1560     0.0000   156.0000 </r>
       <r>     1.1935     0.0000   156.0000 </r>
       <r>     1.2311     0.0000   156.0000 </r>
       <r>     1.2686     0.0000   156.0000 </r>
       <r>     1.3061     0.0000   156.0000 </r>
      </set>
      <set comment="spin 2">
       <r>    -9.9484     0.0000     0.0000 </r>
       <r>    -9.9109     0.0000     0.0000 </r>
       <r>    -9.8733     0.0000     0.0000 </r>
       <r>    -9.8358     0.0000     0.0000 </r>
       <r>    -9.7983     0.0000     0.0000 </r>
       <r>    -9.7608     0.0000     0.0000 </r>
       <r>    -9.7233     0.0000     0.0000 </r>
       <r>    -9.6858     0.0000     0.0000 </r>
       <r>    -9.6483     0.0000     0.0000 </r>
       <r>    -9.6107     0.0000     0.0000 </r>
       <r>    -9.5732     0.0000     0.0000 </r>
       <r>    -9.5357     0.0000     0.0000 </r>
       <r>    -9.4982     0.0000     0.0000 </r>
       <r>    -9.4607     0.0000     0.0000 </r>
       <r>    -9.4232     0.0000     1.0000 </r>
       <r>    -9.3857     0.0000     1.0000 </r>
       <r>    -9.3481     0.0000     1.0000 </r>
       <r>    -9.3106     0.0000     1.0000 </r>
       <r>    -9.2731     0.0000     1.0000 </r>
       <r>    -9.2356     0.0000     1.0000 </r>
       <r>    -9.1981     0.0000     1.0000 </r>
       <r>    -9.1606     0.0000     1.0000 </r>
       <r>    -9.1230     0.0000     2.0000 </r>
       <r>    -9.0855     0.0000     3.0000 </r>
       <r>    -9.0480     0.0000     3.0000 </r>
       <r>    -9.0105     0.0000     3.0000 </r>
       <r>    -8.9730     0.0000     3.0000 </r>
       <r>    -8.9355     0.0000     3.0000 </r>
       <r>    -8.8980     0.0000     4.0000 </r>
       <r>    -8.8604     0.0000     5.0000 </r>
       <r>    -8.8229     0.0000     6.0000 </r>
       <r>    -8.7854     0.0000     7.0000 </r>
       <r>    -8.7479     0.0000     8.0000 </r>
       <r>    -8.7104     0.0000    10.0000 </r>
       <r>    -8.6729     0.0000    12.0000 </r>
       <r>    -8.6354     0.0000    12.0000 </r>
       <r>    -8.5978     0.0000    13.0000 </r>
       <r>    -8.5603     0.0000    15.0000 </r>
       <r>    -8.5228     0.0000    16.0000 </r>
       <r>    -8.4853     0.0000    17.0000 </r>
       <r>    -8.4478     0.0000    18.0000 </r>
       <r>    -8.4103     0.0000    20.0000 </r>
       <r>    -8.3728     0.0000    21.0000 </r>
       <r>    -8.3352     0.0000    22.0000 </r>
       <r>    -8.2977     0.0000    24.0000 </r>
       <r>    -8.2602     0.0000    24.0000 </r>
       <r>    -8.2227     0.0000    25.0000 </r>
       <r>    -8.1852     0.0000    27.0000 </r>
       <r>    -8.1477     0.0000    28.0000 </r>
       <r>    -8.1101     0.0000    29.0000 </r>
       <r>    -8.0726     0.0000    31.0000 </r>
       <r>    -8.0351     0.0000    32.0000 </r>
       <r>    -7.9976     0.0000    33.0000 </r>
       <r>    -7.9601     0.0000    34.0000 </r>
       <r>    -7.9226     0.0004    36.0000 </r>
       <r>    -7.8851     0.0000    38.0000 </r>
       <r>    -7.8475     0.0000    38.0000 </r>
       <r>    -7.8100     0.0000    40.0000 </r>
       <r>    -7.7725     0.0000    42.0000 </r>
       <r>    -7.7350     0.0000    42.0000 </r>
       <r>    -7.6975     0.0000    44.0000 </r>
       <r>    -7.6600     0.0000    45.0000 </r>
       <r>    -7.6225     0.0000    46.0000 </r>
       <r>    -7.5849     0.0000    47.0000 </r>
       <r>    -7.5474     0.0000    50.0000 </r>
       <r>    -7.5099     0.0000    50.0000 </r>
       <r>    -7.4724     0.0000    52.0000 </r>
       <r>    -7.4349     0.0000    54.0000 </r>
       <r>    -7.3974     0.0000    55.0000 </r>
       <r>    -7.3598     0.0000    56.0000 </r>
       <r>    -7.3223     0.0000    58.0000 </r>
       <r>    -7.2848     0.0000    60.0000 </r>
       <r>    -7.2473     0.0000    61.0000 </r>
       <r>    -7.2098     0.0000    63.0000 </r>
       <r>    -7.1723     0.0000    65.0000 </r>
       <r>    -7.1348     0.0000    67.0000 </r>
       <r>    -7.0972     0.0000    68.0000 </r>
       <r>    -7.0597     0.0000    70.0000 </r>
       <r>    -7.0222     0.0000    72.0000 </r>
       <r>    -6.9847     0.0000    74.0000 </r>
       <r>    -6.9472     0.0000    77.0000 </r>
       <r>    -6.9097     0.0000    78.0000 </r>
       <r>    -6.8722     0.0000    81.0000 </r>
       <r>    -6.8346     0.0000    83.0000 </r>
       <r>    -6.7971     0.0000    85.0000 </r>
       <r>    -6.7596     0.0000    87.0000 </r>
       <r>    -6.7221     0.0000    90.0000 </r>
       <r>    -6.6846     0.0000    92.0000 </r>
       <r>    -6.6471     0.0000    94.0000 </r>
       <r>    -6.6096     0.0000    95.0000 </r>
       <r>    -6.5720     0.0000    97.0000 </r>
       <r>    -6.5345     0.0000    98.0000 </r>
       <r>    -6.4970     0.0000   100.0000 </r>
       <r>    -6.4595     0.0000   103.0000 </r>
       <r>    -6.4220     0.0000   105.0000 </r>
       <r>    -6.3845     0.0000   106.0000 </r>
       <r>    -6.3469     0.0000   108.0000 </r>
       <r>    -6.3094     0.0000   108.0000 </r>
       <r>    -6.2719     0.0000   110.0000 </r>
       <r>    -6.2344     0.0000   111.0000 </r>
       <r>    -6.1969     0.0000   112.0000 </r>
       <r>    -6.1594     0.0000   113.0000 </r>
       <r>    -6.1219     0.0000   113.0000 </r>
       <r>    -6.0843     0.0000   114.0000 </r>
       <r>    -6.0468     0.0000   114.0000 </r>
       <r>    -6.0093     0.0000   114.0000 </r>
       <r>    -5.9718     0.0000   114.0000 </r>
       <r>    -5.9343     0.0000   114.0000 </r>
       <r>    -5.8968     0.0000   114.0000 </r>
       <r>    -5.8593     0.0000   114.0000 </r>
       <r>    -5.8217     0.0000   114.0000 </r>
       <r>    -5.7842     0.0000   114.0000 </r>
       <r>    -5.7467     0.0000   114.0000 </r>
       <r>    -5.7092     0.0000   114.0000 </r>
       <r>    -5.6717     0.0000   114.0000 </r>
       <r>    -5.6342     0.0000   114.0000 </r>
       <r>    -5.5966     0.0000   114.0000 </r>
       <r>    -5.5591     0.0000   114.0000 </r>
       <r>    -5.5216     0.0000   114.0000 </r>
       <r>    -5.4841     0.0000   114.0000 </r>
       <r>    -5.4466     0.0000   114.0000 </r>
       <r>    -5.4091     0.0000   114.0000 </r>
       <r>    -5.3716     0.0000   114.0000 </r>
       <r>    -5.3340     0.0000   115.0000 </r>
       <r>    -5.2965     0.0000   116.0000 </r>
       <r>    -5.2590     0.0000   116.0000 </r>
       <r>    -5.2215     0.0000   116.0000 </r>
       <r>    -5.1840     0.0000   116.0000 </r>
       <r>    -5.1465     0.0000   116.0000 </r>
       <r>    -5.1090     0.0000   116.0000 </r>
       <r>    -5.0714     0.0000   116.0000 </r>
       <r>    -5.0339     0.0000   116.0000 </r>
       <r>    -4.9964     0.0000   116.0000 </r>
       <r>    -4.9589     0.0000   116.0000 </r>
       <r>    -4.9214     0.0000   116.0000 </r>
       <r>    -4.8839     0.0000   116.0000 </r>
       <r>    -4.8464     0.0000   117.0000 </r>
       <r>    -4.8088     0.0000   117.0000 </r>
       <r>    -4.7713     0.0000   117.0000 </r>
       <r>    -4.7338     0.0000   117.0000 </r>
       <r>    -4.6963     0.0000   118.0000 </r>
       <r>    -4.6588     0.0000   118.0000 </r>
       <r>    -4.6213     0.0000   118.0000 </r>
       <r>    -4.5837     0.0000   118.0000 </r>
       <r>    -4.5462     0.0000   118.0000 </r>
       <r>    -4.5087     0.0000   118.0000 </r>
       <r>    -4.4712     0.0000   118.0000 </r>
       <r>    -4.4337     0.0000   118.0000 </r>
       <r>    -4.3962     0.0000   118.0000 </r>
       <r>    -4.3587     0.0000   118.0000 </r>
       <r>    -4.3211     0.0000   118.0000 </r>
       <r>    -4.2836     0.0000   118.0000 </r>
       <r>    -4.2461     0.0000   118.0000 </r>
       <r>    -4.2086     0.0000   118.0000 </r>
       <r>    -4.1711     0.0000   118.0000 </r>
       <r>    -4.1336     0.0000   118.0000 </r>
       <r>    -4.0961     0.0000   118.0000 </r>
       <r>    -4.0585     0.0000   119.0000 </r>
       <r>    -4.0210     0.0000   119.0000 </r>
       <r>    -3.9835     0.0000   119.0000 </r>
       <r>    -3.9460     0.0000   119.0000 </r>
       <r>    -3.9085     0.0000   119.0000 </r>
       <r>    -3.8710     0.0000   119.0000 </r>
       <r>    -3.8334     0.0000   119.0000 </r>
       <r>    -3.7959     0.0000   119.0000 </r>
       <r>    -3.7584     0.0000   119.0000 </r>
       <r>    -3.7209     0.0000   120.0000 </r>
       <r>    -3.6834     0.0000   121.0000 </r>
       <r>    -3.6459     0.0000   121.0000 </r>
       <r>    -3.6084     0.0000   121.0000 </r>
       <r>    -3.5708     0.0000   121.0000 </r>
       <r>    -3.5333     0.0000   121.0000 </r>
       <r>    -3.4958     0.0000   121.0000 </r>
       <r>    -3.4583     0.0000   121.0000 </r>
       <r>    -3.4208     0.0000   122.0000 </r>
       <r>    -3.3833     0.0000   122.0000 </r>
       <r>    -3.3458     0.0000   122.0000 </r>
       <r>    -3.3082     0.0000   122.0000 </r>
       <r>    -3.2707     0.0000   122.0000 </r>
       <r>    -3.2332     0.0000   122.0000 </r>
       <r>    -3.1957     0.0000   122.0000 </r>
       <r>    -3.1582     0.0000   122.0000 </r>
       <r>    -3.1207     0.0000   122.0000 </r>
       <r>    -3.0832     0.0000   122.0000 </r>
       <r>    -3.0456     0.0000   123.0000 </r>
       <r>    -3.0081     0.0000   123.0000 </r>
       <r>    -2.9706     0.0000   123.0000 </r>
       <r>    -2.9331     0.0000   123.0000 </r>
       <r>    -2.8956     0.0000   123.0000 </r>
       <r>    -2.8581     0.0000   124.0000 </r>
       <r>    -2.8205     0.0000   124.0000 </r>
       <r>    -2.7830     0.0000   124.0000 </r>
       <r>    -2.7455     0.0000   124.0000 </r>
       <r>    -2.7080     0.0000   124.0000 </r>
       <r>    -2.6705     0.0000   124.0000 </r>
       <r>    -2.6330     0.0000   124.0000 </r>
       <r>    -2.5955     0.0000   125.0000 </r>
       <r>    -2.5579     0.0000   125.0000 </r>
       <r>    -2.5204     0.0000   125.0000 </r>
       <r>    -2.4829     0.0000   125.0000 </r>
       <r>    -2.4454     0.0000   125.0000 </r>
       <r>    -2.4079     0.0000   125.0000 </r>
       <r>    -2.3704     0.0000   126.0000 </r>
       <r>    -2.3329     0.0000   126.0000 </r>
       <r>    -2.2953     0.0000   126.0000 </r>
       <r>    -2.2578     0.0000   126.0000 </r>
       <r>    -2.2203     0.0000   126.0000 </r>
       <r>    -2.1828     0.0000   127.0000 </r>
       <r>    -2.1453     0.0000   128.0000 </r>
       <r>    -2.1078     0.0000   128.0000 </r>
       <r>    -2.0702     0.0000   128.0000 </r>
       <r>    -2.0327     0.0000   128.0000 </r>
       <r>    -1.9952     0.0000   128.0000 </r>
       <r>    -1.9577     0.0000   128.0000 </r>
       <r>    -1.9202     0.0000   128.0000 </r>
       <r>    -1.8827     0.0000   129.0000 </r>
       <r>    -1.8452     0.0000   129.0000 </r>
       <r>    -1.8076     0.0000   129.0000 </r>
       <r>    -1.7701     0.0000   130.0000 </r>
       <r>    -1.7326     0.0000   130.0000 </r>
       <r>    -1.6951     0.0000   130.0000 </r>
       <r>    -1.6576     0.0000   130.0000 </r>
       <r>    -1.6201     0.0000   130.0000 </r>
       <r>    -1.5826     0.0000   131.0000 </r>
       <r>    -1.5450     0.0000   131.0000 </r>
       <r>    -1.5075     0.0000   131.0000 </r>
       <r>    -1.4700     0.0000   132.0000 </r>
       <r>    -1.4325     0.0000   132.0000 </r>
       <r>    -1.3950     0.0000   132.0000 </r>
       <r>    -1.3575     0.0000   133.0000 </r>
       <r>    -1.3200     0.0000   133.0000 </r>
       <r>    -1.2824     0.0000   133.0000 </r>
       <r>    -1.2449     0.0000   133.0000 </r>
       <r>    -1.2074     0.0000   133.0000 </r>
       <r>    -1.1699     0.0000   133.0000 </r>
       <r>    -1.1324     0.0000   133.0000 </r>
       <r>    -1.0949     0.0000   133.0000 </r>
       <r>    -1.0573     0.0000   134.0000 </r>
       <r>    -1.0198     0.0000   134.0000 </r>
       <r>    -0.9823     0.0000   134.0000 </r>
       <r>    -0.9448    26.5726   134.9969 </r>
       <r>    -0.9073     0.0000   135.0000 </r>
       <r>    -0.8698     0.0000   135.0000 </r>
       <r>    -0.8323     0.0000   136.0000 </r>
       <r>    -0.7947     0.0000   136.0000 </r>
       <r>    -0.7572     0.0000   136.0000 </r>
       <r>    -0.7197     0.0000   137.0000 </r>
       <r>    -0.6822     0.0000   137.0000 </r>
       <r>    -0.6447     0.0000   137.0000 </r>
       <r>    -0.6072     0.0000   138.0000 </r>
       <r>    -0.5697     0.0000   138.0000 </r>
       <r>    -0.5321     0.0000   138.0000 </r>
       <r>    -0.4946     0.0000   139.0000 </r>
       <r>    -0.4571     0.0000   139.0000 </r>
       <r>    -0.4196     0.0000   139.0000 </r>
       <r>    -0.3821     0.0000   139.0000 </r>
       <r>    -0.3446     0.0000   140.0000 </r>
       <r>    -0.3071     0.0000   140.0000 </r>
       <r>    -0.2695     0.0000   141.0000 </r>
       <r>    -0.2320     0.0480   141.0018 </r>
       <r>    -0.1945     0.0000   143.0000 </r>
       <r>    -0.1570     0.0000   143.0000 </r>
       <r>    -0.1195     0.0000   143.0000 </r>
       <r>    -0.0820     0.0000   144.0000 </r>
       <r>    -0.0444     0.0000   144.0000 </r>
       <r>    -0.0069     0.0000   144.0000 </r>
       <r>     0.0306     0.0000   144.0000 </r>
       <r>     0.0681     0.0000   144.0000 </r>
       <r>     0.1056     0.0000   145.0000 </r>
       <r>     0.1431     0.0000   145.0000 </r>
       <r>     0.1806     0.0000   145.0000 </r>
       <r>     0.2182     0.0000   145.0000 </r>
       <r>     0.2557     0.0000   145.0000 </r>
       <r>     0.2932     0.0000   145.0000 </r>
       <r>     0.3307     0.0000   145.0000 </r>
       <r>     0.3682     0.0000   146.0000 </r>
       <r>     0.4057     0.0000   146.0000 </r>
       <r>     0.4432     0.0000   147.0000 </r>
       <r>     0.4808     0.0000   148.0000 </r>
       <r>     0.5183     0.0000   148.0000 </r>
       <r>     0.5558     0.0000   148.0000 </r>
       <r>     0.5933     0.0000   150.0000 </r>
       <r>     0.6308     0.0000   150.0000 </r>
       <r>     0.6683     0.0000   151.0000 </r>
       <r>     0.7059     0.0000   153.0000 </r>
       <r>     0.7434     0.0000   154.0000 </r>
       <r>     0.7809     0.0000   155.0000 </r>
       <r>     0.8184     0.0000   156.0000 </r>
       <r>     0.8559     0.0000   156.0000 </r>
       <r>     0.8934     0.0000   156.0000 </r>
       <r>     0.9309     0.0000   156.0000 </r>
       <r>     0.9685     0.0000   156.0000 </r>
       <r>     1.0060     0.0000   156.0000 </r>
       <r>     1.0435     0.0000   156.0000 </r>
       <r>     1.0810     0.0000   156.0000 </r>
       <r>     1.1185     0.0000   156.0000 </r>
       <r>     1.1560     0.0000   156.0000 </r>
       <r>     1.1935     0.0000   156.0000 </r>
       <r>     1.2311     0.0000   156.0000 </r>
       <r>     1.2686     0.0000   156.0000 </r>
       <r>     1.3061     0.0000   156.0000 </r>
      </set>
     </set>
    </array>
   </total>
  </dos>
 </calculation>
 <structure name="finalpos" >
  <crystal>
   <varray name="basis" >
    <v>      21.34991393       0.00000000       0.00000000 </v>
    <v>       0.00000000      21.34991393       0.00000000 </v>
    <v>       0.00000000       0.00000000      21.34991393 </v>
   </varray>
   <i name="volume">   9731.69267602 </i>
   <varray name="rec_basis" >
    <v>       0.04683860       0.00000000       0.00000000 </v>
    <v>       0.00000000       0.04683860       0.00000000 </v>
    <v>       0.00000000       0.00000000       0.04683860 </v>
   </varray>
  </crystal>
  <varray name="positions" >
   <v>       0.36206026       0.40535907       0.58286220 </v>
   <v>       0.37456753       0.53519198       0.59396634 </v>
   <v>       0.41473402       0.47610987       0.48662277 </v>
   <v>       0.42089947       0.43832543       0.36465650 </v>
   <v>       0.47589791       0.36027673       0.51967849 </v>
   <v>       0.47762531       0.45592629       0.60983003 </v>
   <v>       0.41973177       0.60898400       0.49965817 </v>
   <v>       0.46324700       0.55533884       0.39022033 </v>
   <v>       0.53078578       0.43969378       0.42818750 </v>
   <v>       0.59221281       0.33042233       0.46752027 </v>
   <v>       0.49580834       0.58925591       0.60904794 </v>
   <v>       0.59215335       0.40165538       0.58124960 </v>
   <v>       0.62867376       0.39228769       0.35949107 </v>
   <v>       0.47479280       0.71259061       0.55714166 </v>
   <v>       0.57197398       0.50114047       0.68149229 </v>
   <v>       0.50886519       0.66931895       0.42584146 </v>
   <v>       0.65312374       0.44939849       0.47312235 </v>
   <v>       0.60818986       0.52868868       0.56225455 </v>
   <v>       0.58557179       0.55941055       0.43857788 </v>
   <v>       0.61682857       0.62347154       0.65356633 </v>
   <v>       0.58611212       0.65235864       0.53029478 </v>
   <v>       0.57986506       0.74851517       0.61843792 </v>
  </varray>
 </structure>
</modeling>
