unknown system                          
           1
    20.924347    0.000000    0.000000
     0.000000   20.924347    0.000000
     0.000000    0.000000   20.924347
   Ag
  25
Direct configuration=     1
   0.66117515  0.62902851  0.33330510
   0.52154702  0.43077822  0.55858389
   0.62019939  0.28062631  0.46090152
   0.61121087  0.64136570  0.44855447
   0.62362578  0.51810295  0.38366569
   0.60965269  0.41082330  0.45639977
   0.59578807  0.52558597  0.51355869
   0.59909783  0.63805669  0.57811108
   0.54185564  0.53215133  0.64376500
   0.62274915  0.61244854  0.69855015
   0.56076811  0.33292166  0.35818937
   0.50861386  0.44919449  0.36898823
   0.49915287  0.33044180  0.47213752
   0.44453161  0.44846106  0.66289992
   0.51112254  0.58316956  0.37131162
   0.49368117  0.63409232  0.50240201
   0.42079940  0.34395656  0.57091057
   0.39569065  0.51053916  0.36416643
   0.40831524  0.42207055  0.46080628
   0.42546386  0.55343938  0.58727844
   0.39726934  0.63211822  0.40990180
   0.34640974  0.36601241  0.67391125
   0.34464670  0.53605307  0.48280885
   0.36839557  0.65832457  0.53360796
   0.33733667  0.44923269  0.57463908
Direct configuration=     2
   0.66118222  0.62906863  0.33316349
   0.52149699  0.43074322  0.55854790
   0.62027221  0.28051494  0.46093854
   0.61124829  0.64137079  0.44849861
   0.62369259  0.51807603  0.38364209
   0.60964892  0.41072008  0.45640554
   0.59577375  0.52568996  0.51356325
   0.59911353  0.63813547  0.57819914
   0.54194501  0.53219683  0.64372083
   0.62285055  0.61249475  0.69874637
   0.56082609  0.33283679  0.35806554
   0.50865416  0.44916243  0.36907506
   0.49925898  0.33039836  0.47203620
   0.44447716  0.44840150  0.66297269
   0.51122649  0.58323747  0.37128297
   0.49362657  0.63404645  0.50236681
   0.42073092  0.34393582  0.57099967
   0.39559689  0.51057820  0.36406346
   0.40830128  0.42207338  0.46084016
   0.42547866  0.55340234  0.58724561
   0.39719262  0.63221499  0.40984783
   0.34629457  0.36590893  0.67405586
   0.34457392  0.53617889  0.48272021
   0.36830226  0.65841531  0.53365743
   0.33733428  0.44919349  0.57469946
Direct configuration=     3
   0.66120344  0.62918899  0.33273865
   0.52134692  0.43063819  0.55843993
   0.62049068  0.28018085  0.46104961
   0.61136054  0.64138603  0.44833103
   0.62389303  0.51799527  0.38357127
   0.60963761  0.41041040  0.45642282
   0.59573078  0.52600192  0.51357695
   0.59916065  0.63837181  0.57846334
   0.54221312  0.53233333  0.64358831
   0.62315477  0.61263340  0.69933503
   0.56100001  0.33258218  0.35769404
   0.50877506  0.44906625  0.36933554
   0.49957732  0.33026803  0.47173222
   0.44431381  0.44822282  0.66319100
   0.51153834  0.58344119  0.37119702
   0.49346277  0.63390883  0.50226122
   0.42052545  0.34387359  0.57126697
   0.39531561  0.51069531  0.36375455
   0.40825942  0.42208189  0.46094181
   0.42552304  0.55329121  0.58714709
   0.39696248  0.63250530  0.40968593
   0.34594903  0.36559847  0.67448967
   0.34435561  0.53655634  0.48245427
   0.36802232  0.65868754  0.53380583
   0.33732711  0.44907587  0.57488060
Direct configuration=     4
   0.66124588  0.62942972  0.33188898
   0.52104678  0.43042813  0.55822400
   0.62092760  0.27951266  0.46127174
   0.61158505  0.64141653  0.44799587
   0.62429389  0.51783375  0.38342963
   0.60961499  0.40979106  0.45645739
   0.59564484  0.52662586  0.51360435
   0.59925489  0.63884450  0.57899173
   0.54274933  0.53260633  0.64332328
   0.62376319  0.61291068  0.70051236
   0.56134785  0.33207296  0.35695104
   0.50901686  0.44887390  0.36985649
   0.50021401  0.33000737  0.47112426
   0.44398712  0.44786546  0.66362761
   0.51216203  0.58384865  0.37102513
   0.49313516  0.63363360  0.50205003
   0.42011452  0.34374913  0.57180158
   0.39475305  0.51092953  0.36313672
   0.40817570  0.42209890  0.46114510
   0.42561180  0.55306895  0.58695006
   0.39650219  0.63308591  0.40936213
   0.34525797  0.36497755  0.67535730
   0.34391898  0.53731125  0.48192239
   0.36746245  0.65923200  0.53410264
   0.33731275  0.44884065  0.57524288
Direct configuration=     5
   0.66133077  0.62991117  0.33018963
   0.52044650  0.43000802  0.55779212
   0.62180145  0.27817628  0.46171601
   0.61203407  0.64147752  0.44732555
   0.62509563  0.51751072  0.38314635
   0.60956974  0.40855237  0.45652653
   0.59547297  0.52787372  0.51365914
   0.59944336  0.63978987  0.58004850
   0.54382177  0.53315234  0.64279320
   0.62498005  0.61346525  0.70286702
   0.56204353  0.33105452  0.35546505
   0.50950046  0.44848919  0.37089840
   0.50148738  0.32948605  0.46990835
   0.44333374  0.44715075  0.66450083
   0.51340943  0.58466356  0.37068136
   0.49247994  0.63308314  0.50162766
   0.41929266  0.34350021  0.57287080
   0.39362793  0.51139798  0.36190107
   0.40800827  0.42213291  0.46155170
   0.42578933  0.55262443  0.58655601
   0.39558160  0.63424714  0.40871454
   0.34387585  0.36373571  0.67709256
   0.34304572  0.53882106  0.48085863
   0.36634271  0.66032091  0.53469626
   0.33728405  0.44837020  0.57596745
Direct configuration=     6
   0.66134579  0.62999640  0.32988879
   0.52034023  0.42993364  0.55771567
   0.62195615  0.27793970  0.46179466
   0.61211357  0.64148832  0.44720688
   0.62523756  0.51745353  0.38309621
   0.60956173  0.40833308  0.45653877
   0.59544255  0.52809464  0.51366884
   0.59947672  0.63995724  0.58023559
   0.54401163  0.53324900  0.64269936
   0.62519547  0.61356342  0.70328387
   0.56216669  0.33087423  0.35520198
   0.50958608  0.44842108  0.37108286
   0.50171281  0.32939376  0.46969309
   0.44321807  0.44702422  0.66465542
   0.51363026  0.58480783  0.37062049
   0.49236395  0.63298569  0.50155289
   0.41914716  0.34345614  0.57306009
   0.39342875  0.51148091  0.36168232
   0.40797862  0.42213894  0.46162368
   0.42582076  0.55254574  0.58648624
   0.39541863  0.63445271  0.40859989
   0.34363117  0.36351586  0.67739975
   0.34289113  0.53908835  0.48067031
   0.36614447  0.66051369  0.53480135
   0.33727896  0.44828691  0.57609572
Direct configuration=     7
   0.66108982  0.62995428  0.32943752
   0.52003272  0.43013427  0.55760243
   0.62223570  0.27746903  0.46167032
   0.61223454  0.64154195  0.44711041
   0.62566456  0.51733059  0.38316406
   0.60971240  0.40852723  0.45665545
   0.59515461  0.52783993  0.51340520
   0.59947650  0.64029020  0.58071784
   0.54423447  0.53330131  0.64265705
   0.62542640  0.61370920  0.70367573
   0.56263480  0.33049845  0.35490321
   0.50942182  0.44844456  0.37163207
   0.50122437  0.32948590  0.46983866
   0.44322410  0.44698196  0.66473346
   0.51355159  0.58502368  0.37054176
   0.49235699  0.63278697  0.50135288
   0.41932722  0.34329338  0.57287707
   0.39359697  0.51164352  0.36150582
   0.40797280  0.42239868  0.46183104
   0.42577189  0.55218800  0.58618122
   0.39543965  0.63475582  0.40834632
   0.34329596  0.36319853  0.67784485
   0.34271507  0.53895356  0.48085407
   0.36602067  0.66063676  0.53480372
   0.33728328  0.44860722  0.57601256
Direct configuration=     8
   0.66067608  0.62988618  0.32870814
   0.51953570  0.43045853  0.55741940
   0.62268753  0.27670830  0.46146935
   0.61243008  0.64162864  0.44695449
   0.62635473  0.51713189  0.38327374
   0.60995594  0.40884104  0.45684405
   0.59468921  0.52742825  0.51297907
   0.59947614  0.64082838  0.58149730
   0.54459465  0.53338584  0.64258866
   0.62579964  0.61394482  0.70430908
   0.56339141  0.32989107  0.35442031
   0.50915634  0.44848251  0.37251976
   0.50043492  0.32963484  0.47007394
   0.44323384  0.44691366  0.66485959
   0.51342444  0.58537257  0.37041449
   0.49234574  0.63246580  0.50102960
   0.41961826  0.34303032  0.57258127
   0.39386886  0.51190635  0.36122054
   0.40796339  0.42281852  0.46216620
   0.42569290  0.55160979  0.58568822
   0.39547362  0.63524575  0.40793648
   0.34275415  0.36268563  0.67856425
   0.34243050  0.53873570  0.48115107
   0.36582057  0.66083569  0.53480754
   0.33729025  0.44912494  0.57587815
Direct configuration=     9
   0.66005752  0.62966348  0.32824236
   0.51904522  0.43087426  0.55733064
   0.62262033  0.27653771  0.46107320
   0.61253719  0.64157009  0.44703008
   0.62674032  0.51718188  0.38328845
   0.61008332  0.40861700  0.45694904
   0.59421455  0.52753589  0.51272453
   0.59931037  0.64090742  0.58172290
   0.54477886  0.53345886  0.64258397
   0.62595958  0.61406285  0.70460458
   0.56393528  0.32970900  0.35477506
   0.50912291  0.44831821  0.37333831
   0.50036141  0.32974539  0.46981460
   0.44315765  0.44676943  0.66487023
   0.51340192  0.58548558  0.37032607
   0.49251262  0.63221821  0.50086885
   0.41951148  0.34297586  0.57270989
   0.39423368  0.51219479  0.36128986
   0.40785164  0.42338883  0.46237260
   0.42582440  0.55118689  0.58522430
   0.39551093  0.63540672  0.40783426
   0.34278172  0.36255092  0.67853707
   0.34231648  0.53873437  0.48111685
   0.36592393  0.66073784  0.53460461
   0.33730558  0.44916352  0.57612240
Direct configuration=    10
   0.65820181  0.62899539  0.32684499
   0.51757377  0.43212145  0.55706438
   0.62241874  0.27602595  0.45988475
   0.61285855  0.64139445  0.44725682
   0.62789712  0.51733183  0.38333256
   0.61046547  0.40794488  0.45726402
   0.59279058  0.52785882  0.51196089
   0.59881306  0.64114452  0.58239970
   0.54533149  0.53367791  0.64256989
   0.62643937  0.61441695  0.70549109
   0.56556689  0.32916278  0.35583933
   0.50902262  0.44782533  0.37579397
   0.50014086  0.33007707  0.46903659
   0.44292908  0.44633673  0.66490216
   0.51333437  0.58582458  0.37006080
   0.49301327  0.63147543  0.50038657
   0.41919113  0.34281246  0.57309577
   0.39532815  0.51306012  0.36149781
   0.40751641  0.42509976  0.46299180
   0.42621891  0.54991820  0.58383252
   0.39562284  0.63588964  0.40752762
   0.34286441  0.36214680  0.67845554
   0.34197442  0.53873038  0.48101418
   0.36623401  0.66044431  0.53399580
   0.33735158  0.44927927  0.57685515
Direct configuration=    11
   0.65687649  0.62884599  0.32625104
   0.51685683  0.43243707  0.55661215
   0.62239563  0.27560734  0.45974821
   0.61325109  0.64135214  0.44719861
   0.62784122  0.51704243  0.38355497
   0.61076195  0.40796062  0.45773993
   0.59218311  0.52819383  0.51164025
   0.59857399  0.64093981  0.58242781
   0.54535201  0.53373200  0.64275063
   0.62644228  0.61448986  0.70555086
   0.56611700  0.32949033  0.35585734
   0.50945849  0.44754260  0.37688874
   0.49986760  0.33060863  0.46888855
   0.44296925  0.44623946  0.66513675
   0.51384864  0.58569914  0.36988489
   0.49307734  0.63130817  0.50029617
   0.41914172  0.34280702  0.57296323
   0.39577821  0.51336871  0.36162207
   0.40744402  0.42543102  0.46345253
   0.42685514  0.54946456  0.58326736
   0.39566287  0.63602953  0.40759653
   0.34302885  0.36202416  0.67829937
   0.34155317  0.53915494  0.48066864
   0.36665057  0.66012179  0.53376245
   0.33711143  0.44910386  0.57729563
Direct configuration=    12
   0.65313610  0.62842433  0.32457475
   0.51483345  0.43332783  0.55533584
   0.62233041  0.27442592  0.45936285
   0.61435892  0.64123273  0.44703430
   0.62768345  0.51622567  0.38418267
   0.61159872  0.40800504  0.45908308
   0.59046868  0.52913933  0.51073532
   0.59789927  0.64036205  0.58250715
   0.54540992  0.53388463  0.64326073
   0.62645051  0.61469563  0.70571955
   0.56766955  0.33041475  0.35590818
   0.51068863  0.44674468  0.37997843
   0.49909639  0.33210882  0.46847075
   0.44308259  0.44596492  0.66579883
   0.51530003  0.58534512  0.36938842
   0.49325815  0.63083610  0.50004102
   0.41900227  0.34279166  0.57258917
   0.39704842  0.51423963  0.36197274
   0.40723971  0.42636594  0.46475279
   0.42865075  0.54818430  0.58167234
   0.39577586  0.63642432  0.40779102
   0.34349296  0.36167806  0.67785865
   0.34036432  0.54035318  0.47969345
   0.36782619  0.65921159  0.53310389
   0.33643366  0.44860879  0.57853880
Direct configuration=    13
   0.65203052  0.62828836  0.32416229
   0.51442649  0.43362745  0.55506535
   0.62221732  0.27422258  0.45936972
   0.61468644  0.64129750  0.44701852
   0.62771077  0.51598230  0.38427488
   0.61195877  0.40789871  0.45965388
   0.59002995  0.52925594  0.51060582
   0.59780900  0.64025932  0.58247952
   0.54538138  0.53379482  0.64343371
   0.62640291  0.61473541  0.70567996
   0.56805081  0.33070594  0.35587029
   0.51082016  0.44673842  0.38067974
   0.49912995  0.33234062  0.46821839
   0.44320440  0.44595301  0.66597363
   0.51562525  0.58526473  0.36925711
   0.49339988  0.63085420  0.49986667
   0.41895111  0.34273348  0.57248952
   0.39745704  0.51431748  0.36207446
   0.40697774  0.42668929  0.46500961
   0.42897863  0.54777254  0.58124248
   0.39593399  0.63653292  0.40767375
   0.34357766  0.36151163  0.67786728
   0.33999896  0.54040857  0.47960357
   0.36808454  0.65906847  0.53315958
   0.33625524  0.44874133  0.57862494
Direct configuration=    14
   0.64871379  0.62788043  0.32292493
   0.51320560  0.43452629  0.55425390
   0.62187803  0.27361258  0.45939036
   0.61566899  0.64149183  0.44697120
   0.62779275  0.51525220  0.38455153
   0.61303893  0.40757974  0.46136630
   0.58871376  0.52960576  0.51021732
   0.59753816  0.63995111  0.58239662
   0.54529576  0.53352540  0.64395265
   0.62626009  0.61485476  0.70556120
   0.56919458  0.33157952  0.35575660
   0.51121472  0.44671964  0.38278368
   0.49923065  0.33303600  0.46746133
   0.44356980  0.44591726  0.66649802
   0.51660094  0.58502355  0.36886320
   0.49382507  0.63090849  0.49934362
   0.41879764  0.34255894  0.57219058
   0.39868290  0.51455104  0.36237963
   0.40619184  0.42765933  0.46578005
   0.42996229  0.54653727  0.57995290
   0.39640839  0.63685872  0.40732194
   0.34383176  0.36101234  0.67789318
   0.33890288  0.54057472  0.47933393
   0.36885959  0.65863914  0.53332662
   0.33571999  0.44913894  0.57888339
Direct configuration=    15
   0.64208032  0.62706456  0.32045021
   0.51076383  0.43632398  0.55263101
   0.62119946  0.27239258  0.45943162
   0.61763411  0.64188048  0.44687655
   0.62795670  0.51379201  0.38510483
   0.61519925  0.40694179  0.46479114
   0.58608140  0.53030541  0.50944032
   0.59699650  0.63933470  0.58223083
   0.54512451  0.53298656  0.64499054
   0.62597445  0.61509346  0.70532367
   0.57148213  0.33332668  0.35552923
   0.51200385  0.44668208  0.38699156
   0.49943204  0.33442677  0.46594721
   0.44430061  0.44584577  0.66754680
   0.51855232  0.58454119  0.36807536
   0.49467545  0.63101707  0.49829754
   0.41849070  0.34220986  0.57159269
   0.40113463  0.51501815  0.36298996
   0.40462003  0.42959942  0.46732093
   0.43192961  0.54406673  0.57737375
   0.39735720  0.63751033  0.40661831
   0.34433996  0.36001376  0.67794498
   0.33671071  0.54090703  0.47879464
   0.37040968  0.65778047  0.53366072
   0.33464948  0.44993418  0.57940028
Direct configuration=    16
   0.64535030  0.62746674  0.32167013
   0.51196751  0.43543780  0.55343102
   0.62153397  0.27299399  0.45941128
   0.61666540  0.64168890  0.44692321
   0.62787588  0.51451181  0.38483208
   0.61413431  0.40725627  0.46310286
   0.58737903  0.52996052  0.50982335
   0.59726351  0.63963856  0.58231256
   0.54520893  0.53325219  0.64447891
   0.62611526  0.61497579  0.70544076
   0.57035448  0.33246541  0.35564131
   0.51161485  0.44670060  0.38491728
   0.49933276  0.33374119  0.46669360
   0.44394036  0.44588101  0.66702980
   0.51759038  0.58477897  0.36846373
   0.49425625  0.63096354  0.49881321
   0.41864201  0.34238194  0.57188742
   0.39992604  0.51478789  0.36268910
   0.40539486  0.42864305  0.46656135
   0.43095981  0.54528459  0.57864515
   0.39688948  0.63718912  0.40696517
   0.34408944  0.36050601  0.67791944
   0.33779134  0.54074322  0.47906049
   0.36964556  0.65820375  0.53349603
   0.33517719  0.44954217  0.57914548
Direct configuration=    17
   0.64418975  0.62719713  0.32146476
   0.51206849  0.43526082  0.55360132
   0.62123154  0.27316969  0.45956602
   0.61691806  0.64180029  0.44709040
   0.62836429  0.51423712  0.38480273
   0.61462560  0.40696302  0.46380797
   0.58731817  0.52982722  0.50975665
   0.59748436  0.63976923  0.58225813
   0.54527114  0.53302072  0.64462000
   0.62600313  0.61496908  0.70529608
   0.57067346  0.33282573  0.35564677
   0.51138042  0.44710821  0.38516929
   0.49955812  0.33357591  0.46646976
   0.44391076  0.44573337  0.66698354
   0.51745098  0.58495223  0.36839574
   0.49447869  0.63142243  0.49840463
   0.41860326  0.34243753  0.57179017
   0.40021579  0.51463986  0.36279375
   0.40499959  0.42854663  0.46631957
   0.43059368  0.54521045  0.57820364
   0.39716824  0.63707911  0.40680596
   0.34421913  0.36047278  0.67800390
   0.33750615  0.54069897  0.47915212
   0.36971232  0.65818881  0.53386437
   0.33515377  0.44988867  0.57908741
Direct configuration=    18
   0.64120112  0.62650284  0.32093590
   0.51232854  0.43480506  0.55403989
   0.62045273  0.27362215  0.45996452
   0.61756872  0.64208716  0.44752097
   0.62962206  0.51352972  0.38472713
   0.61589076  0.40620784  0.46562378
   0.58716143  0.52948396  0.50958489
   0.59805310  0.64010571  0.58211797
   0.54543135  0.53242465  0.64498334
   0.62571439  0.61495179  0.70492351
   0.57149490  0.33375363  0.35566084
   0.51077671  0.44815790  0.38581827
   0.50013848  0.33315027  0.46589335
   0.44383456  0.44535317  0.66686440
   0.51709200  0.58539841  0.36822067
   0.49505152  0.63260417  0.49735247
   0.41850347  0.34258068  0.57153971
   0.40096193  0.51425865  0.36306324
   0.40398169  0.42829835  0.46569692
   0.42965083  0.54501955  0.57706668
   0.39788611  0.63679582  0.40639599
   0.34455309  0.36038720  0.67822138
   0.33677172  0.54058503  0.47938809
   0.36988424  0.65815033  0.53481292
   0.33509344  0.45078098  0.57893786
Direct configuration=    19
   0.63943553  0.62609154  0.32067909
   0.51270342  0.43415685  0.55435242
   0.62015935  0.27373365  0.46038422
   0.61796187  0.64202491  0.44773075
   0.63006157  0.51299418  0.38493253
   0.61628901  0.40621544  0.46629697
   0.58728222  0.52938404  0.50943286
   0.59838264  0.64012079  0.58184458
   0.54524855  0.53212309  0.64474159
   0.62555673  0.61493402  0.70477901
   0.57190801  0.33478140  0.35566825
   0.51133043  0.44845999  0.38635768
   0.49999275  0.33322333  0.46589863
   0.44371621  0.44526697  0.66653362
   0.51720811  0.58565473  0.36819425
   0.49529429  0.63339901  0.49715378
   0.41841723  0.34278922  0.57121614
   0.40068646  0.51416309  0.36308108
   0.40369282  0.42747505  0.46532292
   0.42967868  0.54517852  0.57659336
   0.39796699  0.63649461  0.40666450
   0.34471596  0.36048862  0.67821021
   0.33636616  0.54083371  0.47916400
   0.37001103  0.65813159  0.53503034
   0.33503287  0.45087666  0.57909194
Direct configuration=    20
   0.63660688  0.62543261  0.32026765
   0.51330402  0.43311837  0.55485312
   0.61968933  0.27391229  0.46105662
   0.61859173  0.64192518  0.44806685
   0.63076572  0.51213621  0.38526160
   0.61692704  0.40622763  0.46737548
   0.58747573  0.52922395  0.50918930
   0.59891059  0.64014495  0.58140659
   0.54495569  0.53163996  0.64435428
   0.62530414  0.61490555  0.70454750
   0.57256984  0.33642798  0.35568012
   0.51221755  0.44894395  0.38722186
   0.49975929  0.33334038  0.46590708
   0.44352661  0.44512887  0.66600367
   0.51739413  0.58606538  0.36815193
   0.49568323  0.63467240  0.49683546
   0.41827907  0.34312333  0.57069774
   0.40024513  0.51400999  0.36310965
   0.40323002  0.42615605  0.46472374
   0.42972329  0.54543321  0.57583506
   0.39809659  0.63601205  0.40709467
   0.34497690  0.36065110  0.67819232
   0.33571642  0.54123212  0.47880497
   0.37021416  0.65810158  0.53537866
   0.33493583  0.45102995  0.57933879
Direct configuration=    21
   0.63564572  0.62515407  0.31992255
   0.51397177  0.43291174  0.55496115
   0.61953148  0.27398507  0.46128468
   0.61901282  0.64161426  0.44789063
   0.63081965  0.51210587  0.38540749
   0.61689690  0.40629261  0.46743940
   0.58728077  0.52931875  0.50932557
   0.59912102  0.63975411  0.58131678
   0.54486070  0.53187356  0.64375532
   0.62502476  0.61473842  0.70433891
   0.57301491  0.33722842  0.35611853
   0.51256082  0.44943879  0.38802744
   0.49969520  0.33341986  0.46578039
   0.44348090  0.44545352  0.66565054
   0.51736528  0.58578622  0.36849264
   0.49588875  0.63515336  0.49733699
   0.41785093  0.34299738  0.57069164
   0.39988382  0.51375735  0.36314532
   0.40301638  0.42604387  0.46448618
   0.43056789  0.54544086  0.57548439
   0.39778427  0.63584539  0.40764621
   0.34491817  0.36065766  0.67801648
   0.33571231  0.54084159  0.47856275
   0.37026517  0.65821330  0.53508301
   0.33492851  0.45096897  0.57918973
Direct configuration=    22
   0.63430422  0.62476531  0.31944089
   0.51490375  0.43262335  0.55511192
   0.61931117  0.27408666  0.46160299
   0.61960054  0.64118031  0.44764467
   0.63089491  0.51206353  0.38561112
   0.61685484  0.40638330  0.46752862
   0.58700868  0.52945106  0.50951577
   0.59941472  0.63920862  0.58119144
   0.54472813  0.53219959  0.64291935
   0.62463484  0.61450515  0.70404777
   0.57363609  0.33834560  0.35673042
   0.51303993  0.45012945  0.38915178
   0.49960574  0.33353080  0.46560356
   0.44341711  0.44590663  0.66515767
   0.51732502  0.58539660  0.36896816
   0.49617560  0.63582464  0.49803698
   0.41725337  0.34282159  0.57068311
   0.39937952  0.51340474  0.36319510
   0.40271819  0.42588729  0.46415462
   0.43174670  0.54545155  0.57499497
   0.39734836  0.63561279  0.40841599
   0.34483621  0.36066682  0.67777106
   0.33570658  0.54029654  0.47822467
   0.37033637  0.65836922  0.53467037
   0.33491829  0.45088387  0.57898170
Direct configuration=    23
   0.63366961  0.62454302  0.31885083
   0.51518340  0.43199181  0.55525015
   0.61926504  0.27408640  0.46181483
   0.61993839  0.64076058  0.44740444
   0.63107644  0.51232889  0.38570957
   0.61699363  0.40645364  0.46757776
   0.58670603  0.52955429  0.50935394
   0.59994293  0.63911224  0.58106769
   0.54491330  0.53252727  0.64266903
   0.62433337  0.61427573  0.70409754
   0.57426162  0.33902460  0.35704537
   0.51270359  0.45080192  0.39021486
   0.49931515  0.33358845  0.46567405
   0.44329713  0.44624461  0.66481405
   0.51668366  0.58499797  0.36971317
   0.49652029  0.63636673  0.49840538
   0.41718269  0.34279569  0.57040219
   0.39924027  0.51325295  0.36305177
   0.40274843  0.42579078  0.46422291
   0.43219109  0.54539719  0.57416492
   0.39720302  0.63528976  0.40865662
   0.34467070  0.36074892  0.67764798
   0.33577752  0.53973700  0.47839996
   0.37023140  0.65832950  0.53452296
   0.33505020  0.45099507  0.57862275
Direct configuration=    24
   0.63271848  0.62420985  0.31796647
   0.51560253  0.43104530  0.55545732
   0.61919591  0.27408602  0.46213234
   0.62044475  0.64013150  0.44704439
   0.63134851  0.51272661  0.38585712
   0.61720162  0.40655907  0.46765141
   0.58625243  0.52970901  0.50911140
   0.60073459  0.63896779  0.58088222
   0.54519082  0.53301837  0.64229386
   0.62388154  0.61393188  0.70417214
   0.57519913  0.34004226  0.35751740
   0.51219949  0.45180979  0.39180815
   0.49887963  0.33367484  0.46577969
   0.44311731  0.44675116  0.66429904
   0.51572241  0.58440051  0.37082976
   0.49703689  0.63717919  0.49895752
   0.41707677  0.34275686  0.56998115
   0.39903156  0.51302545  0.36283694
   0.40279374  0.42564613  0.46432526
   0.43285712  0.54531572  0.57292086
   0.39698519  0.63480562  0.40901726
   0.34442264  0.36087197  0.67746351
   0.33588384  0.53889839  0.47866268
   0.37007408  0.65826998  0.53430204
   0.33524789  0.45116174  0.57808477
Direct configuration=    25
   0.63201523  0.62394872  0.31738306
   0.51590740  0.43060155  0.55582537
   0.61912824  0.27414048  0.46232512
   0.62071707  0.63984218  0.44660507
   0.63151125  0.51301817  0.38583949
   0.61752792  0.40670192  0.46781273
   0.58553852  0.52941685  0.50884750
   0.60178959  0.63924192  0.58072014
   0.54517479  0.53293226  0.64214353
   0.62375291  0.61386038  0.70463161
   0.57565327  0.34093660  0.35783266
   0.51205026  0.45196694  0.39301765
   0.49896491  0.33338339  0.46550732
   0.44289341  0.44712996  0.66399036
   0.51524382  0.58430448  0.37165783
   0.49733247  0.63800412  0.49901989
   0.41700556  0.34268737  0.56995614
   0.39869306  0.51289332  0.36247254
   0.40281322  0.42548683  0.46447358
   0.43313812  0.54507142  0.57179907
   0.39690420  0.63435881  0.40910790
   0.34435843  0.36117128  0.67717334
   0.33574895  0.53873429  0.47875649
   0.36987473  0.65804193  0.53440188
   0.33536158  0.45111985  0.57805445
Direct configuration=    26
   0.63095387  0.62355462  0.31650256
   0.51636751  0.42993184  0.55638082
   0.61902612  0.27422267  0.46261607
   0.62112806  0.63940552  0.44594204
   0.63175685  0.51345821  0.38581288
   0.61802038  0.40691752  0.46805620
   0.58446108  0.52897593  0.50844922
   0.60338181  0.63965564  0.58047552
   0.54515060  0.53280230  0.64191665
   0.62355877  0.61375247  0.70532506
   0.57633865  0.34228633  0.35830846
   0.51182506  0.45220411  0.39484303
   0.49909362  0.33294353  0.46509626
   0.44255550  0.44770166  0.66352450
   0.51452151  0.58415955  0.37290757
   0.49777855  0.63924911  0.49911403
   0.41689810  0.34258249  0.56991839
   0.39818219  0.51269391  0.36192259
   0.40284261  0.42524641  0.46469742
   0.43356221  0.54470270  0.57010605
   0.39678197  0.63368449  0.40924469
   0.34426151  0.36162302  0.67673539
   0.33554537  0.53848662  0.47889806
   0.36957385  0.65769775  0.53455255
   0.33553315  0.45105662  0.57800870
Direct configuration=    27
   0.63009930  0.62324480  0.31598989
   0.51667617  0.42934232  0.55678398
   0.61907396  0.27438444  0.46269416
   0.62117137  0.63928781  0.44576717
   0.63164176  0.51331078  0.38566147
   0.61863571  0.40698999  0.46856517
   0.58327479  0.52942462  0.50826431
   0.60465282  0.63939717  0.58029247
   0.54517756  0.53286199  0.64181113
   0.62337552  0.61379544  0.70553864
   0.57669565  0.34321716  0.35818920
   0.51212682  0.45208396  0.39575412
   0.49932258  0.33249981  0.46498499
   0.44228336  0.44816112  0.66350506
   0.51493187  0.58436271  0.37336529
   0.49806863  0.64029601  0.49912657
   0.41711554  0.34227412  0.56999552
   0.39771120  0.51220745  0.36160545
   0.40260293  0.42510053  0.46479244
   0.43408158  0.54422394  0.56902263
   0.39653407  0.63348910  0.40947455
   0.34418690  0.36198356  0.67660105
   0.33490689  0.53873978  0.47844006
   0.36945368  0.65732375  0.53481177
   0.33529824  0.45099265  0.57831761
Direct configuration=    28
   0.62921152  0.62292293  0.31545729
   0.51699683  0.42872989  0.55720282
   0.61912366  0.27455249  0.46277529
   0.62121636  0.63916551  0.44558550
   0.63152219  0.51315761  0.38550417
   0.61927497  0.40706529  0.46909392
   0.58204240  0.52989076  0.50807221
   0.60597322  0.63912865  0.58010231
   0.54520556  0.53292401  0.64170151
   0.62318515  0.61384009  0.70576052
   0.57706652  0.34418417  0.35806530
   0.51244031  0.45195913  0.39670063
   0.49956043  0.33203885  0.46486939
   0.44200064  0.44863844  0.66348486
   0.51535818  0.58457377  0.37384080
   0.49836998  0.64138360  0.49913960
   0.41734144  0.34195376  0.57007564
   0.39722190  0.51170210  0.36127599
   0.40235394  0.42494899  0.46489116
   0.43462115  0.54372658  0.56789710
   0.39627654  0.63328612  0.40971335
   0.34410938  0.36235812  0.67646148
   0.33424359  0.53900279  0.47796425
   0.36932883  0.65693520  0.53508107
   0.33505420  0.45092619  0.57863854
Direct configuration=    29
   0.62865010  0.62267638  0.31504459
   0.51746173  0.42816410  0.55738925
   0.61943443  0.27486573  0.46251212
   0.62144347  0.63942855  0.44558765
   0.63134302  0.51240261  0.38548417
   0.61977441  0.40735517  0.47003432
   0.58044658  0.53034375  0.50757065
   0.60699662  0.63832399  0.57998474
   0.54528221  0.53324574  0.64168595
   0.62291681  0.61398926  0.70551618
   0.57754710  0.34466719  0.35777128
   0.51230348  0.45232037  0.39709955
   0.49961418  0.33198481  0.46516464
   0.44193036  0.44917586  0.66365628
   0.51528608  0.58456454  0.37400095
   0.49829107  0.64235983  0.49942143
   0.41770084  0.34168618  0.57015381
   0.39745629  0.51135400  0.36156408
   0.40199852  0.42495875  0.46514414
   0.43524503  0.54306322  0.56662606
   0.39641308  0.63305335  0.40979162
   0.34400532  0.36245485  0.67674038
   0.33339232  0.53869288  0.47757691
   0.36948176  0.65643945  0.53544699
   0.33468407  0.45142447  0.57838697
Direct configuration=    30
   0.62818510  0.62247217  0.31470277
   0.51784679  0.42769547  0.55754366
   0.61969183  0.27512518  0.46229414
   0.62163158  0.63964641  0.44558943
   0.63119463  0.51177727  0.38546760
   0.62018808  0.40759527  0.47081322
   0.57912484  0.53071895  0.50715523
   0.60784427  0.63765752  0.57988737
   0.54534570  0.53351221  0.64167306
   0.62269456  0.61411281  0.70531381
   0.57794514  0.34506725  0.35752776
   0.51219015  0.45261957  0.39742997
   0.49965869  0.33194004  0.46540918
   0.44187214  0.44962098  0.66379826
   0.51522636  0.58455690  0.37413359
   0.49822571  0.64316840  0.49965485
   0.41799852  0.34146455  0.57021856
   0.39765042  0.51106568  0.36180269
   0.40170415  0.42496684  0.46535367
   0.43576177  0.54251379  0.56557330
   0.39652617  0.63286056  0.40985644
   0.34391913  0.36253497  0.67697139
   0.33268725  0.53843620  0.47725608
   0.36960842  0.65602884  0.53575007
   0.33437751  0.45183717  0.57817861
Direct configuration=    31
   0.62788431  0.62206029  0.31478915
   0.51824035  0.42746826  0.55803081
   0.62002436  0.27558517  0.46183489
   0.62177407  0.63979659  0.44545417
   0.63107390  0.51133103  0.38539492
   0.62024673  0.40778956  0.47157125
   0.57754297  0.53095864  0.50623419
   0.60840820  0.63698902  0.57948483
   0.54510801  0.53356867  0.64151916
   0.62262878  0.61441677  0.70529768
   0.57834903  0.34555809  0.35782429